Title Card Required                                                     
Force     UM062X                                                      6-311+G(d,p)        
Number of atoms                            I                6
Info1-9                                    I   N=           9
          15          15           0           0           0         100
           5          18        -502
Full Title                                 C   N=           2
Title Card Required     
Route                                      C   N=           4
#p UM062X/6-311+G** force int=superfine         
Charge                                     I                0
Multiplicity                               I                1
Number of electrons                        I               16
Number of alpha electrons                  I                8
Number of beta electrons                   I                8
Number of basis functions                  I               68
Number of independent functions            I               68
Number of point charges in /Mol/           I                0
Number of translation vectors              I                0
Atomic numbers                             I   N=           6
           6           6           1           1           1           1
Nuclear charges                            R   N=           6
  6.00000000E+00  6.00000000E+00  1.00000000E+00  1.00000000E+00  1.00000000E+00
  1.00000000E+00
Current cartesian coordinates              R   N=          18
  8.67036244E-21  1.20254045E+00  0.00000000E+00 -1.47283182E-16 -1.20254045E+00
  2.46519033E-32  1.73735562E+00  2.29377036E+00  0.00000000E+00 -1.73707027E+00
  2.29401413E+00 -4.93038066E-32 -1.73735562E+00 -2.29377036E+00  9.86076132E-32
  1.73707027E+00 -2.29401413E+00  9.86076132E-32
Number of symbols in /Mol/                 I                0
Force Field                                I                0
Atom Types                                 C   N=           6
                                                            
            
Int Atom Types                             I   N=           6
           0           0           0           0           0           0
MM charges                                 R   N=           6
  0.00000000E+00  0.00000000E+00  0.00000000E+00  0.00000000E+00  0.00000000E+00
  0.00000000E+00
Integer atomic weights                     I   N=           6
          12          12           1           1           1           1
Real atomic weights                        R   N=           6
  1.20000000E+01  1.20000000E+01  1.00782504E+00  1.00782504E+00  1.00782504E+00
  1.00782504E+00
Atom fragment info                         I   N=           6
           0           0           0           0           0           0
Atom residue num                           I   N=           6
           0           0           0           0           0           0
Nuclear spins                              I   N=           6
           0           0           1           1           1           1
Nuclear ZEff                               R   N=           6
 -3.60000000E+00 -3.60000000E+00 -1.00000000E+00 -1.00000000E+00 -1.00000000E+00
 -1.00000000E+00
Nuclear ZNuc                               R   N=           6
  6.00000000E+00  6.00000000E+00  1.00000000E+00  1.00000000E+00  1.00000000E+00
  1.00000000E+00
Nuclear QMom                               R   N=           6
  0.00000000E+00  0.00000000E+00  0.00000000E+00  0.00000000E+00  0.00000000E+00
  0.00000000E+00
Nuclear GFac                               R   N=           6
  0.00000000E+00  0.00000000E+00  2.79284600E+00  2.79284600E+00  2.79284600E+00
  2.79284600E+00
MicOpt                                     I   N=           6
          -1          -1          -1          -1          -1          -1
Number of residues                         I                0
Number of secondary structures             I                0
SymInf integers                            I   N=          26
           2           4           1           1           1          -1
          -1           1           1           1          -1          -1
          -1          -1           0           0           0           0
           0           0           0           0           0           0
           0           0
RotTr to input orientation                 R   N=          12
  4.19133767E-17 -1.00000000E+00 -2.14953679E-21 -1.00000000E+00 -4.19157800E-17
 -1.22464680E-16  1.22464680E-16  2.14953679E-21 -1.00000000E+00 -2.77555756E-17
  0.00000000E+00  0.00000000E+00
Number of contracted shells                I               28
Number of primitive shells                 I               50
Pure/Cartesian d shells                    I                0
Pure/Cartesian f shells                    I                0
Highest angular momentum                   I                2
Largest degree of contraction              I                6
Shell types                                I   N=          28
           0          -1          -1          -1          -1          -2
           0          -1          -1          -1          -1          -2
           0           0           0           1           0           0
           0           1           0           0           0           1
           0           0           0           1
Number of primitives per shell             I   N=          28
           6           3           1           1           1           1
           6           3           1           1           1           1
           3           1           1           1           3           1
           1           1           3           1           1           1
           3           1           1           1
Shell to atom map                          I   N=          28
           1           1           1           1           1           1
           2           2           2           2           2           2
           3           3           3           3           4           4
           4           4           5           5           5           5
           6           6           6           6
Primitive exponents                        R   N=          50
  4.56324000E+03  6.82024000E+02  1.54973000E+02  4.44553000E+01  1.30290000E+01
  1.82773000E+00  2.09642000E+01  4.80331000E+00  1.45933000E+00  4.83456000E-01
  1.45585000E-01  4.38000000E-02  6.26000000E-01  4.56324000E+03  6.82024000E+02
  1.54973000E+02  4.44553000E+01  1.30290000E+01  1.82773000E+00  2.09642000E+01
  4.80331000E+00  1.45933000E+00  4.83456000E-01  1.45585000E-01  4.38000000E-02
  6.26000000E-01  3.38650000E+01  5.09479000E+00  1.15879000E+00  3.25840000E-01
  1.02741000E-01  7.50000000E-01  3.38650000E+01  5.09479000E+00  1.15879000E+00
  3.25840000E-01  1.02741000E-01  7.50000000E-01  3.38650000E+01  5.09479000E+00
  1.15879000E+00  3.25840000E-01  1.02741000E-01  7.50000000E-01  3.38650000E+01
  5.09479000E+00  1.15879000E+00  3.25840000E-01  1.02741000E-01  7.50000000E-01
Contraction coefficients                   R   N=          50
  1.96665025E-03  1.52306019E-02  7.61269097E-02  2.60801033E-01  6.16462078E-01
  2.21006028E-01  1.14660081E-01  9.19999648E-01 -3.03068213E-03  1.00000000E+00
  1.00000000E+00  1.00000000E+00  1.00000000E+00  1.96665025E-03  1.52306019E-02
  7.61269097E-02  2.60801033E-01  6.16462078E-01  2.21006028E-01  1.14660081E-01
  9.19999648E-01 -3.03068213E-03  1.00000000E+00  1.00000000E+00  1.00000000E+00
  1.00000000E+00  2.54938145E-02  1.90373109E-01  8.52161486E-01  1.00000000E+00
  1.00000000E+00  1.00000000E+00  2.54938145E-02  1.90373109E-01  8.52161486E-01
  1.00000000E+00  1.00000000E+00  1.00000000E+00  2.54938145E-02  1.90373109E-01
  8.52161486E-01  1.00000000E+00  1.00000000E+00  1.00000000E+00  2.54938145E-02
  1.90373109E-01  8.52161486E-01  1.00000000E+00  1.00000000E+00  1.00000000E+00
P(S=P) Contraction coefficients            R   N=          50
  0.00000000E+00  0.00000000E+00  0.00000000E+00  0.00000000E+00  0.00000000E+00
  0.00000000E+00  4.02486927E-02  2.37593957E-01  8.15853851E-01  1.00000000E+00
  1.00000000E+00  1.00000000E+00  0.00000000E+00  0.00000000E+00  0.00000000E+00
  0.00000000E+00  0.00000000E+00  0.00000000E+00  0.00000000E+00  4.02486927E-02
  2.37593957E-01  8.15853851E-01  1.00000000E+00  1.00000000E+00  1.00000000E+00
  0.00000000E+00  0.00000000E+00  0.00000000E+00  0.00000000E+00  0.00000000E+00
  0.00000000E+00  0.00000000E+00  0.00000000E+00  0.00000000E+00  0.00000000E+00
  0.00000000E+00  0.00000000E+00  0.00000000E+00  0.00000000E+00  0.00000000E+00
  0.00000000E+00  0.00000000E+00  0.00000000E+00  0.00000000E+00  0.00000000E+00
  0.00000000E+00  0.00000000E+00  0.00000000E+00  0.00000000E+00  0.00000000E+00
Coordinates of each shell                  R   N=          84
  5.78024162E-21  1.20254045E+00 -1.48224554E-32  5.78024162E-21  1.20254045E+00
 -1.48224554E-32  5.78024162E-21  1.20254045E+00 -1.48224554E-32  5.78024162E-21
  1.20254045E+00 -1.48224554E-32  5.78024162E-21  1.20254045E+00 -1.48224554E-32
  5.78024162E-21  1.20254045E+00 -1.48224554E-32 -1.47280291E-16 -1.20254045E+00
  4.44673662E-32 -1.47280291E-16 -1.20254045E+00  4.44673662E-32 -1.47280291E-16
 -1.20254045E+00  4.44673662E-32 -1.47280291E-16 -1.20254045E+00  4.44673662E-32
 -1.47280291E-16 -1.20254045E+00  4.44673662E-32 -1.47280291E-16 -1.20254045E+00
  4.44673662E-32  1.73735562E+00  2.29377036E+00 -2.82732293E-32  1.73735562E+00
  2.29377036E+00 -2.82732293E-32  1.73735562E+00  2.29377036E+00 -2.82732293E-32
  1.73735562E+00  2.29377036E+00 -2.82732293E-32 -1.73707027E+00  2.29401413E+00
 -2.82755806E-32 -1.73707027E+00  2.29401413E+00 -2.82755806E-32 -1.73707027E+00
  2.29401413E+00 -2.82755806E-32 -1.73707027E+00  2.29401413E+00 -2.82755806E-32
 -1.73735562E+00 -2.29377036E+00  8.48190343E-32 -1.73735562E+00 -2.29377036E+00
  8.48190343E-32 -1.73735562E+00 -2.29377036E+00  8.48190343E-32 -1.73735562E+00
 -2.29377036E+00  8.48190343E-32  1.73707027E+00 -2.29401413E+00  8.48273951E-32
  1.73707027E+00 -2.29401413E+00  8.48273951E-32  1.73707027E+00 -2.29401413E+00
  8.48273951E-32  1.73707027E+00 -2.29401413E+00  8.48273951E-32
Num ILSW                                   I              100
ILSW                                       I   N=         100
           1           0           0           0           2           0
           0           0           0           0        4336          -1
           7           0           0           0           2           0
           0           0           0           0           1           0
           1           0           0           0           0           0
           0           0      100000           0          -1           0
           0           0           0           0           0           0
           0           0           0           1           0           0
           0 -2000000000           1           0           0           0
           0           0           4          52           0           0
           0           0          55           0           0           0
           0           0           0           6           0           1
           0           0           0           0           0           0
           0           0           0           0           0           0
           0           0           0           0           0           0
           0           0           0           0           0           0
           0           0           0           0
Num RLSW                                   I               52
RLSW                                       R   N=          52
  1.00000000E+00  1.00000000E+00  1.00000000E+00  1.00000000E+00  5.40000000E-01
  0.00000000E+00  0.00000000E+00  1.00000000E+00  0.00000000E+00  0.00000000E+00
  0.00000000E+00  0.00000000E+00  1.00000000E+00  0.00000000E+00  0.00000000E+00
  0.00000000E+00  0.00000000E+00  1.00000000E+00  0.00000000E+00  0.00000000E+00
  0.00000000E+00  0.00000000E+00  1.00000000E+00  0.00000000E+00  0.00000000E+00
  0.00000000E+00  0.00000000E+00  1.00000000E+00  0.00000000E+00  0.00000000E+00
  0.00000000E+00  0.00000000E+00  1.00000000E+00  0.00000000E+00  0.00000000E+00
  0.00000000E+00  0.00000000E+00  0.00000000E+00  1.00000000E+00  1.00000000E+00
  0.00000000E+00  1.00000000E+00  0.00000000E+00  0.00000000E+00  0.00000000E+00
  0.00000000E+00  0.00000000E+00  0.00000000E+00  0.00000000E+00  0.00000000E+00
  0.00000000E+00  0.00000000E+00
MxBond                                     I                3
NBond                                      I   N=           6
           3           3           1           1           1           1
IBond                                      I   N=          18
           2           3           4           1           5           6
           1           0           0           1           0           0
           2           0           0           2           0           0
RBond                                      R   N=          18
  2.00000000E+00  1.00000000E+00  1.00000000E+00  2.00000000E+00  1.00000000E+00
  1.00000000E+00  1.00000000E+00  0.00000000E+00  0.00000000E+00  1.00000000E+00
  0.00000000E+00  0.00000000E+00  1.00000000E+00  0.00000000E+00  0.00000000E+00
  1.00000000E+00  0.00000000E+00  0.00000000E+00
Virial Ratio                               R      2.002328113840053E+00
SCF Energy                                 R     -7.855999259973851E+01
Total Energy                               R     -7.855999259973851E+01
S**2                                       R      1.776356839400250E-15
S**2 after annihilation                    R      1.136868377216160E-13
RMS Force                                  R      2.488078717147304E-02
RMS Density                                R      3.728424331549925E-09
Job Status                                 I                1
Nuclear derivative order                   I                1
External E-field                           R   N=          35
  0.00000000E+00  0.00000000E+00  0.00000000E+00  0.00000000E+00  0.00000000E+00
  0.00000000E+00  0.00000000E+00  0.00000000E+00  0.00000000E+00  0.00000000E+00
  0.00000000E+00  0.00000000E+00  0.00000000E+00  0.00000000E+00  0.00000000E+00
  0.00000000E+00  0.00000000E+00  0.00000000E+00  0.00000000E+00  0.00000000E+00
  0.00000000E+00  0.00000000E+00  0.00000000E+00  0.00000000E+00  0.00000000E+00
  0.00000000E+00  0.00000000E+00  0.00000000E+00  0.00000000E+00  0.00000000E+00
  0.00000000E+00  0.00000000E+00  0.00000000E+00  0.00000000E+00  0.00000000E+00
IOpCl                                      I                1
IROHF                                      I                0
Alpha Orbital Energies                     R   N=          68
 -1.05299791E+01 -1.05283617E+01 -8.74407539E-01 -6.57544491E-01 -5.47492728E-01
 -4.94555254E-01 -4.08230708E-01 -3.45959023E-01  3.40200931E-02  3.62119300E-02
  4.12932589E-02  5.03317345E-02  7.56263132E-02  8.29474325E-02  9.73622561E-02
  1.40197004E-01  1.60726318E-01  1.74693418E-01  1.97900523E-01  2.34717995E-01
  3.18100755E-01  3.73914805E-01  4.43471710E-01  4.45294397E-01  5.42912294E-01
  5.71946787E-01  5.75636620E-01  6.49362561E-01  6.50364277E-01  7.44842814E-01
  7.70865530E-01  7.73923007E-01  8.02734159E-01  9.50057191E-01  1.04561722E+00
  1.17343460E+00  1.17904929E+00  1.40893503E+00  1.48235129E+00  1.48482886E+00
  1.64066639E+00  1.66250772E+00  1.66601737E+00  1.67204881E+00  1.81482631E+00
  1.81920317E+00  2.01691413E+00  2.08482823E+00  2.17247020E+00  2.19061558E+00
  2.20968754E+00  2.28461893E+00  2.37626186E+00  2.49504594E+00  2.58512789E+00
  2.59071666E+00  2.67191129E+00  2.73903654E+00  2.79985107E+00  2.85511838E+00
  2.96785080E+00  3.23714864E+00  3.60795776E+00  3.67494712E+00  3.89584706E+00
  4.09801271E+00  2.37975476E+01  2.45778553E+01
Beta Orbital Energies                      R   N=          68
 -1.05299791E+01 -1.05283617E+01 -8.74407539E-01 -6.57544491E-01 -5.47492728E-01
 -4.94555254E-01 -4.08230708E-01 -3.45959023E-01  3.40200931E-02  3.62119300E-02
  4.12932589E-02  5.03317345E-02  7.56263132E-02  8.29474325E-02  9.73622561E-02
  1.40197004E-01  1.60726318E-01  1.74693418E-01  1.97900523E-01  2.34717995E-01
  3.18100755E-01  3.73914805E-01  4.43471710E-01  4.45294397E-01  5.42912294E-01
  5.71946787E-01  5.75636620E-01  6.49362561E-01  6.50364277E-01  7.44842814E-01
  7.70865530E-01  7.73923007E-01  8.02734159E-01  9.50057191E-01  1.04561722E+00
  1.17343460E+00  1.17904929E+00  1.40893503E+00  1.48235129E+00  1.48482886E+00
  1.64066639E+00  1.66250772E+00  1.66601737E+00  1.67204881E+00  1.81482631E+00
  1.81920317E+00  2.01691413E+00  2.08482823E+00  2.17247020E+00  2.19061558E+00
  2.20968754E+00  2.28461893E+00  2.37626186E+00  2.49504594E+00  2.58512789E+00
  2.59071666E+00  2.67191129E+00  2.73903654E+00  2.79985107E+00  2.85511838E+00
  2.96785080E+00  3.23714864E+00  3.60795776E+00  3.67494712E+00  3.89584706E+00
  4.09801271E+00  2.37975476E+01  2.45778553E+01
Alpha MO coefficients                      R   N=        4624
  3.98707950E-01  3.27987959E-01  4.86685870E-08 -3.51711453E-04  0.00000000E+00
  8.98670512E-03 -5.32056031E-07  1.64648261E-03  0.00000000E+00 -2.31345952E-03
 -6.23199203E-07  2.75045595E-04  0.00000000E+00 -6.12239017E-04  3.69819015E-07
 -8.17401065E-04  0.00000000E+00 -7.34074765E-04  0.00000000E+00  0.00000000E+00
  6.03358122E-04 -6.64019817E-07  3.98707950E-01  3.27987959E-01 -4.86685870E-08
  3.51711453E-04  0.00000000E+00  8.98670512E-03  5.32056031E-07 -1.64648261E-03
  0.00000000E+00 -2.31345952E-03  6.23199203E-07 -2.75045595E-04  0.00000000E+00
 -6.12239017E-04 -3.69819015E-07  8.17401065E-04  0.00000000E+00 -7.34074765E-04
  0.00000000E+00  0.00000000E+00  6.03358122E-04 -6.64019817E-07  1.78013954E-04
 -2.38375383E-03  1.59340885E-03  1.27682385E-03  6.81863383E-04  0.00000000E+00
  1.77852069E-04 -2.38556251E-03  1.59407143E-03 -1.27734503E-03  6.82449845E-04
  0.00000000E+00  1.78013954E-04 -2.38375383E-03  1.59340885E-03 -1.27682385E-03
 -6.81863383E-04  0.00000000E+00  1.77852069E-04 -2.38556251E-03  1.59407143E-03
  1.27734503E-03 -6.82449845E-04  0.00000000E+00  3.98957206E-01  3.27628691E-01
  5.40806580E-08  9.69666278E-04  0.00000000E+00  1.12449325E-02 -3.32017408E-07
 -6.44755285E-03  0.00000000E+00 -1.46300350E-03  8.49739413E-08  1.07666365E-03
  0.00000000E+00  1.96271151E-03  2.43440884E-08 -7.20330461E-04  0.00000000E+00
 -1.92277506E-03  0.00000000E+00  0.00000000E+00 -2.82701881E-03 -2.04103990E-07
 -3.98957206E-01 -3.27628691E-01  5.40806580E-08  9.69666278E-04  0.00000000E+00
 -1.12449325E-02 -3.32017408E-07 -6.44755285E-03  0.00000000E+00  1.46300350E-03
  8.49739413E-08  1.07666365E-03  0.00000000E+00 -1.96271151E-03  2.43440884E-08
 -7.20330461E-04  0.00000000E+00  1.92277506E-03  0.00000000E+00  0.00000000E+00
  2.82701881E-03  2.04103990E-07  4.65992652E-04 -8.17914020E-04  3.86929521E-04
  4.70619209E-04  1.45061562E-04  0.00000000E+00  4.65879128E-04 -8.18373552E-04
  3.87215466E-04 -4.71001863E-04  1.45155484E-04  0.00000000E+00 -4.65992652E-04
  8.17914020E-04 -3.86929521E-04  4.70619209E-04  1.45061562E-04  0.00000000E+00
 -4.65879128E-04  8.18373552E-04 -3.87215466E-04 -4.71001863E-04  1.45155484E-04
  0.00000000E+00 -8.72753794E-02 -1.39617600E-01 -1.18820250E-06 -5.90101754E-02
  0.00000000E+00  3.53279010E-01 -1.99069833E-06 -7.20977631E-02  0.00000000E+00
  1.83588773E-01 -3.18922075E-06 -1.76682222E-02  0.00000000E+00  8.05873286E-04
 -9.17425928E-07  8.16756485E-03  0.00000000E+00 -1.12844938E-02  0.00000000E+00
  0.00000000E+00 -9.67010162E-03 -2.05812649E-06 -8.72753794E-02 -1.39617600E-01
  1.18820250E-06  5.90101754E-02  0.00000000E+00  3.53279010E-01  1.99069833E-06
  7.20977631E-02  0.00000000E+00  1.83588773E-01  3.18922075E-06  1.76682222E-02
  0.00000000E+00  8.05873286E-04  9.17425928E-07 -8.16756485E-03  0.00000000E+00
 -1.12844938E-02  0.00000000E+00  0.00000000E+00 -9.67010162E-03 -2.05812649E-06
  5.02873392E-02  5.49989709E-02 -8.37762785E-04 -6.70493407E-03 -6.80821675E-03
  0.00000000E+00  5.02900941E-02  5.49981802E-02 -8.40296598E-04  6.70237377E-03
 -6.80878796E-03  0.00000000E+00  5.02873392E-02  5.49989709E-02 -8.37762785E-04
  6.70493407E-03  6.80821675E-03  0.00000000E+00  5.02900941E-02  5.49981802E-02
 -8.40296598E-04 -6.70237377E-03  6.80878796E-03  0.00000000E+00 -6.50019833E-02
 -1.05701121E-01 -1.19233446E-05  7.60801437E-02  0.00000000E+00  2.75876650E-01
 -1.41336838E-05  1.13968987E-01  0.00000000E+00  2.21735841E-01 -6.46092951E-06
  5.26486018E-02  0.00000000E+00 -8.84728708E-02 -3.02655048E-07  2.57845270E-02
  0.00000000E+00 -5.33708909E-03  0.00000000E+00  0.00000000E+00  9.03950912E-03
 -1.33213237E-06  6.50019833E-02  1.05701121E-01 -1.19233446E-05  7.60801437E-02
  0.00000000E+00 -2.75876650E-01 -1.41336838E-05  1.13968987E-01  0.00000000E+00
 -2.21735841E-01 -6.46092951E-06  5.26486018E-02  0.00000000E+00  8.84728708E-02
 -3.02655048E-07  2.57845270E-02  0.00000000E+00  5.33708909E-03  0.00000000E+00
  0.00000000E+00 -9.03950912E-03  1.33213237E-06  9.15300339E-02  1.14008773E-01
  1.81492598E-02 -1.26343171E-02 -4.20175534E-03  0.00000000E+00  9.15574035E-02
  1.14040328E-01  1.81522152E-02  1.26365732E-02 -4.20637018E-03  0.00000000E+00
 -9.15300339E-02 -1.14008773E-01 -1.81492598E-02 -1.26343171E-02 -4.20175534E-03
  0.00000000E+00 -9.15574035E-02 -1.14040328E-01 -1.81522152E-02  1.26365732E-02
 -4.20637018E-03  0.00000000E+00 -4.52486699E-06 -7.48494995E-06  1.50440267E-01
  1.21188434E-06  0.00000000E+00  2.00922739E-05  2.12699933E-01  8.90364533E-06
  0.00000000E+00  2.34785994E-05  1.22824483E-01  3.82386279E-06  0.00000000E+00
  1.34370219E-05  5.88520341E-03 -2.76348423E-06  0.00000000E+00 -3.97985128E-07
  0.00000000E+00  0.00000000E+00  4.10493076E-06 -5.58500612E-03  4.52486699E-06
  7.48494995E-06  1.50440267E-01  1.21188434E-06  0.00000000E+00 -2.00922739E-05
  2.12699933E-01  8.90364533E-06  0.00000000E+00 -2.34785994E-05  1.22824483E-01
  3.82386279E-06  0.00000000E+00 -1.34370219E-05  5.88520341E-03 -2.76348423E-06
  0.00000000E+00  3.97985128E-07  0.00000000E+00  0.00000000E+00 -4.10493076E-06
  5.58500612E-03  9.59720532E-02  1.30959503E-01  2.88035331E-02 -9.18431659E-03
 -1.00148617E-02  0.00000000E+00 -9.59539291E-02 -1.30933278E-01 -2.87965382E-02
 -9.18116257E-03  1.00170807E-02  0.00000000E+00 -9.59720532E-02 -1.30959503E-01
 -2.88035331E-02 -9.18431659E-03 -1.00148617E-02  0.00000000E+00  9.59539291E-02
  1.30933278E-01  2.87965382E-02 -9.18116257E-03  1.00170807E-02  0.00000000E+00
  6.83494669E-03  1.12535554E-02 -2.84067737E-05  1.95510154E-01  0.00000000E+00
 -3.03556036E-02 -3.50167996E-05  2.64445389E-01  0.00000000E+00  3.93243553E-02
 -2.71031774E-05  1.47281824E-01  0.00000000E+00  6.47659204E-03 -7.88521883E-06
  1.58345867E-03  0.00000000E+00  1.71330083E-03  0.00000000E+00  0.00000000E+00
  1.74204521E-02 -6.98292695E-06  6.83494669E-03  1.12535554E-02  2.84067737E-05
 -1.95510154E-01  0.00000000E+00 -3.03556036E-02  3.50167996E-05 -2.64445389E-01
  0.00000000E+00  3.93243553E-02  2.71031774E-05 -1.47281824E-01  0.00000000E+00
  6.47659204E-03  7.88521883E-06 -1.58345867E-03  0.00000000E+00  1.71330083E-03
  0.00000000E+00  0.00000000E+00  1.74204521E-02 -6.98292695E-06  7.89465865E-02
  1.12102958E-01  3.90215478E-02 -1.19443898E-02  3.14506430E-03  0.00000000E+00
  7.90101027E-02  1.12191294E-01  3.90415070E-02  1.19510168E-02  3.13757875E-03
  0.00000000E+00  7.89465865E-02  1.12102958E-01  3.90215478E-02  1.19443898E-02
 -3.14506430E-03  0.00000000E+00  7.90101027E-02  1.12191294E-01  3.90415070E-02
 -1.19510168E-02 -3.13757875E-03  0.00000000E+00  3.77330806E-06  6.15006287E-06
  1.37420536E-01  3.98018994E-05  0.00000000E+00 -1.72518956E-05  1.99914221E-01
  5.55955618E-05  0.00000000E+00  1.46272877E-06  1.70636429E-01  3.56221012E-05
  0.00000000E+00  3.39422995E-06  2.62074461E-02  6.95552765E-07  0.00000000E+00
  1.52654449E-07  0.00000000E+00  0.00000000E+00  7.84563552E-06  3.57119131E-02
  3.77330806E-06  6.15006287E-06 -1.37420536E-01 -3.98018994E-05  0.00000000E+00
 -1.72518956E-05 -1.99914221E-01 -5.55955618E-05  0.00000000E+00  1.46272877E-06
 -1.70636429E-01 -3.56221012E-05  0.00000000E+00  3.39422995E-06 -2.62074461E-02
 -6.95552765E-07  0.00000000E+00  1.52654449E-07  0.00000000E+00  0.00000000E+00
  7.84563552E-06  3.57119131E-02  1.18366808E-01  1.73584730E-01  8.38824831E-02
 -4.10032735E-03 -7.29633100E-03  0.00000000E+00 -1.18327377E-01 -1.73519052E-01
 -8.38479225E-02 -4.09188935E-03  7.29965410E-03  0.00000000E+00  1.18366808E-01
  1.73584730E-01  8.38824831E-02  4.10032735E-03  7.29633100E-03  0.00000000E+00
 -1.18327377E-01 -1.73519052E-01 -8.38479225E-02  4.09188935E-03 -7.29965410E-03
  0.00000000E+00  0.00000000E+00  0.00000000E+00  0.00000000E+00  0.00000000E+00
  1.79029408E-01  0.00000000E+00  0.00000000E+00  0.00000000E+00  2.84498810E-01
  0.00000000E+00  0.00000000E+00  0.00000000E+00  2.37671111E-01  0.00000000E+00
  0.00000000E+00  0.00000000E+00  2.41741773E-02  0.00000000E+00  1.42125029E-07
 -2.35436641E-02  0.00000000E+00  0.00000000E+00  0.00000000E+00  0.00000000E+00
  0.00000000E+00  0.00000000E+00  1.79029408E-01  0.00000000E+00  0.00000000E+00
  0.00000000E+00  2.84498810E-01  0.00000000E+00  0.00000000E+00  0.00000000E+00
  2.37671111E-01  0.00000000E+00  0.00000000E+00  0.00000000E+00  2.41741773E-02
  0.00000000E+00 -1.42125029E-07  2.35436641E-02  0.00000000E+00  0.00000000E+00
  0.00000000E+00  0.00000000E+00  0.00000000E+00  0.00000000E+00  0.00000000E+00
  1.24960984E-02  0.00000000E+00  0.00000000E+00  0.00000000E+00  0.00000000E+00
  0.00000000E+00  1.24971251E-02  0.00000000E+00  0.00000000E+00  0.00000000E+00
  0.00000000E+00  0.00000000E+00  1.24960984E-02  0.00000000E+00  0.00000000E+00
  0.00000000E+00  0.00000000E+00  0.00000000E+00  1.24971251E-02  1.69304960E-02
  2.89538821E-02 -2.84955769E-06 -4.07882077E-02  0.00000000E+00 -8.14248001E-02
  5.94442776E-06 -6.32251935E-02  0.00000000E+00 -2.85872993E-01 -9.71363503E-05
 -1.45243692E-01  0.00000000E+00  1.20389319E+00 -2.97264225E-04  7.04099091E-01
  0.00000000E+00  1.24219876E-02  0.00000000E+00  0.00000000E+00 -6.76641141E-03
  4.34055159E-06  1.69304960E-02  2.89538821E-02  2.84955769E-06  4.07882077E-02
  0.00000000E+00 -8.14248001E-02 -5.94442776E-06  6.32251935E-02  0.00000000E+00
 -2.85872993E-01  9.71363503E-05  1.45243692E-01  0.00000000E+00  1.20389319E+00
  2.97264225E-04 -7.04099091E-01  0.00000000E+00  1.24219876E-02  0.00000000E+00
  0.00000000E+00 -6.76641141E-03  4.34055159E-06 -2.23751355E-02  8.29013057E-02
 -3.98926846E-01  1.60363815E-03  2.03753426E-03  0.00000000E+00 -2.23781232E-02
  8.29101596E-02 -3.99224996E-01 -1.60162593E-03  2.03843428E-03  0.00000000E+00
 -2.23751355E-02  8.29013057E-02 -3.98926846E-01 -1.60363815E-03 -2.03753426E-03
  0.00000000E+00 -2.23781232E-02  8.29101596E-02 -3.99224996E-01  1.60162593E-03
 -2.03843428E-03  0.00000000E+00  0.00000000E+00  0.00000000E+00  0.00000000E+00
  0.00000000E+00  1.34872697E-01  0.00000000E+00  0.00000000E+00  0.00000000E+00
  2.23625935E-01  0.00000000E+00  0.00000000E+00  0.00000000E+00  3.58532234E-01
  0.00000000E+00  0.00000000E+00  0.00000000E+00  1.13827236E+00  0.00000000E+00
  2.38021021E-07  2.88012307E-02  0.00000000E+00  0.00000000E+00  0.00000000E+00
  0.00000000E+00  0.00000000E+00  0.00000000E+00 -1.34872697E-01  0.00000000E+00
  0.00000000E+00  0.00000000E+00 -2.23625935E-01  0.00000000E+00  0.00000000E+00
  0.00000000E+00 -3.58532234E-01  0.00000000E+00  0.00000000E+00  0.00000000E+00
 -1.13827236E+00  0.00000000E+00  2.38021021E-07  2.88012307E-02  0.00000000E+00
  0.00000000E+00  0.00000000E+00  0.00000000E+00  0.00000000E+00  0.00000000E+00
  0.00000000E+00  1.99042146E-02  0.00000000E+00  0.00000000E+00  0.00000000E+00
  0.00000000E+00  0.00000000E+00  1.99066963E-02  0.00000000E+00  0.00000000E+00
  0.00000000E+00  0.00000000E+00  0.00000000E+00 -1.99042146E-02  0.00000000E+00
  0.00000000E+00  0.00000000E+00  0.00000000E+00  0.00000000E+00 -1.99066963E-02
 -1.90190277E-02 -3.26777872E-02 -4.79830466E-06  1.77949271E-02  0.00000000E+00
  1.09730406E-01 -1.30069301E-05  3.53894328E-02  0.00000000E+00 -1.46511335E-01
 -8.02970180E-06  2.27722327E-01  0.00000000E+00  1.20931853E+01  8.86240797E-05
 -3.93556251E+00  0.00000000E+00  2.91226901E-03  0.00000000E+00  0.00000000E+00
  1.50713749E-02 -2.63928946E-06  1.90190277E-02  3.26777872E-02 -4.79830466E-06
  1.77949271E-02  0.00000000E+00 -1.09730406E-01 -1.30069301E-05  3.53894328E-02
  0.00000000E+00  1.46511335E-01 -8.02970180E-06  2.27722327E-01  0.00000000E+00
 -1.20931853E+01  8.86240797E-05 -3.93556251E+00  0.00000000E+00 -2.91226901E-03
  0.00000000E+00  0.00000000E+00 -1.50713749E-02  2.63928946E-06  1.12900957E-02
 -4.89734791E-02  1.86909031E-01 -1.92360338E-03 -1.00062546E-02  0.00000000E+00
  1.12949888E-02 -4.90120194E-02  1.87065440E-01  1.92236768E-03 -1.00061862E-02
  0.00000000E+00 -1.12900957E-02  4.89734791E-02 -1.86909031E-01 -1.92360338E-03
 -1.00062546E-02  0.00000000E+00 -1.12949888E-02  4.90120194E-02 -1.87065440E-01
  1.92236768E-03 -1.00061862E-02  0.00000000E+00  2.66395266E-06  4.50956396E-06
 -5.79008121E-02 -2.40963368E-06  0.00000000E+00 -1.25355815E-05 -9.67192489E-02
 -1.77545877E-06  0.00000000E+00  8.50840372E-06 -1.61101955E-01 -2.77226880E-05
  0.00000000E+00  2.03654497E-04  8.20913340E-01  4.60949850E-05  0.00000000E+00
  1.28750220E-07  0.00000000E+00  0.00000000E+00 -4.42167028E-06 -1.84718526E-03
 -2.66395266E-06 -4.50956396E-06 -5.79008121E-02 -2.40963368E-06  0.00000000E+00
  1.25355815E-05 -9.67192489E-02 -1.77545877E-06  0.00000000E+00 -8.50840372E-06
 -1.61101955E-01 -2.77226880E-05  0.00000000E+00 -2.03654497E-04  8.20913340E-01
  4.60949850E-05  0.00000000E+00 -1.28750220E-07  0.00000000E+00  0.00000000E+00