Title Card Required                                                     
FOpt      UM062X                                                      6-311+G(d,p)        
Number of atoms                            I                6
Info1-9                                    I   N=           9
          15          15           0           0           0         110
           2          18        -502
Full Title                                 C   N=           2
Title Card Required     
Route                                      C   N=           4
#p opt UM062X/6-311+G** nosymm int=superfine    
Charge                                     I                1
Multiplicity                               I                2
Number of electrons                        I               15
Number of alpha electrons                  I                8
Number of beta electrons                   I                7
Number of basis functions                  I               68
Number of independent functions            I               68
Number of point charges in /Mol/           I                0
Number of translation vectors              I                0
Atomic numbers                             I   N=           6
           6           6           1           1           1           1
Nuclear charges                            R   N=           6
  6.00000000E+00  6.00000000E+00  1.00000000E+00  1.00000000E+00  1.00000000E+00
  1.00000000E+00
Current cartesian coordinates              R   N=          18
 -1.45605718E+00  0.00000000E+00  0.00000000E+00  1.45605718E+00  0.00000000E+00
  0.00000000E+00 -2.46182768E+00 -1.78773121E+00  3.57479327E-08 -2.46192157E+00
  1.78767773E+00  3.81413668E-08  2.46182768E+00  1.78773121E+00 -3.94397029E-08
  2.46192157E+00 -1.78767773E+00 -3.70325437E-08
Number of symbols in /Mol/                 I                0
Force Field                                I                0
Atom Types                                 C   N=           6
                                                            
            
Int Atom Types                             I   N=           6
           0           0           0           0           0           0
MM charges                                 R   N=           6
  0.00000000E+00  0.00000000E+00  0.00000000E+00  0.00000000E+00  0.00000000E+00
  0.00000000E+00
Integer atomic weights                     I   N=           6
          12          12           1           1           1           1
Real atomic weights                        R   N=           6
  1.20000000E+01  1.20000000E+01  1.00782504E+00  1.00782504E+00  1.00782504E+00
  1.00782504E+00
Atom fragment info                         I   N=           6
           0           0           0           0           0           0
Atom residue num                           I   N=           6
           0           0           0           0           0           0
Nuclear spins                              I   N=           6
           0           0           1           1           1           1
Nuclear ZEff                               R   N=           6
 -3.60000000E+00 -3.60000000E+00 -1.00000000E+00 -1.00000000E+00 -1.00000000E+00
 -1.00000000E+00
Nuclear ZNuc                               R   N=           6
  6.00000000E+00  6.00000000E+00  1.00000000E+00  1.00000000E+00  1.00000000E+00
  1.00000000E+00
Nuclear QMom                               R   N=           6
  0.00000000E+00  0.00000000E+00  0.00000000E+00  0.00000000E+00  0.00000000E+00
  0.00000000E+00
Nuclear GFac                               R   N=           6
  0.00000000E+00  0.00000000E+00  2.79284600E+00  2.79284600E+00  2.79284600E+00
  2.79284600E+00
MicOpt                                     I   N=           6
          -2          -2          -1          -1          -1          -1
Number of residues                         I                0
Number of secondary structures             I                0
Redundant internal dimensions              I   N=           4
          20          10           6           4
Redundant internal coordinate indices      I   N=          80
           1          -1           0           0           1          -2
           0           0           1          -3           0           0
           2          -1           0           0           2          -2
           0           0           2          -3           0           0
           1           3           0           0           1           4
           0           0           2           5           0           0
           2           6           0           0           2           1
           3           0           2           1           4           0
           3           1           4           0           1           2
           5           0           1           2           6           0
           5           2           6           0           3           1
           2           5           3           1           2           6
           4           1           2           5           4           1
           2           6
Redundant internal coordinates             R   N=          20
 -1.45605718E+00  0.00000000E+00  0.00000000E+00  1.45605718E+00  0.00000000E+00
  0.00000000E+00  2.05123309E+00  2.05123252E+00  2.05123309E+00  2.05123252E+00
  2.08325874E+00  2.08331141E+00  2.11661515E+00  2.08325874E+00  2.08331141E+00
  2.11661515E+00  3.14159265E+00  3.94247668E-08 -4.47034836E-08  3.14159265E+00
ZRed-IntVec                                I   N=          20
          -1          -1          -1          -1          -1          -1
           0           0           0           0           0           0
           0           0           0           0           0           0
           0           0
ZRed-FPVec                                 R   N=          20
  0.00000000E+00  0.00000000E+00  0.00000000E+00  0.00000000E+00  0.00000000E+00
  0.00000000E+00  0.00000000E+00  0.00000000E+00  0.00000000E+00  0.00000000E+00
  0.00000000E+00  0.00000000E+00  0.00000000E+00  0.00000000E+00  0.00000000E+00
  0.00000000E+00  0.00000000E+00  0.00000000E+00  0.00000000E+00  0.00000000E+00
ZRed-Constraint1                           R   N=          20
 -1.45605718E+00  0.00000000E+00  0.00000000E+00  1.45605718E+00  0.00000000E+00
  0.00000000E+00  2.10111061E+00  2.10435720E+00  2.10111061E+00  2.10435720E+00
  2.14706393E+00  2.14223300E+00  1.99388838E+00  2.14706393E+00  2.14223300E+00
  1.99388838E+00  3.14159265E+00  0.00000000E+00  0.00000000E+00  3.14159265E+00
ZRed-Constraint2                           R   N=          20
 -1.45605718E+00  0.00000000E+00  0.00000000E+00  1.45605718E+00  0.00000000E+00
  0.00000000E+00  0.00000000E+00  0.00000000E+00  0.00000000E+00  0.00000000E+00
  0.00000000E+00  0.00000000E+00  0.00000000E+00  0.00000000E+00  0.00000000E+00
  0.00000000E+00  0.00000000E+00  0.00000000E+00  0.00000000E+00  0.00000000E+00
Number of contracted shells                I               28
Number of primitive shells                 I               50
Pure/Cartesian d shells                    I                0
Pure/Cartesian f shells                    I                0
Highest angular momentum                   I                2
Largest degree of contraction              I                6
Shell types                                I   N=          28
           0          -1          -1          -1          -1          -2
           0          -1          -1          -1          -1          -2
           0           0           0           1           0           0
           0           1           0           0           0           1
           0           0           0           1
Number of primitives per shell             I   N=          28
           6           3           1           1           1           1
           6           3           1           1           1           1
           3           1           1           1           3           1
           1           1           3           1           1           1
           3           1           1           1
Shell to atom map                          I   N=          28
           1           1           1           1           1           1
           2           2           2           2           2           2
           3           3           3           3           4           4
           4           4           5           5           5           5
           6           6           6           6
Primitive exponents                        R   N=          50
  4.56324000E+03  6.82024000E+02  1.54973000E+02  4.44553000E+01  1.30290000E+01
  1.82773000E+00  2.09642000E+01  4.80331000E+00  1.45933000E+00  4.83456000E-01
  1.45585000E-01  4.38000000E-02  6.26000000E-01  4.56324000E+03  6.82024000E+02
  1.54973000E+02  4.44553000E+01  1.30290000E+01  1.82773000E+00  2.09642000E+01
  4.80331000E+00  1.45933000E+00  4.83456000E-01  1.45585000E-01  4.38000000E-02
  6.26000000E-01  3.38650000E+01  5.09479000E+00  1.15879000E+00  3.25840000E-01
  1.02741000E-01  7.50000000E-01  3.38650000E+01  5.09479000E+00  1.15879000E+00
  3.25840000E-01  1.02741000E-01  7.50000000E-01  3.38650000E+01  5.09479000E+00
  1.15879000E+00  3.25840000E-01  1.02741000E-01  7.50000000E-01  3.38650000E+01
  5.09479000E+00  1.15879000E+00  3.25840000E-01  1.02741000E-01  7.50000000E-01
Contraction coefficients                   R   N=          50
  1.96665025E-03  1.52306019E-02  7.61269097E-02  2.60801033E-01  6.16462078E-01
  2.21006028E-01  1.14660081E-01  9.19999648E-01 -3.03068213E-03  1.00000000E+00
  1.00000000E+00  1.00000000E+00  1.00000000E+00  1.96665025E-03  1.52306019E-02
  7.61269097E-02  2.60801033E-01  6.16462078E-01  2.21006028E-01  1.14660081E-01
  9.19999648E-01 -3.03068213E-03  1.00000000E+00  1.00000000E+00  1.00000000E+00
  1.00000000E+00  2.54938145E-02  1.90373109E-01  8.52161486E-01  1.00000000E+00
  1.00000000E+00  1.00000000E+00  2.54938145E-02  1.90373109E-01  8.52161486E-01
  1.00000000E+00  1.00000000E+00  1.00000000E+00  2.54938145E-02  1.90373109E-01
  8.52161486E-01  1.00000000E+00  1.00000000E+00  1.00000000E+00  2.54938145E-02
  1.90373109E-01  8.52161486E-01  1.00000000E+00  1.00000000E+00  1.00000000E+00
P(S=P) Contraction coefficients            R   N=          50
  0.00000000E+00  0.00000000E+00  0.00000000E+00  0.00000000E+00  0.00000000E+00
  0.00000000E+00  4.02486927E-02  2.37593957E-01  8.15853851E-01  1.00000000E+00
  1.00000000E+00  1.00000000E+00  0.00000000E+00  0.00000000E+00  0.00000000E+00
  0.00000000E+00  0.00000000E+00  0.00000000E+00  0.00000000E+00  4.02486927E-02
  2.37593957E-01  8.15853851E-01  1.00000000E+00  1.00000000E+00  1.00000000E+00
  0.00000000E+00  0.00000000E+00  0.00000000E+00  0.00000000E+00  0.00000000E+00
  0.00000000E+00  0.00000000E+00  0.00000000E+00  0.00000000E+00  0.00000000E+00
  0.00000000E+00  0.00000000E+00  0.00000000E+00  0.00000000E+00  0.00000000E+00
  0.00000000E+00  0.00000000E+00  0.00000000E+00  0.00000000E+00  0.00000000E+00
  0.00000000E+00  0.00000000E+00  0.00000000E+00  0.00000000E+00  0.00000000E+00
Coordinates of each shell                  R   N=          84
 -1.45605718E+00  0.00000000E+00  0.00000000E+00 -1.45605718E+00  0.00000000E+00
  0.00000000E+00 -1.45605718E+00  0.00000000E+00  0.00000000E+00 -1.45605718E+00
  0.00000000E+00  0.00000000E+00 -1.45605718E+00  0.00000000E+00  0.00000000E+00
 -1.45605718E+00  0.00000000E+00  0.00000000E+00  1.45605718E+00  0.00000000E+00
  0.00000000E+00  1.45605718E+00  0.00000000E+00  0.00000000E+00  1.45605718E+00
  0.00000000E+00  0.00000000E+00  1.45605718E+00  0.00000000E+00  0.00000000E+00
  1.45605718E+00  0.00000000E+00  0.00000000E+00  1.45605718E+00  0.00000000E+00
  0.00000000E+00 -2.46182768E+00 -1.78773121E+00  3.57479327E-08 -2.46182768E+00
 -1.78773121E+00  3.57479327E-08 -2.46182768E+00 -1.78773121E+00  3.57479327E-08
 -2.46182768E+00 -1.78773121E+00  3.57479327E-08 -2.46192157E+00  1.78767773E+00
  3.81413668E-08 -2.46192157E+00  1.78767773E+00  3.81413668E-08 -2.46192157E+00
  1.78767773E+00  3.81413668E-08 -2.46192157E+00  1.78767773E+00  3.81413668E-08
  2.46182768E+00  1.78773121E+00 -3.94397029E-08  2.46182768E+00  1.78773121E+00
 -3.94397029E-08  2.46182768E+00  1.78773121E+00 -3.94397029E-08  2.46182768E+00
  1.78773121E+00 -3.94397029E-08  2.46192157E+00 -1.78767773E+00 -3.70325437E-08
  2.46192157E+00 -1.78767773E+00 -3.70325437E-08  2.46192157E+00 -1.78767773E+00
 -3.70325437E-08  2.46192157E+00 -1.78767773E+00 -3.70325437E-08
Num ILSW                                   I              100
ILSW                                       I   N=         100
           1           0           0           1           2           0
           0           0           0           0        4336          -1
           7           0           0           0           2           0
           0           0           0           0           1           0
           1           1           0           0           0           0
           0           0      100000           0          -1           0
           0           0           0           0           0           0
           0           0           0           1           0           0
           0 -2000000000           1           0           0           0
           0           0           4          52           0           0
           0           0          55           0           0           0
           0           0           0           6           0           1
           0           0           0           0           0           0
           0           0           0           0           0           0
           0           0           0           0           0           0
           0           0           0           0           0           0
           0           0           0           0
Num RLSW                                   I               52
RLSW                                       R   N=          52
  1.00000000E+00  1.00000000E+00  1.00000000E+00  1.00000000E+00  5.40000000E-01
  0.00000000E+00  0.00000000E+00  1.00000000E+00  0.00000000E+00  0.00000000E+00
  0.00000000E+00  0.00000000E+00  1.00000000E+00  0.00000000E+00  0.00000000E+00
  0.00000000E+00  0.00000000E+00  1.00000000E+00  0.00000000E+00  0.00000000E+00
  0.00000000E+00  0.00000000E+00  1.00000000E+00  0.00000000E+00  0.00000000E+00
  0.00000000E+00  0.00000000E+00  1.00000000E+00  0.00000000E+00  0.00000000E+00
  0.00000000E+00  0.00000000E+00  1.00000000E+00  0.00000000E+00  0.00000000E+00
  0.00000000E+00  0.00000000E+00  0.00000000E+00  1.00000000E+00  1.00000000E+00
  0.00000000E+00  1.00000000E+00  0.00000000E+00  0.00000000E+00  0.00000000E+00
  0.00000000E+00  0.00000000E+00  0.00000000E+00  0.00000000E+00  0.00000000E+00
  0.00000000E+00  0.00000000E+00
MxBond                                     I                3
NBond                                      I   N=           6
           3           3           1           1           1           1
IBond                                      I   N=          18
           2           3           4           1           5           6
           1           0           0           1           0           0
           2           0           0           2           0           0
RBond                                      R   N=          18
  1.00000000E+00  1.00000000E+00  1.00000000E+00  1.00000000E+00  1.00000000E+00
  1.00000000E+00  1.00000000E+00  0.00000000E+00  0.00000000E+00  1.00000000E+00
  0.00000000E+00  0.00000000E+00  1.00000000E+00  0.00000000E+00  0.00000000E+00
  1.00000000E+00  0.00000000E+00  0.00000000E+00
Virial Ratio                               R      2.007022591366658E+00
SCF Energy                                 R     -7.817341430066271E+01
Total Energy                               R     -7.817341430066271E+01
S**2                                       R      7.524413844740288E-01
S**2 after annihilation                    R      7.500047409728452E-01
RMS Force                                  R      6.537698947477162E-06
RMS Density                                R      4.026659589012206E-09
Job Status                                 I                1
Nuclear derivative order                   I                1
External E-field                           R   N=          35
  0.00000000E+00  0.00000000E+00  0.00000000E+00  0.00000000E+00  0.00000000E+00
  0.00000000E+00  0.00000000E+00  0.00000000E+00  0.00000000E+00  0.00000000E+00
  0.00000000E+00  0.00000000E+00  0.00000000E+00  0.00000000E+00  0.00000000E+00
  0.00000000E+00  0.00000000E+00  0.00000000E+00  0.00000000E+00  0.00000000E+00
  0.00000000E+00  0.00000000E+00  0.00000000E+00  0.00000000E+00  0.00000000E+00
  0.00000000E+00  0.00000000E+00  0.00000000E+00  0.00000000E+00  0.00000000E+00
  0.00000000E+00  0.00000000E+00  0.00000000E+00  0.00000000E+00  0.00000000E+00
IOpCl                                      I                1
IROHF                                      I                0
Alpha Orbital Energies                     R   N=          68
 -1.09045151E+01 -1.09040429E+01 -1.14865863E+00 -9.83291175E-01 -8.34175749E-01
 -7.68993689E-01 -7.42688790E-01 -6.37651160E-01 -3.15141188E-01 -1.45940697E-01
 -1.31334654E-01 -1.19154923E-01 -9.32781129E-02 -7.62772663E-02 -7.05521957E-02
 -4.69642273E-02 -4.56136832E-02 -2.12667869E-02 -1.49209669E-02 -7.30416052E-03
  3.96750751E-02  1.03138085E-01  1.95839282E-01  2.32007045E-01  2.71795920E-01
  3.04903838E-01  3.23857531E-01  3.74880042E-01  4.17298219E-01  4.32085185E-01
  4.60550148E-01  4.78038917E-01  5.54630185E-01  5.81373545E-01  7.62662045E-01
  7.78650174E-01  8.47117782E-01  1.15396007E+00  1.16227205E+00  1.17912297E+00
  1.22227713E+00  1.29329542E+00  1.33344813E+00  1.33519505E+00  1.48037300E+00
  1.59013522E+00  1.66596393E+00  1.68184292E+00  1.73000305E+00  1.82203379E+00
  1.82683144E+00  1.88299416E+00  2.14288936E+00  2.18271943E+00  2.26987403E+00
  2.32227862E+00  2.39043203E+00  2.40109432E+00  2.42376496E+00  2.50687247E+00
  2.54543079E+00  2.65920422E+00  2.78419110E+00  3.42267257E+00  3.51748217E+00
  3.79444764E+00  2.35337665E+01  2.35498020E+01
Beta Orbital Energies                      R   N=          68
 -1.09022576E+01 -1.09019033E+01 -1.11152910E+00 -9.63414421E-01 -8.24678827E-01
 -7.58747590E-01 -7.39289835E-01 -4.02495667E-01 -2.39904280E-01 -1.63211322E-01
 -1.28908170E-01 -1.21717370E-01 -9.64719120E-02 -8.42580215E-02 -7.10850692E-02
 -4.71024097E-02 -3.90039155E-02 -1.62847516E-02 -1.57357269E-02  8.18673933E-03
  4.40108607E-02  1.07899657E-01  1.90588753E-01  2.27211212E-01  2.79945030E-01
  3.16398063E-01  3.21294779E-01  3.62481733E-01  4.30321248E-01  4.44847986E-01
  4.71425310E-01  4.86202158E-01  5.29372702E-01  5.71290834E-01  7.96623939E-01
  8.17648855E-01  8.72708151E-01  1.17287494E+00  1.18831425E+00  1.19362172E+00
  1.26407168E+00  1.32174337E+00  1.34663868E+00  1.34891172E+00  1.49528048E+00
  1.61147552E+00  1.69404486E+00  1.71138124E+00  1.74523849E+00  1.84259584E+00
  1.84270869E+00  1.91622026E+00  2.17624542E+00  2.21813365E+00  2.28012160E+00
  2.32902883E+00  2.40979377E+00  2.42278933E+00  2.46166761E+00  2.52855801E+00
  2.59149685E+00  2.69933242E+00  2.80625711E+00  3.47106055E+00  3.56576926E+00
  3.85362107E+00  2.35473354E+01  2.35632176E+01
Alpha MO coefficients                      R   N=        4624
  3.98984475E-01  3.27965357E-01  7.38783896E-04  1.58487270E-08 -2.92636292E-11
  8.49391459E-03 -1.65829099E-03 -3.79940199E-08  7.59490336E-11 -2.17500952E-03
 -6.64156030E-05  4.51170728E-08 -4.06010256E-12 -6.07332266E-04  5.79765959E-04
 -3.27370232E-08 -2.58283284E-11 -7.11792618E-04 -2.37452790E-11  1.65223557E-12
 -8.93688481E-04 -7.57736051E-08  3.98984475E-01  3.27965357E-01 -7.38783896E-04
 -1.58487284E-08  3.05225075E-11  8.49391459E-03  1.65829099E-03  3.79940289E-08
 -7.86636444E-11 -2.17500952E-03  6.64156032E-05 -4.51170755E-08  4.36985743E-12
 -6.07332267E-04 -5.79765958E-04  3.27370152E-08  2.61779719E-11 -7.11792619E-04
 -2.47094568E-11 -1.66004190E-12 -8.93688481E-04 -7.57736010E-08  1.60022193E-04
 -2.37141813E-03  1.57478913E-03 -7.21509018E-04 -1.27246991E-03  2.42241436E-11
  1.60024986E-04 -2.37151153E-03  1.57483582E-03 -7.21586967E-04  1.27245406E-03
  2.58055301E-11  1.60022193E-04 -2.37141813E-03  1.57478913E-03  7.21509018E-04
  1.27246991E-03 -2.66725129E-11  1.60024986E-04 -2.37151154E-03  1.57483582E-03
  7.21586967E-04 -1.27245406E-03 -2.50818243E-11  3.99018716E-01  3.28064483E-01
  1.79709259E-04  7.66827118E-09 -2.50108617E-11  7.95549335E-03 -7.14757164E-04
 -2.34035563E-08  6.21351259E-11 -4.05144841E-03 -9.75433283E-04  5.57069744E-09
 -1.21110832E-11  3.08883758E-03  1.43487749E-03  9.78019904E-09 -7.89708522E-12
 -8.85128026E-04 -1.99706754E-11  1.00586170E-12 -1.71298900E-04 -3.25945824E-08
 -3.99018716E-01 -3.28064483E-01  1.79709259E-04  7.66826841E-09 -2.62292433E-11
 -7.95549335E-03 -7.14757163E-04 -2.34035453E-08  6.43890246E-11  4.05144841E-03
 -9.75433283E-04  5.57057193E-09 -1.26452983E-11 -3.08883758E-03  1.43487749E-03
  9.78010211E-09 -8.54528231E-12  8.85128026E-04  2.06855070E-11  1.01347011E-12
  1.71298900E-04  3.25945813E-08  2.20390145E-04 -1.73572257E-03  1.34988607E-03
 -4.79703770E-04 -1.04942489E-03  2.04026472E-11  2.20381511E-04 -1.73574095E-03
  1.34988496E-03 -4.79746828E-04  1.04941241E-03  2.18061273E-11 -2.20390145E-04
  1.73572257E-03 -1.34988607E-03 -4.79703770E-04 -1.04942489E-03  2.25337744E-11
 -2.20381511E-04  1.73574095E-03 -1.34988496E-03 -4.79746827E-04  1.04941241E-03
  2.11227959E-11 -8.36419483E-02 -1.35881671E-01  3.41584058E-02 -5.10190293E-07
  3.14136570E-10  3.69322764E-01  5.85464237E-02 -4.80886406E-07  2.86124812E-10
  2.15250892E-01  1.79463459E-02 -3.92177478E-07  1.63348359E-10  8.95652188E-05
 -9.78204424E-03  1.64938398E-07  2.93554895E-10 -6.22526874E-03 -5.65494700E-11
  1.89469133E-12  7.90788642E-03 -2.67203423E-07 -8.36419483E-02 -1.35881671E-01
 -3.41584058E-02  5.10190292E-07 -3.35637810E-10  3.69322764E-01 -5.85464237E-02
  4.80886381E-07 -3.10788330E-10  2.15250892E-01 -1.79463459E-02  3.92177518E-07
 -1.78471558E-10  8.95652089E-05  9.78204424E-03 -1.64938356E-07 -2.96451118E-10
 -6.22526874E-03 -5.59108967E-11 -1.90425090E-12  7.90788642E-03 -2.67203426E-07
  5.42903172E-02  5.80440118E-02 -9.77465512E-03  6.11860732E-03  9.51275933E-03
 -1.70728533E-10  5.42894288E-02  5.80435805E-02 -9.77480705E-03  6.11896524E-03
 -9.51222385E-03 -1.84436625E-10  5.42903172E-02  5.80440118E-02 -9.77465512E-03
 -6.11860732E-03 -9.51275933E-03  1.90594942E-10  5.42894288E-02  5.80435805E-02
 -9.77480705E-03 -6.11896524E-03  9.51222385E-03  1.76805713E-10 -7.32938233E-02
 -1.20112618E-01 -6.71092161E-02 -5.67934184E-07  1.44301861E-09  3.33976227E-01
 -9.96281498E-02 -8.13182085E-07  2.00090812E-09  2.66429937E-01 -2.51231901E-02
 -5.72437011E-07  9.56519034E-10 -6.36208462E-02 -2.21552736E-02 -2.46677547E-08
  7.05992410E-11 -1.28911666E-03 -3.15012132E-11  9.33446060E-12 -1.16464952E-02
 -5.28267760E-07  7.32938233E-02  1.20112618E-01 -6.71092161E-02 -5.67934183E-07
  1.48213118E-09 -3.33976227E-01 -9.96281498E-02 -8.13182084E-07  2.05003284E-09
 -2.66429937E-01 -2.51231901E-02 -5.72436966E-07  9.82258832E-10  6.36208462E-02
 -2.21552736E-02 -2.46676956E-08  8.01151656E-11  1.28911666E-03  3.80391333E-11
  9.39407607E-12  1.16464952E-02  5.28267761E-07  8.55984107E-02  1.00657520E-01
 -2.83283337E-03  4.68378963E-03  1.33991103E-02 -2.00473604E-10  8.55998668E-02
  1.00659595E-01 -2.83278403E-03  4.68458725E-03 -1.33991058E-02 -2.20680165E-10
 -8.55984107E-02 -1.00657520E-01  2.83283337E-03  4.68378963E-03  1.33991103E-02
 -2.28989295E-10 -8.55998668E-02 -1.00659595E-01  2.83278403E-03  4.68458725E-03
 -1.33991058E-02 -2.08691723E-10 -2.87216012E-09  7.74067339E-09 -1.72493639E-06
  1.58387744E-01  6.22649485E-11  4.56398189E-08 -1.94309214E-06  2.37848756E-01
  8.71406562E-11 -1.87558473E-06 -2.30547032E-06  1.42130703E-01  5.78570928E-11
 -6.74426062E-06 -2.11762145E-06  4.20305652E-03  1.20254632E-11  1.57132045E-07
 -1.03753936E-11  4.79270051E-10  1.02529058E-06  1.30513245E-03  2.87215687E-09
 -7.74067811E-09 -1.72493636E-06  1.58387744E-01 -6.29457526E-11 -4.56398043E-08
 -1.94309209E-06  2.37848756E-01 -8.81790594E-11  1.87558476E-06 -2.30547029E-06
  1.42130703E-01 -5.84840732E-11  6.74426063E-06 -2.11762145E-06  4.20305652E-03
 -1.20462652E-11 -1.57132044E-07 -1.03541926E-11 -4.99056153E-10 -1.02529057E-06
 -1.30513245E-03 -9.69983250E-02 -1.21012832E-01  9.21804671E-04 -8.54661116E-03
 -9.35461242E-03  2.98086501E-10  9.69967894E-02  1.21011274E-01 -9.21501122E-04
  8.54733752E-03 -9.35432768E-03 -3.16461409E-10  9.69983250E-02  1.21012832E-01
 -9.21804671E-04 -8.54661116E-03 -9.35461242E-03  3.27173190E-10 -9.69967894E-02
 -1.21011274E-01  9.21501121E-04  8.54733752E-03 -9.35432768E-03 -3.08747448E-10
 -9.83644757E-04 -1.80554848E-03  1.90863020E-01 -2.17983099E-05 -2.06573957E-09
  1.17607072E-02  2.94484292E-01 -3.15486988E-05 -2.93556502E-09 -1.86399512E-02
  1.48641677E-01 -2.44838569E-05 -1.87461233E-09 -3.19952633E-03 -1.05187437E-02
 -3.90918387E-06 -6.47304641E-11 -1.28244857E-03  2.36360845E-10 -1.04563566E-11
  2.08745672E-02  4.11932974E-06 -9.83644757E-04 -1.80554848E-03 -1.90863020E-01
  2.17983099E-05  2.17970094E-09  1.17607072E-02 -2.94484292E-01  3.15486988E-05
  3.11490523E-09 -1.86399512E-02 -1.48641677E-01  2.44838569E-05  1.97967113E-09
 -3.19952633E-03  1.05187437E-02  3.90918386E-06  6.26558554E-11 -1.28244857E-03
  2.30652745E-10  1.03184099E-11  2.08745672E-02  4.11932974E-06 -7.23253615E-02
 -1.01777694E-01 -1.93082052E-02  2.33998286E-03 -1.06463943E-02  1.01313722E-10
 -7.23608043E-02 -1.01823966E-01 -1.93087864E-02  2.33637858E-03  1.06492521E-02
  1.17309038E-10 -7.23253615E-02 -1.01777694E-01 -1.93082052E-02 -2.33998286E-03
  1.06463943E-02 -1.19304238E-10 -7.23608043E-02 -1.01823966E-01 -1.93087864E-02
 -2.33637858E-03 -1.06492521E-02 -1.03405814E-10 -7.81883042E-07 -1.33898333E-06
  2.75119153E-05  1.59929673E-01  2.13986503E-10  5.05810057E-06  4.29662444E-05
  2.36498264E-01  3.42249738E-10  1.39235632E-06  2.16519079E-05  1.71541568E-01
  2.27007227E-10 -1.07433510E-07 -2.38303012E-06  1.56868153E-02 -2.16667970E-12
 -5.50574856E-08  1.38272101E-11  7.37493945E-10  4.26431723E-06 -2.68742882E-02
 -7.81883043E-07 -1.33898334E-06 -2.75119153E-05 -1.59929673E-01  2.15323618E-10
  5.05810057E-06 -4.29662444E-05 -2.36498264E-01  3.44188193E-10  1.39235642E-06
 -2.16519080E-05 -1.71541568E-01  2.28358592E-10 -1.07433428E-07  2.38303010E-06
 -1.56868153E-02 -2.17827367E-12 -5.50574887E-08 -1.36829073E-11  7.59444801E-10
  4.26431723E-06 -2.68742882E-02 -1.12636648E-01 -1.52430773E-01 -1.67263653E-02
 -9.02924778E-03 -7.40624976E-03  2.67562769E-10  1.12614008E-01  1.52398126E-01
  1.67178812E-02  9.03058430E-03 -7.40233959E-03 -2.68644853E-10 -1.12636648E-01
 -1.52430773E-01 -1.67263653E-02  9.02924778E-03  7.40624976E-03 -2.77951171E-10
  1.12614008E-01  1.52398126E-01  1.67178812E-02 -9.03058430E-03  7.40233959E-03
  2.76751443E-10  1.16829707E-09  2.01101063E-09  5.77427690E-10 -2.24284662E-10
  1.85843387E-01 -6.47060448E-09  1.07541117E-09 -3.45920097E-10  3.11393775E-01
 -6.13172843E-09  5.62037345E-11 -1.74404204E-10  2.51899126E-01  1.30393080E-08
  3.56034674E-09  3.74982023E-11 -2.46136448E-03 -3.18331444E-10  2.75655255E-02
 -8.62371291E-08 -3.77694335E-11  2.68970658E-11 -1.19031669E-09 -2.04875412E-09
  7.22567436E-10  2.25110772E-10  1.85843387E-01  6.58906466E-09  1.30277174E-09
  3.47254992E-10  3.11393775E-01  6.25773904E-09  1.93787010E-10  1.75543795E-10
  2.51899126E-01 -1.30519533E-08  3.56348609E-09 -3.74957318E-11 -2.46136448E-03
  3.27059130E-10 -2.75655255E-02  8.62371282E-08  3.22799364E-11  2.67735209E-11
  1.14154188E-09  1.21419651E-09 -5.95985531E-10  1.47271878E-10  1.18105068E-10
  1.01921690E-02  9.62928737E-10  8.58025584E-10 -7.99834067E-10  1.30240170E-10
 -1.17626557E-10  1.01922312E-02 -9.68089575E-10 -8.39414276E-10  8.19118049E-10
  1.39364497E-10  1.16626899E-10  1.01921690E-02 -1.14679691E-09 -1.19568701E-09
  6.15433628E-10  1.56410289E-10 -1.17067518E-10  1.01922312E-02  7.58644382E-10
  1.32811495E-09  3.32326461E-09 -1.08657973E-10  2.07246065E-01 -4.05232643E-09
  5.59734248E-09 -1.80547340E-10  3.38009344E-01 -1.00705738E-08  5.93670721E-09
 -2.72470612E-10  4.29790517E-01 -1.75587824E-09  1.00159297E-09 -4.55763068E-11
  1.05317812E-01 -4.76089811E-10 -2.12561630E-02 -9.29687025E-08 -2.13533047E-10
 -2.65352095E-11  8.05731929E-10  1.40914917E-09 -3.35696811E-09 -1.09574293E-10
 -2.07246065E-01 -4.30665477E-09 -5.65483546E-09 -1.82098820E-10 -3.38009344E-01
 -1.04917687E-08 -6.03053854E-09 -2.72982913E-10 -4.29790517E-01 -1.33516236E-09
 -1.13758231E-09 -4.54127731E-11 -1.05317812E-01 -4.93017675E-10 -2.12561630E-02
 -9.29687016E-08 -2.18872630E-10  2.64312939E-11  1.68686342E-09  3.14824188E-09
  2.35881059E-09  3.10775159E-10  1.37309066E-10  1.79194416E-02  1.79568631E-09
  3.37106498E-09  2.59052232E-09  3.08042353E-10 -1.61726191E-10  1.79198287E-02
  1.87300977E-09  3.50591481E-09  2.67273714E-09 -3.12230965E-10 -1.68204470E-10
 -1.79194416E-02  1.76424084E-09  3.28400893E-09  2.44299174E-09 -3.15058034E-10
  1.43654795E-10 -1.79198287E-02  3.11811306E-02  5.40279901E-02  4.31332546E-02
  1.46403277E-06 -1.08551619E-09 -1.70270416E-01  6.25470775E-02  1.59556928E-06
 -2.61255002E-09 -6.73269703E-01  1.96638010E-01  1.72215737E-05 -4.26086472E-09
  8.35539089E-01 -1.21218497E-01  2.68334544E-05  7.97093164E-09  1.07703374E-02
  2.86830093E-10 -1.16149893E-11 -5.72360468E-03  4.75120111E-07  3.11811306E-02
  5.40279901E-02 -4.31332546E-02 -1.46403278E-06  1.12683671E-09 -1.70270416E-01
 -6.25470775E-02 -1.59556935E-06  2.70644344E-09 -6.73269703E-01 -1.96638010E-01