Title Card Required                                                     
FOpt      UM062X                                                      6-311+G(d,p)        
Number of atoms                            I                4
Info1-9                                    I   N=           9
          13          13           0           0           0         110
           2          18        -502
Full Title                                 C   N=           2
Title Card Required     
Route                                      C   N=           5
#p opt UM062X/6-311+G** nosymm int=superfine SCF=NoVarAcc   
Charge                                     I                0
Multiplicity                               I                1
Number of electrons                        I               14
Number of alpha electrons                  I                7
Number of beta electrons                   I                7
Number of basis functions                  I               56
Number of independent functions            I               56
Number of point charges in /Mol/           I                0
Number of translation vectors              I                0
Atomic numbers                             I   N=           4
           6           6           1           1
Nuclear charges                            R   N=           4
  6.00000000E+00  6.00000000E+00  1.00000000E+00  1.00000000E+00
Current cartesian coordinates              R   N=          12
 -1.49904887E+01  0.00000000E+00  0.00000000E+00  1.49904887E+01  0.00000000E+00
  0.00000000E+00 -1.71073497E+01 -1.24406035E-05  1.24532222E-05  1.71073496E+01
  8.58780631E-06 -8.57523590E-06
Number of symbols in /Mol/                 I                0
Force Field                                I                0
Atom Types                                 C   N=           4
                                                
Int Atom Types                             I   N=           4
           0           0           0           0
MM charges                                 R   N=           4
  0.00000000E+00  0.00000000E+00  0.00000000E+00  0.00000000E+00
Integer atomic weights                     I   N=           4
          12          12           1           1
Real atomic weights                        R   N=           4
  1.20000000E+01  1.20000000E+01  1.00782504E+00  1.00782504E+00
Atom fragment info                         I   N=           4
           0           0           0           0
Atom residue num                           I   N=           4
           0           0           0           0
Nuclear spins                              I   N=           4
           0           0           1           1
Nuclear ZEff                               R   N=           4
 -3.60000000E+00 -3.60000000E+00 -1.00000000E+00 -1.00000000E+00
Nuclear ZNuc                               R   N=           4
  6.00000000E+00  6.00000000E+00  1.00000000E+00  1.00000000E+00
Nuclear QMom                               R   N=           4
  0.00000000E+00  0.00000000E+00  0.00000000E+00  0.00000000E+00
Nuclear GFac                               R   N=           4
  0.00000000E+00  0.00000000E+00  2.79284600E+00  2.79284600E+00
MicOpt                                     I   N=           4
          -2          -2          -1          -1
Number of residues                         I                0
Number of secondary structures             I                0
Redundant internal dimensions              I   N=           4
          12           8           4           0
Redundant internal coordinate indices      I   N=          48
           1          -1           0           0           1          -2
           0           0           1          -3           0           0
           2          -1           0           0           2          -2
           0           0           2          -3           0           0
           1           3           0           0           2           4
           0           0           2           1           3          -4
           1           2           4          -4           2           1
           3          -8           1           2           4          -8
Redundant internal coordinates             R   N=          12
 -1.49904887E+01  0.00000000E+00  0.00000000E+00  1.49904887E+01  0.00000000E+00
  0.00000000E+00  2.11686099E+00  2.11686085E+00  3.14158677E+00  3.14158860E+00
  3.14158678E+00  3.14158860E+00
ZRed-IntVec                                I   N=          12
          -1          -1          -1          -1          -1          -1
           0           0           0           0           0           0
ZRed-FPVec                                 R   N=          12
  0.00000000E+00  0.00000000E+00  0.00000000E+00  0.00000000E+00  0.00000000E+00
  0.00000000E+00  0.00000000E+00  0.00000000E+00  0.00000000E+00  0.00000000E+00
  0.00000000E+00  0.00000000E+00
ZRed-Constraint1                           R   N=          12
 -1.49904887E+01  0.00000000E+00  0.00000000E+00  1.49904887E+01  0.00000000E+00
  0.00000000E+00  2.12190166E+00  2.12189977E+00  3.14158731E+00  3.14158909E+00
  3.14158731E+00  3.14158909E+00
ZRed-Constraint2                           R   N=          12
 -1.49904887E+01  0.00000000E+00  0.00000000E+00  1.49904887E+01  0.00000000E+00
  0.00000000E+00  0.00000000E+00  0.00000000E+00  0.00000000E+00  0.00000000E+00
  0.00000000E+00  0.00000000E+00
Number of contracted shells                I               20
Number of primitive shells                 I               38
Pure/Cartesian d shells                    I                0
Pure/Cartesian f shells                    I                0
Highest angular momentum                   I                2
Largest degree of contraction              I                6
Shell types                                I   N=          20
           0          -1          -1          -1          -1          -2
           0          -1          -1          -1          -1          -2
           0           0           0           1           0           0
           0           1
Number of primitives per shell             I   N=          20
           6           3           1           1           1           1
           6           3           1           1           1           1
           3           1           1           1           3           1
           1           1
Shell to atom map                          I   N=          20
           1           1           1           1           1           1
           2           2           2           2           2           2
           3           3           3           3           4           4
           4           4
Primitive exponents                        R   N=          38
  4.56324000E+03  6.82024000E+02  1.54973000E+02  4.44553000E+01  1.30290000E+01
  1.82773000E+00  2.09642000E+01  4.80331000E+00  1.45933000E+00  4.83456000E-01
  1.45585000E-01  4.38000000E-02  6.26000000E-01  4.56324000E+03  6.82024000E+02
  1.54973000E+02  4.44553000E+01  1.30290000E+01  1.82773000E+00  2.09642000E+01
  4.80331000E+00  1.45933000E+00  4.83456000E-01  1.45585000E-01  4.38000000E-02
  6.26000000E-01  3.38650000E+01  5.09479000E+00  1.15879000E+00  3.25840000E-01
  1.02741000E-01  7.50000000E-01  3.38650000E+01  5.09479000E+00  1.15879000E+00
  3.25840000E-01  1.02741000E-01  7.50000000E-01
Contraction coefficients                   R   N=          38
  1.96665025E-03  1.52306019E-02  7.61269097E-02  2.60801033E-01  6.16462078E-01
  2.21006028E-01  1.14660081E-01  9.19999648E-01 -3.03068213E-03  1.00000000E+00
  1.00000000E+00  1.00000000E+00  1.00000000E+00  1.96665025E-03  1.52306019E-02
  7.61269097E-02  2.60801033E-01  6.16462078E-01  2.21006028E-01  1.14660081E-01
  9.19999648E-01 -3.03068213E-03  1.00000000E+00  1.00000000E+00  1.00000000E+00
  1.00000000E+00  2.54938145E-02  1.90373109E-01  8.52161486E-01  1.00000000E+00
  1.00000000E+00  1.00000000E+00  2.54938145E-02  1.90373109E-01  8.52161486E-01
  1.00000000E+00  1.00000000E+00  1.00000000E+00
P(S=P) Contraction coefficients            R   N=          38
  0.00000000E+00  0.00000000E+00  0.00000000E+00  0.00000000E+00  0.00000000E+00
  0.00000000E+00  4.02486927E-02  2.37593957E-01  8.15853851E-01  1.00000000E+00
  1.00000000E+00  1.00000000E+00  0.00000000E+00  0.00000000E+00  0.00000000E+00
  0.00000000E+00  0.00000000E+00  0.00000000E+00  0.00000000E+00  4.02486927E-02
  2.37593957E-01  8.15853851E-01  1.00000000E+00  1.00000000E+00  1.00000000E+00
  0.00000000E+00  0.00000000E+00  0.00000000E+00  0.00000000E+00  0.00000000E+00
  0.00000000E+00  0.00000000E+00  0.00000000E+00  0.00000000E+00  0.00000000E+00
  0.00000000E+00  0.00000000E+00  0.00000000E+00
Coordinates of each shell                  R   N=          60
 -1.49904887E+01  0.00000000E+00  0.00000000E+00 -1.49904887E+01  0.00000000E+00
  0.00000000E+00 -1.49904887E+01  0.00000000E+00  0.00000000E+00 -1.49904887E+01
  0.00000000E+00  0.00000000E+00 -1.49904887E+01  0.00000000E+00  0.00000000E+00
 -1.49904887E+01  0.00000000E+00  0.00000000E+00  1.49904887E+01  0.00000000E+00
  0.00000000E+00  1.49904887E+01  0.00000000E+00  0.00000000E+00  1.49904887E+01
  0.00000000E+00  0.00000000E+00  1.49904887E+01  0.00000000E+00  0.00000000E+00
  1.49904887E+01  0.00000000E+00  0.00000000E+00  1.49904887E+01  0.00000000E+00
  0.00000000E+00 -1.71073497E+01 -1.24406035E-05  1.24532222E-05 -1.71073497E+01
 -1.24406035E-05  1.24532222E-05 -1.71073497E+01 -1.24406035E-05  1.24532222E-05
 -1.71073497E+01 -1.24406035E-05  1.24532222E-05  1.71073496E+01  8.58780631E-06
 -8.57523590E-06  1.71073496E+01  8.58780631E-06 -8.57523590E-06  1.71073496E+01
  8.58780631E-06 -8.57523590E-06  1.71073496E+01  8.58780631E-06 -8.57523590E-06
Num ILSW                                   I              100
ILSW                                       I   N=         100
           1           0           0           1           2           0
           0           0           0           0        4336          -1
           7           0           0           0           2           0
           0           0           0           0           1           0
           1           1           0           0           0           0
           0           0      100000           0          -1           0
           0           0           0           0           0           0
           0           0           0           1           0           0
           0 -2000000000           1           0           0           0
           0           0           4          52           0           0
           0           0          55           0           0           0
           0           0           0           4           0           1
           0           0           0           0           0           0
           0           0           0           0           0           0
           0           0           0           0           0           0
           0           0           0           0           0           0
           0           0           0           0
Num RLSW                                   I               52
RLSW                                       R   N=          52
  1.00000000E+00  1.00000000E+00  1.00000000E+00  1.00000000E+00  5.40000000E-01
  0.00000000E+00  0.00000000E+00  1.00000000E+00  0.00000000E+00  0.00000000E+00
  0.00000000E+00  0.00000000E+00  1.00000000E+00  0.00000000E+00  0.00000000E+00
  0.00000000E+00  0.00000000E+00  1.00000000E+00  0.00000000E+00  0.00000000E+00
  0.00000000E+00  0.00000000E+00  1.00000000E+00  0.00000000E+00  0.00000000E+00
  0.00000000E+00  0.00000000E+00  1.00000000E+00  0.00000000E+00  0.00000000E+00
  0.00000000E+00  0.00000000E+00  1.00000000E+00  0.00000000E+00  0.00000000E+00
  0.00000000E+00  0.00000000E+00  0.00000000E+00  1.00000000E+00  1.00000000E+00
  0.00000000E+00  1.00000000E+00  0.00000000E+00  0.00000000E+00  0.00000000E+00
  0.00000000E+00  0.00000000E+00  0.00000000E+00  0.00000000E+00  0.00000000E+00
  0.00000000E+00  0.00000000E+00
MxBond                                     I                2
NBond                                      I   N=           4
           2           2           1           1
IBond                                      I   N=           8
           2           3           1           4           1           0
           2           0
RBond                                      R   N=           8
  1.00000000E-01  1.00000000E+00  1.00000000E-01  1.00000000E+00  1.00000000E+00
  0.00000000E+00  1.00000000E+00  0.00000000E+00
Virial Ratio                               R      2.003084926883693E+00
SCF Energy                                 R     -7.681276284246896E+01
Total Energy                               R     -7.681276284246896E+01
S**2                                       R      3.106492840743158E-11
S**2 after annihilation                    R     -2.842170943084547E-14
RMS Force                                  R      3.158107016860580E-05
RMS Density                                R      9.590732076994106E-09
Job Status                                 I                1
Nuclear derivative order                   I                1
External E-field                           R   N=          35
  0.00000000E+00  0.00000000E+00  0.00000000E+00  0.00000000E+00  0.00000000E+00
  0.00000000E+00  0.00000000E+00  0.00000000E+00  0.00000000E+00  0.00000000E+00
  0.00000000E+00  0.00000000E+00  0.00000000E+00  0.00000000E+00  0.00000000E+00
  0.00000000E+00  0.00000000E+00  0.00000000E+00  0.00000000E+00  0.00000000E+00
  0.00000000E+00  0.00000000E+00  0.00000000E+00  0.00000000E+00  0.00000000E+00
  0.00000000E+00  0.00000000E+00  0.00000000E+00  0.00000000E+00  0.00000000E+00
  0.00000000E+00  0.00000000E+00  0.00000000E+00  0.00000000E+00  0.00000000E+00
IOpCl                                      I                1
IROHF                                      I                0
Alpha Orbital Energies                     R   N=          56
 -1.06677520E+01 -1.06677520E+01 -7.25554892E-01 -7.25554878E-01 -3.87413725E-01
 -3.87413724E-01 -1.90979667E-01 -1.73068176E-01 -9.76162656E-02 -9.76161832E-02
  3.26947883E-02  3.26948271E-02  8.06588868E-02  8.06589793E-02  8.16681742E-02
  8.16684401E-02  8.89080496E-02  8.89081078E-02  1.73110684E-01  1.73110741E-01
  4.53671903E-01  4.53672039E-01  5.71472304E-01  5.71472312E-01  5.76946645E-01
  5.76946650E-01  6.11958372E-01  6.11958399E-01  6.84056068E-01  6.84056141E-01
  1.12548731E+00  1.12548732E+00  1.13576065E+00  1.13577708E+00  1.33295654E+00
  1.33295654E+00  1.34535436E+00  1.34535436E+00  1.57985840E+00  1.57985845E+00
  1.84776732E+00  1.84776737E+00  1.85868857E+00  1.85868986E+00  2.38350046E+00
  2.38350053E+00  2.48728020E+00  2.48728024E+00  2.70359403E+00  2.70359403E+00
  2.70761684E+00  2.70761685E+00  3.16944491E+00  3.16944495E+00  2.35091063E+01
  2.35091064E+01
Beta Orbital Energies                      R   N=          56
 -1.06677520E+01 -1.06677520E+01 -7.25554892E-01 -7.25554878E-01 -3.87413725E-01
 -3.87413724E-01 -1.90979667E-01 -1.73068176E-01 -9.76162656E-02 -9.76161832E-02
  3.26947883E-02  3.26948271E-02  8.06588869E-02  8.06589793E-02  8.16681742E-02
  8.16684401E-02  8.89080496E-02  8.89081078E-02  1.73110684E-01  1.73110741E-01
  4.53671903E-01  4.53672039E-01  5.71472304E-01  5.71472312E-01  5.76946645E-01
  5.76946650E-01  6.11958372E-01  6.11958399E-01  6.84056068E-01  6.84056141E-01
  1.12548731E+00  1.12548732E+00  1.13576065E+00  1.13577708E+00  1.33295654E+00
  1.33295654E+00  1.34535436E+00  1.34535436E+00  1.57985840E+00  1.57985845E+00
  1.84776732E+00  1.84776737E+00  1.85868857E+00  1.85868986E+00  2.38350046E+00
  2.38350053E+00  2.48728020E+00  2.48728024E+00  2.70359403E+00  2.70359403E+00
  2.70761684E+00  2.70761685E+00  3.16944491E+00  3.16944495E+00  2.35091063E+01
  2.35091064E+01
Alpha MO coefficients                      R   N=        3136
  5.64013532E-01  4.64657319E-01 -1.80301212E-03 -1.05554613E-08  1.05663666E-08
  9.45497091E-03 -1.37497444E-03 -8.10502375E-09  8.11321395E-09 -3.95914430E-03
 -6.10290631E-05 -3.48105603E-10  3.48475715E-10  4.18724856E-04  6.56566024E-04
  3.85485468E-09 -3.85876819E-09 -5.39175473E-04 -1.06395479E-08 -6.00118463E-05
  9.33558889E-04  1.06261737E-08  2.24693520E-04  1.85111681E-04  7.18281468E-07
  2.93040695E-12 -2.92777245E-12  3.76665024E-06  5.47783275E-07  2.23009752E-12
 -2.22316059E-12 -1.57712550E-06  2.42321295E-08  1.18189923E-13 -1.02050743E-13
  1.66928079E-07 -2.61328065E-07 -1.01740576E-12  1.09768751E-12 -2.47586683E-07
 -3.26393171E-12  2.40126100E-08  3.52965416E-07  2.96155184E-12  3.31152149E-04
 -2.77334911E-03  2.25418355E-03 -1.93611310E-03 -1.13734397E-08  1.13849836E-08
  1.31891796E-07 -1.10469026E-06  8.97678392E-07  7.71310932E-07  3.12539320E-12
 -3.12897927E-12 -2.24693522E-04 -1.85111666E-04  7.18298020E-07  6.42071394E-12
 -1.98808728E-12 -3.76675337E-06  5.47750588E-07  6.63718478E-12  1.84668480E-13
  1.57738764E-06  2.43937493E-08  3.91648972E-12  3.65089987E-12 -1.66697629E-07
 -2.61801749E-07 -4.47246959E-13  2.62859179E-12  1.81896281E-07  4.29530470E-12
  2.40126153E-08 -3.90928969E-07 -4.17618857E-12  5.64013532E-01  4.64657318E-01
  1.80301208E-03  7.34395022E-09 -7.33397419E-09  9.45497170E-03  1.37497543E-03
  5.56922325E-09 -5.56066489E-09 -3.95914413E-03  6.10290293E-05  2.51549510E-10
 -2.51346571E-10  4.18724503E-04 -6.56566155E-04 -2.66483955E-09  2.66099708E-09
 -5.38889450E-04 -7.80789757E-09  6.00118134E-05  9.33724589E-04  7.82007792E-09
 -1.31959051E-07  1.10502172E-06 -8.98379701E-07  7.71319263E-07  4.56212496E-12
 -4.50449197E-12  3.31151985E-04 -2.77335046E-03  2.25418431E-03  1.93611384E-03
  7.85461132E-09 -7.84318603E-09 -3.70732754E-03 -6.00013259E-03 -2.63588628E-03
 -1.50124367E-08  1.59671587E-08  1.70728783E-02 -3.97072186E-03 -2.25912311E-08
  2.40543631E-08  1.18895263E-02 -1.59277025E-03 -8.54254563E-09  1.01480687E-08
 -3.25145531E-05 -4.21656793E-05 -1.29239956E-11  4.82210850E-10 -2.52615466E-04
 -4.21661644E-09 -1.54875216E-04  4.31885168E-04  4.15584508E-09 -1.08308717E-01
 -1.75292486E-01  7.70068250E-02  3.12365292E-07 -3.11911509E-07  4.98780192E-01
  1.16003741E-01  4.70591865E-07 -4.69910896E-07  3.47349728E-01  4.65324082E-02
  1.88417135E-07 -1.88146482E-07 -9.49942585E-04  1.23185893E-03  4.98003810E-09
 -4.97188170E-09 -7.29747910E-03 -1.20864694E-07  4.52483618E-03  1.26651335E-02
  1.21092735E-07  4.95829690E-03  6.31293256E-03  7.57398435E-04  7.65928222E-04
  4.53068949E-09 -4.47634524E-09  1.44855519E-01  1.84430891E-01  2.21272457E-02
 -2.23764187E-02 -9.08062708E-08  9.06735778E-08 -1.08308719E-01 -1.75292489E-01
 -7.70068149E-02 -4.52298260E-07  4.52726772E-07  4.98780205E-01 -1.16003731E-01
 -6.81019361E-07  6.81664707E-07  3.47349752E-01 -4.65324075E-02 -2.72878175E-07
  2.73101267E-07 -9.49942383E-04 -1.23185897E-03 -7.22822109E-09  7.21960148E-09
 -7.31891888E-03 -1.22457180E-07 -4.52483870E-03  1.26527529E-02  1.22138853E-07
  3.70732744E-03  6.00013243E-03 -2.63588698E-03 -1.06902883E-08  1.06757260E-08
 -1.70728780E-02 -3.97072273E-03 -1.61051813E-08  1.60836733E-08 -1.18895243E-02
 -1.59276972E-03 -6.44624653E-09  6.43896457E-09  3.25171001E-05 -4.21655671E-05
 -1.63415849E-10  1.75987610E-10  2.47693052E-04  4.12726029E-09 -1.54875126E-04
 -4.34727401E-04 -4.15460910E-09  1.44855505E-01  1.84430883E-01  2.21272470E-02
  2.23764177E-02  1.31502615E-07 -1.31638178E-07 -4.95829767E-03 -6.31293379E-03
 -7.57400192E-04  7.65928347E-04  3.10818439E-09 -3.10392187E-09 -5.98428444E-02
 -9.88480571E-02  2.14353186E-01  1.25868573E-06 -1.25969348E-06  2.90954186E-01
  3.08854739E-01  1.81368322E-06 -1.81511003E-06  4.15530497E-01  2.03671574E-01
  1.19571853E-06 -1.19647392E-06  5.91894014E-02  1.32287503E-02  7.78197192E-08
 -7.77615579E-08  1.72514494E-02  3.74615475E-07 -3.99728070E-03 -2.99023675E-02
 -3.74425849E-07 -9.82374669E-03 -1.62268068E-02 -3.51880231E-02 -1.42821529E-07
  1.42618645E-07  4.77627738E-02 -5.07013111E-02 -2.05777115E-07  2.05485474E-07
  6.82131079E-02 -3.34345359E-02 -1.35782947E-07  1.35593004E-07  9.71647832E-03
 -2.17162455E-03 -8.85137899E-09  8.85723799E-09  2.83349078E-03  3.71207890E-08
  6.56195104E-04 -4.90787418E-03 -3.71818558E-08 -1.32447052E-01 -2.45238172E-01
 -1.61556086E-01 -1.00811764E-02 -5.93039648E-08  5.93854959E-08 -2.17423860E-02
 -4.02580746E-02 -2.65208932E-02  1.65491669E-03  6.71540116E-09 -6.70554341E-09
  9.82374665E-03  1.62268067E-02 -3.51880226E-02 -2.05766884E-07  2.07650235E-07
 -4.77627729E-02 -5.07013107E-02 -2.96418313E-07  2.99284585E-07 -6.82131084E-02
 -3.34345407E-02 -1.94831825E-07  1.97872191E-07 -9.71647843E-03 -2.17161403E-03
 -1.23430611E-08  1.31981110E-08 -2.83369440E-03 -6.15571557E-08  6.56195402E-04
  4.90775679E-03  6.14049904E-08 -5.98428466E-02 -9.88480608E-02 -2.14353190E-01
 -8.70040898E-07  8.68789334E-07  2.90954196E-01 -3.08854739E-01 -1.25355779E-06
  1.25175374E-06  4.15530529E-01 -2.03671567E-01 -8.27177846E-07  8.25997557E-07
  5.91894074E-02 -1.32287474E-02 -5.39833347E-08  5.39052801E-08  1.72710702E-02
  2.26176243E-07  3.99727898E-03 -2.98910399E-02 -2.26451704E-07  2.17423868E-02
  4.02580712E-02  2.65209047E-02  1.65491660E-03  9.80274430E-09 -9.68102605E-09
 -1.32447048E-01 -2.45238164E-01 -1.61556085E-01  1.00811760E-02  4.09068118E-08
 -4.08465611E-08  1.30897727E-12  2.07989515E-12  2.87278864E-09  1.32043393E-01
  1.32398185E-01 -7.02087770E-12  4.40099177E-09  2.02252135E-01  2.02795586E-01
 -5.91086509E-12  4.86445794E-09  2.23789195E-01  2.24390508E-01  2.15140206E-11
  1.46683385E-09  6.75262880E-02  6.77075853E-02  1.18186444E-07 -1.15648423E-02
 -1.13094281E-10  6.77321466E-08 -1.15338514E-02  4.01192363E-10  6.81346484E-10
 -1.07163008E-06  1.32408513E-01 -1.32033000E-01 -2.47088331E-09 -1.64170992E-06
  2.02811398E-01 -2.02236223E-01 -1.49074254E-09 -1.81464565E-06  2.24408009E-01
 -2.23771585E-01  7.22973031E-09 -5.47317727E-07  6.77129331E-02 -6.75209091E-02
  8.10255169E-08 -1.15329445E-02 -9.42891986E-08 -1.40741588E-07  1.15657450E-02
 -5.90847543E-13 -2.43807236E-12 -1.07761467E-11  2.69231483E-10  1.23910131E-02
  1.24242971E-02 -1.86344594E-10 -7.02781552E-10 -3.69257864E-09 -1.00490616E-07
  1.24252717E-02 -1.23900340E-02  1.88649649E-12  3.28532722E-12 -2.87667310E-09
 -1.32034048E-01 -1.32388873E-01 -1.14528716E-11 -4.40519216E-09 -2.02236409E-01
 -2.02779910E-01 -8.76956706E-12 -4.87923262E-09 -2.23757808E-01 -2.24359141E-01
  2.27866085E-11 -1.47253822E-09 -6.75716007E-02 -6.77530641E-02 -1.18079412E-07
  1.16779043E-02  1.13210829E-10 -6.76659204E-08  1.16466056E-02 -7.88358250E-10
 -1.31712430E-09 -1.07294444E-06  1.32399208E-01 -1.32023719E-01  4.42458188E-09
 -1.64307495E-06  2.02795731E-01 -2.02220596E-01  3.88098731E-09 -1.81987108E-06
  2.24376652E-01 -2.23740309E-01 -9.36930569E-09 -5.49599278E-07  6.77584110E-02
 -6.75662587E-02  8.17295442E-08 -1.16456952E-02 -9.41331348E-08 -1.41960245E-07
  1.16788166E-02  7.45321785E-13  1.74471878E-12 -9.85595320E-12 -2.71206764E-10
 -1.24552315E-02 -1.24886936E-02 -2.33638232E-10 -5.18624202E-10  4.26366215E-09
 -1.01214008E-07  1.24896739E-02 -1.24542533E-02  6.25616107E-11  1.14706758E-10
 -1.47217451E-06  1.25407327E-01 -1.25071271E-01 -5.99292382E-10 -2.32625758E-06
  1.98188925E-01 -1.97657851E-01  2.58299962E-10 -2.58745568E-06  2.20283620E-01
 -2.19693344E-01  5.89285995E-09 -1.27302212E-06  1.08403271E-01 -1.08112606E-01
 -1.09129984E-07  1.07268560E-02  1.26000294E-07  1.89226341E-07 -1.07556779E-02
  1.48094093E-12  2.21812521E-12  6.74118833E-10  1.19578038E-01  1.19918157E-01
 -5.26067218E-12  1.06690825E-09  1.88976549E-01  1.89514060E-01 -1.71727875E-11
  1.17850870E-09  2.10044222E-01  2.10641654E-01 -1.20646987E-11  5.76513311E-10
  1.03364311E-01  1.03658315E-01 -7.22012905E-08  1.02848948E-02  1.78074851E-10
 -4.15683004E-08  1.02557238E-02 -6.60581330E-10 -9.74903710E-10 -4.02235290E-09
 -1.44882684E-07  1.23407066E-02 -1.23076274E-02  5.40165372E-12  7.36187655E-12
  2.15118909E-11  6.63098530E-11  1.17670713E-02  1.18005412E-02 -5.51610875E-11
 -1.01862234E-10  1.40762189E-06 -1.19908811E-01  1.19587493E-01  5.46593697E-10
  2.22425826E-06 -1.89499269E-01  1.88991486E-01 -2.78173687E-10  2.47398616E-06
 -2.10625274E-01  2.10060881E-01 -5.54317861E-09  1.21719834E-06 -1.03649987E-01
  1.03372075E-01  1.04345720E-07 -1.02565348E-02 -1.20471566E-07 -1.80930616E-07
  1.02840927E-02  1.54302698E-12  2.30085701E-12  7.04821370E-10  1.25061498E-01
  1.25417149E-01 -5.32305826E-12  1.11544230E-09  1.97642384E-01  1.98204446E-01
 -1.86982226E-11  1.23249841E-09  2.19676211E-01  2.20300928E-01 -1.38415718E-11
  6.00442138E-10  1.08103921E-01  1.08411381E-01 -7.55172462E-08  1.07565212E-02
  1.86245209E-10 -4.34773755E-08  1.07260184E-02  6.31469991E-10  9.32530569E-10
  3.80942248E-09  1.38529680E-07 -1.17996257E-02  1.17679973E-02  5.74748396E-12
  7.12668206E-12  2.50012055E-11  6.93290383E-11  1.23066714E-02  1.23416700E-02
  2.15465403E-02  3.52124341E-02  3.46329750E-02  2.00709830E-07 -2.02406701E-07
 -8.55629625E-02  8.01292533E-02  4.67367931E-07 -4.70133222E-07 -4.33865692E-01
  7.52795736E-02  4.33502079E-07 -4.36450250E-07  1.10910552E+00 -5.43091988E-01
 -3.17765404E-06  3.18003876E-06  8.57615093E-03  1.65654661E-07  1.53746970E-03
 -1.48507693E-02 -1.65256824E-07  2.10709118E-02  3.44351389E-02 -3.38684674E-02
 -1.35943843E-07  1.35736742E-07 -8.36742143E-02 -7.83604469E-02 -3.16664098E-07
  3.16184147E-07 -4.24288299E-01 -7.36178030E-02 -2.92120063E-07  2.91687929E-07
  1.08462271E+00  5.31103643E-01  2.14097425E-06 -2.13785329E-06  8.37955758E-03
  1.23620757E-07 -1.50351721E-03 -1.45271556E-02 -1.23839307E-07 -1.81894518E-02
  1.17931576E-01 -4.20036366E-01 -2.45804036E-04 -1.57566706E-09  1.40339407E-09
 -1.77879374E-02  1.15328319E-01 -4.10764434E-01  2.40373732E-04  9.64604052E-10
 -9.64515264E-10 -2.10709493E-02 -3.44351953E-02 -3.38684119E-02 -1.97768662E-07
  1.96447213E-07  8.36742928E-02 -7.83604582E-02 -4.59334721E-07  4.57467695E-07
  4.24289479E-01 -7.36174186E-02 -4.26438094E-07  4.24310994E-07 -1.08462321E+00
  5.31101726E-01  3.10667010E-06 -3.11068226E-06 -8.39088532E-03 -1.61834443E-07
 -1.50352079E-03  1.45205763E-02  1.61771630E-07  2.15465746E-02  3.52124866E-02
 -3.46329058E-02 -1.38987249E-07  1.38818583E-07 -8.55630452E-02 -8.01292592E-02
 -3.23778767E-07  3.23342912E-07 -4.33866742E-01 -7.52791382E-02 -2.98644677E-07
  2.98331167E-07  1.10910605E+00  5.43090178E-01  2.18919916E-06 -2.18621556E-06
  8.57284542E-03  1.26431948E-07 -1.53747162E-03 -1.48526471E-02 -1.26612810E-07
  1.77878662E-02 -1.15328117E-01  4.10763024E-01  2.40373506E-04  1.36747183E-09
 -1.54625418E-09 -1.81893922E-02  1.17931389E-01 -4.20035151E-01  2.45794944E-04
  9.88066548E-10 -9.85486166E-10  2.08655546E-08  3.33387961E-08  7.78934119E-07
 -7.15958234E-02  7.14038491E-02 -7.40315786E-08  8.11727848E-07 -7.18845010E-02
  7.16917002E-02 -4.88642228E-07  3.15880836E-06 -2.95730621E-01  2.94937731E-01
  5.28914220E-07 -6.19791148E-06  6.14026144E-01 -6.12379854E-01  5.37101545E-08
 -5.92973647E-03 -6.80229313E-08 -9.31348967E-08  5.94567951E-03  1.35963890E-11
  2.18733121E-11 -3.63319540E-10 -6.98446481E-02 -7.00432975E-02 -4.97766427E-11
 -3.84867333E-10 -7.01262376E-02 -7.03256932E-02 -3.24290138E-10 -1.46642454E-09
 -2.88497326E-01 -2.89317853E-01  3.42313701E-10  2.81491930E-09  5.99007626E-01
  6.00711284E-01  4.08344510E-08 -5.81675027E-03 -1.01921485E-10  2.35182414E-08
 -5.80025328E-03  2.89402980E-08 -1.76828213E-08  2.60732727E-07  6.10573972E-09
  2.30382837E-04 -2.29775368E-04  1.54448779E-11 -1.12426248E-11  1.90504738E-10
 -2.53727602E-12  2.24752292E-04  2.25390778E-04 -2.02765975E-08 -3.23971502E-08
 -7.62380187E-07  7.00377573E-02 -6.98500669E-02  7.19254908E-08 -7.94279494E-07
  7.03201087E-02 -7.01315993E-02  4.74936746E-07 -3.09208070E-06  2.89295143E-01
 -2.88519966E-01 -5.14081908E-07  6.06950860E-06 -6.00664315E-01  5.99054865E-01
 -5.25838350E-08  5.80070182E-03  6.65581503E-08  9.11817185E-08 -5.81628911E-03
  4.61172614E-11  7.38690082E-11 -2.84264625E-10 -7.13981746E-02 -7.16013493E-02
 -1.65770092E-10 -3.51905228E-10 -7.16859831E-02 -7.18899699E-02 -1.08863888E-09
 -1.05115879E-09 -2.94914461E-01 -2.95753705E-01  1.16685861E-09  1.40086018E-09
  6.12331703E-01  6.14074299E-01  4.17307471E-08 -5.94613803E-03 -1.06750149E-10
  2.40566113E-08 -5.92926529E-03 -2.81269623E-08  1.71609293E-08 -2.53377268E-07
 -5.91896580E-09 -2.25380232E-04  2.24787567E-04  5.85003689E-11 -3.65361306E-11
  6.04131881E-10 -1.49990612E-11  2.29762447E-04  2.30417032E-04  1.74106128E-02
  2.78630887E-02 -4.87720244E-02 -2.00177116E-07  1.99919647E-07 -6.25806943E-02
 -2.44313586E-02 -5.71964043E-08  5.63276106E-08 -4.05933209E-01 -2.48762721E-01
 -1.10334740E-06  1.10469816E-06  4.43505325E-01  8.11194929E-01  4.01906576E-06
 -4.02721512E-06 -5.27767669E-03 -1.08346501E-07  1.37909968E-03  9.14509412E-03
  1.08367570E-07  1.72440844E-02  2.75965848E-02  4.83055281E-02  2.06225772E-07
 -2.05120002E-07 -6.19821226E-02  2.41976718E-02  1.07818988E-07 -1.06855066E-07
 -4.02050561E-01  2.46383355E-01  1.04285721E-06 -1.03799876E-06  4.39263340E-01
 -8.03435967E-01 -3.35645067E-06  3.34458915E-06 -5.23375262E-03 -6.86613983E-08
 -1.36589863E-03  9.05383633E-03  6.87977671E-08  2.32288425E-02 -1.28134831E-02
  2.14003876E-01  6.93352977E-03  4.03612363E-08 -4.05134132E-08  2.30066621E-02
 -1.26909225E-02  2.11956938E-01 -6.86721292E-03 -2.79825988E-08  2.79383267E-08
  1.72440317E-02  2.75965076E-02 -4.83057478E-02 -1.97320133E-07  1.98698654E-07
 -6.19820613E-02 -2.41980524E-02 -5.52427844E-08  5.69443868E-08 -4.02048509E-01
 -2.46384037E-01 -1.09102630E-06  1.09485863E-06  4.39262576E-01  8.03436250E-01
  3.98049581E-06 -3.98663004E-06 -5.22416966E-03 -1.07400691E-07  1.36589585E-03