 Entering Gaussian System, Link 0=g16
 Initial command:
 /home/szhao/Apps/g16/l1.exe "/home/szhao/tmp/Gau-43928.inp" -scrdir="/home/szhao/tmp/"
 Default is to use a total of  16 processors:
                               16 via shared-memory
                                1 via Linda
 Entering Link 1 = /home/szhao/Apps/g16/l1.exe PID=     43930.
  
 Copyright (c) 1988,1990,1992,1993,1995,1998,2003,2009,2016,
            Gaussian, Inc.  All Rights Reserved.
  
 This is part of the Gaussian(R) 16 program.  It is based on
 the Gaussian(R) 09 system (copyright 2009, Gaussian, Inc.),
 the Gaussian(R) 03 system (copyright 2003, Gaussian, Inc.),
 the Gaussian(R) 98 system (copyright 1998, Gaussian, Inc.),
 the Gaussian(R) 94 system (copyright 1995, Gaussian, Inc.),
 the Gaussian 92(TM) system (copyright 1992, Gaussian, Inc.),
 the Gaussian 90(TM) system (copyright 1990, Gaussian, Inc.),
 the Gaussian 88(TM) system (copyright 1988, Gaussian, Inc.),
 the Gaussian 86(TM) system (copyright 1986, Carnegie Mellon
 University), and the Gaussian 82(TM) system (copyright 1983,
 Carnegie Mellon University). Gaussian is a federally registered
 trademark of Gaussian, Inc.
  
 This software contains proprietary and confidential information,
 including trade secrets, belonging to Gaussian, Inc.
  
 This software is provided under written license and may be
 used, copied, transmitted, or stored only in accord with that
 written license.
  
 The following legend is applicable only to US Government
 contracts under FAR:
  
                    RESTRICTED RIGHTS LEGEND
  
 Use, reproduction and disclosure by the US Government is
 subject to restrictions as set forth in subparagraphs (a)
 and (c) of the Commercial Computer Software - Restricted
 Rights clause in FAR 52.227-19.
  
 Gaussian, Inc.
 340 Quinnipiac St., Bldg. 40, Wallingford CT 06492
  
  
 ---------------------------------------------------------------
 Warning -- This program may not be used in any manner that
 competes with the business of Gaussian, Inc. or will provide
 assistance to any competitor of Gaussian, Inc.  The licensee
 of this program is prohibited from giving any competitor of
 Gaussian, Inc. access to this program.  By using this program,
 the user acknowledges that Gaussian, Inc. is engaged in the
 business of creating and licensing software in the field of
 computational chemistry and represents and warrants to the
 licensee that it is not a competitor of Gaussian, Inc. and that
 it will not use this program in any manner prohibited above.
 ---------------------------------------------------------------
  

 Cite this work as:
 Gaussian 16, Revision A.03,
 M. J. Frisch, G. W. Trucks, H. B. Schlegel, G. E. Scuseria, 
 M. A. Robb, J. R. Cheeseman, G. Scalmani, V. Barone, 
 G. A. Petersson, H. Nakatsuji, X. Li, M. Caricato, A. V. Marenich, 
 J. Bloino, B. G. Janesko, R. Gomperts, B. Mennucci, H. P. Hratchian, 
 J. V. Ortiz, A. F. Izmaylov, J. L. Sonnenberg, D. Williams-Young, 
 F. Ding, F. Lipparini, F. Egidi, J. Goings, B. Peng, A. Petrone, 
 T. Henderson, D. Ranasinghe, V. G. Zakrzewski, J. Gao, N. Rega, 
 G. Zheng, W. Liang, M. Hada, M. Ehara, K. Toyota, R. Fukuda, 
 J. Hasegawa, M. Ishida, T. Nakajima, Y. Honda, O. Kitao, H. Nakai, 
 T. Vreven, K. Throssell, J. A. Montgomery, Jr., J. E. Peralta, 
 F. Ogliaro, M. J. Bearpark, J. J. Heyd, E. N. Brothers, K. N. Kudin, 
 V. N. Staroverov, T. A. Keith, R. Kobayashi, J. Normand, 
 K. Raghavachari, A. P. Rendell, J. C. Burant, S. S. Iyengar, 
 J. Tomasi, M. Cossi, J. M. Millam, M. Klene, C. Adamo, R. Cammi, 
 J. W. Ochterski, R. L. Martin, K. Morokuma, O. Farkas, 
 J. B. Foresman, and D. J. Fox, Gaussian, Inc., Wallingford CT, 2016.
 
 ******************************************
 Gaussian 16:  ES64L-G16RevA.03 25-Dec-2016
                19-Nov-2024 
 ******************************************
 %chk=opt.chk
 %mem=8GB
 %nprocshared=24
 Will use up to   24 processors via shared memory.
 --------------------------------------------
 #p opt UM062X/6-311+G** nosymm int=superfine
 --------------------------------------------
 1/18=20,19=15,26=5,38=1/1,3;
 2/9=110,12=2,15=1,17=6,18=5,40=1/2;
 3/5=4,6=6,7=111,11=2,25=1,30=1,71=1,74=-55,75=-7,116=2/1,2,3;
 4//1;
 5/5=2,38=5/2;
 6/7=2,8=2,9=2,10=2,28=1/1;
 7/30=1/1,2,3,16;
 1/18=20,19=15,26=5/3(2);
 2/9=110,15=1/2;
 99//99;
 2/9=110,15=1/2;
 3/5=4,6=6,7=111,11=2,25=1,30=1,71=1,74=-55,75=-7,116=2/1,2,3;
 4/5=5,16=3,69=1/1;
 5/5=2,38=5/2;
 7/30=1/1,2,3,16;
 1/18=20,19=15,26=5/3(-5);
 2/9=110,15=1/2;
 6/7=2,8=2,9=2,10=2,19=2,28=1/1;
 99/9=1/99;
 Leave Link    1 at Tue Nov 19 11:45:28 2024, MaxMem=  1073741824 cpu:               1.1 elap:               0.1
 (Enter /home/szhao/Apps/g16/l101.exe)
 -------------------
 Title Card Required
 -------------------
 Symbolic Z-matrix:
 Charge =  0 Multiplicity = 1
 C                    -1   -0.61847   0.        0. 
 C                    -1    0.61854   0.        0. 
 H                    0     0.93872  -0.88075   0.50965 
 H                    0    -0.9385   -0.88202  -0.50795 
 H                    0     0.93856   0.88201   0.50792 
 H                    0     0.93857  -0.00087  -1.01782 
 H                    0    -0.93866   0.88074  -0.50968 
 H                    0    -0.9385    0.00086   1.01779 
 
 ITRead=  2  2  0  0  0  0  0  0
 MicOpt= -2 -2 -1 -1 -1 -1 -1 -1
 NAtoms=      8 NQM=        6 NQMF=       2 NMMI=      0 NMMIF=      0
                NMic=       0 NMicF=      0.
                    Isotopes and Nuclear Properties:
 (Nuclear quadrupole moments (NQMom) in fm**2, nuclear magnetic moments (NMagM)
  in nuclear magnetons)

  Atom         1           2           3           4           5           6           7           8
 IAtWgt=          12          12           1           1           1           1           1           1
 AtmWgt=  12.0000000  12.0000000   1.0078250   1.0078250   1.0078250   1.0078250   1.0078250   1.0078250
 NucSpn=           0           0           1           1           1           1           1           1
 AtZEff=  -0.0000000  -0.0000000  -0.0000000  -0.0000000  -0.0000000  -0.0000000  -0.0000000  -0.0000000
 NQMom=    0.0000000   0.0000000   0.0000000   0.0000000   0.0000000   0.0000000   0.0000000   0.0000000
 NMagM=    0.0000000   0.0000000   2.7928460   2.7928460   2.7928460   2.7928460   2.7928460   2.7928460
 AtZNuc=   6.0000000   6.0000000   1.0000000   1.0000000   1.0000000   1.0000000   1.0000000   1.0000000
 Leave Link  101 at Tue Nov 19 11:45:29 2024, MaxMem=  1073741824 cpu:              10.5 elap:               0.4
 (Enter /home/szhao/Apps/g16/l103.exe)

 GradGradGradGradGradGradGradGradGradGradGradGradGradGradGradGradGradGrad
 Berny optimization.
 Initialization pass.
                           ----------------------------
                           !    Initial Parameters    !
                           ! (Angstroms and Degrees)  !
 --------------------------                            --------------------------
 ! Name  Definition              Value          Derivative Info.                !
 --------------------------------------------------------------------------------
 ! X1    R(1,-1)                -0.6185         Frozen                          !
 ! Y1    R(1,-2)                 0.0            Frozen                          !
 ! Z1    R(1,-3)                 0.0            Frozen                          !
 ! X2    R(2,-1)                 0.6185         Frozen                          !
 ! Y2    R(2,-2)                 0.0            Frozen                          !
 ! Z2    R(2,-3)                 0.0            Frozen                          !
 ! R1    R(1,4)                  1.067          estimate D2E/DX2                !
 ! R2    R(1,7)                  1.0668         estimate D2E/DX2                !
 ! R3    R(1,8)                  1.0669         estimate D2E/DX2                !
 ! R4    R(2,3)                  1.0668         estimate D2E/DX2                !
 ! R5    R(2,5)                  1.0669         estimate D2E/DX2                !
 ! R6    R(2,6)                  1.0669         estimate D2E/DX2                !
 ! A1    A(2,1,4)              107.4542         estimate D2E/DX2                !
 ! A2    A(2,1,7)              107.4665         estimate D2E/DX2                !
 ! A3    A(2,1,8)              107.4551         estimate D2E/DX2                !
 ! A4    A(4,1,7)              111.4092         estimate D2E/DX2                !
 ! A5    A(4,1,8)              111.3983         estimate D2E/DX2                !
 ! A6    A(7,1,8)              111.4125         estimate D2E/DX2                !
 ! A7    A(1,2,3)              107.4665         estimate D2E/DX2                !
 ! A8    A(1,2,5)              107.4545         estimate D2E/DX2                !
 ! A9    A(1,2,6)              107.4546         estimate D2E/DX2                !
 ! A10   A(3,2,5)              111.4118         estimate D2E/DX2                !
 ! A11   A(3,2,6)              111.4105         estimate D2E/DX2                !
 ! A12   A(5,2,6)              111.3978         estimate D2E/DX2                !
 ! D1    D(4,1,2,3)            -59.9932         estimate D2E/DX2                !
 ! D2    D(4,1,2,5)            179.9987         estimate D2E/DX2                !
 ! D3    D(4,1,2,6)             60.0135         estimate D2E/DX2                !
 ! D4    D(7,1,2,3)           -179.9981         estimate D2E/DX2                !
 ! D5    D(7,1,2,5)             59.9938         estimate D2E/DX2                !
 ! D6    D(7,1,2,6)            -59.9914         estimate D2E/DX2                !
 ! D7    D(8,1,2,3)             59.9926         estimate D2E/DX2                !
 ! D8    D(8,1,2,5)            -60.0156         estimate D2E/DX2                !
 ! D9    D(8,1,2,6)            179.9993         estimate D2E/DX2                !
 --------------------------------------------------------------------------------
 Trust Radius=3.00D-01 FncErr=1.00D-07 GrdErr=1.00D-07 EigMax=2.50D+02 EigMin=1.00D-04
 Number of steps in this run=     43 maximum allowed number of steps=    100.
 GradGradGradGradGradGradGradGradGradGradGradGradGradGradGradGradGradGrad

 Leave Link  103 at Tue Nov 19 11:45:29 2024, MaxMem=  1073741824 cpu:               1.6 elap:               0.1
 (Enter /home/szhao/Apps/g16/l202.exe)
                          Input orientation:                          
 ---------------------------------------------------------------------
 Center     Atomic      Atomic             Coordinates (Angstroms)
 Number     Number       Type             X           Y           Z
 ---------------------------------------------------------------------
      1          6           0       -0.618473    0.000000    0.000000
      2          6           0        0.618536    0.000000    0.000000
      3          1           0        0.938724   -0.880754    0.509649
      4          1           0       -0.938498   -0.882021   -0.507950
      5          1           0        0.938560    0.882009    0.507916
      6          1           0        0.938567   -0.000873   -1.017819
      7          1           0       -0.938662    0.880742   -0.509681
      8          1           0       -0.938504    0.000860    1.017787
 ---------------------------------------------------------------------
                    Distance matrix (angstroms):
                    1          2          3          4          5
     1  C    0.000000
     2  C    1.237009   0.000000
     3  H    1.860197   1.066766   0.000000
     4  H    1.066954   1.860197   2.135293   0.000000
     5  H    1.860180   1.066927   1.762764   2.768959   0.000000
     6  H    1.860196   1.066947   1.762767   2.135360   1.762767
     7  H    1.066772   1.860201   2.768841   1.762764   2.135291
     8  H    1.066917   1.860179   2.135283   1.762768   2.135360
                    6          7          8
     6  H    0.000000
     7  H    2.135284   0.000000
     8  H    2.768951   1.762768   0.000000
 Symmetry turned off by external request.
 This structure is nearly, but not quite of a higher symmetry.
 Consider Symm=Loose if the higher symmetry is desired.
 Stoichiometry    C2H6
 Framework group  C1[X(C2H6)]
 Deg. of freedom    18
 Full point group                 C1      NOp   1
 Rotational constants (GHZ):          80.6886617          28.6498852          28.6498556
 Leave Link  202 at Tue Nov 19 11:45:29 2024, MaxMem=  1073741824 cpu:               1.1 elap:               0.1
 (Enter /home/szhao/Apps/g16/l301.exe)
 Standard basis: 6-311+G(d,p) (5D, 7F)
 Ernie: Thresh=  0.10000D-02 Tol=  0.10000D-05 Strict=F.
    80 basis functions,   120 primitive gaussians,    82 cartesian basis functions
     9 alpha electrons        9 beta electrons
       nuclear repulsion energy        47.3590426659 Hartrees.
 IExCor= 4336 DFT=T Ex+Corr=M062X ExCW=0 ScaHFX=  0.540000
 ScaDFX=  1.000000  1.000000  1.000000  1.000000 ScalE2=  1.000000  1.000000
 IRadAn=      7 IRanWt=     -1 IRanGd=            0 ICorTp=0 IEmpDi=  4
 NAtoms=    8 NActive=    8 NUniq=    8 SFac= 1.00D+00 NAtFMM=   60 NAOKFM=F Big=F
 Integral buffers will be    131072 words long.
 Raffenetti 2 integral format.
 Two-electron integral symmetry is turned off.
 Leave Link  301 at Tue Nov 19 11:45:29 2024, MaxMem=  1073741824 cpu:               1.2 elap:               0.1
 (Enter /home/szhao/Apps/g16/l302.exe)
 NPDir=0 NMtPBC=     1 NCelOv=     1 NCel=       1 NClECP=     1 NCelD=      1
         NCelK=      1 NCelE2=     1 NClLst=     1 CellRange=     0.0.
 One-electron integrals computed using PRISM.
 NBasis=    80 RedAO= T EigKep=  5.77D-05  NBF=    80
 NBsUse=    80 1.00D-06 EigRej= -1.00D+00 NBFU=    80
 Precomputing XC quadrature grid using
 IXCGrd= 4 IRadAn=           7 IRanWt=          -1 IRanGd=           0 AccXCQ= 0.00D+00.
 Generated NRdTot=       0 NPtTot=           0 NUsed=           0 NTot=          32
 NSgBfM=    82    82    82    82    82 MxSgAt=     8 MxSgA2=     8.
 Leave Link  302 at Tue Nov 19 11:45:30 2024, MaxMem=  1073741824 cpu:               4.5 elap:               0.2
 (Enter /home/szhao/Apps/g16/l303.exe)
 DipDrv:  MaxL=1.
 Leave Link  303 at Tue Nov 19 11:45:30 2024, MaxMem=  1073741824 cpu:               2.1 elap:               0.1
 (Enter /home/szhao/Apps/g16/l401.exe)
 ExpMin= 4.38D-02 ExpMax= 4.56D+03 ExpMxC= 6.82D+02 IAcc=3 IRadAn=         7 AccDes= 0.00D+00
 Harris functional with IExCor= 1009 and IRadAn=       7 diagonalized for initial guess.
 HarFok:  IExCor= 1009 AccDes= 0.00D+00 IRadAn=         7 IDoV= 1 UseB2=F ITyADJ=14
 ICtDFT=  3500011 ScaDFX=  1.000000  1.000000  1.000000  1.000000
 FoFCou: FMM=F IPFlag=           0 FMFlag=      100000 FMFlg1=           0
         NFxFlg=           0 DoJE=T BraDBF=F KetDBF=T FulRan=T
         wScrn=  0.000000 ICntrl=       500 IOpCl=  0 I1Cent=   200000004 NGrid=           0
         NMat0=    1 NMatS0=      1 NMatT0=    0 NMatD0=    1 NMtDS0=    0 NMtDT0=    0
 Symmetry not used in FoFCou.
 Harris En= -79.8014069908060    
 JPrj=0 DoOrth=F DoCkMO=F.
 Initial guess <Sx>= 0.0000 <Sy>= 0.0000 <Sz>= 0.0000 <S**2>=-0.0000 S=-0.0000
 Leave Link  401 at Tue Nov 19 11:45:30 2024, MaxMem=  1073741824 cpu:               9.6 elap:               0.5
 (Enter /home/szhao/Apps/g16/l502.exe)
 Keep R1 and R2 ints in memory in canonical form, NReq=32326806.
 FoFCou: FMM=F IPFlag=           0 FMFlag=           0 FMFlg1=           0
         NFxFlg=           0 DoJE=F BraDBF=F KetDBF=F FulRan=T
         wScrn=  0.000000 ICntrl=       600 IOpCl=  0 I1Cent=           0 NGrid=           0
         NMat0=    1 NMatS0=   3240 NMatT0=    0 NMatD0=    1 NMtDS0=    0 NMtDT0=    0
 Symmetry not used in FoFCou.
 Two-electron integral symmetry not used.
 UHF open shell SCF:
 Using DIIS extrapolation, IDIIS=  1040.
 NGot=  1073741824 LenX=  1063224738 LenY=  1063217573
 Requested convergence on RMS density matrix=1.00D-08 within 128 cycles.
 Requested convergence on MAX density matrix=1.00D-06.
 Requested convergence on             energy=1.00D-06.
 No special actions if energy rises.

 Cycle   1  Pass 1  IDiag  1:
 E= -79.4688807774882    
 DIIS: error= 8.09D-02 at cycle   1 NSaved=   1.
 NSaved= 1 IEnMin= 1 EnMin= -79.4688807774882     IErMin= 1 ErrMin= 8.09D-02
 ErrMax= 8.09D-02  0.00D+00 EMaxC= 1.00D-01 BMatC= 1.03D+00 BMatP= 1.03D+00
 IDIUse=3 WtCom= 1.91D-01 WtEn= 8.09D-01
 Coeff-Com:  0.100D+01
 Coeff-En:   0.100D+01
 Coeff:      0.100D+01
 Gap=     0.307 Goal=   None    Shift=    0.000
 Gap=     0.307 Goal=   None    Shift=    0.000
 GapD=    0.307 DampG=1.000 DampE=0.500 DampFc=0.5000 IDamp=-1.
 Damping current iteration by 5.00D-01
 RMSDP=7.71D-03 MaxDP=1.37D-01              OVMax= 2.30D-01

 Cycle   2  Pass 1  IDiag  1:
 E= -79.5860546559245     Delta-E=       -0.117173878436 Rises=F Damp=T
 DIIS: error= 1.15D-02 at cycle   2 NSaved=   2.
 NSaved= 2 IEnMin= 2 EnMin= -79.5860546559245     IErMin= 2 ErrMin= 1.15D-02
 ErrMax= 1.15D-02  0.00D+00 EMaxC= 1.00D-01 BMatC= 2.19D-02 BMatP= 1.03D+00
 IDIUse=3 WtCom= 8.85D-01 WtEn= 1.15D-01
 Coeff-Com: -0.416D-01 0.104D+01
 Coeff-En:   0.000D+00 0.100D+01
 Coeff:     -0.368D-01 0.104D+01
 Gap=     0.485 Goal=   None    Shift=    0.000
 Gap=     0.485 Goal=   None    Shift=    0.000
 RMSDP=2.06D-03 MaxDP=3.10D-02 DE=-1.17D-01 OVMax= 1.33D-01

 Cycle   3  Pass 1  IDiag  1:
 E= -79.7039052748557     Delta-E=       -0.117850618931 Rises=F Damp=F
 DIIS: error= 3.33D-03 at cycle   3 NSaved=   3.
 NSaved= 3 IEnMin= 3 EnMin= -79.7039052748557     IErMin= 3 ErrMin= 3.33D-03
 ErrMax= 3.33D-03  0.00D+00 EMaxC= 1.00D-01 BMatC= 1.20D-03 BMatP= 2.19D-02
 IDIUse=3 WtCom= 9.67D-01 WtEn= 3.33D-02
 Coeff-Com: -0.283D-01 0.956D-01 0.933D+00
 Coeff-En:   0.000D+00 0.000D+00 0.100D+01
 Coeff:     -0.273D-01 0.924D-01 0.935D+00
 Gap=     0.397 Goal=   None    Shift=    0.000
 Gap=     0.397 Goal=   None    Shift=    0.000
 RMSDP=1.53D-04 MaxDP=1.77D-03 DE=-1.18D-01 OVMax= 5.38D-03

 Cycle   4  Pass 1  IDiag  1:
 E= -79.7042003038223     Delta-E=       -0.000295028967 Rises=F Damp=F
 DIIS: error= 7.00D-04 at cycle   4 NSaved=   4.
 NSaved= 4 IEnMin= 4 EnMin= -79.7042003038223     IErMin= 4 ErrMin= 7.00D-04
 ErrMax= 7.00D-04  0.00D+00 EMaxC= 1.00D-01 BMatC= 1.80D-05 BMatP= 1.20D-03
 IDIUse=3 WtCom= 9.93D-01 WtEn= 7.00D-03
 Coeff-Com: -0.742D-03-0.403D-02 0.841D-01 0.921D+00
 Coeff-En:   0.000D+00 0.000D+00 0.000D+00 0.100D+01
 Coeff:     -0.737D-03-0.400D-02 0.836D-01 0.921D+00
 Gap=     0.397 Goal=   None    Shift=    0.000
 Gap=     0.397 Goal=   None    Shift=    0.000
 RMSDP=3.90D-05 MaxDP=7.18D-04 DE=-2.95D-04 OVMax= 1.37D-03

 Cycle   5  Pass 1  IDiag  1:
 E= -79.7042062285825     Delta-E=       -0.000005924760 Rises=F Damp=F
 DIIS: error= 7.40D-05 at cycle   5 NSaved=   5.
 NSaved= 5 IEnMin= 5 EnMin= -79.7042062285825     IErMin= 5 ErrMin= 7.40D-05
 ErrMax= 7.40D-05  0.00D+00 EMaxC= 1.00D-01 BMatC= 7.53D-07 BMatP= 1.80D-05
 IDIUse=1 WtCom= 1.00D+00 WtEn= 0.00D+00
 Coeff-Com:  0.130D-02-0.321D-02-0.337D-01-0.633D-02 0.104D+01
 Coeff:      0.130D-02-0.321D-02-0.337D-01-0.633D-02 0.104D+01
 Gap=     0.397 Goal=   None    Shift=    0.000
 Gap=     0.397 Goal=   None    Shift=    0.000
 RMSDP=9.76D-06 MaxDP=1.16D-04 DE=-5.92D-06 OVMax= 3.29D-04

 Cycle   6  Pass 1  IDiag  1:
 E= -79.7042065034211     Delta-E=       -0.000000274839 Rises=F Damp=F
 DIIS: error= 8.47D-06 at cycle   6 NSaved=   6.
 NSaved= 6 IEnMin= 6 EnMin= -79.7042065034211     IErMin= 6 ErrMin= 8.47D-06
 ErrMax= 8.47D-06  0.00D+00 EMaxC= 1.00D-01 BMatC= 7.77D-09 BMatP= 7.53D-07
 IDIUse=1 WtCom= 1.00D+00 WtEn= 0.00D+00
 Coeff-Com: -0.145D-03 0.186D-03 0.146D-02-0.864D-02-0.553D-01 0.106D+01
 Coeff:     -0.145D-03 0.186D-03 0.146D-02-0.864D-02-0.553D-01 0.106D+01
 Gap=     0.397 Goal=   None    Shift=    0.000
 Gap=     0.397 Goal=   None    Shift=    0.000
 RMSDP=1.04D-06 MaxDP=1.65D-05 DE=-2.75D-07 OVMax= 2.41D-05

 Cycle   7  Pass 1  IDiag  1:
 E= -79.7042065065752     Delta-E=       -0.000000003154 Rises=F Damp=F
 DIIS: error= 7.96D-07 at cycle   7 NSaved=   7.
 NSaved= 7 IEnMin= 7 EnMin= -79.7042065065752     IErMin= 7 ErrMin= 7.96D-07
 ErrMax= 7.96D-07  0.00D+00 EMaxC= 1.00D-01 BMatC= 5.00D-11 BMatP= 7.77D-09
 IDIUse=1 WtCom= 1.00D+00 WtEn= 0.00D+00
 Coeff-Com:  0.140D-04-0.159D-05-0.685D-04 0.311D-04 0.940D-03-0.117D+00
 Coeff-Com:  0.112D+01
 Coeff:      0.140D-04-0.159D-05-0.685D-04 0.311D-04 0.940D-03-0.117D+00
 Coeff:      0.112D+01
 Gap=     0.397 Goal=   None    Shift=    0.000
 Gap=     0.397 Goal=   None    Shift=    0.000
 RMSDP=1.29D-07 MaxDP=1.35D-06 DE=-3.15D-09 OVMax= 2.95D-06

 Cycle   8  Pass 1  IDiag  1:
 E= -79.7042065066016     Delta-E=       -0.000000000026 Rises=F Damp=F
 DIIS: error= 4.65D-08 at cycle   8 NSaved=   8.
 NSaved= 8 IEnMin= 8 EnMin= -79.7042065066016     IErMin= 8 ErrMin= 4.65D-08
 ErrMax= 4.65D-08  0.00D+00 EMaxC= 1.00D-01 BMatC= 3.33D-13 BMatP= 5.00D-11
 IDIUse=1 WtCom= 1.00D+00 WtEn= 0.00D+00
 Coeff-Com:  0.805D-06-0.253D-05-0.570D-05 0.889D-04 0.411D-03-0.112D-02
 Coeff-Com: -0.552D-01 0.106D+01
 Coeff:      0.805D-06-0.253D-05-0.570D-05 0.889D-04 0.411D-03-0.112D-02
 Coeff:     -0.552D-01 0.106D+01
 Gap=     0.397 Goal=   None    Shift=    0.000
 Gap=     0.397 Goal=   None    Shift=    0.000
 RMSDP=1.08D-08 MaxDP=1.44D-07 DE=-2.63D-11 OVMax= 1.53D-07

 Cycle   9  Pass 1  IDiag  1:
 E= -79.7042065066013     Delta-E=        0.000000000000 Rises=F Damp=F
 DIIS: error= 4.88D-09 at cycle   9 NSaved=   9.
 NSaved= 9 IEnMin= 8 EnMin= -79.7042065066016     IErMin= 9 ErrMin= 4.88D-09
 ErrMax= 4.88D-09  0.00D+00 EMaxC= 1.00D-01 BMatC= 5.60D-15 BMatP= 3.33D-13
 IDIUse=1 WtCom= 1.00D+00 WtEn= 0.00D+00
 Coeff-Com: -0.106D-06 0.192D-06 0.199D-05-0.367D-05-0.750D-04 0.452D-03
 Coeff-Com:  0.287D-02-0.136D+00 0.113D+01
 Coeff:     -0.106D-06 0.192D-06 0.199D-05-0.367D-05-0.750D-04 0.452D-03
 Coeff:      0.287D-02-0.136D+00 0.113D+01
 Gap=     0.397 Goal=   None    Shift=    0.000
 Gap=     0.397 Goal=   None    Shift=    0.000
 RMSDP=1.59D-09 MaxDP=2.24D-08 DE= 2.84D-13 OVMax= 2.28D-08

 SCF Done:  E(UM062X) =  -79.7042065066     A.U. after    9 cycles
            NFock=  9  Conv=0.16D-08     -V/T= 1.9910
 <Sx>= 0.0000 <Sy>= 0.0000 <Sz>= 0.0000 <S**2>=-0.0000 S=-0.0000
 <L.S>=  0.00000000000    
 KE= 8.042943062580D+01 PE=-2.794704121509D+02 EE= 7.197773235256D+01
 Annihilation of the first spin contaminant:
 S**2 before annihilation    -0.0000,   after     0.0000
 Leave Link  502 at Tue Nov 19 11:45:35 2024, MaxMem=  1073741824 cpu:             100.4 elap:               4.5
 (Enter /home/szhao/Apps/g16/l601.exe)
 Copying SCF densities to generalized density rwf, IOpCl= 1 IROHF=0.

 **********************************************************************

            Population analysis using the SCF density.

 **********************************************************************

 Alpha  occ. eigenvalues --  -10.48955 -10.48756  -0.93952  -0.66934  -0.56315
 Alpha  occ. eigenvalues --   -0.56310  -0.45540  -0.37500  -0.37493
 Alpha virt. eigenvalues --    0.02209   0.04598   0.04598   0.04813   0.08483
 Alpha virt. eigenvalues --    0.08991   0.08991   0.14583   0.18377   0.18381
 Alpha virt. eigenvalues --    0.22206   0.22209   0.23399   0.29177   0.36174
 Alpha virt. eigenvalues --    0.44798   0.44859   0.44860   0.45993   0.45993
 Alpha virt. eigenvalues --    0.66075   0.66081   0.69433   0.69444   0.73949
 Alpha virt. eigenvalues --    0.74718   0.83475   0.90917   0.95460   1.05442
 Alpha virt. eigenvalues --    1.05445   1.41503   1.41507   1.48352   1.50942
 Alpha virt. eigenvalues --    1.50944   1.53937   1.63294   1.63300   1.72235
 Alpha virt. eigenvalues --    1.83979   1.87685   1.87687   1.96766   1.96769
 Alpha virt. eigenvalues --    2.16944   2.20243   2.22819   2.22824   2.40508
 Alpha virt. eigenvalues --    2.40525   2.44696   2.53466   2.53467   2.56822
 Alpha virt. eigenvalues --    2.56839   2.64967   2.77446   2.77474   2.88725
 Alpha virt. eigenvalues --    2.88738   2.94702   3.14831   3.75752   4.03577
 Alpha virt. eigenvalues --    4.03741   4.03783   4.09037   4.09052  24.02074
 Alpha virt. eigenvalues --   24.86002
  Beta  occ. eigenvalues --  -10.48955 -10.48756  -0.93952  -0.66934  -0.56315
  Beta  occ. eigenvalues --   -0.56310  -0.45540  -0.37500  -0.37493
  Beta virt. eigenvalues --    0.02209   0.04598   0.04598   0.04813   0.08483
  Beta virt. eigenvalues --    0.08991   0.08991   0.14583   0.18377   0.18381
  Beta virt. eigenvalues --    0.22206   0.22209   0.23399   0.29177   0.36174
  Beta virt. eigenvalues --    0.44798   0.44859   0.44860   0.45993   0.45993
  Beta virt. eigenvalues --    0.66075   0.66081   0.69433   0.69444   0.73949
  Beta virt. eigenvalues --    0.74718   0.83475   0.90917   0.95460   1.05442
  Beta virt. eigenvalues --    1.05445   1.41503   1.41507   1.48352   1.50942
  Beta virt. eigenvalues --    1.50944   1.53937   1.63294   1.63300   1.72235
  Beta virt. eigenvalues --    1.83979   1.87685   1.87687   1.96766   1.96769
  Beta virt. eigenvalues --    2.16944   2.20243   2.22819   2.22824   2.40508
  Beta virt. eigenvalues --    2.40525   2.44696   2.53466   2.53467   2.56822
  Beta virt. eigenvalues --    2.56839   2.64967   2.77446   2.77474   2.88725
  Beta virt. eigenvalues --    2.88738   2.94702   3.14831   3.75752   4.03577
  Beta virt. eigenvalues --    4.03741   4.03783   4.09037   4.09052  24.02074
  Beta virt. eigenvalues --   24.86002
          Condensed to atoms (all electrons):
               1          2          3          4          5          6
     1  C    5.177437   0.119449  -0.075258   0.446388  -0.075304  -0.075318
     2  C    0.119449   5.177437   0.446362  -0.075319   0.446373   0.446389
     3  H   -0.075258   0.446362   0.588219  -0.022581  -0.036282  -0.036282
     4  H    0.446388  -0.075319  -0.022581   0.588312   0.021682  -0.022592
     5  H   -0.075304   0.446373  -0.036282   0.021682   0.588308  -0.036306
     6  H   -0.075318   0.446389  -0.036282  -0.022592  -0.036306   0.588309
     7  H    0.446365  -0.075261   0.021673  -0.036284  -0.022581  -0.022581
     8  H    0.446371  -0.075300  -0.022581  -0.036305  -0.022591   0.021682
               7          8
     1  C    0.446365   0.446371
     2  C   -0.075261  -0.075300
     3  H    0.021673  -0.022581
     4  H   -0.036284  -0.036305
     5  H   -0.022581  -0.022591
     6  H   -0.022581   0.021682
     7  H    0.588220  -0.036280
     8  H   -0.036280   0.588304
          Atomic-Atomic Spin Densities.
               1          2          3          4          5          6
     1  C    0.000000   0.000000   0.000000   0.000000   0.000000  -0.000000
     2  C    0.000000  -0.000000  -0.000000  -0.000000  -0.000000   0.000000
     3  H    0.000000  -0.000000   0.000000   0.000000   0.000000   0.000000
     4  H    0.000000  -0.000000   0.000000  -0.000000  -0.000000   0.000000
     5  H    0.000000  -0.000000   0.000000  -0.000000   0.000000   0.000000
     6  H   -0.000000   0.000000   0.000000   0.000000   0.000000  -0.000000
     7  H   -0.000000   0.000000   0.000000  -0.000000  -0.000000   0.000000
     8  H   -0.000000   0.000000   0.000000  -0.000000  -0.000000   0.000000
               7          8
     1  C   -0.000000  -0.000000
     2  C    0.000000   0.000000
     3  H    0.000000   0.000000
     4  H   -0.000000  -0.000000
     5  H   -0.000000  -0.000000
     6  H    0.000000   0.000000
     7  H   -0.000000  -0.000000
     8  H   -0.000000  -0.000000
 Mulliken charges and spin densities:
               1          2
     1  C   -0.410131   0.000000
     2  C   -0.410130  -0.000000
     3  H    0.136730   0.000000
     4  H    0.136700  -0.000000
     5  H    0.136702   0.000000
     6  H    0.136699   0.000000
     7  H    0.136729  -0.000000
     8  H    0.136701  -0.000000
 Sum of Mulliken charges =  -0.00000  -0.00000
 Mulliken charges and spin densities with hydrogens summed into heavy atoms:
               1          2
     1  C   -0.000000   0.000000
     2  C    0.000000  -0.000000
 Electronic spatial extent (au):  <R**2>=             91.4103
 Charge=             -0.0000 electrons
 Dipole moment (field-independent basis, Debye):
    X=              0.0000    Y=              0.0000    Z=              0.0000  Tot=              0.0000
 Quadrupole moment (field-independent basis, Debye-Ang):
   XX=            -16.8670   YY=            -14.3973   ZZ=            -14.3977
   XY=             -0.0007   XZ=              0.0004   YZ=             -0.0005
 Traceless Quadrupole moment (field-independent basis, Debye-Ang):
   XX=             -1.6463   YY=              0.8234   ZZ=              0.8229
   XY=             -0.0007   XZ=              0.0004   YZ=             -0.0005
 Octapole moment (field-independent basis, Debye-Ang**2):
  XXX=             -0.0016  YYY=              0.0001  ZZZ=              0.0003  XYY=             -0.0004
  XXY=              0.0001  XXZ=              0.0002  XZZ=             -0.0005  YZZ=              0.0000
  YYZ=              0.0001  XYZ=              0.0000
 Hexadecapole moment (field-independent basis, Debye-Ang**3):
 XXXX=            -72.5123 YYYY=            -28.9884 ZZZZ=            -28.9905 XXXY=             -0.0040
 XXXZ=              0.0021 YYYX=             -0.0003 YYYZ=             -0.0006 ZZZX=             -0.9232
 ZZZY=             -0.0013 XXYY=            -16.6204 XXZZ=            -16.6215 YYZZ=             -9.6634
 XXYZ=             -0.0011 YYXZ=              0.9254 ZZXY=             -0.0037
 N-N= 4.735904266590D+01 E-N=-2.794704123751D+02  KE= 8.042943062580D+01
                          Isotropic Fermi Contact Couplings
        Atom                 a.u.       MegaHertz       Gauss      10(-4) cm-1
     1  C(13)              0.00000       0.00000       0.00000       0.00000
     2  C(13)             -0.00000      -0.00000      -0.00000      -0.00000
     3  H(1)              -0.00000      -0.00000      -0.00000      -0.00000
     4  H(1)              -0.00000      -0.00000      -0.00000      -0.00000
     5  H(1)               0.00000       0.00000       0.00000       0.00000
     6  H(1)              -0.00000      -0.00000      -0.00000      -0.00000
     7  H(1)               0.00000       0.00000       0.00000       0.00000
     8  H(1)              -0.00000      -0.00000      -0.00000      -0.00000
 --------------------------------------------------------
       Center         ----  Spin Dipole Couplings  ----
                      3XX-RR        3YY-RR        3ZZ-RR
 --------------------------------------------------------
     1   Atom        0.000000      0.000000      0.000000
     2   Atom        0.000000      0.000000      0.000000
     3   Atom        0.000000      0.000000      0.000000
     4   Atom        0.000000      0.000000      0.000000
     5   Atom        0.000000      0.000000      0.000000
     6   Atom        0.000000      0.000000      0.000000
     7   Atom        0.000000      0.000000      0.000000
     8   Atom        0.000000      0.000000      0.000000
 --------------------------------------------------------
                        XY            XZ            YZ
 --------------------------------------------------------
     1   Atom        0.000000      0.000000      0.000000
     2   Atom        0.000000      0.000000      0.000000
     3   Atom        0.000000      0.000000      0.000000
     4   Atom        0.000000      0.000000      0.000000
     5   Atom        0.000000      0.000000      0.000000
     6   Atom        0.000000      0.000000      0.000000
     7   Atom        0.000000      0.000000      0.000000
     8   Atom        0.000000      0.000000      0.000000
 --------------------------------------------------------


 ---------------------------------------------------------------------------------
              Anisotropic Spin Dipole Couplings in Principal Axis System
 ---------------------------------------------------------------------------------

       Atom             a.u.   MegaHertz   Gauss  10(-4) cm-1        Axes

              Baa     0.0000     0.000     0.000     0.000  1.0000  0.0000  0.0000
     1 C(13)  Bbb     0.0000     0.000     0.000     0.000 -0.0000  1.0000  0.0000
              Bcc     0.0000     0.000     0.000     0.000  0.0000  0.0000  1.0000
 
              Baa     0.0000     0.000     0.000     0.000  1.0000  0.0000  0.0000
     2 C(13)  Bbb     0.0000     0.000     0.000     0.000 -0.0000  1.0000  0.0000
              Bcc     0.0000     0.000     0.000     0.000  0.0000  0.0000  1.0000
 
              Baa     0.0000     0.000     0.000     0.000  1.0000  0.0000  0.0000
     3 H(1)   Bbb     0.0000     0.000     0.000     0.000 -0.0000  1.0000  0.0000
              Bcc     0.0000     0.000     0.000     0.000  0.0000  0.0000  1.0000
 
              Baa     0.0000     0.000     0.000     0.000  1.0000  0.0000  0.0000
     4 H(1)   Bbb     0.0000     0.000     0.000     0.000 -0.0000  1.0000  0.0000
              Bcc     0.0000     0.000     0.000     0.000  0.0000  0.0000  1.0000
 
              Baa     0.0000     0.000     0.000     0.000  1.0000  0.0000  0.0000
     5 H(1)   Bbb     0.0000     0.000     0.000     0.000 -0.0000  1.0000  0.0000
              Bcc     0.0000     0.000     0.000     0.000  0.0000  0.0000  1.0000
 
              Baa     0.0000     0.000     0.000     0.000  1.0000  0.0000  0.0000
     6 H(1)   Bbb     0.0000     0.000     0.000     0.000 -0.0000  1.0000  0.0000
              Bcc     0.0000     0.000     0.000     0.000  0.0000  0.0000  1.0000
 
              Baa     0.0000     0.000     0.000     0.000  1.0000  0.0000  0.0000
     7 H(1)   Bbb     0.0000     0.000     0.000     0.000 -0.0000  1.0000  0.0000
              Bcc     0.0000     0.000     0.000     0.000  0.0000  0.0000  1.0000
 
              Baa     0.0000     0.000     0.000     0.000  1.0000  0.0000  0.0000
     8 H(1)   Bbb     0.0000     0.000     0.000     0.000 -0.0000  1.0000  0.0000
              Bcc     0.0000     0.000     0.000     0.000  0.0000  0.0000  1.0000
 

 ---------------------------------------------------------------------------------

 No NMR shielding tensors so no spin-rotation constants.
 Leave Link  601 at Tue Nov 19 11:45:35 2024, MaxMem=  1073741824 cpu:               5.8 elap:               0.3
 (Enter /home/szhao/Apps/g16/l701.exe)
 ... and contract with generalized density number  0.
 Compute integral first derivatives.
 Leave Link  701 at Tue Nov 19 11:45:36 2024, MaxMem=  1073741824 cpu:               5.3 elap:               0.3
 (Enter /home/szhao/Apps/g16/l702.exe)
 L702 exits ... SP integral derivatives will be done elsewhere.
 Leave Link  702 at Tue Nov 19 11:45:36 2024, MaxMem=  1073741824 cpu:               1.0 elap:               0.1
 (Enter /home/szhao/Apps/g16/l703.exe)
 Integral derivatives from FoFJK, PRISM(SPDF).
 Compute integral first derivatives, UseDBF=F ICtDFT=           0.
 Calling FoFJK, ICntrl=      2127 FMM=F ISym2X=0 I1Cent= 0 IOpClX= 1 NMat=1 NMatS=1 NMatT=0.
 FoFJK:  IHMeth= 1 ICntrl=    2127 DoSepK=F KAlg= 0 I1Cent=           0 FoldK=F
 IRaf=         0 NMat=       1 IRICut=       1 DoRegI=T DoRafI=F ISym2E= 0 IDoP0=0 IntGTp=1.
 FoFCou: FMM=F IPFlag=           0 FMFlag=      100000 FMFlg1=         800
         NFxFlg=           0 DoJE=F BraDBF=F KetDBF=F FulRan=T
         wScrn=  0.000000 ICntrl=      2127 IOpCl=  1 I1Cent=           0 NGrid=           0
         NMat0=    1 NMatS0=      1 NMatT0=    0 NMatD0=    1 NMtDS0=    0 NMtDT0=    0
 Symmetry not used in FoFCou.
 Leave Link  703 at Tue Nov 19 11:45:37 2024, MaxMem=  1073741824 cpu:              23.9 elap:               1.0
 (Enter /home/szhao/Apps/g16/l716.exe)
 Dipole        = 2.78919242D-07 3.42793337D-06 8.41183538D-06
 -------------------------------------------------------------------
 Center     Atomic                   Forces (Hartrees/Bohr)
 Number     Number              X              Y              Z
 -------------------------------------------------------------------
      1        6          -0.000000000   -0.000000000   -0.000000000
      2        6          -0.000000000   -0.000000000   -0.000000000
      3        1           0.027957880   -0.012233826    0.007081476
      4        1          -0.027927548   -0.012145920   -0.007003288
      5        1           0.027934333    0.012160104    0.007014011
      6        1           0.027929803   -0.000019967   -0.014023972
      7        1          -0.027956382    0.012232291   -0.007076723
      8        1          -0.027937484    0.000021155    0.014044211
 -------------------------------------------------------------------
 Cartesian Forces:  Max     0.027957880 RMS     0.015640656
 Leave Link  716 at Tue Nov 19 11:45:37 2024, MaxMem=  1073741824 cpu:               2.0 elap:               0.2
 (Enter /home/szhao/Apps/g16/l103.exe)

 GradGradGradGradGradGradGradGradGradGradGradGradGradGradGradGradGradGrad
 Berny optimization.
 FormGI is forming the generalized inverse of G from B-inverse, IUseBI=4.
 Internal  Forces:  Max     0.083822015 RMS     0.026706328
 Search for a local minimum.
 Step number   1 out of a maximum of   43
 All quantities printed in internal units (Hartrees-Bohrs-Radians)
 RMS Force = .18742D-01 SwitMx=.10000D-02 MixMth= 1
 Mixed Optimization -- RFO/linear search
 Second derivative matrix not updated -- first step.
 ITU=  0
     Eigenvalues ---    0.04245   0.08610   0.08610   0.08612   0.08612
     Eigenvalues ---    0.16000   0.16000   0.16000   0.16000   0.16000
     Eigenvalues ---    0.16000   0.37618   0.37619   0.37621   0.37623
     Eigenvalues ---    0.37641   0.376421000.000001000.000001000.00000
     Eigenvalues --- 1000.000001000.000001000.000001000.000001000.00000
     Eigenvalues --- 1000.000001000.000001000.000001000.000001000.00000
     Eigenvalues --- 1000.000001000.000001000.00000
 RFO step:  Lambda=-4.00118822D-02 EMin= 4.24481004D-02
 Linear search not attempted -- first point.
 Maximum step size (   0.300) exceeded in Quadratic search.
    -- Step size scaled by   0.703
 Iteration  1 RMS(Cart)=  0.07227528 RMS(Int)=  0.00326340
 Iteration  2 RMS(Cart)=  0.00245789 RMS(Int)=  0.00228392
 Iteration  3 RMS(Cart)=  0.00000691 RMS(Int)=  0.00228391
 Iteration  4 RMS(Cart)=  0.00000002 RMS(Int)=  0.00228391
 ITry= 1 IFail=0 DXMaxC= 1.69D-01 DCOld= 1.00D+10 DXMaxT= 3.00D-01 DXLimC= 3.00D+00 Rises=F
 Variable       Old X    -DE/DX   Delta X   Delta X   Delta X     New X
                                 (Linear)    (Quad)   (Total)
    X1       -1.16874  -0.08382   0.00000   0.00000   0.00000  -1.16874
    Y1        0.00000   0.00014   0.00000   0.00000   0.00000   0.00000
    Z1        0.00000  -0.00006   0.00000   0.00000   0.00000   0.00000
    X2        1.16886   0.08382   0.00000   0.00000   0.00000   1.16886
    Y2        0.00000  -0.00013   0.00000   0.00000   0.00000   0.00000
    Z2        0.00000   0.00009   0.00000   0.00000   0.00000   0.00000
    R1        2.01625   0.02175   0.00000   0.03673   0.03673   2.05298
    R2        2.01591   0.02187   0.00000   0.03691   0.03691   2.05281
    R3        2.01618   0.02178   0.00000   0.03677   0.03677   2.05295
    R4        2.01590   0.02188   0.00000   0.03691   0.03691   2.05281
    R5        2.01620   0.02177   0.00000   0.03676   0.03676   2.05296
    R6        2.01624   0.02176   0.00000   0.03673   0.03673   2.05297
    A1        1.87543   0.02445   0.00000   0.08592   0.08196   1.95739
    A2        1.87564   0.02442   0.00000   0.08578   0.08183   1.95748
    A3        1.87545   0.02445   0.00000   0.08592   0.08196   1.95741
    A4        1.94446  -0.02254   0.00000  -0.07920  -0.08281   1.86165
    A5        1.94427  -0.02254   0.00000  -0.07916  -0.08278   1.86148
    A6        1.94452  -0.02254   0.00000  -0.07921  -0.08283   1.86169
    A7        1.87564   0.02442   0.00000   0.08578   0.08183   1.95748
    A8        1.87544   0.02445   0.00000   0.08592   0.08196   1.95740
    A9        1.87544   0.02445   0.00000   0.08592   0.08197   1.95740
   A10        1.94450  -0.02254   0.00000  -0.07921  -0.08283   1.86168
   A11        1.94448  -0.02254   0.00000  -0.07920  -0.08282   1.86166
   A12        1.94426  -0.02253   0.00000  -0.07916  -0.08278   1.86148
    D1       -1.04708  -0.00000   0.00000  -0.00003  -0.00003  -1.04711
    D2        3.14157   0.00000   0.00000   0.00000   0.00000   3.14157
    D3        1.04743  -0.00001   0.00000  -0.00005  -0.00005   1.04738
    D4       -3.14156  -0.00000   0.00000  -0.00001  -0.00001  -3.14157
    D5        1.04709   0.00000   0.00000   0.00003   0.00003   1.04712
    D6       -1.04705  -0.00000   0.00000  -0.00003  -0.00003  -1.04708
    D7        1.04707   0.00000   0.00000   0.00002   0.00002   1.04709
    D8       -1.04747   0.00001   0.00000   0.00005   0.00006  -1.04741
    D9        3.14158   0.00000   0.00000   0.00000   0.00000   3.14158
         Item               Value     Threshold  Converged?
 Maximum Force            0.024455     0.000450     NO 
 RMS     Force            0.018742     0.000300     NO 
 Maximum Displacement     0.169300     0.001800     NO 
 RMS     Displacement     0.072757     0.001200     NO 
 Predicted change in Energy=-1.998488D-02
 Lowest energy point so far.  Saving SCF results.
 GradGradGradGradGradGradGradGradGradGradGradGradGradGradGradGradGradGrad

 Leave Link  103 at Tue Nov 19 11:45:38 2024, MaxMem=  1073741824 cpu:               3.0 elap:               0.2
 (Enter /home/szhao/Apps/g16/l202.exe)
                          Input orientation:                          
 ---------------------------------------------------------------------
 Center     Atomic      Atomic             Coordinates (Angstroms)
 Number     Number       Type             X           Y           Z
 ---------------------------------------------------------------------
      1          6           0       -0.618473    0.000000    0.000000
      2          6           0        0.618536    0.000000    0.000000
      3          1           0        1.028198   -0.870811    0.503898
      4          1           0       -1.028083   -0.871939   -0.502177
      5          1           0        1.028146    0.871938    0.502155
      6          1           0        1.028157   -0.000887   -1.006202
      7          1           0       -1.028135    0.870800   -0.503922
      8          1           0       -1.028094    0.000876    1.006188
 ---------------------------------------------------------------------
                    Distance matrix (angstroms):
                    1          2          3          4          5
     1  C    0.000000
     2  C    1.237009   0.000000
     3  H    1.929702   1.086300   0.000000
     4  H    1.086389   1.929719   2.289210   0.000000
     5  H    1.929712   1.086377   1.742750   2.877129   0.000000
     6  H    1.929724   1.086385   1.742749   2.289301   1.742689
     7  H    1.086303   1.929704   2.877050   1.742741   2.289210
     8  H    1.086373   1.929717   2.289207   1.742691   2.289306
                    6          7          8
     6  H    0.000000
     7  H    2.289205   0.000000
     8  H    2.877132   1.742757   0.000000
 Symmetry turned off by external request.
 Stoichiometry    C2H6
 Framework group  C1[X(C2H6)]
 Deg. of freedom    18
 Full point group                 C1      NOp   1
 Rotational constants (GHZ):          82.5547539          27.1214979          27.1210939
 Leave Link  202 at Tue Nov 19 11:45:38 2024, MaxMem=  1073741824 cpu:               2.8 elap:               0.2
 (Enter /home/szhao/Apps/g16/l301.exe)
 Standard basis: 6-311+G(d,p) (5D, 7F)
 Ernie: Thresh=  0.10000D-02 Tol=  0.10000D-05 Strict=F.
    80 basis functions,   120 primitive gaussians,    82 cartesian basis functions
     9 alpha electrons        9 beta electrons
       nuclear repulsion energy        46.5691677997 Hartrees.
 IExCor= 4336 DFT=T Ex+Corr=M062X ExCW=0 ScaHFX=  0.540000
 ScaDFX=  1.000000  1.000000  1.000000  1.000000 ScalE2=  1.000000  1.000000
 IRadAn=      7 IRanWt=     -1 IRanGd=            0 ICorTp=0 IEmpDi=  4
 NAtoms=    8 NActive=    8 NUniq=    8 SFac= 1.00D+00 NAtFMM=   60 NAOKFM=F Big=F
 Integral buffers will be    131072 words long.
 Raffenetti 2 integral format.
 Two-electron integral symmetry is turned off.
 Leave Link  301 at Tue Nov 19 11:45:38 2024, MaxMem=  1073741824 cpu:               2.3 elap:               0.1
 (Enter /home/szhao/Apps/g16/l302.exe)
 NPDir=0 NMtPBC=     1 NCelOv=     1 NCel=       1 NClECP=     1 NCelD=      1
         NCelK=      1 NCelE2=     1 NClLst=     1 CellRange=     0.0.
 One-electron integrals computed using PRISM.
 NBasis=    80 RedAO= T EigKep=  5.87D-05  NBF=    80
 NBsUse=    80 1.00D-06 EigRej= -1.00D+00 NBFU=    80
 Precomputing XC quadrature grid using
 IXCGrd= 4 IRadAn=           7 IRanWt=          -1 IRanGd=           0 AccXCQ= 0.00D+00.
 Generated NRdTot=       0 NPtTot=           0 NUsed=           0 NTot=          32
 NSgBfM=    82    82    82    82    82 MxSgAt=     8 MxSgA2=     8.
 Leave Link  302 at Tue Nov 19 11:45:39 2024, MaxMem=  1073741824 cpu:              11.0 elap:               0.5
 (Enter /home/szhao/Apps/g16/l303.exe)
 DipDrv:  MaxL=1.
 Leave Link  303 at Tue Nov 19 11:45:39 2024, MaxMem=  1073741824 cpu:               3.4 elap:               0.2
 (Enter /home/szhao/Apps/g16/l401.exe)
 Initial guess from the checkpoint file:  "opt.chk"
 B after Tr=     0.000000    0.000002    0.000004
         Rot=    1.000000   -0.000001    0.000012    0.000020 Ang=  -0.00 deg.
 Guess basis will be translated and rotated to current coordinates.
 JPrj=2 DoOrth=T DoCkMO=T.
 Initial guess <Sx>= 0.0000 <Sy>= 0.0000 <Sz>= 0.0000 <S**2>=-0.0000 S=-0.0000
 Generating alternative initial guess.
 ExpMin= 4.38D-02 ExpMax= 4.56D+03 ExpMxC= 6.82D+02 IAcc=3 IRadAn=         5 AccDes= 0.00D+00
 Harris functional with IExCor= 1009 and IRadAn=       5 diagonalized for initial guess.
 HarFok:  IExCor= 1009 AccDes= 0.00D+00 IRadAn=         5 IDoV= 1 UseB2=F ITyADJ=14
 ICtDFT=  3500011 ScaDFX=  1.000000  1.000000  1.000000  1.000000
 FoFCou: FMM=F IPFlag=           0 FMFlag=      100000 FMFlg1=           0
         NFxFlg=           0 DoJE=T BraDBF=F KetDBF=T FulRan=T
         wScrn=  0.000000 ICntrl=       500 IOpCl=  0 I1Cent=   200000004 NGrid=           0
         NMat0=    1 NMatS0=      1 NMatT0=    0 NMatD0=    1 NMtDS0=    0 NMtDT0=    0
 Symmetry not used in FoFCou.
 Harris En= -79.8079176881057    
 Leave Link  401 at Tue Nov 19 11:45:39 2024, MaxMem=  1073741824 cpu:               9.2 elap:               0.4
 (Enter /home/szhao/Apps/g16/l502.exe)
 Keep R1 and R2 ints in memory in canonical form, NReq=32326806.
 FoFCou: FMM=F IPFlag=           0 FMFlag=           0 FMFlg1=           0
         NFxFlg=           0 DoJE=F BraDBF=F KetDBF=F FulRan=T
         wScrn=  0.000000 ICntrl=       600 IOpCl=  0 I1Cent=           0 NGrid=           0
         NMat0=    1 NMatS0=   3240 NMatT0=    0 NMatD0=    1 NMtDS0=    0 NMtDT0=    0
 Symmetry not used in FoFCou.
 Two-electron integral symmetry not used.
 UHF open shell SCF:
 Using DIIS extrapolation, IDIIS=  1040.
 NGot=  1073741824 LenX=  1063224738 LenY=  1063217573
 Requested convergence on RMS density matrix=1.00D-08 within 128 cycles.
 Requested convergence on MAX density matrix=1.00D-06.
 Requested convergence on             energy=1.00D-06.
 No special actions if energy rises.

 Cycle   1  Pass 1  IDiag  1:
 E= -79.7210432819557    
 DIIS: error= 7.16D-03 at cycle   1 NSaved=   1.
 NSaved= 1 IEnMin= 1 EnMin= -79.7210432819557     IErMin= 1 ErrMin= 7.16D-03
 ErrMax= 7.16D-03  0.00D+00 EMaxC= 1.00D-01 BMatC= 6.90D-03 BMatP= 6.90D-03
 IDIUse=3 WtCom= 9.28D-01 WtEn= 7.16D-02
 Coeff-Com:  0.100D+01
 Coeff-En:   0.100D+01
 Coeff:      0.100D+01
 Gap=     0.620 Goal=   None    Shift=    0.000
 Gap=     0.620 Goal=   None    Shift=    0.000
 GapD=    0.620 DampG=2.000 DampE=1.000 DampFc=2.0000 IDamp=-1.
 RMSDP=6.90D-04 MaxDP=1.18D-02              OVMax= 1.06D-02

 Cycle   2  Pass 1  IDiag  1:
 E= -79.7226037547725     Delta-E=       -0.001560472817 Rises=F Damp=F
 DIIS: error= 2.50D-03 at cycle   2 NSaved=   2.
 NSaved= 2 IEnMin= 2 EnMin= -79.7226037547725     IErMin= 2 ErrMin= 2.50D-03
 ErrMax= 2.50D-03  0.00D+00 EMaxC= 1.00D-01 BMatC= 4.06D-04 BMatP= 6.90D-03
 IDIUse=3 WtCom= 9.75D-01 WtEn= 2.50D-02
 Coeff-Com:  0.419D-01 0.958D+00
 Coeff-En:   0.000D+00 0.100D+01
 Coeff:      0.408D-01 0.959D+00
 Gap=     0.393 Goal=   None    Shift=    0.000
 Gap=     0.393 Goal=   None    Shift=    0.000
 RMSDP=1.34D-04 MaxDP=2.60D-03 DE=-1.56D-03 OVMax= 5.33D-03

 Cycle   3  Pass 1  IDiag  1:
 E= -79.7226447880404     Delta-E=       -0.000041033268 Rises=F Damp=F
 DIIS: error= 1.41D-03 at cycle   3 NSaved=   3.
 NSaved= 3 IEnMin= 3 EnMin= -79.7226447880404     IErMin= 3 ErrMin= 1.41D-03
 ErrMax= 1.41D-03  0.00D+00 EMaxC= 1.00D-01 BMatC= 2.72D-04 BMatP= 4.06D-04
 IDIUse=3 WtCom= 9.86D-01 WtEn= 1.41D-02
 Coeff-Com: -0.382D-01 0.455D+00 0.583D+00
 Coeff-En:   0.000D+00 0.350D+00 0.650D+00
 Coeff:     -0.377D-01 0.454D+00 0.584D+00
 Gap=     0.391 Goal=   None    Shift=    0.000
 Gap=     0.391 Goal=   None    Shift=    0.000
 RMSDP=5.99D-05 MaxDP=1.13D-03 DE=-4.10D-05 OVMax= 1.97D-03

 Cycle   4  Pass 1  IDiag  1:
 E= -79.7227086306115     Delta-E=       -0.000063842571 Rises=F Damp=F
 DIIS: error= 6.52D-05 at cycle   4 NSaved=   4.
 NSaved= 4 IEnMin= 4 EnMin= -79.7227086306115     IErMin= 4 ErrMin= 6.52D-05
 ErrMax= 6.52D-05  0.00D+00 EMaxC= 1.00D-01 BMatC= 7.98D-07 BMatP= 2.72D-04
 IDIUse=1 WtCom= 1.00D+00 WtEn= 0.00D+00
 Coeff-Com: -0.606D-02 0.286D-01 0.692D-01 0.908D+00
 Coeff:     -0.606D-02 0.286D-01 0.692D-01 0.908D+00
 Gap=     0.391 Goal=   None    Shift=    0.000
 Gap=     0.391 Goal=   None    Shift=    0.000
 RMSDP=6.96D-06 MaxDP=8.71D-05 DE=-6.38D-05 OVMax= 2.21D-04

 Cycle   5  Pass 1  IDiag  1:
 E= -79.7227088603760     Delta-E=       -0.000000229764 Rises=F Damp=F
 DIIS: error= 9.71D-06 at cycle   5 NSaved=   5.
 NSaved= 5 IEnMin= 5 EnMin= -79.7227088603760     IErMin= 5 ErrMin= 9.71D-06
 ErrMax= 9.71D-06  0.00D+00 EMaxC= 1.00D-01 BMatC= 1.83D-08 BMatP= 7.98D-07
 IDIUse=1 WtCom= 1.00D+00 WtEn= 0.00D+00
 Coeff-Com:  0.971D-03-0.135D-01-0.173D-01 0.538D-01 0.976D+00
 Coeff:      0.971D-03-0.135D-01-0.173D-01 0.538D-01 0.976D+00
 Gap=     0.391 Goal=   None    Shift=    0.000
 Gap=     0.391 Goal=   None    Shift=    0.000
 RMSDP=2.02D-06 MaxDP=2.72D-05 DE=-2.30D-07 OVMax= 3.85D-05

 Cycle   6  Pass 1  IDiag  1:
 E= -79.7227088671191     Delta-E=       -0.000000006743 Rises=F Damp=F
 DIIS: error= 9.52D-07 at cycle   6 NSaved=   6.
 NSaved= 6 IEnMin= 6 EnMin= -79.7227088671191     IErMin= 6 ErrMin= 9.52D-07
 ErrMax= 9.52D-07  0.00D+00 EMaxC= 1.00D-01 BMatC= 9.55D-11 BMatP= 1.83D-08
 IDIUse=1 WtCom= 1.00D+00 WtEn= 0.00D+00
 Coeff-Com: -0.445D-04 0.111D-02 0.112D-02-0.161D-01-0.937D-01 0.111D+01
 Coeff:     -0.445D-04 0.111D-02 0.112D-02-0.161D-01-0.937D-01 0.111D+01
 Gap=     0.391 Goal=   None    Shift=    0.000
 Gap=     0.391 Goal=   None    Shift=    0.000
 RMSDP=4.19D-07 MaxDP=5.61D-06 DE=-6.74D-09 OVMax= 4.92D-06

 Cycle   7  Pass 1  IDiag  1:
 E= -79.7227088671821     Delta-E=       -0.000000000063 Rises=F Damp=F
 DIIS: error= 7.19D-08 at cycle   7 NSaved=   7.
 NSaved= 7 IEnMin= 7 EnMin= -79.7227088671821     IErMin= 7 ErrMin= 7.19D-08
 ErrMax= 7.19D-08  0.00D+00 EMaxC= 1.00D-01 BMatC= 7.08D-13 BMatP= 9.55D-11
 IDIUse=1 WtCom= 1.00D+00 WtEn= 0.00D+00
 Coeff-Com: -0.389D-05 0.126D-04 0.472D-04 0.139D-02-0.132D-02-0.966D-01
 Coeff-Com:  0.110D+01
 Coeff:     -0.389D-05 0.126D-04 0.472D-04 0.139D-02-0.132D-02-0.966D-01
 Coeff:      0.110D+01
 Gap=     0.391 Goal=   None    Shift=    0.000
 Gap=     0.391 Goal=   None    Shift=    0.000
 RMSDP=4.03D-08 MaxDP=5.66D-07 DE=-6.30D-11 OVMax= 2.69D-07

 Cycle   8  Pass 1  IDiag  1:
 E= -79.7227088671826     Delta-E=       -0.000000000000 Rises=F Damp=F
 DIIS: error= 7.84D-09 at cycle   8 NSaved=   8.
 NSaved= 8 IEnMin= 8 EnMin= -79.7227088671826     IErMin= 8 ErrMin= 7.84D-09
 ErrMax= 7.84D-09  0.00D+00 EMaxC= 1.00D-01 BMatC= 4.31D-15 BMatP= 7.08D-13
 IDIUse=1 WtCom= 1.00D+00 WtEn= 0.00D+00
 Coeff-Com:  0.215D-06-0.293D-05-0.162D-05-0.333D-04 0.293D-03 0.173D-02
 Coeff-Com: -0.664D-01 0.106D+01
 Coeff:      0.215D-06-0.293D-05-0.162D-05-0.333D-04 0.293D-03 0.173D-02
 Coeff:     -0.664D-01 0.106D+01
 Gap=     0.391 Goal=   None    Shift=    0.000
 Gap=     0.391 Goal=   None    Shift=    0.000
 RMSDP=1.18D-09 MaxDP=1.35D-08 DE=-4.55D-13 OVMax= 1.75D-08

 SCF Done:  E(UM062X) =  -79.7227088672     A.U. after    8 cycles
            NFock=  8  Conv=0.12D-08     -V/T= 1.9937
 <Sx>= 0.0000 <Sy>= 0.0000 <Sz>= 0.0000 <S**2>=-0.0000 S=-0.0000
 <L.S>=  0.00000000000    
 KE= 8.022697176757D+01 PE=-2.777725588983D+02 EE= 7.125371046379D+01
 Annihilation of the first spin contaminant:
 S**2 before annihilation    -0.0000,   after     0.0000
 Leave Link  502 at Tue Nov 19 11:45:43 2024, MaxMem=  1073741824 cpu:              84.0 elap:               3.8
 (Enter /home/szhao/Apps/g16/l701.exe)
 ... and contract with generalized density number  0.
 Compute integral first derivatives.
 Leave Link  701 at Tue Nov 19 11:45:44 2024, MaxMem=  1073741824 cpu:               8.9 elap:               0.4
 (Enter /home/szhao/Apps/g16/l702.exe)
 L702 exits ... SP integral derivatives will be done elsewhere.
 Leave Link  702 at Tue Nov 19 11:45:44 2024, MaxMem=  1073741824 cpu:               1.5 elap:               0.1
 (Enter /home/szhao/Apps/g16/l703.exe)
 Integral derivatives from FoFJK, PRISM(SPDF).
 Compute integral first derivatives, UseDBF=F ICtDFT=           0.
 Calling FoFJK, ICntrl=      2127 FMM=F ISym2X=0 I1Cent= 0 IOpClX= 1 NMat=1 NMatS=1 NMatT=0.
 FoFJK:  IHMeth= 1 ICntrl=    2127 DoSepK=F KAlg= 0 I1Cent=           0 FoldK=F
 IRaf=         0 NMat=       1 IRICut=       1 DoRegI=T DoRafI=F ISym2E= 0 IDoP0=0 IntGTp=1.
 FoFCou: FMM=F IPFlag=           0 FMFlag=      100000 FMFlg1=         800
         NFxFlg=           0 DoJE=F BraDBF=F KetDBF=F FulRan=T
         wScrn=  0.000000 ICntrl=      2127 IOpCl=  1 I1Cent=           0 NGrid=           0
         NMat0=    1 NMatS0=      1 NMatT0=    0 NMatD0=    1 NMtDS0=    0 NMtDT0=    0
 Symmetry not used in FoFCou.
 Leave Link  703 at Tue Nov 19 11:45:45 2024, MaxMem=  1073741824 cpu:              23.9 elap:               1.0
 (Enter /home/szhao/Apps/g16/l716.exe)
 Dipole        = 1.57572710D-07 4.05229659D-07 7.14710687D-07
 -------------------------------------------------------------------
 Center     Atomic                   Forces (Hartrees/Bohr)
 Number     Number              X              Y              Z
 -------------------------------------------------------------------
      1        6          -0.000000000   -0.000000000   -0.000000000
      2        6          -0.000000000   -0.000000000   -0.000000000
      3        1           0.010775129   -0.004314564    0.002498343
      4        1          -0.010754864   -0.004277092   -0.002473284
      5        1           0.010758135    0.004281390    0.002478037
      6        1           0.010756427   -0.000013503   -0.004943392
      7        1          -0.010774407    0.004314953   -0.002495113
      8        1          -0.010760164    0.000014564    0.004950373
 -------------------------------------------------------------------
 Cartesian Forces:  Max     0.010775129 RMS     0.005925245
 Leave Link  716 at Tue Nov 19 11:45:45 2024, MaxMem=  1073741824 cpu:               0.9 elap:               0.1
 (Enter /home/szhao/Apps/g16/l103.exe)

 GradGradGradGradGradGradGradGradGradGradGradGradGradGradGradGradGradGrad
 Berny optimization.
 Using GEDIIS/GDIIS optimizer.
 FormGI is forming the generalized inverse of G from B-inverse, IUseBI=4.
 Internal  Forces:  Max     0.032289691 RMS     0.009984200
 Search for a local minimum.
 Step number   2 out of a maximum of   43
 All quantities printed in internal units (Hartrees-Bohrs-Radians)
 RMS Force = .66787D-02 SwitMx=.10000D-02 MixMth= 1
 Mixed Optimization -- RFO/linear search
 Update second derivatives using D2CorX and points    1    2
 DE= -1.85D-02 DEPred=-2.00D-02 R= 9.26D-01
 TightC=F SS=  1.41D+00  RLast= 2.99D-01 DXNew= 5.0454D-01 8.9767D-01
 Trust test= 9.26D-01 RLast= 2.99D-01 DXMaxT set to 5.05D-01
 ITU=  1  0
 Use linear search instead of GDIIS.
     Eigenvalues ---    0.04245   0.07964   0.07964   0.07965   0.07965
     Eigenvalues ---    0.16000   0.16000   0.16000   0.16000   0.16000
     Eigenvalues ---    0.18814   0.36150   0.37618   0.37620   0.37622
     Eigenvalues ---    0.37634   0.376411000.000001000.000001000.00000
     Eigenvalues --- 1000.000001000.000001000.000001000.000001000.00000
     Eigenvalues --- 1000.000001000.000001000.000001000.000001000.00000
     Eigenvalues --- 1000.000001000.000001000.00000
 RFO step:  Lambda=-1.70006695D-05 EMin= 4.24481004D-02
 Quartic linear search produced a step of  0.66590.
 Iteration  1 RMS(Cart)=  0.04565820 RMS(Int)=  0.00216387
 Iteration  2 RMS(Cart)=  0.00096056 RMS(Int)=  0.00195637
 Iteration  3 RMS(Cart)=  0.00000124 RMS(Int)=  0.00195637
 Iteration  4 RMS(Cart)=  0.00000000 RMS(Int)=  0.00195637
 ITry= 1 IFail=0 DXMaxC= 1.06D-01 DCOld= 1.00D+10 DXMaxT= 5.05D-01 DXLimC= 3.00D+00 Rises=F
 Variable       Old X    -DE/DX   Delta X   Delta X   Delta X     New X
                                 (Linear)    (Quad)   (Total)
    X1       -1.16874  -0.03229   0.00000   0.00000   0.00000  -1.16874
    Y1        0.00000   0.00006   0.00000   0.00000   0.00000   0.00000
    Z1        0.00000  -0.00003   0.00000   0.00000   0.00000   0.00000
    X2        1.16886   0.03229   0.00000   0.00000   0.00000   1.16886
    Y2        0.00000  -0.00006   0.00000   0.00000   0.00000   0.00000
    Z2        0.00000   0.00004   0.00000   0.00000   0.00000   0.00000
    R1        2.05298   0.00863   0.02446   0.00246   0.02691   2.07989
    R2        2.05281   0.00868   0.02458   0.00247   0.02705   2.07986
    R3        2.05295   0.00864   0.02448   0.00246   0.02695   2.07989
    R4        2.05281   0.00868   0.02458   0.00247   0.02705   2.07986
    R5        2.05296   0.00864   0.02448   0.00246   0.02693   2.07989
    R6        2.05297   0.00863   0.02446   0.00246   0.02692   2.07990
    A1        1.95739   0.00757   0.05458  -0.00076   0.05031   2.00770
    A2        1.95748   0.00757   0.05449  -0.00073   0.05026   2.00774
    A3        1.95741   0.00757   0.05458  -0.00076   0.05031   2.00772
    A4        1.86165  -0.00828  -0.05514   0.00079  -0.05732   1.80433
    A5        1.86148  -0.00827  -0.05513   0.00090  -0.05719   1.80429
    A6        1.86169  -0.00828  -0.05515   0.00077  -0.05734   1.80435
    A7        1.95748   0.00757   0.05449  -0.00073   0.05026   2.00774
    A8        1.95740   0.00757   0.05458  -0.00076   0.05031   2.00771
    A9        1.95740   0.00757   0.05458  -0.00076   0.05031   2.00772
   A10        1.86168  -0.00828  -0.05515   0.00077  -0.05734   1.80433
   A11        1.86166  -0.00828  -0.05515   0.00078  -0.05732   1.80434
   A12        1.86148  -0.00827  -0.05512   0.00091  -0.05719   1.80429
    D1       -1.04711  -0.00000  -0.00002  -0.00005  -0.00007  -1.04718
    D2        3.14157   0.00000   0.00000   0.00001   0.00001   3.14159
    D3        1.04738  -0.00001  -0.00003  -0.00009  -0.00013   1.04725
    D4       -3.14157  -0.00000  -0.00000  -0.00001  -0.00002  -3.14159
    D5        1.04712   0.00000   0.00002   0.00004   0.00007   1.04718
    D6       -1.04708  -0.00000  -0.00002  -0.00005  -0.00008  -1.04715
    D7        1.04709   0.00000   0.00002   0.00004   0.00006   1.04715
    D8       -1.04741   0.00001   0.00004   0.00010   0.00015  -1.04726
    D9        3.14158   0.00000   0.00000   0.00001   0.00001   3.14159
         Item               Value     Threshold  Converged?
 Maximum Force            0.008681     0.000450     NO 
 RMS     Force            0.006679     0.000300     NO 
 Maximum Displacement     0.106049     0.001800     NO 
 RMS     Displacement     0.045779     0.001200     NO 
 Predicted change in Energy=-2.495002D-03
 Lowest energy point so far.  Saving SCF results.
 GradGradGradGradGradGradGradGradGradGradGradGradGradGradGradGradGradGrad

 Leave Link  103 at Tue Nov 19 11:45:46 2024, MaxMem=  1073741824 cpu:               3.6 elap:               0.2
 (Enter /home/szhao/Apps/g16/l202.exe)
                          Input orientation:                          
 ---------------------------------------------------------------------
 Center     Atomic      Atomic             Coordinates (Angstroms)
 Number     Number       Type             X           Y           Z
 ---------------------------------------------------------------------
      1          6           0       -0.618473    0.000000    0.000000
      2          6           0        0.618536    0.000000    0.000000
      3          1           0        1.084288   -0.863120    0.499455
      4          1           0       -1.084194   -0.864135   -0.497758
      5          1           0        1.084259    0.864135    0.497753
      6          1           0        1.084273   -0.000941   -0.997237
      7          1           0       -1.084225    0.863117   -0.499461
      8          1           0       -1.084213    0.000938    0.997234
 ---------------------------------------------------------------------
                    Distance matrix (angstroms):
                    1          2          3          4          5
     1  C    0.000000
     2  C    1.237009   0.000000
     3  H    1.973278   1.100616   0.000000
     4  H    1.100631   1.973267   2.386787   0.000000
     5  H    1.973267   1.100629   1.727256   2.946209   0.000000
     6  H    1.973278   1.100633   1.727264   2.386803   1.727238
     7  H    1.100617   1.973278   2.946214   1.727253   2.386788
     8  H    1.100632   1.973279   2.386792   1.727239   2.386810
                    6          7          8
     6  H    0.000000
     7  H    2.386789   0.000000
     8  H    2.946226   1.727266   0.000000
 Symmetry turned off by external request.
 Stoichiometry    C2H6
 Framework group  C1[X(C2H6)]
 Deg. of freedom    18
 Full point group                 C1      NOp   1
 Rotational constants (GHZ):          84.0408314          26.1901609          26.1900132
 Leave Link  202 at Tue Nov 19 11:45:46 2024, MaxMem=  1073741824 cpu:               2.5 elap:               0.1
 (Enter /home/szhao/Apps/g16/l301.exe)
 Standard basis: 6-311+G(d,p) (5D, 7F)
 Ernie: Thresh=  0.10000D-02 Tol=  0.10000D-05 Strict=F.
    80 basis functions,   120 primitive gaussians,    82 cartesian basis functions
     9 alpha electrons        9 beta electrons
       nuclear repulsion energy        46.0705345039 Hartrees.
 IExCor= 4336 DFT=T Ex+Corr=M062X ExCW=0 ScaHFX=  0.540000
 ScaDFX=  1.000000  1.000000  1.000000  1.000000 ScalE2=  1.000000  1.000000
 IRadAn=      7 IRanWt=     -1 IRanGd=            0 ICorTp=0 IEmpDi=  4
 NAtoms=    8 NActive=    8 NUniq=    8 SFac= 1.00D+00 NAtFMM=   60 NAOKFM=F Big=F
 Integral buffers will be    131072 words long.
 Raffenetti 2 integral format.
 Two-electron integral symmetry is turned off.
 Leave Link  301 at Tue Nov 19 11:45:46 2024, MaxMem=  1073741824 cpu:               2.0 elap:               0.1
 (Enter /home/szhao/Apps/g16/l302.exe)
 NPDir=0 NMtPBC=     1 NCelOv=     1 NCel=       1 NClECP=     1 NCelD=      1
         NCelK=      1 NCelE2=     1 NClLst=     1 CellRange=     0.0.
 One-electron integrals computed using PRISM.
 NBasis=    80 RedAO= T EigKep=  6.02D-05  NBF=    80
 NBsUse=    80 1.00D-06 EigRej= -1.00D+00 NBFU=    80
 Precomputing XC quadrature grid using
 IXCGrd= 4 IRadAn=           7 IRanWt=          -1 IRanGd=           0 AccXCQ= 0.00D+00.
 Generated NRdTot=       0 NPtTot=           0 NUsed=           0 NTot=          32
 NSgBfM=    82    82    82    82    82 MxSgAt=     8 MxSgA2=     8.
 Leave Link  302 at Tue Nov 19 11:45:46 2024, MaxMem=  1073741824 cpu:               5.5 elap:               0.3
 (Enter /home/szhao/Apps/g16/l303.exe)
 DipDrv:  MaxL=1.
 Leave Link  303 at Tue Nov 19 11:45:47 2024, MaxMem=  1073741824 cpu:               1.7 elap:               0.1
 (Enter /home/szhao/Apps/g16/l401.exe)
 Initial guess from the checkpoint file:  "opt.chk"
 B after Tr=     0.000000    0.000002    0.000005
         Rot=    1.000000   -0.000002    0.000009    0.000015 Ang=  -0.00 deg.
 Guess basis will be translated and rotated to current coordinates.
 JPrj=2 DoOrth=T DoCkMO=T.
 Initial guess <Sx>= 0.0000 <Sy>= 0.0000 <Sz>= 0.0000 <S**2>=-0.0000 S=-0.0000
 Generating alternative initial guess.
 ExpMin= 4.38D-02 ExpMax= 4.56D+03 ExpMxC= 6.82D+02 IAcc=3 IRadAn=         5 AccDes= 0.00D+00
 Harris functional with IExCor= 1009 and IRadAn=       5 diagonalized for initial guess.
 HarFok:  IExCor= 1009 AccDes= 0.00D+00 IRadAn=         5 IDoV= 1 UseB2=F ITyADJ=14
 ICtDFT=  3500011 ScaDFX=  1.000000  1.000000  1.000000  1.000000
 FoFCou: FMM=F IPFlag=           0 FMFlag=      100000 FMFlg1=           0
         NFxFlg=           0 DoJE=T BraDBF=F KetDBF=T FulRan=T
         wScrn=  0.000000 ICntrl=       500 IOpCl=  0 I1Cent=   200000004 NGrid=           0
         NMat0=    1 NMatS0=      1 NMatT0=    0 NMatD0=    1 NMtDS0=    0 NMtDT0=    0
 Symmetry not used in FoFCou.
 Harris En= -79.8029597928491    
 Leave Link  401 at Tue Nov 19 11:45:47 2024, MaxMem=  1073741824 cpu:               6.7 elap:               0.3
 (Enter /home/szhao/Apps/g16/l502.exe)
 Keep R1 and R2 ints in memory in canonical form, NReq=32326806.
 FoFCou: FMM=F IPFlag=           0 FMFlag=           0 FMFlg1=           0
         NFxFlg=           0 DoJE=F BraDBF=F KetDBF=F FulRan=T
         wScrn=  0.000000 ICntrl=       600 IOpCl=  0 I1Cent=           0 NGrid=           0
         NMat0=    1 NMatS0=   3240 NMatT0=    0 NMatD0=    1 NMtDS0=    0 NMtDT0=    0
 Symmetry not used in FoFCou.
 Two-electron integral symmetry not used.
 UHF open shell SCF:
 Using DIIS extrapolation, IDIIS=  1040.
 NGot=  1073741824 LenX=  1063224738 LenY=  1063217573
 Requested convergence on RMS density matrix=1.00D-08 within 128 cycles.
 Requested convergence on MAX density matrix=1.00D-06.
 Requested convergence on             energy=1.00D-06.
 No special actions if energy rises.

 Cycle   1  Pass 1  IDiag  1:
 E= -79.7251616514885    
 DIIS: error= 4.03D-03 at cycle   1 NSaved=   1.
 NSaved= 1 IEnMin= 1 EnMin= -79.7251616514885     IErMin= 1 ErrMin= 4.03D-03
 ErrMax= 4.03D-03  0.00D+00 EMaxC= 1.00D-01 BMatC= 2.66D-03 BMatP= 2.66D-03
 IDIUse=3 WtCom= 9.60D-01 WtEn= 4.03D-02
 Coeff-Com:  0.100D+01
 Coeff-En:   0.100D+01
 Coeff:      0.100D+01
 Gap=     0.607 Goal=   None    Shift=    0.000
 Gap=     0.607 Goal=   None    Shift=    0.000
 GapD=    0.607 DampG=2.000 DampE=1.000 DampFc=2.0000 IDamp=-1.
 RMSDP=4.16D-04 MaxDP=6.76D-03              OVMax= 6.94D-03

 Cycle   2  Pass 1  IDiag  1:
 E= -79.7257407545300     Delta-E=       -0.000579103042 Rises=F Damp=F
 DIIS: error= 1.79D-03 at cycle   2 NSaved=   2.
 NSaved= 2 IEnMin= 2 EnMin= -79.7257407545300     IErMin= 2 ErrMin= 1.79D-03
 ErrMax= 1.79D-03  0.00D+00 EMaxC= 1.00D-01 BMatC= 2.74D-04 BMatP= 2.66D-03
 IDIUse=3 WtCom= 9.82D-01 WtEn= 1.79D-02
 Coeff-Com:  0.111D+00 0.889D+00
 Coeff-En:   0.000D+00 0.100D+01
 Coeff:      0.109D+00 0.891D+00
 Gap=     0.387 Goal=   None    Shift=    0.000
 Gap=     0.387 Goal=   None    Shift=    0.000
 RMSDP=1.04D-04 MaxDP=2.12D-03 DE=-5.79D-04 OVMax= 3.67D-03

 Cycle   3  Pass 1  IDiag  1:
 E= -79.7257717162542     Delta-E=       -0.000030961724 Rises=F Damp=F
 DIIS: error= 1.09D-03 at cycle   3 NSaved=   3.
 NSaved= 3 IEnMin= 3 EnMin= -79.7257717162542     IErMin= 3 ErrMin= 1.09D-03
 ErrMax= 1.09D-03  0.00D+00 EMaxC= 1.00D-01 BMatC= 1.59D-04 BMatP= 2.74D-04
 IDIUse=3 WtCom= 9.89D-01 WtEn= 1.09D-02
 Coeff-Com: -0.375D-01 0.433D+00 0.604D+00
 Coeff-En:   0.000D+00 0.339D+00 0.661D+00
 Coeff:     -0.371D-01 0.432D+00 0.605D+00
 Gap=     0.386 Goal=   None    Shift=    0.000
 Gap=     0.386 Goal=   None    Shift=    0.000
 RMSDP=4.50D-05 MaxDP=8.27D-04 DE=-3.10D-05 OVMax= 1.49D-03

 Cycle   4  Pass 1  IDiag  1:
 E= -79.7258096605486     Delta-E=       -0.000037944294 Rises=F Damp=F
 DIIS: error= 2.96D-05 at cycle   4 NSaved=   4.
 NSaved= 4 IEnMin= 4 EnMin= -79.7258096605486     IErMin= 4 ErrMin= 2.96D-05
 ErrMax= 2.96D-05  0.00D+00 EMaxC= 1.00D-01 BMatC= 1.14D-07 BMatP= 1.59D-04
 IDIUse=1 WtCom= 1.00D+00 WtEn= 0.00D+00
 Coeff-Com: -0.260D-02-0.299D-02 0.827D-02 0.997D+00
 Coeff:     -0.260D-02-0.299D-02 0.827D-02 0.997D+00
 Gap=     0.386 Goal=   None    Shift=    0.000
 Gap=     0.386 Goal=   None    Shift=    0.000
 RMSDP=4.41D-06 MaxDP=3.96D-05 DE=-3.79D-05 OVMax= 1.01D-04

 Cycle   5  Pass 1  IDiag  1:
 E= -79.7258097032379     Delta-E=       -0.000000042689 Rises=F Damp=F
 DIIS: error= 4.71D-06 at cycle   5 NSaved=   5.
 NSaved= 5 IEnMin= 5 EnMin= -79.7258097032379     IErMin= 5 ErrMin= 4.71D-06
 ErrMax= 4.71D-06  0.00D+00 EMaxC= 1.00D-01 BMatC= 4.78D-09 BMatP= 1.14D-07
 IDIUse=1 WtCom= 1.00D+00 WtEn= 0.00D+00
 Coeff-Com:  0.724D-03-0.112D-01-0.152D-01 0.114D+00 0.911D+00
 Coeff:      0.724D-03-0.112D-01-0.152D-01 0.114D+00 0.911D+00
 Gap=     0.386 Goal=   None    Shift=    0.000
 Gap=     0.386 Goal=   None    Shift=    0.000
 RMSDP=9.81D-07 MaxDP=1.10D-05 DE=-4.27D-08 OVMax= 1.38D-05

 Cycle   6  Pass 1  IDiag  1:
 E= -79.7258097046937     Delta-E=       -0.000000001456 Rises=F Damp=F
 DIIS: error= 4.11D-07 at cycle   6 NSaved=   6.
 NSaved= 6 IEnMin= 6 EnMin= -79.7258097046937     IErMin= 6 ErrMin= 4.11D-07
 ErrMax= 4.11D-07  0.00D+00 EMaxC= 1.00D-01 BMatC= 3.04D-11 BMatP= 4.78D-09
 IDIUse=1 WtCom= 1.00D+00 WtEn= 0.00D+00
 Coeff-Com: -0.964D-05 0.680D-03 0.867D-03-0.217D-01-0.550D-01 0.108D+01
 Coeff:     -0.964D-05 0.680D-03 0.867D-03-0.217D-01-0.550D-01 0.108D+01
 Gap=     0.386 Goal=   None    Shift=    0.000
 Gap=     0.386 Goal=   None    Shift=    0.000
 RMSDP=2.55D-07 MaxDP=3.19D-06 DE=-1.46D-09 OVMax= 2.55D-06

 Cycle   7  Pass 1  IDiag  1:
 E= -79.7258097047130     Delta-E=       -0.000000000019 Rises=F Damp=F
 DIIS: error= 4.33D-08 at cycle   7 NSaved=   7.
 NSaved= 7 IEnMin= 7 EnMin= -79.7258097047130     IErMin= 7 ErrMin= 4.33D-08
 ErrMax= 4.33D-08  0.00D+00 EMaxC= 1.00D-01 BMatC= 3.53D-13 BMatP= 3.04D-11
 IDIUse=1 WtCom= 1.00D+00 WtEn= 0.00D+00
 Coeff-Com: -0.442D-05 0.305D-04 0.291D-04 0.143D-02-0.539D-02-0.884D-01
 Coeff-Com:  0.109D+01
 Coeff:     -0.442D-05 0.305D-04 0.291D-04 0.143D-02-0.539D-02-0.884D-01
 Coeff:      0.109D+01
 Gap=     0.386 Goal=   None    Shift=    0.000
 Gap=     0.386 Goal=   None    Shift=    0.000
 RMSDP=2.79D-08 MaxDP=3.77D-07 DE=-1.94D-11 OVMax= 1.57D-07

 Cycle   8  Pass 1  IDiag  1:
 E= -79.7258097047133     Delta-E=       -0.000000000000 Rises=F Damp=F
 DIIS: error= 5.75D-09 at cycle   8 NSaved=   8.
 NSaved= 8 IEnMin= 8 EnMin= -79.7258097047133     IErMin= 8 ErrMin= 5.75D-09
 ErrMax= 5.75D-09  0.00D+00 EMaxC= 1.00D-01 BMatC= 1.91D-15 BMatP= 3.53D-13
 IDIUse=1 WtCom= 1.00D+00 WtEn= 0.00D+00
 Coeff-Com:  0.106D-06-0.427D-05-0.210D-05 0.925D-04 0.281D-03-0.323D-02
 Coeff-Com: -0.336D-01 0.104D+01
 Coeff:      0.106D-06-0.427D-05-0.210D-05 0.925D-04 0.281D-03-0.323D-02
 Coeff:     -0.336D-01 0.104D+01
 Gap=     0.386 Goal=   None    Shift=    0.000
 Gap=     0.386 Goal=   None    Shift=    0.000
 RMSDP=1.09D-09 MaxDP=1.34D-08 DE=-2.42D-13 OVMax= 1.15D-08

 SCF Done:  E(UM062X) =  -79.7258097047     A.U. after    8 cycles
            NFock=  8  Conv=0.11D-08     -V/T= 1.9954
 <Sx>= 0.0000 <Sy>= 0.0000 <Sz>= 0.0000 <S**2>=-0.0000 S=-0.0000
 <L.S>=  0.00000000000    
 KE= 8.009110534553D+01 PE=-2.766717290822D+02 EE= 7.078427952805D+01
 Annihilation of the first spin contaminant:
 S**2 before annihilation    -0.0000,   after    -0.0000
 Leave Link  502 at Tue Nov 19 11:45:51 2024, MaxMem=  1073741824 cpu:              84.7 elap:               3.7
 (Enter /home/szhao/Apps/g16/l701.exe)
 ... and contract with generalized density number  0.
 Compute integral first derivatives.
 Leave Link  701 at Tue Nov 19 11:45:51 2024, MaxMem=  1073741824 cpu:               6.0 elap:               0.3
 (Enter /home/szhao/Apps/g16/l702.exe)
 L702 exits ... SP integral derivatives will be done elsewhere.
 Leave Link  702 at Tue Nov 19 11:45:51 2024, MaxMem=  1073741824 cpu:               1.4 elap:               0.1
 (Enter /home/szhao/Apps/g16/l703.exe)
 Integral derivatives from FoFJK, PRISM(SPDF).
 Compute integral first derivatives, UseDBF=F ICtDFT=           0.
 Calling FoFJK, ICntrl=      2127 FMM=F ISym2X=0 I1Cent= 0 IOpClX= 1 NMat=1 NMatS=1 NMatT=0.
 FoFJK:  IHMeth= 1 ICntrl=    2127 DoSepK=F KAlg= 0 I1Cent=           0 FoldK=F
 IRaf=         0 NMat=       1 IRICut=       1 DoRegI=T DoRafI=F ISym2E= 0 IDoP0=0 IntGTp=1.
 FoFCou: FMM=F IPFlag=           0 FMFlag=      100000 FMFlg1=         800
         NFxFlg=           0 DoJE=F BraDBF=F KetDBF=F FulRan=T
         wScrn=  0.000000 ICntrl=      2127 IOpCl=  1 I1Cent=           0 NGrid=           0
         NMat0=    1 NMatS0=      1 NMatT0=    0 NMatD0=    1 NMtDS0=    0 NMtDT0=    0
 Symmetry not used in FoFCou.
 Leave Link  703 at Tue Nov 19 11:45:52 2024, MaxMem=  1073741824 cpu:              20.0 elap:               0.8
 (Enter /home/szhao/Apps/g16/l716.exe)
 Dipole        = 7.49641504D-09-2.79408034D-07-7.62774478D-07
 -------------------------------------------------------------------
 Center     Atomic                   Forces (Hartrees/Bohr)
 Number     Number              X              Y              Z
 -------------------------------------------------------------------
      1        6          -0.000000000   -0.000000000   -0.000000000
      2        6          -0.000000000   -0.000000000   -0.000000000
      3        1          -0.000258431   -0.000121902    0.000072090
      4        1           0.000259704   -0.000115630   -0.000071132
      5        1          -0.000259407    0.000116080    0.000071871
      6        1          -0.000262207   -0.000003094   -0.000133324
      7        1           0.000258500    0.000122071   -0.000071475
      8        1           0.000261872    0.000003328    0.000134226
 -------------------------------------------------------------------
 Cartesian Forces:  Max     0.000262207 RMS     0.000147001
 Leave Link  716 at Tue Nov 19 11:45:53 2024, MaxMem=  1073741824 cpu:               2.0 elap:               0.1
 (Enter /home/szhao/Apps/g16/l103.exe)

 GradGradGradGradGradGradGradGradGradGradGradGradGradGradGradGradGradGrad
 Berny optimization.
 Using GEDIIS/GDIIS optimizer.
 FormGI is forming the generalized inverse of G from B-inverse, IUseBI=4.
 Internal  Forces:  Max     0.000780076 RMS     0.000255383
 Search for a local minimum.
 Step number   3 out of a maximum of   43
 All quantities printed in internal units (Hartrees-Bohrs-Radians)
 RMS Force = .18605D-03 SwitMx=.10000D-02 MixMth= 2
 Mixed Optimization -- En-DIIS/RFO-DIIS
 Update second derivatives using D2CorX and points    1    2    3
 DE= -3.10D-03 DEPred=-2.50D-03 R= 1.24D+00
 TightC=F SS=  1.41D+00  RLast= 1.98D-01 DXNew= 8.4853D-01 5.9422D-01
 Trust test= 1.24D+00 RLast= 1.98D-01 DXMaxT set to 5.94D-01
 ITU=  1  1  0
 Use linear search instead of GDIIS.
     Eigenvalues ---    0.04245   0.07578   0.07578   0.07578   0.07578
     Eigenvalues ---    0.15617   0.16000   0.16000   0.16000   0.16000
     Eigenvalues ---    0.16000   0.36029   0.37618   0.37620   0.37622
     Eigenvalues ---    0.37634   0.376411000.000001000.000001000.00000
     Eigenvalues --- 1000.000001000.000001000.000001000.000001000.00000
     Eigenvalues --- 1000.000001000.000001000.000001000.000001000.00000
     Eigenvalues --- 1000.000001000.000001000.00000
 RFO step:  Lambda=-1.29466025D-06 EMin= 4.24481004D-02
 Quartic linear search produced a step of -0.02838.
 Iteration  1 RMS(Cart)=  0.00152970 RMS(Int)=  0.00001643
 Iteration  2 RMS(Cart)=  0.00000168 RMS(Int)=  0.00001636
 Iteration  3 RMS(Cart)=  0.00000000 RMS(Int)=  0.00001636
 ITry= 1 IFail=0 DXMaxC= 3.32D-03 DCOld= 1.00D+10 DXMaxT= 5.94D-01 DXLimC= 3.00D+00 Rises=F
 Variable       Old X    -DE/DX   Delta X   Delta X   Delta X     New X
                                 (Linear)    (Quad)   (Total)
    X1       -1.16874   0.00078   0.00000   0.00000   0.00000  -1.16874
    Y1        0.00000   0.00002   0.00000   0.00000   0.00000   0.00000
    Z1        0.00000  -0.00001   0.00000   0.00000   0.00000   0.00000
    X2        1.16886  -0.00078   0.00000   0.00000   0.00000   1.16886
    Y2        0.00000  -0.00001   0.00000   0.00000   0.00000   0.00000
    Z2        0.00000   0.00001   0.00000   0.00000   0.00000   0.00000
    R1        2.07989   0.00001  -0.00076   0.00067  -0.00009   2.07980
    R2        2.07986   0.00002  -0.00077   0.00069  -0.00008   2.07979
    R3        2.07989   0.00001  -0.00076   0.00067  -0.00010   2.07980
    R4        2.07986   0.00002  -0.00077   0.00069  -0.00008   2.07979
    R5        2.07989   0.00001  -0.00076   0.00068  -0.00009   2.07980
    R6        2.07990   0.00001  -0.00076   0.00067  -0.00010   2.07980
    A1        2.00770  -0.00025  -0.00143  -0.00031  -0.00171   2.00599
    A2        2.00774  -0.00026  -0.00143  -0.00035  -0.00174   2.00600
    A3        2.00772  -0.00025  -0.00143  -0.00032  -0.00172   2.00600
    A4        1.80433   0.00030   0.00163   0.00037   0.00202   1.80635
    A5        1.80429   0.00030   0.00162   0.00041   0.00206   1.80635
    A6        1.80435   0.00030   0.00163   0.00038   0.00203   1.80638
    A7        2.00774  -0.00026  -0.00143  -0.00035  -0.00174   2.00600
    A8        2.00771  -0.00025  -0.00143  -0.00031  -0.00171   2.00599
    A9        2.00772  -0.00025  -0.00143  -0.00032  -0.00172   2.00600
   A10        1.80433   0.00030   0.00163   0.00037   0.00202   1.80635
   A11        1.80434   0.00030   0.00163   0.00038   0.00203   1.80638
   A12        1.80429   0.00030   0.00162   0.00041   0.00206   1.80635
    D1       -1.04718  -0.00000   0.00000  -0.00003  -0.00003  -1.04721
    D2        3.14159   0.00000  -0.00000   0.00000   0.00000   3.14159
    D3        1.04725  -0.00000   0.00000  -0.00004  -0.00004   1.04721
    D4       -3.14159  -0.00000   0.00000  -0.00000  -0.00000  -3.14159
    D5        1.04718   0.00000  -0.00000   0.00003   0.00003   1.04721
    D6       -1.04715  -0.00000   0.00000  -0.00002  -0.00002  -1.04717
    D7        1.04715   0.00000  -0.00000   0.00002   0.00002   1.04717
    D8       -1.04726   0.00000  -0.00000   0.00005   0.00005  -1.04722
    D9        3.14159   0.00000  -0.00000   0.00000   0.00000   3.14159
         Item               Value     Threshold  Converged?
 Maximum Force            0.000303     0.000450     YES
 RMS     Force            0.000186     0.000300     YES
 Maximum Displacement     0.003320     0.001800     NO 
 RMS     Displacement     0.001531     0.001200     NO 
 Predicted change in Energy=-2.961920D-06
 Lowest energy point so far.  Saving SCF results.
 GradGradGradGradGradGradGradGradGradGradGradGradGradGradGradGradGradGrad

 Leave Link  103 at Tue Nov 19 11:45:53 2024, MaxMem=  1073741824 cpu:               1.6 elap:               0.1
 (Enter /home/szhao/Apps/g16/l202.exe)
                          Input orientation:                          
 ---------------------------------------------------------------------
 Center     Atomic      Atomic             Coordinates (Angstroms)
 Number     Number       Type             X           Y           Z
 ---------------------------------------------------------------------
      1          6           0       -0.618473    0.000000    0.000000
      2          6           0        0.618536    0.000000    0.000000
      3          1           0        1.082531   -0.863788    0.499847
      4          1           0       -1.082467   -0.864775   -0.498154
      5          1           0        1.082531    0.864776    0.498151
      6          1           0        1.082536   -0.000960   -0.997989
      7          1           0       -1.082468    0.863787   -0.499849
      8          1           0       -1.082474    0.000958    0.997989
[...]
    A6        1.80638   0.00000   0.00003  -0.00000   0.00003   1.80641
    A7        2.00600  -0.00000  -0.00003  -0.00000  -0.00003   2.00597
    A8        2.00599  -0.00000  -0.00003  -0.00000  -0.00003   2.00596
    A9        2.00600  -0.00000  -0.00003   0.00000  -0.00003   2.00597
   A10        1.80635   0.00000   0.00003  -0.00001   0.00002   1.80638
   A11        1.80638   0.00000   0.00003  -0.00000   0.00003   1.80641
   A12        1.80635   0.00001   0.00003   0.00001   0.00005   1.80639
    D1       -1.04721  -0.00000  -0.00000  -0.00001  -0.00001  -1.04722
    D2        3.14159   0.00000   0.00000   0.00000   0.00000   3.14159
    D3        1.04721  -0.00000  -0.00000  -0.00002  -0.00002   1.04719
    D4       -3.14159  -0.00000  -0.00000  -0.00000  -0.00000  -3.14159
    D5        1.04721   0.00000   0.00000   0.00001   0.00001   1.04722
    D6       -1.04717  -0.00000  -0.00000  -0.00001  -0.00001  -1.04717
    D7        1.04717   0.00000   0.00000   0.00000   0.00000   1.04717
    D8       -1.04722   0.00000   0.00000   0.00002   0.00002  -1.04720
    D9        3.14159   0.00000   0.00000   0.00000   0.00000   3.14159
         Item               Value     Threshold  Converged?
 Maximum Force            0.000021     0.000450     YES
 RMS     Force            0.000010     0.000300     YES
 Maximum Displacement     0.000067     0.001800     YES
 RMS     Displacement     0.000035     0.001200     YES
 Predicted change in Energy=-3.987125D-09
 Optimization completed.
    -- Stationary point found.
                           ----------------------------
                           !   Optimized Parameters   !
                           ! (Angstroms and Degrees)  !
 --------------------------                            --------------------------
 ! Name  Definition              Value          Derivative Info.                !
 --------------------------------------------------------------------------------
 ! X1    R(1,-1)                -0.6185         -DE/DX =    0.0                 !
 ! Y1    R(1,-2)                 0.0            -DE/DX =    0.0                 !
 ! Z1    R(1,-3)                 0.0            -DE/DX =    0.0                 !
 ! X2    R(2,-1)                 0.6185         -DE/DX =    0.0                 !
 ! Y2    R(2,-2)                 0.0            -DE/DX =    0.0                 !
 ! Z2    R(2,-3)                 0.0            -DE/DX =    0.0                 !
 ! R1    R(1,4)                  1.1006         -DE/DX =    0.0                 !
 ! R2    R(1,7)                  1.1006         -DE/DX =    0.0                 !
 ! R3    R(1,8)                  1.1006         -DE/DX =    0.0                 !
 ! R4    R(2,3)                  1.1006         -DE/DX =    0.0                 !
 ! R5    R(2,5)                  1.1006         -DE/DX =    0.0                 !
 ! R6    R(2,6)                  1.1006         -DE/DX =    0.0                 !
 ! A1    A(2,1,4)              114.935          -DE/DX =    0.0                 !
 ! A2    A(2,1,7)              114.9352         -DE/DX =    0.0                 !
 ! A3    A(2,1,8)              114.9354         -DE/DX =    0.0                 !
 ! A4    A(4,1,7)              103.4962         -DE/DX =    0.0                 !
 ! A5    A(4,1,8)              103.4961         -DE/DX =    0.0                 !
 ! A6    A(7,1,8)              103.4979         -DE/DX =    0.0                 !
 ! A7    A(1,2,3)              114.9352         -DE/DX =    0.0                 !
 ! A8    A(1,2,5)              114.935          -DE/DX =    0.0                 !
 ! A9    A(1,2,6)              114.9353         -DE/DX =    0.0                 !
 ! A10   A(3,2,5)              103.4964         -DE/DX =    0.0                 !
 ! A11   A(3,2,6)              103.4977         -DE/DX =    0.0                 !
 ! A12   A(5,2,6)              103.496          -DE/DX =    0.0                 !
 ! D1    D(4,1,2,3)            -60.0007         -DE/DX =    0.0                 !
 ! D2    D(4,1,2,5)            179.9999         -DE/DX =    0.0                 !
 ! D3    D(4,1,2,6)             60.0008         -DE/DX =    0.0                 !
 ! D4    D(7,1,2,3)           -179.9999         -DE/DX =    0.0                 !
 ! D5    D(7,1,2,5)             60.0007         -DE/DX =    0.0                 !
 ! D6    D(7,1,2,6)            -59.9984         -DE/DX =    0.0                 !
 ! D7    D(8,1,2,3)             59.9984         -DE/DX =    0.0                 !
 ! D8    D(8,1,2,5)            -60.001          -DE/DX =    0.0                 !
 ! D9    D(8,1,2,6)            179.9999         -DE/DX =    0.0                 !
 --------------------------------------------------------------------------------
 Lowest energy point so far.  Saving SCF results.
 Largest change from initial coordinates is atom    4       0.145 Angstoms.
 GradGradGradGradGradGradGradGradGradGradGradGradGradGradGradGradGradGrad

 Leave Link  103 at Tue Nov 19 11:45:59 2024, MaxMem=  1073741824 cpu:               3.6 elap:               0.2
 (Enter /home/szhao/Apps/g16/l202.exe)
                          Input orientation:                          
 ---------------------------------------------------------------------
 Center     Atomic      Atomic             Coordinates (Angstroms)
 Number     Number       Type             X           Y           Z
 ---------------------------------------------------------------------
      1          6           0       -0.618473    0.000000    0.000000
      2          6           0        0.618536    0.000000    0.000000
      3          1           0        1.082531   -0.863788    0.499847
      4          1           0       -1.082467   -0.864775   -0.498154
      5          1           0        1.082531    0.864776    0.498151
      6          1           0        1.082536   -0.000960   -0.997989
      7          1           0       -1.082468    0.863787   -0.499849
      8          1           0       -1.082474    0.000958    0.997989
 ---------------------------------------------------------------------
                    Distance matrix (angstroms):
                    1          2          3          4          5
     1  C    0.000000
     2  C    1.237009   0.000000
     3  H    1.972155   1.100577   0.000000
     4  H    1.100583   1.972158   2.383951   0.000000
     5  H    1.972158   1.100583   1.728565   2.944688   0.000000
     6  H    1.972160   1.100582   1.728580   2.383957   1.728564
     7  H    1.100577   1.972155   2.944679   1.728564   2.383952
     8  H    1.100581   1.972160   2.383942   1.728565   2.383959
                    6          7          8
     6  H    0.000000
     7  H    2.383941   0.000000
     8  H    2.944690   1.728581   0.000000
 Symmetry turned off by external request.
 Stoichiometry    C2H6
 Framework group  C1[X(C2H6)]
 Deg. of freedom    18
 Full point group                 C1      NOp   1
 Rotational constants (GHZ):          83.9128093          26.2148898          26.2147893
 Leave Link  202 at Tue Nov 19 11:45:59 2024, MaxMem=  1073741824 cpu:               0.5 elap:               0.1
 (Enter /home/szhao/Apps/g16/l601.exe)
 Copying SCF densities to generalized density rwf, IOpCl= 1 IROHF=0.

 **********************************************************************

            Population analysis using the SCF density.

 **********************************************************************

 Alpha  occ. eigenvalues --  -10.50337 -10.50139  -0.91929  -0.68318  -0.53333
 Alpha  occ. eigenvalues --   -0.53332  -0.49341  -0.36510  -0.36510
 Alpha virt. eigenvalues --    0.02100   0.04202   0.05004   0.05004   0.08684
 Alpha virt. eigenvalues --    0.08932   0.08932   0.14213   0.19564   0.19564
 Alpha virt. eigenvalues --    0.19611   0.19611   0.24055   0.27943   0.37348
 Alpha virt. eigenvalues --    0.44651   0.44651   0.45257   0.47507   0.47507
 Alpha virt. eigenvalues --    0.63207   0.63207   0.68066   0.68067   0.70986
 Alpha virt. eigenvalues --    0.76401   0.84080   0.88940   0.95793   1.05224
 Alpha virt. eigenvalues --    1.05225   1.32678   1.32678   1.53315   1.54895
 Alpha virt. eigenvalues --    1.57548   1.57549   1.61024   1.61024   1.69837
 Alpha virt. eigenvalues --    1.81180   1.81181   1.84349   1.88161   1.88161
 Alpha virt. eigenvalues --    2.21395   2.24142   2.24191   2.24192   2.33101
 Alpha virt. eigenvalues --    2.33101   2.34788   2.52535   2.52536   2.55502
 Alpha virt. eigenvalues --    2.61167   2.61168   2.71406   2.71407   2.86251
 Alpha virt. eigenvalues --    2.89050   2.89053   2.94342   3.85037   3.85040
 Alpha virt. eigenvalues --    3.85988   3.93303   3.93305   4.19598  23.95877
 Alpha virt. eigenvalues --   24.79254
  Beta  occ. eigenvalues --  -10.50337 -10.50139  -0.91929  -0.68318  -0.53333
  Beta  occ. eigenvalues --   -0.53332  -0.49341  -0.36510  -0.36510
  Beta virt. eigenvalues --    0.02100   0.04202   0.05004   0.05004   0.08684
  Beta virt. eigenvalues --    0.08932   0.08932   0.14213   0.19564   0.19564
  Beta virt. eigenvalues --    0.19611   0.19611   0.24055   0.27943   0.37348
  Beta virt. eigenvalues --    0.44651   0.44651   0.45257   0.47507   0.47507
  Beta virt. eigenvalues --    0.63207   0.63207   0.68066   0.68067   0.70986
  Beta virt. eigenvalues --    0.76401   0.84080   0.88940   0.95793   1.05224
  Beta virt. eigenvalues --    1.05225   1.32678   1.32678   1.53315   1.54895
  Beta virt. eigenvalues --    1.57548   1.57549   1.61024   1.61024   1.69837
  Beta virt. eigenvalues --    1.81180   1.81181   1.84349   1.88161   1.88161
  Beta virt. eigenvalues --    2.21395   2.24142   2.24191   2.24192   2.33101
  Beta virt. eigenvalues --    2.33101   2.34788   2.52535   2.52536   2.55502
  Beta virt. eigenvalues --    2.61167   2.61168   2.71406   2.71407   2.86251
  Beta virt. eigenvalues --    2.89050   2.89053   2.94342   3.85037   3.85040
  Beta virt. eigenvalues --    3.85988   3.93303   3.93305   4.19598  23.95877
  Beta virt. eigenvalues --   24.79254
          Condensed to atoms (all electrons):
               1          2          3          4          5          6
     1  C    5.208313   0.113088  -0.064149   0.436383  -0.064152  -0.064149
     2  C    0.113088   5.208313   0.436380  -0.064152   0.436382   0.436381
     3  H   -0.064149   0.436380   0.579122  -0.015949  -0.040720  -0.040717
     4  H    0.436383  -0.064152  -0.015949   0.579128   0.015948  -0.015949
     5  H   -0.064152   0.436382  -0.040720   0.015948   0.579128  -0.040721
     6  H   -0.064149   0.436381  -0.040717  -0.015949  -0.040721   0.579124
     7  H    0.436380  -0.064149   0.015948  -0.040721  -0.015949  -0.015948
     8  H    0.436380  -0.064148  -0.015948  -0.040721  -0.015949   0.015948
               7          8
     1  C    0.436380   0.436380
     2  C   -0.064149  -0.064148
     3  H    0.015948  -0.015948
     4  H   -0.040721  -0.040721
     5  H   -0.015949  -0.015949
     6  H   -0.015948   0.015948
     7  H    0.579122  -0.040716
     8  H   -0.040716   0.579124
          Atomic-Atomic Spin Densities.
               1          2          3          4          5          6
     1  C   -0.000000  -0.000000   0.000000  -0.000000  -0.000000  -0.000000
     2  C   -0.000000   0.000000  -0.000000   0.000000   0.000000   0.000000
     3  H    0.000000  -0.000000   0.000000  -0.000000  -0.000000   0.000000
     4  H   -0.000000   0.000000  -0.000000   0.000000   0.000000  -0.000000
     5  H   -0.000000   0.000000  -0.000000   0.000000  -0.000000  -0.000000
     6  H   -0.000000   0.000000   0.000000  -0.000000  -0.000000  -0.000000
     7  H   -0.000000   0.000000   0.000000  -0.000000   0.000000   0.000000
     8  H    0.000000  -0.000000   0.000000  -0.000000   0.000000   0.000000
               7          8
     1  C   -0.000000   0.000000
     2  C    0.000000  -0.000000
     3  H    0.000000   0.000000
     4  H   -0.000000  -0.000000
     5  H    0.000000   0.000000
     6  H    0.000000   0.000000
     7  H    0.000000   0.000000
     8  H    0.000000  -0.000000
 Mulliken charges and spin densities:
               1          2
     1  C   -0.438094  -0.000000
     2  C   -0.438094   0.000000
     3  H    0.146032  -0.000000
     4  H    0.146032   0.000000
     5  H    0.146032  -0.000000
     6  H    0.146030  -0.000000
     7  H    0.146032   0.000000
     8  H    0.146030  -0.000000
 Sum of Mulliken charges =  -0.00000   0.00000
 Mulliken charges and spin densities with hydrogens summed into heavy atoms:
               1          2
     1  C   -0.000000  -0.000000
     2  C    0.000000   0.000000
 Electronic spatial extent (au):  <R**2>=             96.7031
 Charge=             -0.0000 electrons
 Dipole moment (field-independent basis, Debye):
    X=              0.0000    Y=             -0.0000    Z=             -0.0000  Tot=              0.0000
 Quadrupole moment (field-independent basis, Debye-Ang):
   XX=            -15.6379   YY=            -14.9538   ZZ=            -14.9537
   XY=              0.0000   XZ=              0.0000   YZ=             -0.0001
 Traceless Quadrupole moment (field-independent basis, Debye-Ang):
   XX=             -0.4561   YY=              0.2280   ZZ=              0.2281
   XY=              0.0000   XZ=              0.0000   YZ=             -0.0001
 Octapole moment (field-independent basis, Debye-Ang**2):
  XXX=             -0.0015  YYY=              0.0000  ZZZ=              0.0000  XYY=             -0.0005
  XXY=              0.0000  XXZ=              0.0000  XZZ=             -0.0005  YZZ=              0.0000
  YYZ=              0.0000  XYZ=              0.0000
 Hexadecapole moment (field-independent basis, Debye-Ang**3):
 XXXX=            -77.6612 YYYY=            -30.2350 ZZZZ=            -30.2351 XXXY=             -0.0002
 XXXZ=             -0.0000 YYYX=              0.0031 YYYZ=              0.0000 ZZZX=             -1.1084
 ZZZY=             -0.0000 XXYY=            -17.4338 XXZZ=            -17.4337 YYZZ=            -10.0783
 XXYZ=             -0.0001 YYXZ=              1.1084 ZZXY=             -0.0033
 N-N= 4.607719316097D+01 E-N=-2.766860983435D+02  KE= 8.009217294127D+01
                          Isotropic Fermi Contact Couplings
        Atom                 a.u.       MegaHertz       Gauss      10(-4) cm-1
     1  C(13)             -0.00000      -0.00000      -0.00000      -0.00000
     2  C(13)             -0.00000      -0.00000      -0.00000      -0.00000
     3  H(1)               0.00000       0.00000       0.00000       0.00000
     4  H(1)              -0.00000      -0.00000      -0.00000      -0.00000
     5  H(1)               0.00000       0.00000       0.00000       0.00000
     6  H(1)               0.00000       0.00000       0.00000       0.00000
     7  H(1)              -0.00000      -0.00000      -0.00000      -0.00000
     8  H(1)              -0.00000      -0.00000      -0.00000      -0.00000
 --------------------------------------------------------
       Center         ----  Spin Dipole Couplings  ----
                      3XX-RR        3YY-RR        3ZZ-RR
 --------------------------------------------------------
     1   Atom        0.000000      0.000000      0.000000
     2   Atom        0.000000      0.000000      0.000000
     3   Atom        0.000000      0.000000      0.000000
     4   Atom        0.000000      0.000000      0.000000
     5   Atom        0.000000      0.000000      0.000000
     6   Atom        0.000000      0.000000      0.000000
     7   Atom        0.000000      0.000000      0.000000
     8   Atom        0.000000      0.000000      0.000000
 --------------------------------------------------------
                        XY            XZ            YZ
 --------------------------------------------------------
     1   Atom        0.000000      0.000000      0.000000
     2   Atom        0.000000      0.000000      0.000000
     3   Atom        0.000000      0.000000      0.000000
     4   Atom        0.000000      0.000000      0.000000
     5   Atom        0.000000      0.000000      0.000000
     6   Atom        0.000000      0.000000      0.000000
     7   Atom        0.000000      0.000000      0.000000
     8   Atom        0.000000      0.000000      0.000000
 --------------------------------------------------------


 ---------------------------------------------------------------------------------
              Anisotropic Spin Dipole Couplings in Principal Axis System
 ---------------------------------------------------------------------------------

       Atom             a.u.   MegaHertz   Gauss  10(-4) cm-1        Axes

              Baa     0.0000     0.000     0.000     0.000  1.0000  0.0000  0.0000
     1 C(13)  Bbb     0.0000     0.000     0.000     0.000 -0.0000  1.0000  0.0000
              Bcc     0.0000     0.000     0.000     0.000  0.0000  0.0000  1.0000
 
              Baa     0.0000     0.000     0.000     0.000  1.0000  0.0000  0.0000
     2 C(13)  Bbb     0.0000     0.000     0.000     0.000 -0.0000  1.0000  0.0000
              Bcc     0.0000     0.000     0.000     0.000  0.0000  0.0000  1.0000
 
              Baa     0.0000     0.000     0.000     0.000  1.0000  0.0000  0.0000
     3 H(1)   Bbb     0.0000     0.000     0.000     0.000 -0.0000  1.0000  0.0000
              Bcc     0.0000     0.000     0.000     0.000  0.0000  0.0000  1.0000
 
              Baa     0.0000     0.000     0.000     0.000  1.0000  0.0000  0.0000
     4 H(1)   Bbb     0.0000     0.000     0.000     0.000 -0.0000  1.0000  0.0000
              Bcc     0.0000     0.000     0.000     0.000  0.0000  0.0000  1.0000
 
              Baa     0.0000     0.000     0.000     0.000  1.0000  0.0000  0.0000
     5 H(1)   Bbb     0.0000     0.000     0.000     0.000 -0.0000  1.0000  0.0000
              Bcc     0.0000     0.000     0.000     0.000  0.0000  0.0000  1.0000
 
              Baa     0.0000     0.000     0.000     0.000  1.0000  0.0000  0.0000
     6 H(1)   Bbb     0.0000     0.000     0.000     0.000 -0.0000  1.0000  0.0000
              Bcc     0.0000     0.000     0.000     0.000  0.0000  0.0000  1.0000
 
              Baa     0.0000     0.000     0.000     0.000  1.0000  0.0000  0.0000
     7 H(1)   Bbb     0.0000     0.000     0.000     0.000 -0.0000  1.0000  0.0000
              Bcc     0.0000     0.000     0.000     0.000  0.0000  0.0000  1.0000
 
              Baa     0.0000     0.000     0.000     0.000  1.0000  0.0000  0.0000
     8 H(1)   Bbb     0.0000     0.000     0.000     0.000 -0.0000  1.0000  0.0000
              Bcc     0.0000     0.000     0.000     0.000  0.0000  0.0000  1.0000
 

 ---------------------------------------------------------------------------------

 No NMR shielding tensors so no spin-rotation constants.
 Leave Link  601 at Tue Nov 19 11:46:00 2024, MaxMem=  1073741824 cpu:               3.2 elap:               0.2
 (Enter /home/szhao/Apps/g16/l9999.exe)
 1\1\GINC-NODE02\FOpt\UM062X\6-311+G(d,p)\C2H6\SZHAO\19-Nov-2024\0\\#p 
 opt UM062X/6-311+G** nosymm int=superfine\\Title Card Required\\0,1\C,
 -0.61847307,0.,0.\C,0.61853625,0.,0.\H,1.0825312836,-0.8637884429,0.49
 98471864\H,-1.0824671367,-0.8647752284,-0.4981535777\H,1.0825309037,0.
 8647757663,0.4981510825\H,1.0825361102,-0.000959927,-0.997989494\H,-1.
 0824679864,0.8637874487,-0.4998492342\H,-1.0824736754,0.0009583296,0.9
 979885494\\Version=ES64L-G16RevA.03\HF=-79.7258129\S2=0.\S2-1=0.\S2A=0
 .\RMSD=8.102e-09\RMSF=9.911e-06\Dipole=0.,-0.0000002,-0.0000004\Quadru
 pole=-0.3390992,0.1695333,0.1695659,0.0000069,0.0000124,-0.0000465\PG=
 C01 [X(C2H6)]\\@


 GROWING OLD ISN'T SO BAD -- WHEN YOU CONSIDER THE ALTERNATIVE.

                     -- MAURICE CHEVALIER
 Job cpu time:       0 days  0 hours  9 minutes 40.1 seconds.
 Elapsed time:       0 days  0 hours  0 minutes 26.7 seconds.
 File lengths (MBytes):  RWF=     22 Int=      0 D2E=      0 Chk=      3 Scr=      2
 Normal termination of Gaussian 16 at Tue Nov 19 11:46:00 2024.
