Title Card Required                                                     
FOpt      UM062X                                                      6-311+G(d,p)        
Number of atoms                            I                4
Info1-9                                    I   N=           9
          13          13           0           0           0         110
           2          18        -502
Full Title                                 C   N=           2
Title Card Required     
Route                                      C   N=           4
#p opt UM062X/6-311+G** nosymm int=superfine    
Charge                                     I                1
Multiplicity                               I                2
Number of electrons                        I               13
Number of alpha electrons                  I                7
Number of beta electrons                   I                6
Number of basis functions                  I               56
Number of independent functions            I               56
Number of point charges in /Mol/           I                0
Number of translation vectors              I                0
Atomic numbers                             I   N=           4
           6           6           1           1
Nuclear charges                            R   N=           4
  6.00000000E+00  6.00000000E+00  1.00000000E+00  1.00000000E+00
Current cartesian coordinates              R   N=          12
 -1.64383402E+00  0.00000000E+00  0.00000000E+00  1.64383402E+00  0.00000000E+00
  0.00000000E+00 -3.71854095E+00 -2.15552391E-05  1.59054036E-05  3.71849369E+00
 -1.97077985E-05  1.31566731E-05
Number of symbols in /Mol/                 I                0
Force Field                                I                0
Atom Types                                 C   N=           4
                                                
Int Atom Types                             I   N=           4
           0           0           0           0
MM charges                                 R   N=           4
  0.00000000E+00  0.00000000E+00  0.00000000E+00  0.00000000E+00
Integer atomic weights                     I   N=           4
          12          12           1           1
Real atomic weights                        R   N=           4
  1.20000000E+01  1.20000000E+01  1.00782504E+00  1.00782504E+00
Atom fragment info                         I   N=           4
           0           0           0           0
Atom residue num                           I   N=           4
           0           0           0           0
Nuclear spins                              I   N=           4
           0           0           1           1
Nuclear ZEff                               R   N=           4
 -3.60000000E+00 -3.60000000E+00 -1.00000000E+00 -1.00000000E+00
Nuclear ZNuc                               R   N=           4
  6.00000000E+00  6.00000000E+00  1.00000000E+00  1.00000000E+00
Nuclear QMom                               R   N=           4
  0.00000000E+00  0.00000000E+00  0.00000000E+00  0.00000000E+00
Nuclear GFac                               R   N=           4
  0.00000000E+00  0.00000000E+00  2.79284600E+00  2.79284600E+00
MicOpt                                     I   N=           4
          -2          -2          -1          -1
Number of residues                         I                0
Number of secondary structures             I                0
Redundant internal dimensions              I   N=           4
          12           8           4           0
Redundant internal coordinate indices      I   N=          48
           1          -1           0           0           1          -2
           0           0           1          -3           0           0
           2          -1           0           0           2          -2
           0           0           2          -3           0           0
           1           3           0           0           2           4
           0           0           2           1           3          -4
           1           2           4          -4           2           1
           3          -8           1           2           4          -8
Redundant internal coordinates             R   N=          12
 -1.64383402E+00  0.00000000E+00  0.00000000E+00  1.64383402E+00  0.00000000E+00
  0.00000000E+00  2.07470693E+00  2.07465967E+00  3.14158499E+00  3.14159900E+00
  3.14158226E+00  3.14160215E+00
ZRed-IntVec                                I   N=          12
          -1          -1          -1          -1          -1          -1
           0           0           0           0           0           0
ZRed-FPVec                                 R   N=          12
  0.00000000E+00  0.00000000E+00  0.00000000E+00  0.00000000E+00  0.00000000E+00
  0.00000000E+00  0.00000000E+00  0.00000000E+00  0.00000000E+00  0.00000000E+00
  0.00000000E+00  0.00000000E+00
ZRed-Constraint1                           R   N=          12
 -1.64383402E+00  0.00000000E+00  0.00000000E+00  1.64383402E+00  0.00000000E+00
  0.00000000E+00  2.86009406E+00  2.86006496E+00  3.14159263E+00  3.14159265E+00
  3.14159263E+00  3.14159265E+00
ZRed-Constraint2                           R   N=          12
 -1.64383402E+00  0.00000000E+00  0.00000000E+00  1.64383402E+00  0.00000000E+00
  0.00000000E+00  0.00000000E+00  0.00000000E+00  0.00000000E+00  0.00000000E+00
  0.00000000E+00  0.00000000E+00
Number of contracted shells                I               20
Number of primitive shells                 I               38
Pure/Cartesian d shells                    I                0
Pure/Cartesian f shells                    I                0
Highest angular momentum                   I                2
Largest degree of contraction              I                6
Shell types                                I   N=          20
           0          -1          -1          -1          -1          -2
           0          -1          -1          -1          -1          -2
           0           0           0           1           0           0
           0           1
Number of primitives per shell             I   N=          20
           6           3           1           1           1           1
           6           3           1           1           1           1
           3           1           1           1           3           1
           1           1
Shell to atom map                          I   N=          20
           1           1           1           1           1           1
           2           2           2           2           2           2
           3           3           3           3           4           4
           4           4
Primitive exponents                        R   N=          38
  4.56324000E+03  6.82024000E+02  1.54973000E+02  4.44553000E+01  1.30290000E+01
  1.82773000E+00  2.09642000E+01  4.80331000E+00  1.45933000E+00  4.83456000E-01
  1.45585000E-01  4.38000000E-02  6.26000000E-01  4.56324000E+03  6.82024000E+02
  1.54973000E+02  4.44553000E+01  1.30290000E+01  1.82773000E+00  2.09642000E+01
  4.80331000E+00  1.45933000E+00  4.83456000E-01  1.45585000E-01  4.38000000E-02
  6.26000000E-01  3.38650000E+01  5.09479000E+00  1.15879000E+00  3.25840000E-01
  1.02741000E-01  7.50000000E-01  3.38650000E+01  5.09479000E+00  1.15879000E+00
  3.25840000E-01  1.02741000E-01  7.50000000E-01
Contraction coefficients                   R   N=          38
  1.96665025E-03  1.52306019E-02  7.61269097E-02  2.60801033E-01  6.16462078E-01
  2.21006028E-01  1.14660081E-01  9.19999648E-01 -3.03068213E-03  1.00000000E+00
  1.00000000E+00  1.00000000E+00  1.00000000E+00  1.96665025E-03  1.52306019E-02
  7.61269097E-02  2.60801033E-01  6.16462078E-01  2.21006028E-01  1.14660081E-01
  9.19999648E-01 -3.03068213E-03  1.00000000E+00  1.00000000E+00  1.00000000E+00
  1.00000000E+00  2.54938145E-02  1.90373109E-01  8.52161486E-01  1.00000000E+00
  1.00000000E+00  1.00000000E+00  2.54938145E-02  1.90373109E-01  8.52161486E-01
  1.00000000E+00  1.00000000E+00  1.00000000E+00
P(S=P) Contraction coefficients            R   N=          38
  0.00000000E+00  0.00000000E+00  0.00000000E+00  0.00000000E+00  0.00000000E+00
  0.00000000E+00  4.02486927E-02  2.37593957E-01  8.15853851E-01  1.00000000E+00
  1.00000000E+00  1.00000000E+00  0.00000000E+00  0.00000000E+00  0.00000000E+00
  0.00000000E+00  0.00000000E+00  0.00000000E+00  0.00000000E+00  4.02486927E-02
  2.37593957E-01  8.15853851E-01  1.00000000E+00  1.00000000E+00  1.00000000E+00
  0.00000000E+00  0.00000000E+00  0.00000000E+00  0.00000000E+00  0.00000000E+00
  0.00000000E+00  0.00000000E+00  0.00000000E+00  0.00000000E+00  0.00000000E+00
  0.00000000E+00  0.00000000E+00  0.00000000E+00
Coordinates of each shell                  R   N=          60
 -1.64383402E+00  0.00000000E+00  0.00000000E+00 -1.64383402E+00  0.00000000E+00
  0.00000000E+00 -1.64383402E+00  0.00000000E+00  0.00000000E+00 -1.64383402E+00
  0.00000000E+00  0.00000000E+00 -1.64383402E+00  0.00000000E+00  0.00000000E+00
 -1.64383402E+00  0.00000000E+00  0.00000000E+00  1.64383402E+00  0.00000000E+00
  0.00000000E+00  1.64383402E+00  0.00000000E+00  0.00000000E+00  1.64383402E+00
  0.00000000E+00  0.00000000E+00  1.64383402E+00  0.00000000E+00  0.00000000E+00
  1.64383402E+00  0.00000000E+00  0.00000000E+00  1.64383402E+00  0.00000000E+00
  0.00000000E+00 -3.71854095E+00 -2.15552391E-05  1.59054036E-05 -3.71854095E+00
 -2.15552391E-05  1.59054036E-05 -3.71854095E+00 -2.15552391E-05  1.59054036E-05
 -3.71854095E+00 -2.15552391E-05  1.59054036E-05  3.71849369E+00 -1.97077985E-05
  1.31566731E-05  3.71849369E+00 -1.97077985E-05  1.31566731E-05  3.71849369E+00
 -1.97077985E-05  1.31566731E-05  3.71849369E+00 -1.97077985E-05  1.31566731E-05
Num ILSW                                   I              100
ILSW                                       I   N=         100
           1           0           0           1           2           0
           0           0           0           0        4336          -1
           7           0           0           0           2           0
           0           0           0           0           1           0
           1           1           0           0           0           0
           0           0      100000           0          -1           0
           0           0           0           0           0           0
           0           0           0           1           0           0
           0 -2000000000           1           0           0           0
           0           0           4          52           0           0
           0           0          55           0           0           0
           0           0           0           4           0           1
           0           0           0           0           0           0
           0           0           0           0           0           0
           0           0           0           0           0           0
           0           0           0           0           0           0
           0           0           0           0
Num RLSW                                   I               52
RLSW                                       R   N=          52
  1.00000000E+00  1.00000000E+00  1.00000000E+00  1.00000000E+00  5.40000000E-01
  0.00000000E+00  0.00000000E+00  1.00000000E+00  0.00000000E+00  0.00000000E+00
  0.00000000E+00  0.00000000E+00  1.00000000E+00  0.00000000E+00  0.00000000E+00
  0.00000000E+00  0.00000000E+00  1.00000000E+00  0.00000000E+00  0.00000000E+00
  0.00000000E+00  0.00000000E+00  1.00000000E+00  0.00000000E+00  0.00000000E+00
  0.00000000E+00  0.00000000E+00  1.00000000E+00  0.00000000E+00  0.00000000E+00
  0.00000000E+00  0.00000000E+00  1.00000000E+00  0.00000000E+00  0.00000000E+00
  0.00000000E+00  0.00000000E+00  0.00000000E+00  1.00000000E+00  1.00000000E+00
  0.00000000E+00  1.00000000E+00  0.00000000E+00  0.00000000E+00  0.00000000E+00
  0.00000000E+00  0.00000000E+00  0.00000000E+00  0.00000000E+00  0.00000000E+00
  0.00000000E+00  0.00000000E+00
MxBond                                     I                2
NBond                                      I   N=           4
           2           2           1           1
IBond                                      I   N=           8
           2           3           1           4           1           0
           2           0
RBond                                      R   N=           8
  1.00000000E+00  1.00000000E-01  1.00000000E+00  1.00000000E-01  1.00000000E-01
  0.00000000E+00  1.00000000E-01  0.00000000E+00
Virial Ratio                               R      2.014532483829075E+00
SCF Energy                                 R     -7.670984906431454E+01
Total Energy                               R     -7.670984906431454E+01
S**2                                       R      7.524605836795413E-01
S**2 after annihilation                    R      7.500039013923572E-01
RMS Force                                  R      7.705117517315327E-06
RMS Density                                R      5.351485226930570E-09
Job Status                                 I                1
Nuclear derivative order                   I                1
External E-field                           R   N=          35
  0.00000000E+00  0.00000000E+00  0.00000000E+00  0.00000000E+00  0.00000000E+00
  0.00000000E+00  0.00000000E+00  0.00000000E+00  0.00000000E+00  0.00000000E+00
  0.00000000E+00  0.00000000E+00  0.00000000E+00  0.00000000E+00  0.00000000E+00
  0.00000000E+00  0.00000000E+00  0.00000000E+00  0.00000000E+00  0.00000000E+00
  0.00000000E+00  0.00000000E+00  0.00000000E+00  0.00000000E+00  0.00000000E+00
  0.00000000E+00  0.00000000E+00  0.00000000E+00  0.00000000E+00  0.00000000E+00
  0.00000000E+00  0.00000000E+00  0.00000000E+00  0.00000000E+00  0.00000000E+00
IOpCl                                      I                1
IROHF                                      I                0
Alpha Orbital Energies                     R   N=          56
 -1.10028907E+01 -1.10025666E+01 -1.09333803E+00 -9.93449976E-01 -8.34911723E-01
 -6.28676988E-01 -6.07810556E-01 -3.69152667E-01 -3.49284903E-01 -2.96930855E-01
 -1.41678087E-01 -1.14473711E-01 -1.04488251E-01 -8.98769977E-02 -8.75455040E-02
 -5.33359517E-02 -5.02828140E-02  1.18220084E-02  3.62133066E-02  7.09542732E-02
  2.29721196E-01  3.13421807E-01  3.27934242E-01  3.44482731E-01  3.56854458E-01
  3.63646695E-01  4.34433128E-01  5.16854631E-01  5.49165353E-01  7.02102512E-01
  7.13587223E-01  7.41981634E-01  9.62728236E-01  9.64173005E-01  1.04039613E+00
  1.04776898E+00  1.09441912E+00  1.09557360E+00  1.21761039E+00  1.44370083E+00
  1.45175599E+00  1.54640904E+00  1.79998547E+00  1.81513924E+00  2.05006135E+00
  2.27427829E+00  2.36917143E+00  2.39534859E+00  2.43810706E+00  2.43965909E+00
  2.46560686E+00  2.77126136E+00  2.96680302E+00  3.13512862E+00  2.32066114E+01
  2.33770357E+01
Beta Orbital Energies                      R   N=          56
 -1.10003467E+01 -1.10001251E+01 -1.05608761E+00 -9.75506715E-01 -8.25547423E-01
 -5.88479428E-01 -4.03533800E-01 -3.32019601E-01 -2.86151499E-01 -2.76008735E-01
 -1.51782241E-01 -1.17706721E-01 -1.09349798E-01 -9.36216899E-02 -9.19739817E-02
 -5.30223052E-02 -5.02811743E-02  2.59075605E-03  3.71796661E-02  7.35245420E-02
  2.35896864E-01  3.14178944E-01  3.27959627E-01  3.41561862E-01  3.50706554E-01
  3.60574641E-01  4.22673520E-01  5.20484247E-01  5.60019135E-01  7.17212534E-01
  7.27647332E-01  7.33875447E-01  9.93827895E-01  1.01678204E+00  1.05373948E+00
  1.06339975E+00  1.12077550E+00  1.14366098E+00  1.23899398E+00  1.45361431E+00
  1.46353126E+00  1.55934925E+00  1.81902349E+00  1.82666898E+00  2.07710078E+00
  2.28980299E+00  2.40352365E+00  2.41227814E+00  2.45668914E+00  2.47436604E+00
  2.48545403E+00  2.83152166E+00  2.99457440E+00  3.15137069E+00  2.32172619E+01
  2.33885308E+01
Alpha MO coefficients                      R   N=        3136
  4.00253087E-01  3.29152922E-01  8.84577443E-04  1.59162715E-08 -7.50821520E-09
  7.10299991E-03 -2.10061921E-03 -2.83812000E-08  1.87112655E-08 -3.39198608E-03
  6.48736786E-04  7.72941253E-09 -4.75194747E-09 -4.00183827E-04  1.38424515E-03
  6.23090457E-09 -5.41312196E-09 -4.39967706E-04 -1.20937007E-08 -1.81392313E-05
  6.99482981E-04  1.61004535E-08  3.97941282E-01  3.27252171E-01 -8.81151356E-04
  1.55527397E-08 -9.48252971E-09  7.06007845E-03  2.08943634E-03 -2.61571442E-08
  1.69839008E-08 -3.36034800E-03 -6.75570533E-04  7.06580683E-09 -4.48621457E-09
 -4.28834727E-04 -1.37257258E-03  4.61261553E-09 -2.59353128E-09 -4.35764338E-04
  9.76100472E-09 -1.80298460E-05  6.92579809E-04 -1.44451658E-08  1.19114178E-04
 -2.54487820E-03  3.01483463E-03 -1.55972793E-03 -1.41876774E-08  1.06671687E-08
  1.17992718E-04 -2.52080073E-03  3.01197129E-03  1.54860852E-03 -1.27548690E-08
  8.57791702E-09 -3.97978443E-01 -3.27211320E-01 -5.90174738E-04 -1.44913430E-08
  6.51949924E-09 -7.42677096E-03  1.96644080E-03  2.57457185E-08 -1.69977902E-08
  5.44425337E-03  4.63654101E-03  1.40836185E-08 -1.10324448E-08 -4.84527005E-03
 -1.98473254E-03  9.89564969E-10 -2.50040448E-10  7.34803544E-04  1.94806470E-08
  1.88098895E-05 -1.20784048E-03 -2.61167181E-08  4.00290022E-01  3.29112254E-01
 -5.95296007E-04  1.42231895E-08 -8.44499843E-09  7.46802004E-03  1.97885939E-03
 -2.33331636E-08  1.46838961E-08 -5.46363617E-03  4.63275020E-03 -1.36422252E-08
  9.80817141E-09  4.84281451E-03 -1.99271110E-03 -9.73017587E-10  4.32691000E-10
 -7.37404110E-04  1.66850446E-08 -1.89145151E-05  1.21198393E-03 -2.42142172E-08
 -1.83757959E-04  4.20951770E-03 -5.19175329E-04  1.94472782E-03  2.41085333E-08
 -1.80180796E-08  1.84372174E-04 -4.22457928E-03  5.36689791E-04  1.95390817E-03
 -2.18783775E-08  1.45219998E-08 -8.55281696E-02 -1.39889134E-01  9.30168843E-03
 -2.48649654E-07  2.27043647E-07  4.00473538E-01  2.42687664E-02 -3.04869369E-07
  3.03386402E-07  2.56874514E-01  5.02087290E-03 -1.56800740E-07  1.42697857E-07
 -2.05595561E-03 -1.94458575E-02 -7.03816984E-08  5.52094617E-08 -1.25982032E-02
 -9.19876734E-08 -2.22669171E-03  1.41407382E-02  8.77234427E-08 -8.55313829E-02
 -1.39894346E-01 -9.29703944E-03 -2.48014208E-07  1.84063393E-07  4.00487742E-01
 -2.42632693E-02 -2.99198599E-07  2.27480500E-07  2.56883582E-01 -5.02063100E-03
 -1.56117380E-07  1.14133112E-07 -2.05692524E-03  1.94462792E-02 -4.86967878E-08
  2.81675345E-08 -1.25986511E-02  8.08638305E-08 -2.22677228E-03  1.41412359E-02
 -7.91452968E-08  6.79384889E-02  8.23228515E-02 -2.26040034E-02  1.17302110E-02
  9.06358153E-08 -6.43642120E-08  6.79455749E-02  8.23301726E-02 -2.26045766E-02
 -1.17312332E-02  8.27862883E-08 -5.32411794E-08 -7.26311218E-02 -1.18987071E-01
 -8.28119334E-02 -5.09912220E-07  4.35376502E-07  3.44899083E-01 -1.15599338E-01
 -6.54175402E-07  5.80713666E-07  2.47043773E-01 -4.09999110E-02 -2.91643960E-07
  2.70115725E-07 -1.43297410E-01 -5.44731589E-02 -1.71380940E-07  1.17136055E-07
 -7.58470336E-03 -1.59595065E-07 -1.84078915E-03  6.78809542E-03  1.63525056E-07
  7.26271610E-02  1.18980479E-01 -8.28200130E-02  4.67222816E-07 -3.33348152E-07
 -3.44879092E-01 -1.15610513E-01  5.91875557E-07 -4.23210619E-07 -2.47027218E-01
 -4.10027856E-02  2.69314859E-07 -2.11946021E-07  1.43297285E-01 -5.44714794E-02
  1.66334649E-07 -1.11391042E-07  7.58409210E-03 -1.33649501E-07  1.84067429E-03
 -6.78743278E-03  1.51411351E-07  1.16802055E-01  1.46443719E-01 -1.04923730E-02
  1.95877284E-02  2.19040622E-07 -1.62534517E-07 -1.16805988E-01 -1.46445674E-01
  1.04907663E-02  1.95879364E-02 -2.02692515E-07  1.36979059E-07 -6.40489175E-03
 -1.11428909E-02  1.80952662E-01  1.06392839E-06 -7.85979435E-07  3.65909316E-02
  2.74514442E-01  1.53248790E-06 -1.13586137E-06  1.94714638E-02  1.30806089E-01
  8.07871262E-07 -5.91119438E-07 -6.95510833E-03 -1.46057429E-03  1.57121081E-08
 -1.66071384E-08 -3.41611953E-03  9.95532353E-08 -3.33476899E-04  4.76672190E-03
 -9.35358145E-08 -6.40765609E-03 -1.11475467E-02 -1.80950915E-01  9.54486805E-07
 -6.53494409E-07  3.66052138E-02 -2.74510502E-01  1.38359521E-06 -9.59434107E-07
  1.94858431E-02 -1.30802903E-01  7.12507711E-07 -4.74090995E-07 -6.96545810E-03
  1.46485421E-03  8.63117095E-09 -2.22201269E-09 -3.41621700E-03 -5.57304416E-08
 -3.33561390E-04  4.76659932E-03  7.93965265E-08 -1.19325423E-01 -1.60968160E-01
 -8.67144932E-03 -1.80999115E-02 -2.28341923E-07  1.72705505E-07 -1.19323103E-01
 -1.60961659E-01 -8.67198915E-03  1.80990846E-02 -2.10833230E-07  1.40654642E-07
 -2.69404750E-07 -4.65187660E-07 -1.54067992E-06  1.90775492E-01 -5.13110604E-02
  1.53709494E-06 -2.72059557E-06  3.09259607E-01 -8.31785874E-02  1.24148240E-06
 -1.00088864E-06  2.47525459E-01 -6.65745712E-02 -2.01297688E-07  3.96836815E-07
 -1.95446009E-03  5.25679781E-04  2.44240388E-08 -5.41825306E-03  8.80257484E-09
 -1.36214359E-07  2.01451544E-02 -1.74890760E-07 -3.02810450E-07  1.60463325E-06
  1.90775707E-01 -5.13111183E-02  1.01666792E-06  2.76216905E-06  3.09260232E-01
 -8.31787553E-02  5.55206575E-07  1.28850533E-06  2.47525510E-01 -6.65745847E-02
 -3.23238975E-07 -3.10045686E-07 -1.95467663E-03  5.25738015E-04  2.69551492E-08
  5.41823417E-03 -1.12067492E-08 -1.09305252E-07 -2.01450841E-02 -3.67511986E-07
 -2.00419277E-07  7.89401338E-07 -2.71863744E-07  1.41123530E-02 -3.79566491E-03
 -2.09811143E-07  6.17948590E-09  7.09090660E-07  2.29664070E-07  1.41128404E-02
 -3.79579600E-03  1.23260740E-07  2.08701968E-07  5.67153636E-07  5.08553492E-02
  1.89081153E-01 -6.59679024E-07  1.02182832E-06  8.29046566E-02  3.08241038E-01
 -6.47410600E-07  3.94713630E-07  6.64003543E-02  2.46877833E-01  1.10297423E-07
 -9.03045128E-08  5.53346682E-04  2.05732470E-03  1.32537746E-08  2.03840018E-02
  2.99454236E-08  2.94309393E-08  5.48248642E-03  5.12495732E-08  8.69187758E-08
 -5.71858684E-07  5.08553297E-02  1.89081080E-01 -2.79999161E-07 -9.85139687E-07
  8.29046921E-02  3.08241170E-01 -1.79448221E-07 -4.88189888E-07  6.64002625E-02
  2.46877491E-01  5.73611424E-08  8.31736476E-08  5.53288767E-04  2.05710940E-03
 -1.39690410E-08 -2.03839993E-02  1.99022619E-08  1.84190356E-08 -5.48248575E-03
  1.39871614E-07  1.00489242E-07 -2.72409205E-07  1.23822743E-07  4.14460476E-03
  1.54097199E-02  4.41166533E-08 -3.32769808E-08 -2.28210182E-07 -8.52744797E-08
  4.14474101E-03  1.54102265E-02 -1.89520169E-06 -3.21912674E-06  1.87491726E-06
  2.13412129E-01 -5.73993550E-02  1.01433694E-05  2.56371090E-06  3.34763164E-01
 -9.00379365E-02  1.65302103E-05 -4.89306709E-07  3.53761850E-01 -9.51478393E-02
  2.46967109E-06  2.02466153E-07  5.75003662E-02 -1.54652891E-02  3.81482496E-07
  5.47470316E-03 -3.40163230E-08 -9.60755434E-07 -2.03550900E-02  1.86746966E-06
  3.16938218E-06  2.07901446E-06 -2.13411768E-01  5.73992577E-02 -9.98272832E-06
  2.91878417E-06 -3.34762907E-01  9.00378675E-02 -1.61709835E-05 -1.54609045E-07
 -3.53761144E-01  9.51476496E-02 -2.41012773E-06  2.28907493E-07 -5.75000634E-02
  1.54652077E-02 -3.84918699E-07  5.47473583E-03  5.87514094E-08  9.38483039E-07
 -2.03552116E-02 -3.56466290E-06 -8.11155841E-06 -6.65244610E-06 -2.95847934E-07
  2.18809498E-02 -5.88510432E-03  3.47418501E-06  7.89309984E-06  6.51491953E-06
 -2.67795707E-07 -2.18811591E-02  5.88516063E-03  9.08727481E-07  1.54061800E-06
 -1.00643166E-06  5.66498288E-02  2.10625393E-01 -4.82445730E-06 -1.40976012E-06
  8.85541407E-02  3.29246342E-01 -8.30703243E-06 -1.80559581E-07  9.65582738E-02
  3.59005945E-01 -2.61796418E-06 -6.14463544E-07  2.04152522E-02  7.59043170E-02
 -1.47909024E-07 -2.11005016E-02  5.07037028E-08  4.62104056E-07 -5.67519782E-03
 -8.78804818E-07 -1.49064834E-06 -1.16756506E-06 -5.66497915E-02 -2.10625255E-01
  4.68802565E-06 -1.68477358E-06 -8.85541564E-02 -3.29246401E-01  7.95640546E-06
 -4.48321887E-07 -9.65581849E-02 -3.59005615E-01  2.55130438E-06 -6.52038265E-07
 -2.04151724E-02 -7.59040202E-02  1.75102707E-07 -2.11005405E-02 -4.01942075E-08
 -4.48588408E-07 -5.67520828E-03  1.63600406E-06  3.79595098E-06  3.29424470E-06
  1.16975330E-07  6.27393990E-03  2.33266600E-02 -1.55916912E-06 -3.62205447E-06
 -3.17898957E-06  9.13786416E-08 -6.27400675E-03 -2.33269086E-02  6.92179122E-02
  1.17529305E-01 -1.27398522E-01  4.72814634E-06 -4.03146399E-06 -3.64906245E-01
 -1.83288642E-01  7.54993798E-06 -6.41261253E-06 -7.66607165E-01 -2.29050426E-01
  9.84079372E-06 -8.27687374E-06 -8.19897011E-01 -2.98680979E-01  2.08270292E-06
 -1.95571536E-06 -1.83586874E-02  2.34217445E-07  2.76245868E-03  4.13260652E-02
 -2.36466308E-07 -6.92167732E-02 -1.17527474E-01 -1.27403446E-01 -4.59564964E-06
  3.87882175E-06  3.64900619E-01 -1.83295248E-01 -7.30758286E-06  6.12407073E-06
  7.66600000E-01 -2.29056597E-01 -9.48403250E-06  7.87005624E-06  8.19899351E-01
 -2.98676235E-01 -2.03553947E-06  1.91426187E-06  1.83583054E-02  3.08293029E-07
 -2.76243677E-03 -4.13253280E-02 -2.81526682E-07  1.15224987E-01  2.65136907E-01
  2.61812984E-01 -2.66296312E-03  7.10887605E-07 -5.99253875E-07 -1.15221110E-01
 -2.65126083E-01 -2.61799288E-01 -2.66243726E-03 -6.84959842E-07  5.66197146E-07
  2.62738386E-02  4.58952603E-02  4.19425223E-02  3.35668247E-07 -2.73410879E-07
 -1.64743181E-01  7.46908955E-02  7.69509969E-07 -5.96805450E-07 -3.73959865E-01
  8.92650356E-02  6.51114766E-07 -5.11231730E-07  9.14610505E-01 -5.33815024E-01
 -3.17548531E-06  2.70530141E-06  7.34866293E-03  8.31517441E-08 -1.49950677E-04
 -1.32454200E-02 -1.01816436E-07  2.62751409E-02  4.58975563E-02 -4.19354367E-02
  3.09907601E-07 -2.32516641E-07 -1.64750624E-01 -7.46817094E-02  6.96946834E-07
 -4.91211132E-07 -3.73981460E-01 -8.92386247E-02  6.15473276E-07 -4.83546766E-07
  9.14702798E-01  5.33769394E-01 -2.57752291E-06  1.70960377E-06  7.34833075E-03
 -6.49913944E-08 -1.49885544E-04 -1.32446200E-02  9.17935943E-08 -9.89050065E-03
  8.32640475E-02 -1.76954765E-01 -1.12564851E-02 -1.43482570E-07  1.08233911E-07
 -9.88926595E-03  8.32682253E-02 -1.76960404E-01  1.12551086E-02 -1.29169967E-07
  8.64008961E-08 -9.01334127E-04 -2.23038547E-03 -8.90059978E-02  3.12164464E-08
  4.63743956E-09  2.75206613E-02 -1.43762113E-01 -7.95009982E-08  8.06928063E-08
 -8.18646514E-02 -1.83062028E-01  7.06827013E-07 -4.56833195E-07  2.95421367E+00
  1.91886937E+00  9.15542437E-06 -7.00480943E-06 -8.98495211E-03 -7.75582233E-08
  7.05961582E-04  1.79972827E-02  9.51094649E-08  9.01410486E-04  2.23071426E-03
 -8.89915749E-02 -7.12685914E-08  5.63392417E-08 -2.75268316E-02 -1.43739901E-01
  2.27456082E-08  9.18017496E-09  8.18960823E-02 -1.83007606E-01 -7.64112737E-07
  5.43084454E-07 -2.95413161E+00  1.91879119E+00 -8.64774945E-06  6.28807294E-06
  8.98832711E-03 -4.98418951E-08 -7.06211722E-04 -1.80039911E-02  8.27996695E-08
  3.78715540E-02  2.01438938E-02  2.51780877E-01  1.70130829E-02  3.15575416E-07
 -2.34267841E-07 -3.78820119E-02 -2.01759026E-02 -2.51891604E-01  1.70094892E-02
 -2.92135365E-07  2.02452862E-07  1.33130847E-03  1.25040160E-03  9.33527399E-02
  1.04031921E-06 -7.02853974E-07  2.19390584E-02  1.45299491E-01  1.26267688E-06
 -8.90023701E-07 -1.71145570E-01  3.30688841E-01  4.93987055E-06 -3.42257720E-06
 -4.37406496E-01 -5.97700849E-01 -3.80027115E-06  2.13846936E-06 -2.07406924E-02
 -3.56695293E-07  1.51352544E-03  4.11441585E-02  5.53985332E-07  1.33322412E-03
  1.25379364E-03 -9.33561039E-02  9.12541101E-07 -5.30680212E-07  2.19256716E-02
 -1.45306419E-01  1.09510987E-06 -6.58502960E-07 -1.71172120E-01 -3.30688125E-01
  4.43751075E-06 -2.67009381E-06 -4.37895342E-01  5.98025545E-01 -3.54175055E-06
  1.85451174E-06 -2.07398987E-02  3.44147378E-07  1.51350719E-03  4.11427208E-02
 -5.36293473E-07  5.72361939E-02  2.01191226E-01  6.93150541E-01 -2.14962517E-02
 -1.31124497E-07  8.82132158E-08  5.72289270E-02  2.01187858E-01  6.93094354E-01
  2.14985246E-02 -1.34584775E-07  9.19611731E-08  8.88689152E-08  1.56220947E-07
  9.68419531E-07 -7.48226182E-02  2.01240605E-02 -5.64644947E-07  1.50169290E-06
 -8.66566294E-02  2.33068541E-02 -1.77160166E-07  2.03476171E-06 -2.36613997E-01
  6.36389863E-02 -1.31790217E-06 -1.26192806E-05  6.22182735E-01 -1.67340332E-01
 -1.81645343E-07  2.47145804E-03  1.29355793E-09  3.57901293E-07 -9.18905202E-03
  8.74166076E-08  1.52439714E-07 -9.20734411E-07 -7.48212626E-02  2.01236959E-02
 -5.29508818E-07 -1.40498726E-06 -8.66549152E-02  2.33063930E-02 -2.55174646E-07
 -2.54224275E-06 -2.36610400E-01  6.36380188E-02  4.13649120E-06  9.63159065E-06
  6.22159938E-01 -1.67334200E-01 -1.89567212E-07 -2.47140982E-03  9.33874478E-09
  3.70299869E-07  9.18887274E-03  5.03001227E-07  9.03740109E-07  1.99743931E-06
 -1.32851341E-07  5.10438590E-03 -1.37286217E-03  5.22367272E-07  1.14717522E-06
  2.80980183E-06  1.30063152E-07  5.10377508E-03 -1.37269788E-03 -3.83003261E-08
 -6.72882312E-08 -2.95016899E-07 -1.99575017E-02 -7.42033677E-02  2.62967710E-07
 -4.84319158E-07 -2.49878538E-02 -9.29063919E-02 -9.07237997E-08 -2.79571996E-07
 -6.32011267E-02 -2.34986211E-01  1.65557845E-06  5.33305912E-06  1.67000141E-01
  6.20917983E-01  3.66099656E-08 -9.51384183E-03 -3.05704452E-09 -9.67049936E-08
 -2.55881360E-03 -3.39415966E-08 -5.98527707E-08  2.60131832E-07 -1.99571219E-02
 -7.42019554E-02  2.33925261E-07  4.04456989E-07 -2.49873748E-02 -9.29046109E-02
 -9.89011918E-08  7.98223418E-07 -6.32000710E-02 -2.34982286E-01 -3.99029727E-06
 -2.45108235E-06  1.66993732E-01  6.20894152E-01  4.85487679E-08  9.51368121E-03
 -2.36328150E-09 -1.00665696E-07  2.55877040E-03 -1.29683174E-07 -1.08074344E-07
  2.46576428E-07  3.78700020E-08  1.21508318E-03  4.51777175E-03 -1.35959132E-07
 -3.00443362E-07 -4.47104394E-07 -3.38770627E-08  1.21492028E-03  4.51716606E-03
 -6.42547190E-08 -1.12149890E-07  2.60736911E-07  7.50534827E-02 -2.01862824E-02
  5.16135092E-07  5.02983598E-07  8.95939493E-02 -2.40970333E-02 -5.83836448E-07
  5.54990179E-06  2.60348394E-01 -7.00230017E-02  5.89761976E-05  2.75917549E-05
 -1.65900530E+00  4.46203921E-01  6.35792124E-08 -1.41763886E-03  1.52756330E-08