Title Card Required                                                     
Force     UM062X                                                      6-311+G(d,p)        
Number of atoms                            I                4
Info1-9                                    I   N=           9
          13          13           0           0           0         100
           5          18        -502
Full Title                                 C   N=           2
Title Card Required     
Route                                      C   N=           4
#p UM062X/6-311+G** force int=superfine         
Charge                                     I                1
Multiplicity                               I                2
Number of electrons                        I               13
Number of alpha electrons                  I                7
Number of beta electrons                   I                6
Number of basis functions                  I               56
Number of independent functions            I               56
Number of point charges in /Mol/           I                0
Number of translation vectors              I                0
Atomic numbers                             I   N=           4
           6           6           1           1
Nuclear charges                            R   N=           4
  6.00000000E+00  6.00000000E+00  1.00000000E+00  1.00000000E+00
Current cartesian coordinates              R   N=          12
  0.00000000E+00  0.00000000E+00  1.44422454E+00  0.00000000E+00  0.00000000E+00
 -1.44422562E+00  0.00000000E+00  0.00000000E+00  3.50450034E+00  0.00000000E+00
  0.00000000E+00 -3.50449386E+00
Number of symbols in /Mol/                 I                0
Force Field                                I                0
Atom Types                                 C   N=           4
                                                
Int Atom Types                             I   N=           4
           0           0           0           0
MM charges                                 R   N=           4
  0.00000000E+00  0.00000000E+00  0.00000000E+00  0.00000000E+00
Integer atomic weights                     I   N=           4
          12          12           1           1
Real atomic weights                        R   N=           4
  1.20000000E+01  1.20000000E+01  1.00782504E+00  1.00782504E+00
Atom fragment info                         I   N=           4
           0           0           0           0
Atom residue num                           I   N=           4
           0           0           0           0
Nuclear spins                              I   N=           4
           0           0           1           1
Nuclear ZEff                               R   N=           4
 -3.60000000E+00 -3.60000000E+00 -1.00000000E+00 -1.00000000E+00
Nuclear ZNuc                               R   N=           4
  6.00000000E+00  6.00000000E+00  1.00000000E+00  1.00000000E+00
Nuclear QMom                               R   N=           4
  0.00000000E+00  0.00000000E+00  0.00000000E+00  0.00000000E+00
Nuclear GFac                               R   N=           4
  0.00000000E+00  0.00000000E+00  2.79284600E+00  2.79284600E+00
MicOpt                                     I   N=           4
          -1          -1          -1          -1
Number of residues                         I                0
Number of secondary structures             I                0
SymInf integers                            I   N=          26
           1           4           1           1           1          -1
          -1           1          -1           1           1           1
          -1           1           0           0           0           0
           0           0           0           0           0           0
           0           0
RotTr to input orientation                 R   N=          12
  0.00000000E+00  0.00000000E+00  1.00000000E+00  0.00000000E+00  1.00000000E+00
  0.00000000E+00 -1.00000000E+00 -0.00000000E+00 -0.00000000E+00 -5.39921750E-07
  0.00000000E+00  0.00000000E+00
Number of contracted shells                I               20
Number of primitive shells                 I               38
Pure/Cartesian d shells                    I                0
Pure/Cartesian f shells                    I                0
Highest angular momentum                   I                2
Largest degree of contraction              I                6
Shell types                                I   N=          20
           0          -1          -1          -1          -1          -2
           0          -1          -1          -1          -1          -2
           0           0           0           1           0           0
           0           1
Number of primitives per shell             I   N=          20
           6           3           1           1           1           1
           6           3           1           1           1           1
           3           1           1           1           3           1
           1           1
Shell to atom map                          I   N=          20
           1           1           1           1           1           1
           2           2           2           2           2           2
           3           3           3           3           4           4
           4           4
Primitive exponents                        R   N=          38
  4.56324000E+03  6.82024000E+02  1.54973000E+02  4.44553000E+01  1.30290000E+01
  1.82773000E+00  2.09642000E+01  4.80331000E+00  1.45933000E+00  4.83456000E-01
  1.45585000E-01  4.38000000E-02  6.26000000E-01  4.56324000E+03  6.82024000E+02
  1.54973000E+02  4.44553000E+01  1.30290000E+01  1.82773000E+00  2.09642000E+01
  4.80331000E+00  1.45933000E+00  4.83456000E-01  1.45585000E-01  4.38000000E-02
  6.26000000E-01  3.38650000E+01  5.09479000E+00  1.15879000E+00  3.25840000E-01
  1.02741000E-01  7.50000000E-01  3.38650000E+01  5.09479000E+00  1.15879000E+00
  3.25840000E-01  1.02741000E-01  7.50000000E-01
Contraction coefficients                   R   N=          38
  1.96665025E-03  1.52306019E-02  7.61269097E-02  2.60801033E-01  6.16462078E-01
  2.21006028E-01  1.14660081E-01  9.19999648E-01 -3.03068213E-03  1.00000000E+00
  1.00000000E+00  1.00000000E+00  1.00000000E+00  1.96665025E-03  1.52306019E-02
  7.61269097E-02  2.60801033E-01  6.16462078E-01  2.21006028E-01  1.14660081E-01
  9.19999648E-01 -3.03068213E-03  1.00000000E+00  1.00000000E+00  1.00000000E+00
  1.00000000E+00  2.54938145E-02  1.90373109E-01  8.52161486E-01  1.00000000E+00
  1.00000000E+00  1.00000000E+00  2.54938145E-02  1.90373109E-01  8.52161486E-01
  1.00000000E+00  1.00000000E+00  1.00000000E+00
P(S=P) Contraction coefficients            R   N=          38
  0.00000000E+00  0.00000000E+00  0.00000000E+00  0.00000000E+00  0.00000000E+00
  0.00000000E+00  4.02486927E-02  2.37593957E-01  8.15853851E-01  1.00000000E+00
  1.00000000E+00  1.00000000E+00  0.00000000E+00  0.00000000E+00  0.00000000E+00
  0.00000000E+00  0.00000000E+00  0.00000000E+00  0.00000000E+00  4.02486927E-02
  2.37593957E-01  8.15853851E-01  1.00000000E+00  1.00000000E+00  1.00000000E+00
  0.00000000E+00  0.00000000E+00  0.00000000E+00  0.00000000E+00  0.00000000E+00
  0.00000000E+00  0.00000000E+00  0.00000000E+00  0.00000000E+00  0.00000000E+00
  0.00000000E+00  0.00000000E+00  0.00000000E+00
Coordinates of each shell                  R   N=          60
  0.00000000E+00  0.00000000E+00  1.44422454E+00  0.00000000E+00  0.00000000E+00
  1.44422454E+00  0.00000000E+00  0.00000000E+00  1.44422454E+00  0.00000000E+00
  0.00000000E+00  1.44422454E+00  0.00000000E+00  0.00000000E+00  1.44422454E+00
  0.00000000E+00  0.00000000E+00  1.44422454E+00  0.00000000E+00  0.00000000E+00
 -1.44422562E+00  0.00000000E+00  0.00000000E+00 -1.44422562E+00  0.00000000E+00
  0.00000000E+00 -1.44422562E+00  0.00000000E+00  0.00000000E+00 -1.44422562E+00
  0.00000000E+00  0.00000000E+00 -1.44422562E+00  0.00000000E+00  0.00000000E+00
 -1.44422562E+00  0.00000000E+00  0.00000000E+00  3.50450034E+00  0.00000000E+00
  0.00000000E+00  3.50450034E+00  0.00000000E+00  0.00000000E+00  3.50450034E+00
  0.00000000E+00  0.00000000E+00  3.50450034E+00  0.00000000E+00  0.00000000E+00
 -3.50449386E+00  0.00000000E+00  0.00000000E+00 -3.50449386E+00  0.00000000E+00
  0.00000000E+00 -3.50449386E+00  0.00000000E+00  0.00000000E+00 -3.50449386E+00
Num ILSW                                   I              100
ILSW                                       I   N=         100
           1           0           0           0           2           0
           0           0           0           0        4336          -1
           7           0           0           0           2           0
           0           0           0           0           1           0
           1           0           0           0           0           0
           0           0      100000           0          -1           0
           0           0           0           0           0           0
           0           0           0           1           0           0
           0 -2000000000           1           0           0           0
           0           0           4          52           0           0
           0           0          55           0           0           0
           0           0           0           4           0           1
           0           0           0           0           0           0
           0           0           0           0           0           0
           0           0           0           0           0           0
           0           0           0           0           0           0
           0           0           0           0
Num RLSW                                   I               52
RLSW                                       R   N=          52
  1.00000000E+00  1.00000000E+00  1.00000000E+00  1.00000000E+00  5.40000000E-01
  0.00000000E+00  0.00000000E+00  1.00000000E+00  0.00000000E+00  0.00000000E+00
  0.00000000E+00  0.00000000E+00  1.00000000E+00  0.00000000E+00  0.00000000E+00
  0.00000000E+00  0.00000000E+00  1.00000000E+00  0.00000000E+00  0.00000000E+00
  0.00000000E+00  0.00000000E+00  1.00000000E+00  0.00000000E+00  0.00000000E+00
  0.00000000E+00  0.00000000E+00  1.00000000E+00  0.00000000E+00  0.00000000E+00
  0.00000000E+00  0.00000000E+00  1.00000000E+00  0.00000000E+00  0.00000000E+00
  0.00000000E+00  0.00000000E+00  0.00000000E+00  1.00000000E+00  1.00000000E+00
  0.00000000E+00  1.00000000E+00  0.00000000E+00  0.00000000E+00  0.00000000E+00
  0.00000000E+00  0.00000000E+00  0.00000000E+00  0.00000000E+00  0.00000000E+00
  0.00000000E+00  0.00000000E+00
MxBond                                     I                2
NBond                                      I   N=           4
           2           2           1           1
IBond                                      I   N=           8
           2           3           1           4           1           0
           2           0
RBond                                      R   N=           8
  1.00000000E+00  1.00000000E+00  1.00000000E+00  1.00000000E+00  1.00000000E+00
  0.00000000E+00  1.00000000E+00  0.00000000E+00
Virial Ratio                               R      2.012760391158371E+00
SCF Energy                                 R     -7.681414339468563E+01
Total Energy                               R     -7.681414339468563E+01
S**2                                       R      7.523236013171486E-01
S**2 after annihilation                    R      7.500036717353743E-01
RMS Force                                  R      1.017753993224201E-01
RMS Density                                R      1.755442217796614E-09
Job Status                                 I                1
Nuclear derivative order                   I                1
External E-field                           R   N=          35
  0.00000000E+00  0.00000000E+00  0.00000000E+00  0.00000000E+00  0.00000000E+00
  0.00000000E+00  0.00000000E+00  0.00000000E+00  0.00000000E+00  0.00000000E+00
  0.00000000E+00  0.00000000E+00  0.00000000E+00  0.00000000E+00  0.00000000E+00
  0.00000000E+00  0.00000000E+00  0.00000000E+00  0.00000000E+00  0.00000000E+00
  0.00000000E+00  0.00000000E+00  0.00000000E+00  0.00000000E+00  0.00000000E+00
  0.00000000E+00  0.00000000E+00  0.00000000E+00  0.00000000E+00  0.00000000E+00
  0.00000000E+00  0.00000000E+00  0.00000000E+00  0.00000000E+00  0.00000000E+00
IOpCl                                      I                1
IROHF                                      I                0
Alpha Orbital Energies                     R   N=          56
 -1.09840034E+01 -1.09834427E+01 -1.13795924E+00 -9.86322617E-01 -8.66049601E-01
 -6.62963063E-01 -6.40377871E-01 -3.37208781E-01 -3.17097579E-01 -2.19024674E-01
 -1.42968458E-01 -1.09513342E-01 -1.02730850E-01 -9.45728426E-02 -9.21428712E-02
 -5.21357115E-02 -4.86705979E-02  1.88335633E-02  4.16841067E-02  9.84262230E-02
  2.12608624E-01  3.12713728E-01  3.26170404E-01  3.60467264E-01  3.66634227E-01
  4.15041835E-01  4.48871862E-01  5.02202306E-01  5.50899513E-01  7.00734420E-01
  7.14269584E-01  7.84448239E-01  9.18103064E-01  9.19641254E-01  1.10007313E+00
  1.10681341E+00  1.13913355E+00  1.14036774E+00  1.33932094E+00  1.44411334E+00
  1.45375109E+00  1.60258395E+00  1.93120230E+00  1.94888360E+00  2.19039671E+00
  2.38095385E+00  2.38163965E+00  2.40808943E+00  2.45039636E+00  2.49485986E+00
  2.52511623E+00  2.88466890E+00  2.91691457E+00  3.28585800E+00  2.32045996E+01
  2.36892029E+01
Beta Orbital Energies                      R   N=          56
 -1.09816015E+01 -1.09811912E+01 -1.09589582E+00 -9.69378071E-01 -8.59327339E-01
 -6.18783043E-01 -4.24180647E-01 -3.00080210E-01 -2.60723604E-01 -1.98811499E-01
 -1.54113312E-01 -1.12812097E-01 -1.04481671E-01 -9.80302030E-02 -9.59785292E-02
 -5.01775810E-02 -4.63526824E-02  1.19491417E-02  4.29900253E-02  1.03318307E-01
  2.21456500E-01  3.05221123E-01  3.25545722E-01  3.46723421E-01  3.64313484E-01
  4.25843625E-01  4.30594976E-01  5.07512178E-01  5.63135413E-01  7.32273259E-01
  7.39271143E-01  7.56558486E-01  9.52348681E-01  9.74941417E-01  1.11417957E+00
  1.12457256E+00  1.16715527E+00  1.18913081E+00  1.35760398E+00  1.46036977E+00
  1.46916897E+00  1.62162905E+00  1.95417594E+00  1.96225765E+00  2.22071007E+00
  2.40601342E+00  2.41428124E+00  2.42164354E+00  2.46972417E+00  2.53314098E+00
  2.54231158E+00  2.95035326E+00  2.96721677E+00  3.30155073E+00  2.32151153E+01
  2.37043207E+01
Alpha MO coefficients                      R   N=        3136
  3.99145474E-01  3.28272023E-01  0.00000000E+00  0.00000000E+00 -7.33426872E-04
  7.30882400E-03  0.00000000E+00  0.00000000E+00  2.03558345E-03 -3.36161681E-03
  0.00000000E+00  0.00000000E+00 -6.00744501E-04 -4.10497660E-04  0.00000000E+00
  0.00000000E+00 -1.49354014E-03  7.33629745E-04  0.00000000E+00  0.00000000E+00
 -3.49496107E-05  0.00000000E+00  3.98935118E-01  3.28099157E-01  0.00000000E+00
  0.00000000E+00  7.33362849E-04  7.30457344E-03  0.00000000E+00  0.00000000E+00
 -2.03521375E-03 -3.35755446E-03  0.00000000E+00  0.00000000E+00  6.04870919E-04
 -4.10515583E-04  0.00000000E+00  0.00000000E+00  1.49347707E-03  7.32359375E-04
  0.00000000E+00  0.00000000E+00 -3.49286421E-05  0.00000000E+00  1.44806063E-04
 -2.57947804E-03  2.96758775E-03  0.00000000E+00  0.00000000E+00  1.55270609E-03
  1.44750968E-04 -2.57690317E-03  2.96799287E-03  0.00000000E+00  0.00000000E+00
 -1.55158630E-03 -3.99014601E-01 -3.27895619E-01  0.00000000E+00  0.00000000E+00
  1.23747793E-04 -8.13432345E-03  0.00000000E+00  0.00000000E+00 -7.77740618E-04
  7.71037376E-03  0.00000000E+00  0.00000000E+00 -7.85705056E-03  2.36672573E-04
  0.00000000E+00  0.00000000E+00  5.12784078E-05 -2.44866182E-03  0.00000000E+00
  0.00000000E+00  3.97366460E-05  0.00000000E+00  3.99224912E-01  3.28068583E-01
  0.00000000E+00  0.00000000E+00  1.24134510E-04  8.13821485E-03  0.00000000E+00
  0.00000000E+00 -7.78860691E-04 -7.71210496E-03  0.00000000E+00  0.00000000E+00
 -7.85674586E-03 -2.36895299E-04  0.00000000E+00  0.00000000E+00  5.20629812E-05
  2.44906993E-03  0.00000000E+00  0.00000000E+00 -3.97550427E-05  0.00000000E+00
 -8.82615703E-05  5.00207866E-03  7.15703726E-04  0.00000000E+00  0.00000000E+00
 -2.17910972E-03  8.83234220E-05 -5.00350388E-03 -7.14141559E-04  0.00000000E+00
  0.00000000E+00 -2.17995652E-03 -8.73687894E-02 -1.42407767E-01  0.00000000E+00
  0.00000000E+00 -3.91629659E-02  4.02992468E-01  0.00000000E+00  0.00000000E+00
 -6.09615348E-02  2.33635246E-01  0.00000000E+00  0.00000000E+00 -1.24749134E-02
 -3.05317789E-03  0.00000000E+00  0.00000000E+00  2.02853944E-02  1.99438097E-02
  0.00000000E+00  0.00000000E+00 -4.85233869E-03  0.00000000E+00 -8.73690714E-02
 -1.42408228E-01  0.00000000E+00  0.00000000E+00  3.91624977E-02  4.02993676E-01
  0.00000000E+00  0.00000000E+00  6.09610250E-02  2.33636128E-01  0.00000000E+00
  0.00000000E+00  1.24749822E-02 -3.05307076E-03  0.00000000E+00  0.00000000E+00
 -2.02853675E-02  1.99438967E-02  0.00000000E+00  0.00000000E+00 -4.85235371E-03
  0.00000000E+00  5.31050367E-02  6.23268521E-02 -2.10277281E-02  0.00000000E+00
  0.00000000E+00 -8.55197889E-03  5.31057433E-02  6.23275383E-02 -2.10277979E-02
  0.00000000E+00  0.00000000E+00  8.55206982E-03 -7.00503904E-02 -1.15217540E-01
  0.00000000E+00  0.00000000E+00  9.00292864E-02  3.30955546E-01  0.00000000E+00
  0.00000000E+00  1.22772152E-01  2.57116672E-01  0.00000000E+00  0.00000000E+00
  3.58451157E-02 -2.03444130E-01  0.00000000E+00  0.00000000E+00  6.62642292E-02
  1.11158649E-02  0.00000000E+00  0.00000000E+00 -3.75326904E-03  0.00000000E+00
  7.00500881E-02  1.15217029E-01  0.00000000E+00  0.00000000E+00  9.00312798E-02
 -3.30953895E-01  0.00000000E+00  0.00000000E+00  1.22774813E-01 -2.57115351E-01
  0.00000000E+00  0.00000000E+00  3.58458174E-02  2.03444098E-01  0.00000000E+00
  0.00000000E+00  6.62640367E-02 -1.11157631E-02  0.00000000E+00  0.00000000E+00
  3.75324633E-03  0.00000000E+00  1.20101021E-01  1.51977705E-01 -7.36090985E-03
  0.00000000E+00  0.00000000E+00 -1.98055914E-02 -1.20102366E-01 -1.51978973E-01
  7.36072554E-03  0.00000000E+00  0.00000000E+00 -1.98057669E-02 -2.37721684E-03
 -3.51309163E-03  0.00000000E+00  0.00000000E+00  1.85546497E-01  3.95657839E-03
  0.00000000E+00  0.00000000E+00  2.69306679E-01  4.05238889E-02  0.00000000E+00
  0.00000000E+00  1.17482167E-01  7.39937525E-03  0.00000000E+00  0.00000000E+00
  2.89077921E-03 -5.28719533E-03  0.00000000E+00  0.00000000E+00  2.21455690E-04
  0.00000000E+00 -2.37658253E-03 -3.51202615E-03  0.00000000E+00  0.00000000E+00
 -1.85545876E-01  3.95335045E-03  0.00000000E+00  0.00000000E+00 -2.69305495E-01
  4.05207873E-02  0.00000000E+00  0.00000000E+00 -1.17481459E-01  7.40255411E-03
  0.00000000E+00  0.00000000E+00 -2.88969566E-03 -5.28722453E-03  0.00000000E+00
  0.00000000E+00  2.21494610E-04  0.00000000E+00  1.26523214E-01  1.71436977E-01
  2.58430797E-03  0.00000000E+00  0.00000000E+00 -2.14331401E-02  1.26522488E-01
  1.71435501E-01  2.58438960E-03  0.00000000E+00  0.00000000E+00  2.14329710E-02
  0.00000000E+00  0.00000000E+00  0.00000000E+00  1.96442952E-01  0.00000000E+00
  0.00000000E+00  0.00000000E+00  3.23429158E-01  0.00000000E+00  0.00000000E+00
  0.00000000E+00  2.35037120E-01  0.00000000E+00  0.00000000E+00  0.00000000E+00
 -4.54022096E-03  0.00000000E+00  0.00000000E+00  0.00000000E+00 -2.74102666E-02
  0.00000000E+00  0.00000000E+00  0.00000000E+00  0.00000000E+00  0.00000000E+00
  1.96443005E-01  0.00000000E+00  0.00000000E+00  0.00000000E+00  3.23429291E-01
  0.00000000E+00  0.00000000E+00  0.00000000E+00  2.35037145E-01  0.00000000E+00
  0.00000000E+00  0.00000000E+00 -4.54024876E-03  0.00000000E+00  0.00000000E+00
  0.00000000E+00  2.74102519E-02  0.00000000E+00  0.00000000E+00  0.00000000E+00
  0.00000000E+00  0.00000000E+00  0.00000000E+00  1.37821256E-02  0.00000000E+00
  0.00000000E+00  0.00000000E+00  0.00000000E+00  0.00000000E+00  1.37822119E-02
  0.00000000E+00  0.00000000E+00  0.00000000E+00  1.95198851E-01  0.00000000E+00
  0.00000000E+00  0.00000000E+00  3.22499076E-01  0.00000000E+00  0.00000000E+00
  0.00000000E+00  2.34243346E-01  0.00000000E+00  0.00000000E+00  0.00000000E+00
 -5.79648349E-04  0.00000000E+00  0.00000000E+00  0.00000000E+00 -2.71122111E-02
  0.00000000E+00  0.00000000E+00  0.00000000E+00  0.00000000E+00  0.00000000E+00
  1.95198895E-01  0.00000000E+00  0.00000000E+00  0.00000000E+00  3.22499180E-01
  0.00000000E+00  0.00000000E+00  0.00000000E+00  2.34243362E-01  0.00000000E+00
  0.00000000E+00  0.00000000E+00 -5.79677822E-04  0.00000000E+00  0.00000000E+00
  0.00000000E+00  2.71122050E-02  0.00000000E+00  0.00000000E+00  0.00000000E+00
  0.00000000E+00  0.00000000E+00  0.00000000E+00  1.51557315E-02  0.00000000E+00
  0.00000000E+00  0.00000000E+00  0.00000000E+00  0.00000000E+00  1.51558244E-02
  0.00000000E+00  0.00000000E+00  0.00000000E+00  0.00000000E+00  0.00000000E+00
  2.18894840E-01  0.00000000E+00  0.00000000E+00  0.00000000E+00  3.49059964E-01
  0.00000000E+00  0.00000000E+00  0.00000000E+00  4.09580692E-01  0.00000000E+00
  0.00000000E+00  0.00000000E+00  9.09183562E-02  0.00000000E+00  0.00000000E+00
  0.00000000E+00  2.60768865E-02  0.00000000E+00  0.00000000E+00  0.00000000E+00
  0.00000000E+00  0.00000000E+00 -2.18894775E-01  0.00000000E+00  0.00000000E+00
  0.00000000E+00 -3.49059914E-01  0.00000000E+00  0.00000000E+00  0.00000000E+00
 -4.09580555E-01  0.00000000E+00  0.00000000E+00  0.00000000E+00 -9.09182845E-02
  0.00000000E+00  0.00000000E+00  0.00000000E+00  2.60769185E-02  0.00000000E+00
  0.00000000E+00  0.00000000E+00  0.00000000E+00  0.00000000E+00  0.00000000E+00
  2.39343042E-02  0.00000000E+00  0.00000000E+00  0.00000000E+00  0.00000000E+00
  0.00000000E+00 -2.39343381E-02  0.00000000E+00  0.00000000E+00  0.00000000E+00
  2.15607944E-01  0.00000000E+00  0.00000000E+00  0.00000000E+00  3.40930324E-01
  0.00000000E+00  0.00000000E+00  0.00000000E+00  4.17404944E-01  0.00000000E+00
  0.00000000E+00  0.00000000E+00  1.17125586E-01  0.00000000E+00  0.00000000E+00
  0.00000000E+00  2.73581919E-02  0.00000000E+00  0.00000000E+00  0.00000000E+00
  0.00000000E+00  0.00000000E+00 -2.15607893E-01  0.00000000E+00  0.00000000E+00
  0.00000000E+00 -3.40930278E-01  0.00000000E+00  0.00000000E+00  0.00000000E+00
 -4.17404830E-01  0.00000000E+00  0.00000000E+00  0.00000000E+00 -1.17125502E-01
  0.00000000E+00  0.00000000E+00  0.00000000E+00  2.73582143E-02  0.00000000E+00
  0.00000000E+00  0.00000000E+00  0.00000000E+00  0.00000000E+00  0.00000000E+00
  2.54750162E-02  0.00000000E+00  0.00000000E+00  0.00000000E+00  0.00000000E+00
  0.00000000E+00 -2.54750531E-02  0.00000000E+00  0.00000000E+00  6.79740048E-02
  1.16361561E-01  0.00000000E+00  0.00000000E+00  7.26322337E-02 -3.61895045E-01
  0.00000000E+00  0.00000000E+00  1.03105037E-01 -9.88786203E-01  0.00000000E+00
  0.00000000E+00  1.78807371E-01 -2.54217199E+00  0.00000000E+00  0.00000000E+00
  8.66747729E-01  5.32201991E-02  0.00000000E+00  0.00000000E+00  5.99538603E-03
  0.00000000E+00 -6.79736848E-02 -1.16361033E-01  0.00000000E+00  0.00000000E+00
  7.26337945E-02  3.61893541E-01  0.00000000E+00  0.00000000E+00  1.03107325E-01
  9.88782078E-01  0.00000000E+00  0.00000000E+00  1.78810047E-01  2.54217343E+00
  0.00000000E+00  0.00000000E+00  8.66744145E-01 -5.32198889E-02  0.00000000E+00
  0.00000000E+00 -5.99536247E-03  0.00000000E+00  1.12240001E-01  2.99888936E-01
  4.25190873E-01  0.00000000E+00  0.00000000E+00  1.16127669E-02 -1.12238935E-01
 -2.99885748E-01 -4.25185893E-01  0.00000000E+00  0.00000000E+00  1.16125262E-02
  2.47891362E-02  4.33596096E-02  0.00000000E+00  0.00000000E+00 -3.59071627E-02
 -1.58892551E-01  0.00000000E+00  0.00000000E+00 -6.66864270E-02 -3.36016201E-01
  0.00000000E+00  0.00000000E+00 -7.13004900E-02  9.35702760E-01  0.00000000E+00
  0.00000000E+00  5.37936563E-01 -1.80825259E-02  0.00000000E+00  0.00000000E+00
 -6.59618994E-04  0.00000000E+00  2.47895083E-02  4.33602628E-02  0.00000000E+00
  0.00000000E+00  3.59066474E-02 -1.58894713E-01  0.00000000E+00  0.00000000E+00
  6.66858957E-02 -3.36023063E-01  0.00000000E+00  0.00000000E+00  7.12970052E-02
  9.35690749E-01  0.00000000E+00  0.00000000E+00 -5.37942183E-01 -1.80823257E-02
  0.00000000E+00  0.00000000E+00 -6.59587833E-04  0.00000000E+00 -1.79235033E-02
  5.65659739E-02 -2.34014359E-01  0.00000000E+00  0.00000000E+00  1.00442422E-02
 -1.79231212E-02  5.65675327E-02 -2.34013848E-01  0.00000000E+00  0.00000000E+00
 -1.00441857E-02 -1.48501065E-03 -1.73289860E-03  0.00000000E+00  0.00000000E+00
  9.56845757E-02 -2.79294849E-02  0.00000000E+00  0.00000000E+00  1.47758750E-01
  2.20084122E-01  0.00000000E+00  0.00000000E+00  2.87574355E-01  3.39957402E-01
  0.00000000E+00  0.00000000E+00 -7.12997264E-01 -4.55217135E-02  0.00000000E+00
  0.00000000E+00 -3.34927437E-03  0.00000000E+00 -1.48554327E-03 -1.73382187E-03
  0.00000000E+00  0.00000000E+00 -9.56836208E-02 -2.79265809E-02  0.00000000E+00
  0.00000000E+00 -1.47757384E-01  2.20095757E-01  0.00000000E+00  0.00000000E+00
 -2.87570995E-01  3.40015179E-01  0.00000000E+00  0.00000000E+00  7.13021971E-01
 -4.55220964E-02  0.00000000E+00  0.00000000E+00 -3.34932099E-03  0.00000000E+00
 -5.78127615E-02 -2.03958891E-01 -6.56235923E-01  0.00000000E+00  0.00000000E+00
 -2.21199297E-02 -5.78128494E-02 -2.03960308E-01 -6.56236783E-01  0.00000000E+00
  0.00000000E+00  2.21200909E-02 -1.25581609E-02 -2.10541642E-02  0.00000000E+00
  0.00000000E+00 -8.44376703E-02  4.67310436E-02  0.00000000E+00  0.00000000E+00
 -1.36906903E-01  3.49913465E-01  0.00000000E+00  0.00000000E+00 -1.35850518E-01
 -3.31564035E+00  0.00000000E+00  0.00000000E+00  1.94766282E+00 -3.69921760E-02
  0.00000000E+00  0.00000000E+00 -2.84138713E-03  0.00000000E+00  1.25581651E-02
  2.10541688E-02  0.00000000E+00  0.00000000E+00 -8.44371542E-02 -4.67308010E-02
  0.00000000E+00  0.00000000E+00 -1.36906090E-01 -3.49916529E-01  0.00000000E+00
  0.00000000E+00 -1.35847898E-01  3.31564155E+00  0.00000000E+00  0.00000000E+00
  1.94765432E+00  3.69924119E-02  0.00000000E+00  0.00000000E+00  2.84140776E-03
  0.00000000E+00 -6.74970509E-02 -1.17102217E-01 -5.40109126E-01  0.00000000E+00
  0.00000000E+00  1.12152656E-02  6.74972503E-02  1.17103368E-01  5.40111326E-01
  0.00000000E+00  0.00000000E+00  1.12150336E-02  0.00000000E+00  0.00000000E+00
  0.00000000E+00 -7.28151100E-02  0.00000000E+00  0.00000000E+00  0.00000000E+00
 -8.56734077E-02  0.00000000E+00  0.00000000E+00  0.00000000E+00 -2.23406496E-01
  0.00000000E+00  0.00000000E+00  0.00000000E+00  6.30617058E-01  0.00000000E+00
  0.00000000E+00  0.00000000E+00  1.45901187E-02  0.00000000E+00  0.00000000E+00
  0.00000000E+00  0.00000000E+00  0.00000000E+00 -7.28149052E-02  0.00000000E+00
  0.00000000E+00  0.00000000E+00 -8.56731248E-02  0.00000000E+00  0.00000000E+00
  0.00000000E+00 -2.23405965E-01  0.00000000E+00  0.00000000E+00  0.00000000E+00
  6.30613699E-01  0.00000000E+00  0.00000000E+00  0.00000000E+00 -1.45900988E-02
  0.00000000E+00  0.00000000E+00  0.00000000E+00  0.00000000E+00  0.00000000E+00
  0.00000000E+00  6.54519869E-03  0.00000000E+00  0.00000000E+00  0.00000000E+00
  0.00000000E+00  0.00000000E+00  6.54510338E-03  0.00000000E+00  0.00000000E+00
  0.00000000E+00 -7.23109404E-02  0.00000000E+00  0.00000000E+00  0.00000000E+00
 -9.27149272E-02  0.00000000E+00  0.00000000E+00  0.00000000E+00 -2.20447485E-01
  0.00000000E+00  0.00000000E+00  0.00000000E+00  6.28877421E-01  0.00000000E+00
  0.00000000E+00  0.00000000E+00  1.45993148E-02  0.00000000E+00  0.00000000E+00
  0.00000000E+00  0.00000000E+00  0.00000000E+00 -7.23107227E-02  0.00000000E+00
  0.00000000E+00  0.00000000E+00 -9.27146260E-02  0.00000000E+00  0.00000000E+00
  0.00000000E+00 -2.20446879E-01  0.00000000E+00  0.00000000E+00  0.00000000E+00
  6.28873864E-01  0.00000000E+00  0.00000000E+00  0.00000000E+00 -1.45992989E-02
  0.00000000E+00  0.00000000E+00  0.00000000E+00  0.00000000E+00  0.00000000E+00
  0.00000000E+00  5.96825847E-03  0.00000000E+00  0.00000000E+00  0.00000000E+00
  0.00000000E+00  0.00000000E+00  5.96816553E-03  0.00000000E+00  0.00000000E+00
  0.00000000E+00  0.00000000E+00  0.00000000E+00  8.04121908E-02  0.00000000E+00
  0.00000000E+00  0.00000000E+00  1.01449048E-01  0.00000000E+00  0.00000000E+00
  0.00000000E+00  2.91387497E-01  0.00000000E+00  0.00000000E+00  0.00000000E+00
 -1.91816064E+00  0.00000000E+00  0.00000000E+00  0.00000000E+00 -2.72165125E-03
  0.00000000E+00  0.00000000E+00  0.00000000E+00  0.00000000E+00  0.00000000E+00
 -8.04122939E-02  0.00000000E+00  0.00000000E+00  0.00000000E+00 -1.01449193E-01
  0.00000000E+00  0.00000000E+00  0.00000000E+00 -2.91387894E-01  0.00000000E+00
  0.00000000E+00  0.00000000E+00  1.91816179E+00  0.00000000E+00  0.00000000E+00
  0.00000000E+00 -2.72162406E-03  0.00000000E+00  0.00000000E+00  0.00000000E+00
  0.00000000E+00  0.00000000E+00  0.00000000E+00 -1.10343595E-02  0.00000000E+00
  0.00000000E+00  0.00000000E+00  0.00000000E+00  0.00000000E+00  1.10342696E-02
  0.00000000E+00  0.00000000E+00  0.00000000E+00  8.32655649E-02  0.00000000E+00
  0.00000000E+00  0.00000000E+00  1.11586945E-01  0.00000000E+00  0.00000000E+00
  0.00000000E+00  2.92835205E-01  0.00000000E+00  0.00000000E+00  0.00000000E+00
 -1.91231677E+00  0.00000000E+00  0.00000000E+00  0.00000000E+00 -9.11299069E-04
  0.00000000E+00  0.00000000E+00  0.00000000E+00  0.00000000E+00  0.00000000E+00
 -8.32656775E-02  0.00000000E+00  0.00000000E+00  0.00000000E+00 -1.11587127E-01
  0.00000000E+00  0.00000000E+00  0.00000000E+00 -2.92835591E-01  0.00000000E+00
  0.00000000E+00  0.00000000E+00  1.91231797E+00  0.00000000E+00  0.00000000E+00
  0.00000000E+00 -9.11276902E-04  0.00000000E+00  0.00000000E+00  0.00000000E+00
  0.00000000E+00  0.00000000E+00  0.00000000E+00 -9.60403126E-03  0.00000000E+00