 vasp.6.3.1 04May22 (build Aug 04 2022 13:02:54) complex                        
  
 executed on             LinuxIFC date 2024.11.24  12:51:59
 running on   28 total cores
 distrk:  each k-point on   28 cores,    1 groups
 distr:  one band on NCORE=  14 cores,    2 groups


--------------------------------------------------------------------------------------------------------


 INCAR:
   ISTART = 1            (Read existing wavefunction
   ISPIN = 1            (Non-Spin polarised DFT)
   LREAL = .FALSE.       (Projection operators: automatic)
   ENCUT = 520        (Cut-off energy for plane wave basis set, in eV)
   PREC = A       (Precision level)
   LWAVE = .FALSE.        (Write WAVECAR or not)
   LCHARG = .FALSE.        (Write CHGCAR or not)
   ADDGRID = .TRUE.        (Increase grid
   KSPACING = 0.2000
   KGAMMA = .FALSE.
   IVDW = 12
   ISMEAR = 0            (Gaussian smearing
   SIGMA = 0.05         (Smearing value in eV
   NELM = 200           (Max electronic SCF steps)
   NELMIN = 6            (Min electronic SCF steps)
   EDIFF = 1E-08        (SCF energy convergence
   NSW = 0          (Max ionic steps)
   IBRION = -1            (Algorithm: 0-MD
   ISIF = 3           (Stress/relaxation: 2-Ions, 3-Shape/Ions/V, 4-Shape/Ions)
   EDIFFG = -1E-04        (Ionic convergence
   NCORE = 14

 POTCAR:    PAW_PBE C 08Apr2002                   
 -----------------------------------------------------------------------------
|                                                                             |
|           W    W    AA    RRRRR   N    N  II  N    N   GGGG   !!!           |
|           W    W   A  A   R    R  NN   N  II  NN   N  G    G  !!!           |
|           W    W  A    A  R    R  N N  N  II  N N  N  G       !!!           |
|           W WW W  AAAAAA  RRRRR   N  N N  II  N  N N  G  GGG   !            |
|           WW  WW  A    A  R   R   N   NN  II  N   NN  G    G                |
|           W    W  A    A  R    R  N    N  II  N    N   GGGG   !!!           |
|                                                                             |
|     For optimal performance we recommend to set                             |
|       NCORE = 2 up to number-of-cores-per-socket                            |
|     NCORE specifies how many cores store one orbital (NPAR=cpu/NCORE).      |
|     This setting can greatly improve the performance of VASP for DFT.       |
|     The default, NCORE=1 might be grossly inefficient on modern             |
|     multi-core architectures or massively parallel machines. Do your        |
|     own testing! More info at https://www.vasp.at/wiki/index.php/NCORE      |
|     Unfortunately you need to use the default for GW and RPA                |
|     calculations (for HF NCORE is supported but not extensively tested      |
|     yet).                                                                   |
|                                                                             |
 -----------------------------------------------------------------------------

 POTCAR:    PAW_PBE C 08Apr2002                   
   VRHFIN =C: s2p2                                                                                  
   LEXCH  = PE                                                                                      
   EATOM  =   147.1560 eV,   10.8157 Ry                                                             
                                                                                                    
   TITEL  = PAW_PBE C 08Apr2002                                                                     
   LULTRA =        F    use ultrasoft PP ?                                                          
   IUNSCR =        1    unscreen: 0-lin 1-nonlin 2-no                                               
   RPACOR =    1.200    partial core radius                                                         
   POMASS =   12.011; ZVAL   =    4.000    mass and valenz                                          
   RCORE  =    1.500    outmost cutoff radius                                                       
   RWIGS  =    1.630; RWIGS  =    0.863    wigner-seitz radius (au A)                               
   ENMAX  =  400.000; ENMIN  =  300.000 eV                                                          
   ICORE  =        2    local potential                                                             
   LCOR   =        T    correct aug charges                                                         
   LPAW   =        T    paw PP                                                                      
   EAUG   =  644.873                                                                                
   DEXC   =    0.000                                                                                
   RMAX   =    1.529    core radius for proj-oper                                                   
   RAUG   =    1.300    factor for augmentation sphere                                              
   RDEP   =    1.501    radius for radial grids                                                     
   RDEPT  =    1.300    core radius for aug-charge                                                  
                                                                                                    
   Atomic configuration                                                                             
    4 entries                                                                                       
     n  l   j            E        occ.                                                              
     1  0  0.50      -273.3789   2.0000                                                             
     2  0  0.50       -13.7508   2.0000                                                             
     2  1  0.50        -5.2854   2.0000                                                             
     3  2  1.50        -5.4423   0.0000                                                             
   Description                                                                                      
     l       E           TYP  RCUT    TYP  RCUT                                                     
     0    -13.7508458     23  1.200                                                                 
     0     -8.2022199     23  1.200                                                                 
     1     -5.2854383     23  1.500                                                                 
     1     34.0145650     23  1.500                                                                 
     2     -5.4423304      7  1.500                                                                 
  local pseudopotential read in
  partial core-charges read in
  partial kinetic energy density read in
  atomic valenz-charges read in
  non local Contribution for L=           0  read in
    real space projection operators read in
  non local Contribution for L=           0  read in
    real space projection operators read in
  non local Contribution for L=           1  read in
    real space projection operators read in
  non local Contribution for L=           1  read in
    real space projection operators read in
    PAW grid and wavefunctions read in
 
   number of l-projection  operators is LMAX  =           4
   number of lm-projection operators is LMMAX =           8
 
  PAW_PBE C 08Apr2002                   :
 energy of atom  1       EATOM= -147.1560
 kinetic energy error for atom=    0.0071 (will be added to EATOM!!)
 
 
 POSCAR: AA-stacked Graphene
  positions in direct lattice
  velocities in cartesian coordinates
 exchange correlation table for  LEXCH =        8
   RHO(1)=    0.500       N(1)  =     2000
   RHO(2)=  100.500       N(2)  =     4000
 


--------------------------------------------------------------------------------------------------------


 ion  position               nearest neighbor table
   1  1.000  1.000  0.000-   2 1.42   2 1.42   2 1.42
   2  0.666  0.333  0.000-   1 1.42   1 1.42   1 1.42
   3  1.000  1.000  0.500-   4 1.42   4 1.42   4 1.42
   4  0.666  0.333  0.500-   3 1.42   3 1.42   3 1.42
 
  LATTYP: Found a hexagonal cell.
 ALAT       =     2.4663032719
 C/A-ratio  =     7.2983725095
  
  Lattice vectors:
  
 A1 = (   2.4663032553,  -0.0002866376,   0.0000000000)
 A2 = (  -1.2328986900,   2.1360225972,   0.0000000000)
 A3 = (   0.0000000000,   0.0000000000,  18.0000000000)


Analysis of symmetry for initial positions (statically):
=====================================================================
 Subroutine PRICEL returns following result:
 
  LATTYP: Found a hexagonal cell.
 ALAT       =     2.4663032719
 C/A-ratio  =     3.6491862547
  
  Lattice vectors:
  
 A1 = (   2.4663032553,  -0.0002866376,   0.0000000000)
 A2 = (  -1.2328986900,   2.1360225972,   0.0000000000)
 A3 = (   0.0000000000,   0.0000000000,   9.0000000000)
 
   2 primitive cells build up your supercell.
 

 Routine SETGRP: Setting up the symmetry group for a 
 hexagonal supercell.


 Subroutine GETGRP returns: Found 24 space group operations
 (whereof  2 operations were pure point group operations)
 out of a pool of 24 trial point group operations.


The static configuration has the point symmetry C_1h.
 The point group associated with its full space group is D_6h.


Analysis of symmetry for dynamics (positions and initial velocities):
=====================================================================
 Subroutine PRICEL returns following result:
 
  LATTYP: Found a hexagonal cell.
 ALAT       =     2.4663032719
 C/A-ratio  =     3.6491862547
  
  Lattice vectors:
  
 A1 = (   2.4663032553,  -0.0002866376,   0.0000000000)
 A2 = (  -1.2328986900,   2.1360225972,   0.0000000000)
 A3 = (   0.0000000000,   0.0000000000,   9.0000000000)
 
   2 primitive cells build up your supercell.
 

 Routine SETGRP: Setting up the symmetry group for a 
 hexagonal supercell.


 Subroutine GETGRP returns: Found 24 space group operations
 (whereof  2 operations were pure point group operations)
 out of a pool of 24 trial point group operations.


The dynamic configuration has the point symmetry C_1h.
 The point group associated with its full space group is D_6h.


 Subroutine INISYM returns: Found 24 space group operations
 (whereof  2 operations are pure point group operations),
 and found     2 'primitive' translations


----------------------------------------------------------------------------------------

                                     Primitive cell                                     

  volume of cell :      47.4095

  direct lattice vectors                    reciprocal lattice vectors
     2.466303255 -0.000286638  0.000000000     0.405492344  0.234047608  0.000000000
    -1.232898690  2.136022597  0.000000000     0.000054414  0.468191249  0.000000000
     0.000000000  0.000000000  9.000000000     0.000000000  0.000000000  0.111111111

  length of vectors
     2.466303272  2.466299194  9.000000000     0.468190478  0.468191252  0.111111111

  position of ions in fractional coordinates (direct lattice)
     0.999825905  0.999922181  0.000000000
     0.666491690  0.333254731  0.000000000

  ion indices of the primitive-cell ions
   primitive index   ion index
                 1           1
                 2           2

----------------------------------------------------------------------------------------

 
 
 KPOINTS: K-Spacing Value to Generate K-Mesh: 0.03

Automatic generation of k-mesh.
 Grid dimensions read from file:
 generate k-points for:   18   18    2

 Generating k-lattice:

  Cartesian coordinates                     Fractional coordinates (reciprocal lattice)
     0.022527352  0.013002645  0.000000000     0.055555556  0.000000000  0.000000000
     0.000003023  0.026010625  0.000000000    -0.000000000  0.055555556  0.000000000
     0.000000000  0.000000000  0.027777778     0.000000000  0.000000000  0.500000000

  Length of vectors
     0.026010582  0.026010625  0.027777778

  Shift w.r.t. Gamma in fractional coordinates (k-lattice)
     0.000000000  0.000000000  0.000000000

 
 Subroutine IBZKPT returns following result:
 ===========================================
 
 Found     74 irreducible k-points:
 
 Following reciprocal coordinates:
            Coordinates               Weight
  0.000000  0.000000  0.000000      1.000000
  0.055556  0.000000  0.000000      6.000000
  0.111111  0.000000  0.000000      6.000000
  0.166667  0.000000  0.000000      6.000000
  0.222222  0.000000  0.000000      6.000000
  0.277778 -0.000000  0.000000      6.000000
  0.333333 -0.000000  0.000000      6.000000
  0.388889 -0.000000  0.000000      6.000000
  0.444444  0.000000  0.000000      6.000000
  0.500000  0.000000  0.000000      3.000000
  0.055556  0.055556  0.000000      6.000000
  0.111111  0.055556  0.000000     12.000000
  0.166667  0.055556  0.000000     12.000000
  0.222222  0.055556  0.000000     12.000000
  0.277778  0.055556  0.000000     12.000000
  0.333333  0.055556  0.000000     12.000000
  0.388889  0.055556  0.000000     12.000000
  0.444444  0.055556  0.000000     12.000000
  0.111111  0.111111  0.000000      6.000000
  0.166667  0.111111  0.000000     12.000000
  0.222222  0.111111  0.000000     12.000000
  0.277778  0.111111  0.000000     12.000000
  0.333333  0.111111  0.000000     12.000000
  0.388889  0.111111  0.000000     12.000000
  0.444444  0.111111  0.000000      6.000000
  0.166667  0.166667  0.000000      6.000000
  0.222222  0.166667  0.000000     12.000000
  0.277778  0.166667  0.000000     12.000000
  0.333333  0.166667  0.000000     12.000000
  0.388889  0.166667  0.000000     12.000000
  0.222222  0.222222  0.000000      6.000000
  0.277778  0.222222  0.000000     12.000000
  0.333333  0.222222  0.000000     12.000000
  0.388889  0.222222  0.000000      6.000000
  0.277778  0.277778  0.000000      6.000000
  0.333333  0.277778  0.000000     12.000000
  0.333333  0.333333  0.000000      2.000000
  0.000000  0.000000  0.500000      1.000000
  0.055556  0.000000  0.500000      6.000000
  0.111111  0.000000  0.500000      6.000000
  0.166667  0.000000  0.500000      6.000000
  0.222222  0.000000  0.500000      6.000000
  0.277778 -0.000000  0.500000      6.000000
  0.333333 -0.000000  0.500000      6.000000
  0.388889 -0.000000  0.500000      6.000000
  0.444444  0.000000  0.500000      6.000000
  0.500000  0.000000  0.500000      3.000000
  0.055556  0.055556  0.500000      6.000000
  0.111111  0.055556  0.500000     12.000000
  0.166667  0.055556  0.500000     12.000000
  0.222222  0.055556  0.500000     12.000000
  0.277778  0.055556  0.500000     12.000000
  0.333333  0.055556  0.500000     12.000000
  0.388889  0.055556  0.500000     12.000000
  0.444444  0.055556  0.500000     12.000000
  0.111111  0.111111  0.500000      6.000000
  0.166667  0.111111  0.500000     12.000000
  0.222222  0.111111  0.500000     12.000000
  0.277778  0.111111  0.500000     12.000000
  0.333333  0.111111  0.500000     12.000000
  0.388889  0.111111  0.500000     12.000000
  0.444444  0.111111  0.500000      6.000000
  0.166667  0.166667  0.500000      6.000000
  0.222222  0.166667  0.500000     12.000000
  0.277778  0.166667  0.500000     12.000000
  0.333333  0.166667  0.500000     12.000000
  0.388889  0.166667  0.500000     12.000000
  0.222222  0.222222  0.500000      6.000000
  0.277778  0.222222  0.500000     12.000000
  0.333333  0.222222  0.500000     12.000000
  0.388889  0.222222  0.500000      6.000000
  0.277778  0.277778  0.500000      6.000000
  0.333333  0.277778  0.500000     12.000000
  0.333333  0.333333  0.500000      2.000000
 
 Following cartesian coordinates:
            Coordinates               Weight
  0.000000  0.000000  0.000000      1.000000
  0.022527  0.013003  0.000000      6.000000
  0.045055  0.026005  0.000000      6.000000
  0.067582  0.039008  0.000000      6.000000
  0.090109  0.052011  0.000000      6.000000
  0.112637  0.065013  0.000000      6.000000
  0.135164  0.078016  0.000000      6.000000
  0.157691  0.091019  0.000000      6.000000
  0.180219  0.104021  0.000000      6.000000
  0.202746  0.117024  0.000000      3.000000
  0.022530  0.039013  0.000000      6.000000
  0.045058  0.052016  0.000000     12.000000
  0.067585  0.065019  0.000000     12.000000
  0.090112  0.078021  0.000000     12.000000
  0.112640  0.091024  0.000000     12.000000
  0.135167  0.104026  0.000000     12.000000
  0.157694  0.117029  0.000000     12.000000
  0.180222  0.130032  0.000000     12.000000
  0.045061  0.078027  0.000000      6.000000
  0.067588  0.091029  0.000000     12.000000
  0.090115  0.104032  0.000000     12.000000
  0.112643  0.117034  0.000000     12.000000
  0.135170  0.130037  0.000000     12.000000
  0.157698  0.143040  0.000000     12.000000
  0.180225  0.156042  0.000000      6.000000
  0.067591  0.117040  0.000000      6.000000
  0.090118  0.130042  0.000000     12.000000
  0.112646  0.143045  0.000000     12.000000
  0.135173  0.156048  0.000000     12.000000
  0.157701  0.169050  0.000000     12.000000
  0.090122  0.156053  0.000000      6.000000
  0.112649  0.169056  0.000000     12.000000
  0.135176  0.182058  0.000000     12.000000
  0.157704  0.195061  0.000000      6.000000
  0.112652  0.195066  0.000000      6.000000
  0.135179  0.208069  0.000000     12.000000
  0.135182  0.234080  0.000000      2.000000
  0.000000  0.000000  0.027778      1.000000
  0.022527  0.013003  0.027778      6.000000
  0.045055  0.026005  0.027778      6.000000
  0.067582  0.039008  0.027778      6.000000
  0.090109  0.052011  0.027778      6.000000
  0.112637  0.065013  0.027778      6.000000
  0.135164  0.078016  0.027778      6.000000
  0.157691  0.091019  0.027778      6.000000
  0.180219  0.104021  0.027778      6.000000
  0.202746  0.117024  0.027778      3.000000
  0.022530  0.039013  0.027778      6.000000
  0.045058  0.052016  0.027778     12.000000
  0.067585  0.065019  0.027778     12.000000
  0.090112  0.078021  0.027778     12.000000
  0.112640  0.091024  0.027778     12.000000
  0.135167  0.104026  0.027778     12.000000
  0.157694  0.117029  0.027778     12.000000
  0.180222  0.130032  0.027778     12.000000
  0.045061  0.078027  0.027778      6.000000
  0.067588  0.091029  0.027778     12.000000
  0.090115  0.104032  0.027778     12.000000
  0.112643  0.117034  0.027778     12.000000
  0.135170  0.130037  0.027778     12.000000
  0.157698  0.143040  0.027778     12.000000
  0.180225  0.156042  0.027778      6.000000
  0.067591  0.117040  0.027778      6.000000
  0.090118  0.130042  0.027778     12.000000
  0.112646  0.143045  0.027778     12.000000
  0.135173  0.156048  0.027778     12.000000
  0.157701  0.169050  0.027778     12.000000
  0.090122  0.156053  0.027778      6.000000
  0.112649  0.169056  0.027778     12.000000
  0.135176  0.182058  0.027778     12.000000
  0.157704  0.195061  0.027778      6.000000
  0.112652  0.195066  0.027778      6.000000
  0.135179  0.208069  0.027778     12.000000
  0.135182  0.234080  0.027778      2.000000
 


--------------------------------------------------------------------------------------------------------




 Dimension of arrays:
   k-points           NKPTS =     74   k-points in BZ     NKDIM =     74   number of bands    NBANDS=     12
   number of dos      NEDOS =    301   number of ions     NIONS =      4
   non local maximal  LDIM  =      4   non local SUM 2l+1 LMDIM =      8
   total plane-waves  NPLWV =  45360
   max r-space proj   IRMAX =      1   max aug-charges    IRDMAX=  45357
   dimension x,y,z NGX =    18 NGY =   18 NGZ =  140
   dimension x,y,z NGXF=    36 NGYF=   36 NGZF=  280
   support grid    NGXF=    72 NGYF=   72 NGZF=  560
   ions per type =               4
   NGX,Y,Z   is equivalent  to a cutoff of  12.13, 12.13, 12.93 a.u.
   NGXF,Y,Z  is equivalent  to a cutoff of  24.27, 24.27, 25.86 a.u.

 SYSTEM =  unknown system                          
 POSCAR =  AA-stacked Graphene                     

 Startparameter for this run:
   NWRITE =      2    write-flag & timer
   PREC   = a         normal or accurate (medium, high low for compatibility)
   ISTART =      0    job   : 0-new  1-cont  2-samecut
   ICHARG =      2    charge: 1-file 2-atom 10-const
   ISPIN  =      1    spin polarized calculation?
   LNONCOLLINEAR =      F non collinear calculations
   LSORBIT =      F    spin-orbit coupling
   INIWAV =      1    electr: 0-lowe 1-rand  2-diag
   LASPH  =      F    aspherical Exc in radial PAW
 Electronic Relaxation 1
   ENCUT  =  520.0 eV  38.22 Ry    6.18 a.u.   4.59  4.59 33.47*2*pi/ulx,y,z
   ENINI  =  520.0     initial cutoff
   ENAUG  =  644.9 eV  augmentation charge cutoff
   NELM   =    200;   NELMIN=  6; NELMDL=  0     # of ELM steps 
   EDIFF  = 0.1E-07   stopping-criterion for ELM
   LREAL  =      F    real-space projection
   NLSPLINE    = F    spline interpolate recip. space projectors
   LCOMPAT=      F    compatible to vasp.4.4
   GGA_COMPAT  = T    GGA compatible to vasp.4.4-vasp.4.6
   LMAXPAW     = -100 max onsite density
   LMAXMIX     =    2 max onsite mixed and CHGCAR
   VOSKOWN=      0    Vosko Wilk Nusair interpolation
   ROPT   =    0.00000
 Ionic relaxation
   EDIFFG = -.1E-03   stopping-criterion for IOM
   NSW    =      0    number of steps for IOM
   NBLOCK =      1;   KBLOCK =      1    inner block; outer block 
   IBRION =     -1    ionic relax: 0-MD 1-quasi-New 2-CG
   NFREE  =      0    steps in history (QN), initial steepest desc. (CG)
   ISIF   =      3    stress and relaxation
   IWAVPR =     10    prediction:  0-non 1-charg 2-wave 3-comb
   ISYM   =      2    0-nonsym 1-usesym 2-fastsym
   LCORR  =      T    Harris-Foulkes like correction to forces

   POTIM  = 0.5000    time-step for ionic-motion
   TEIN   =    0.0    initial temperature
   TEBEG  =    0.0;   TEEND  =   0.0 temperature during run
   SMASS  =  -3.00    Nose mass-parameter (am)
   estimated Nose-frequenzy (Omega)   =  0.10E-29 period in steps = 0.13E+47 mass=  -0.139E-27a.u.
   SCALEE = 1.0000    scale energy and forces
   NPACO  =    256;   APACO  = 10.0  distance and # of slots for P.C.
   PSTRESS=    0.0 pullay stress

  Mass of Ions in am
   POMASS =  12.01
  Ionic Valenz
   ZVAL   =   4.00
  Atomic Wigner-Seitz radii
   RWIGS  =  -1.00
  virtual crystal weights 
   VCA    =   1.00
   NELECT =      16.0000    total number of electrons
   NUPDOWN=      -1.0000    fix difference up-down

 DOS related values:
   EMIN   =  10.00;   EMAX   =-10.00  energy-range for DOS
   EFERMI =   0.00
   ISMEAR =     0;   SIGMA  =   0.05  broadening in eV -4-tet -1-fermi 0-gaus

 Electronic relaxation 2 (details)
   IALGO  =     38    algorithm
   LDIAG  =      T    sub-space diagonalisation (order eigenvalues)
   LSUBROT=      F    optimize rotation matrix (better conditioning)
   TURBO    =      0    0=normal 1=particle mesh
   IRESTART =      0    0=no restart 2=restart with 2 vectors
   NREBOOT  =      0    no. of reboots
   NMIN     =      0    reboot dimension
   EREF     =   0.00    reference energy to select bands
   IMIX   =      4    mixing-type and parameters
     AMIX     =   0.40;   BMIX     =  1.00
     AMIX_MAG =   1.60;   BMIX_MAG =  1.00
     AMIN     =   0.10
     WC   =   100.;   INIMIX=   1;  MIXPRE=   1;  MAXMIX= -45

 Intra band minimization:
   WEIMIN = 0.0000     energy-eigenvalue tresh-hold
   EBREAK =  0.21E-09  absolut break condition
   DEPER  =   0.30     relativ break condition  

   TIME   =   0.40     timestep for ELM

  volume/ion in A,a.u.               =      23.70       159.97
  Fermi-wavevector in a.u.,A,eV,Ry     =   0.904655  1.709550 11.135014  0.818400
  Thomas-Fermi vector in A             =   2.028128
 
 Write flags
   LWAVE        =      F    write WAVECAR
   LDOWNSAMPLE  =      F    k-point downsampling of WAVECAR
   LCHARG       =      F    write CHGCAR
   LVTOT        =      F    write LOCPOT, total local potential
   LVHAR        =      F    write LOCPOT, Hartree potential only
   LELF         =      F    write electronic localiz. function (ELF)
   LORBIT       =      0    0 simple, 1 ext, 2 COOP (PROOUT), +10 PAW based schemes


 Dipole corrections
   LMONO  =      F    monopole corrections only (constant potential shift)
   LDIPOL =      F    correct potential (dipole corrections)
   IDIPOL =      0    1-x, 2-y, 3-z, 4-all directions 
   EPSILON=  1.0000000 bulk dielectric constant

 Exchange correlation treatment:
   GGA     =    --    GGA type
   LEXCH   =     8    internal setting for exchange type
   LIBXC   =     F    Libxc                    
   VOSKOWN =     0    Vosko Wilk Nusair interpolation
   LHFCALC =     F    Hartree Fock is set to
   LHFONE  =     F    Hartree Fock one center treatment
   AEXX    =    0.0000 exact exchange contribution

 Linear response parameters
   LEPSILON=     F    determine dielectric tensor
   LRPA    =     F    only Hartree local field effects (RPA)
   LNABLA  =     F    use nabla operator in PAW spheres
   LVEL    =     F    velocity operator in full k-point grid
   CSHIFT  =0.1000    complex shift for real part using Kramers Kronig
   OMEGAMAX=  -1.0    maximum frequency
   DEG_THRESHOLD= 0.2000000E-02 threshold for treating states as degnerate
   RTIME   =   -0.100 relaxation time in fs
  (WPLASMAI=    0.000 imaginary part of plasma frequency in eV, 0.658/RTIME)
   DFIELD  = 0.0000000 0.0000000 0.0000000 field for delta impulse in time
 
  Optional k-point grid parameters
   LKPOINTS_OPT  =     F    use optional k-point grid
   KPOINTS_OPT_MODE=     1    mode for optional k-point grid
 
 Orbital magnetization related:
   ORBITALMAG=     F  switch on orbital magnetization
   LCHIMAG   =     F  perturbation theory with respect to B field
   DQ        =  0.001000  dq finite difference perturbation B field
   LLRAUG    =     F  two centre corrections for induced B field



--------------------------------------------------------------------------------------------------------


 Static calculation
 charge density and potential will be updated during run
 non-spin polarized calculation
 Variant of blocked Davidson
 Davidson routine will perform the subspace rotation
 perform sub-space diagonalisation
    after iterative eigenvector-optimisation
 modified Broyden-mixing scheme, WC =      100.0
 initial mixing is a Kerker type mixing with AMIX =  0.4000 and BMIX =      1.0000
 Hartree-type preconditioning will be used
 using additional bands            4
 reciprocal scheme for non local part
 use partial core corrections
 calculate Harris-corrections to forces 
   (improved forces if not selfconsistent)
 use gradient corrections 
 use of overlap-Matrix (Vanderbilt PP)
 Gauss-broadening in eV      SIGMA  =   0.05


--------------------------------------------------------------------------------------------------------


  energy-cutoff  :      520.00
  volume of cell :       94.82
      direct lattice vectors                 reciprocal lattice vectors
     2.466303255 -0.000286638  0.000000000     0.405492344  0.234047608  0.000000000
    -1.232898690  2.136022597  0.000000000     0.000054414  0.468191249  0.000000000
     0.000000000  0.000000000 18.000000000     0.000000000  0.000000000  0.055555556

  length of vectors
     2.466303272  2.466299194 18.000000000     0.468190478  0.468191252  0.055555556


 
 k-points in units of 2pi/SCALE and weight: K-Spacing Value to Generate K-Mesh: 0.03
   0.00000000  0.00000000  0.00000000       0.002
   0.02252735  0.01300264  0.00000000       0.009
   0.04505470  0.02600529  0.00000000       0.009
   0.06758206  0.03900793  0.00000000       0.009
   0.09010941  0.05201058  0.00000000       0.009
   0.11263676  0.06501322  0.00000000       0.009
   0.13516411  0.07801587  0.00000000       0.009
   0.15769147  0.09101851  0.00000000       0.009
   0.18021882  0.10402116  0.00000000       0.009
   0.20274617  0.11702380  0.00000000       0.005
   0.02253038  0.03901327  0.00000000       0.009
   0.04505773  0.05201591  0.00000000       0.019
   0.06758508  0.06501856  0.00000000       0.019
   0.09011243  0.07802120  0.00000000       0.019
   0.11263979  0.09102385  0.00000000       0.019
   0.13516714  0.10402649  0.00000000       0.019
   0.15769449  0.11702914  0.00000000       0.019
   0.18022184  0.13003178  0.00000000       0.019
   0.04506075  0.07802654  0.00000000       0.009
   0.06758810  0.09102918  0.00000000       0.019
   0.09011546  0.10403183  0.00000000       0.019
   0.11264281  0.11703447  0.00000000       0.019
   0.13517016  0.13003712  0.00000000       0.019
   0.15769751  0.14303976  0.00000000       0.019
   0.18022487  0.15604241  0.00000000       0.009
   0.06759113  0.11703981  0.00000000       0.009
   0.09011848  0.13004245  0.00000000       0.019
   0.11264583  0.14304510  0.00000000       0.019
   0.13517318  0.15604774  0.00000000       0.019
   0.15770054  0.16905039  0.00000000       0.019
   0.09012150  0.15605308  0.00000000       0.009
   0.11264885  0.16905572  0.00000000       0.019
   0.13517621  0.18205837  0.00000000       0.019
   0.15770356  0.19506101  0.00000000       0.009
   0.11265188  0.19506635  0.00000000       0.009
   0.13517923  0.20806899  0.00000000       0.019
   0.13518225  0.23407962  0.00000000       0.003
   0.00000000  0.00000000  0.02777778       0.002
   0.02252735  0.01300264  0.02777778       0.009
   0.04505470  0.02600529  0.02777778       0.009
   0.06758206  0.03900793  0.02777778       0.009
   0.09010941  0.05201058  0.02777778       0.009
   0.11263676  0.06501322  0.02777778       0.009
   0.13516411  0.07801587  0.02777778       0.009
   0.15769147  0.09101851  0.02777778       0.009
   0.18021882  0.10402116  0.02777778       0.009
   0.20274617  0.11702380  0.02777778       0.005
   0.02253038  0.03901327  0.02777778       0.009
   0.04505773  0.05201591  0.02777778       0.019
   0.06758508  0.06501856  0.02777778       0.019
   0.09011243  0.07802120  0.02777778       0.019
   0.11263979  0.09102385  0.02777778       0.019
   0.13516714  0.10402649  0.02777778       0.019
   0.15769449  0.11702914  0.02777778       0.019
   0.18022184  0.13003178  0.02777778       0.019
   0.04506075  0.07802654  0.02777778       0.009
   0.06758810  0.09102918  0.02777778       0.019
   0.09011546  0.10403183  0.02777778       0.019
   0.11264281  0.11703447  0.02777778       0.019
   0.13517016  0.13003712  0.02777778       0.019
   0.15769751  0.14303976  0.02777778       0.019
   0.18022487  0.15604241  0.02777778       0.009
   0.06759113  0.11703981  0.02777778       0.009
   0.09011848  0.13004245  0.02777778       0.019
   0.11264583  0.14304510  0.02777778       0.019
   0.13517318  0.15604774  0.02777778       0.019
   0.15770054  0.16905039  0.02777778       0.019
   0.09012150  0.15605308  0.02777778       0.009
   0.11264885  0.16905572  0.02777778       0.019
   0.13517621  0.18205837  0.02777778       0.019
   0.15770356  0.19506101  0.02777778       0.009
   0.11265188  0.19506635  0.02777778       0.009
   0.13517923  0.20806899  0.02777778       0.019
   0.13518225  0.23407962  0.02777778       0.003
 
 k-points in reciprocal lattice and weights: K-Spacing Value to Generate K-Mesh: 0.03
   0.00000000  0.00000000  0.00000000       0.002
   0.05555556  0.00000000  0.00000000       0.009
   0.11111111  0.00000000  0.00000000       0.009
   0.16666667  0.00000000  0.00000000       0.009
   0.22222222  0.00000000  0.00000000       0.009
   0.27777778 -0.00000000  0.00000000       0.009
   0.33333333 -0.00000000  0.00000000       0.009
   0.38888889 -0.00000000  0.00000000       0.009
   0.44444444  0.00000000  0.00000000       0.009
   0.50000000  0.00000000  0.00000000       0.005
   0.05555556  0.05555556  0.00000000       0.009
   0.11111111  0.05555556  0.00000000       0.019
   0.16666667  0.05555556  0.00000000       0.019
   0.22222222  0.05555556  0.00000000       0.019
   0.27777778  0.05555556  0.00000000       0.019
   0.33333333  0.05555556  0.00000000       0.019
   0.38888889  0.05555556  0.00000000       0.019
   0.44444444  0.05555556  0.00000000       0.019
   0.11111111  0.11111111  0.00000000       0.009
   0.16666667  0.11111111  0.00000000       0.019
   0.22222222  0.11111111  0.00000000       0.019
   0.27777778  0.11111111  0.00000000       0.019
   0.33333333  0.11111111  0.00000000       0.019
   0.38888889  0.11111111  0.00000000       0.019
   0.44444444  0.11111111  0.00000000       0.009
   0.16666667  0.16666667  0.00000000       0.009
   0.22222222  0.16666667  0.00000000       0.019
   0.27777778  0.16666667  0.00000000       0.019
   0.33333333  0.16666667  0.00000000       0.019
   0.38888889  0.16666667  0.00000000       0.019
   0.22222222  0.22222222  0.00000000       0.009
   0.27777778  0.22222222  0.00000000       0.019
   0.33333333  0.22222222  0.00000000       0.019
   0.38888889  0.22222222  0.00000000       0.009
   0.27777778  0.27777778  0.00000000       0.009
   0.33333333  0.27777778  0.00000000       0.019
   0.33333333  0.33333333  0.00000000       0.003
   0.00000000  0.00000000  0.50000000       0.002
   0.05555556  0.00000000  0.50000000       0.009
   0.11111111  0.00000000  0.50000000       0.009
   0.16666667  0.00000000  0.50000000       0.009
   0.22222222  0.00000000  0.50000000       0.009
   0.27777778 -0.00000000  0.50000000       0.009
   0.33333333 -0.00000000  0.50000000       0.009
   0.38888889 -0.00000000  0.50000000       0.009
   0.44444444  0.00000000  0.50000000       0.009
   0.50000000  0.00000000  0.50000000       0.005
   0.05555556  0.05555556  0.50000000       0.009
   0.11111111  0.05555556  0.50000000       0.019
   0.16666667  0.05555556  0.50000000       0.019
   0.22222222  0.05555556  0.50000000       0.019
   0.27777778  0.05555556  0.50000000       0.019
   0.33333333  0.05555556  0.50000000       0.019
   0.38888889  0.05555556  0.50000000       0.019
   0.44444444  0.05555556  0.50000000       0.019
   0.11111111  0.11111111  0.50000000       0.009
   0.16666667  0.11111111  0.50000000       0.019
   0.22222222  0.11111111  0.50000000       0.019
   0.27777778  0.11111111  0.50000000       0.019
   0.33333333  0.11111111  0.50000000       0.019
   0.38888889  0.11111111  0.50000000       0.019
   0.44444444  0.11111111  0.50000000       0.009
   0.16666667  0.16666667  0.50000000       0.009
   0.22222222  0.16666667  0.50000000       0.019
   0.27777778  0.16666667  0.50000000       0.019
   0.33333333  0.16666667  0.50000000       0.019
   0.38888889  0.16666667  0.50000000       0.019
   0.22222222  0.22222222  0.50000000       0.009
   0.27777778  0.22222222  0.50000000       0.019
   0.33333333  0.22222222  0.50000000       0.019
   0.38888889  0.22222222  0.50000000       0.009
   0.27777778  0.27777778  0.50000000       0.009
   0.33333333  0.27777778  0.50000000       0.019
   0.33333333  0.33333333  0.50000000       0.003
 
 position of ions in fractional coordinates (direct lattice) 
   0.99982591  0.99992218  0.00000000
   0.66649169  0.33325473  0.00000000
   0.99982591  0.99992218  0.50000000
   0.66649169  0.33325473  0.50000000
 
 position of ions in cartesian coordinates  (Angst):
   1.23307114  2.13556979  0.00000000
   1.23290130  0.71164859  0.00000000
   1.23307114  2.13556979  9.00000000
   1.23290130  0.71164859  9.00000000
 


--------------------------------------------------------------------------------------------------------


 k-point   1 :   0.0000 0.0000 0.0000  plane waves:    2557
 k-point   2 :   0.0556 0.0000 0.0000  plane waves:    2568
 k-point   3 :   0.1111 0.0000 0.0000  plane waves:    2582
 k-point   4 :   0.1667 0.0000 0.0000  plane waves:    2586
 k-point   5 :   0.2222 0.0000 0.0000  plane waves:    2586
 k-point   6 :   0.2778-0.0000 0.0000  plane waves:    2590
 k-point   7 :   0.3333-0.0000 0.0000  plane waves:    2564
 k-point   8 :   0.3889-0.0000 0.0000  plane waves:    2540
 k-point   9 :   0.4444 0.0000 0.0000  plane waves:    2542
 k-point  10 :   0.5000 0.0000 0.0000  plane waves:    2528
 k-point  11 :   0.0556 0.0556 0.0000  plane waves:    2579
 k-point  12 :   0.1111 0.0556 0.0000  plane waves:    2581
 k-point  13 :   0.1667 0.0556 0.0000  plane waves:    2580
 k-point  14 :   0.2222 0.0556 0.0000  plane waves:    2584
 k-point  15 :   0.2778 0.0556 0.0000  plane waves:    2568
 k-point  16 :   0.3333 0.0556 0.0000  plane waves:    2554
 k-point  17 :   0.3889 0.0556 0.0000  plane waves:    2539
 k-point  18 :   0.4444 0.0556 0.0000  plane waves:    2544
 k-point  19 :   0.1111 0.1111 0.0000  plane waves:    2571
 k-point  20 :   0.1667 0.1111 0.0000  plane waves:    2569
 k-point  21 :   0.2222 0.1111 0.0000  plane waves:    2568
 k-point  22 :   0.2778 0.1111 0.0000  plane waves:    2556
 k-point  23 :   0.3333 0.1111 0.0000  plane waves:    2538
 k-point  24 :   0.3889 0.1111 0.0000  plane waves:    2537
 k-point  25 :   0.4444 0.1111 0.0000  plane waves:    2536
 k-point  26 :   0.1667 0.1667 0.0000  plane waves:    2569
 k-point  27 :   0.2222 0.1667 0.0000  plane waves:    2553
 k-point  28 :   0.2778 0.1667 0.0000  plane waves:    2542
 k-point  29 :   0.3333 0.1667 0.0000  plane waves:    2543
 k-point  30 :   0.3889 0.1667 0.0000  plane waves:    2543
 k-point  31 :   0.2222 0.2222 0.0000  plane waves:    2525
 k-point  32 :   0.2778 0.2222 0.0000  plane waves:    2529
 k-point  33 :   0.3333 0.2222 0.0000  plane waves:    2528
 k-point  34 :   0.3889 0.2222 0.0000  plane waves:    2530
 k-point  35 :   0.2778 0.2778 0.0000  plane waves:    2529
 k-point  36 :   0.3333 0.2778 0.0000  plane waves:    2520
 k-point  37 :   0.3333 0.3333 0.0000  plane waves:    2514
 k-point  38 :   0.0000 0.0000 0.5000  plane waves:    2550
 k-point  39 :   0.0556 0.0000 0.5000  plane waves:    2562
 k-point  40 :   0.1111 0.0000 0.5000  plane waves:    2580
 k-point  41 :   0.1667 0.0000 0.5000  plane waves:    2588
 k-point  42 :   0.2222 0.0000 0.5000  plane waves:    2584
 k-point  43 :   0.2778-0.0000 0.5000  plane waves:    2572
 k-point  44 :   0.3333-0.0000 0.5000  plane waves:    2566
 k-point  45 :   0.3889-0.0000 0.5000  plane waves:    2546
 k-point  46 :   0.4444 0.0000 0.5000  plane waves:    2544
 k-point  47 :   0.5000 0.0000 0.5000  plane waves:    2544
 k-point  48 :   0.0556 0.0556 0.5000  plane waves:    2576
 k-point  49 :   0.1111 0.0556 0.5000  plane waves:    2572
 k-point  50 :   0.1667 0.0556 0.5000  plane waves:    2588
 k-point  51 :   0.2222 0.0556 0.5000  plane waves:    2582
 k-point  52 :   0.2778 0.0556 0.5000  plane waves:    2576
 k-point  53 :   0.3333 0.0556 0.5000  plane waves:    2554
 k-point  54 :   0.3889 0.0556 0.5000  plane waves:    2538
 k-point  55 :   0.4444 0.0556 0.5000  plane waves:    2544
 k-point  56 :   0.1111 0.1111 0.5000  plane waves:    2574
 k-point  57 :   0.1667 0.1111 0.5000  plane waves:    2576
 k-point  58 :   0.2222 0.1111 0.5000  plane waves:    2576
 k-point  59 :   0.2778 0.1111 0.5000  plane waves:    2562
 k-point  60 :   0.3333 0.1111 0.5000  plane waves:    2534
 k-point  61 :   0.3889 0.1111 0.5000  plane waves:    2530
 k-point  62 :   0.4444 0.1111 0.5000  plane waves:    2544
 k-point  63 :   0.1667 0.1667 0.5000  plane waves:    2564
 k-point  64 :   0.2222 0.1667 0.5000  plane waves:    2556
 k-point  65 :   0.2778 0.1667 0.5000  plane waves:    2530
 k-point  66 :   0.3333 0.1667 0.5000  plane waves:    2532
 k-point  67 :   0.3889 0.1667 0.5000  plane waves:    2530
 k-point  68 :   0.2222 0.2222 0.5000  plane waves:    2530
 k-point  69 :   0.2778 0.2222 0.5000  plane waves:    2542
 k-point  70 :   0.3333 0.2222 0.5000  plane waves:    2530
 k-point  71 :   0.3889 0.2222 0.5000  plane waves:    2520
 k-point  72 :   0.2778 0.2778 0.5000  plane waves:    2526
 k-point  73 :   0.3333 0.2778 0.5000  plane waves:    2518
 k-point  74 :   0.3333 0.3333 0.5000  plane waves:    2526

 maximum and minimum number of plane-waves per node :       200      163

 maximum number of plane-waves:      2590
 maximum index in each direction: 
   IXMAX=    4   IYMAX=    4   IZMAX=   33
   IXMIN=   -5   IYMIN=   -4   IZMIN=  -33


 parallel 3D FFT for wavefunctions:
    minimum data exchange during FFTs selected (reduces bandwidth)
 parallel 3D FFT for charge:
    minimum data exchange during FFTs selected (reduces bandwidth)


 total amount of memory used by VASP MPI-rank0    35721. kBytes
=======================================================================

   base      :      30000. kBytes
   nonl-proj :        864. kBytes
   fftplans  :       2345. kBytes
   grid      :       1174. kBytes
   one-center:          3. kBytes
   wavefun   :       1335. kBytes
 
     INWAV:  cpu time      0.0000: real time      0.0001
 Broyden mixing: mesh for mixing (old mesh)
   NGX =  9   NGY =  9   NGZ = 67
  (NGX  = 36   NGY  = 36   NGZ  =280)
  gives a total of   5427 points

 initial charge density was supplied:
 charge density of overlapping atoms calculated
 number of electron      16.0000000 magnetization 
 keeping initial charge density in first step


--------------------------------------------------------------------------------------------------------


 Maximum index for augmentation-charges         2134 (set IRDMAX)


--------------------------------------------------------------------------------------------------------


 First call to EWALD:  gamma=   0.389
 Maximum number of real-space cells 5x 5x 1
 Maximum number of reciprocal cells 2x 2x 9

    FEWALD:  cpu time      0.0014: real time      0.0014


--------------------------------------- Iteration      1(   1)  ---------------------------------------


    POTLOK:  cpu time      0.0088: real time      0.0107
    SETDIJ:  cpu time      0.0067: real time      0.0067
     EDDAV:  cpu time      0.4891: real time      0.4904
       DOS:  cpu time      0.0014: real time      0.0014
    --------------------------------------------
      LOOP:  cpu time      0.5059: real time      0.5092

 eigenvalue-minimisations  :  1776
 total energy-change (2. order) : 0.9597363E+02  (-0.6738744E+03)
 number of electron      16.0000000 magnetization 
 augmentation part       16.0000000 magnetization 

 Free energy of the ion-electron system (eV)
  ---------------------------------------------------
  alpha Z        PSCENC =        13.86163629
  Ewald energy   TEWEN  =       573.50152316
  -Hartree energ DENC   =     -1044.26422045
  -exchange      EXHF   =         0.00000000
  -V(xc)+E(xc)   XCENC  =        52.71630082
  PAW double counting   =       434.08818552     -436.36580876
  entropy T*S    EENTRO =        -0.00040167
  eigenvalues    EBANDS =       -86.15915399
  atomic energy  EATOM  =       588.59557325
  Solvation  Ediel_sol  =         0.00000000
  ---------------------------------------------------
  free energy    TOTEN  =        95.97363417 eV

  energy without entropy =       95.97403584  energy(sigma->0) =       95.97383500


--------------------------------------------------------------------------------------------------------




--------------------------------------- Iteration      1(   2)  ---------------------------------------


     EDDAV:  cpu time      0.6905: real time      0.6954
       DOS:  cpu time      0.0014: real time      0.0014
    --------------------------------------------
      LOOP:  cpu time      0.6919: real time      0.6969

 eigenvalue-minimisations  :  2744
 total energy-change (2. order) :-0.1249600E+03  (-0.1129503E+03)
 number of electron      16.0000000 magnetization 
 augmentation part       16.0000000 magnetization 

 Free energy of the ion-electron system (eV)
  ---------------------------------------------------
  alpha Z        PSCENC =        13.86163629
  Ewald energy   TEWEN  =       573.50152316
  -Hartree energ DENC   =     -1044.26422045
  -exchange      EXHF   =         0.00000000
  -V(xc)+E(xc)   XCENC  =        52.71630082
  PAW double counting   =       434.08818552     -436.36580876
  entropy T*S    EENTRO =        -0.00046790
  eigenvalues    EBANDS =      -211.11911612
  atomic energy  EATOM  =       588.59557325
  Solvation  Ediel_sol  =         0.00000000
  ---------------------------------------------------
  free energy    TOTEN  =       -28.98639419 eV

  energy without entropy =      -28.98592629  energy(sigma->0) =      -28.98616024


--------------------------------------------------------------------------------------------------------




--------------------------------------- Iteration      1(   3)  ---------------------------------------


     EDDAV:  cpu time      0.5462: real time      0.5473
       DOS:  cpu time      0.0015: real time      0.0015
    --------------------------------------------
      LOOP:  cpu time      0.5478: real time      0.5488

 eigenvalue-minimisations  :  2200
 total energy-change (2. order) :-0.1023064E+02  (-0.1006177E+02)
 number of electron      16.0000000 magnetization 
 augmentation part       16.0000000 magnetization 

 Free energy of the ion-electron system (eV)
  ---------------------------------------------------
  alpha Z        PSCENC =        13.86163629
  Ewald energy   TEWEN  =       573.50152316
  -Hartree energ DENC   =     -1044.26422045
  -exchange      EXHF   =         0.00000000
  -V(xc)+E(xc)   XCENC  =        52.71630082
  PAW double counting   =       434.08818552     -436.36580876
  entropy T*S    EENTRO =        -0.00066869
  eigenvalues    EBANDS =      -221.34955509
  atomic energy  EATOM  =       588.59557325
  Solvation  Ediel_sol  =         0.00000000
  ---------------------------------------------------
  free energy    TOTEN  =       -39.21703396 eV

  energy without entropy =      -39.21636526  energy(sigma->0) =      -39.21669961


--------------------------------------------------------------------------------------------------------




--------------------------------------- Iteration      1(   4)  ---------------------------------------


     EDDAV:  cpu time      0.5595: real time      0.5607
       DOS:  cpu time      0.0015: real time      0.0015
    --------------------------------------------
      LOOP:  cpu time      0.5610: real time      0.5622

 eigenvalue-minimisations  :  2248
 total energy-change (2. order) :-0.2181164E+00  (-0.2175745E+00)
 number of electron      16.0000000 magnetization 
 augmentation part       16.0000000 magnetization 

 Free energy of the ion-electron system (eV)
  ---------------------------------------------------
  alpha Z        PSCENC =        13.86163629
  Ewald energy   TEWEN  =       573.50152316
  -Hartree energ DENC   =     -1044.26422045
  -exchange      EXHF   =         0.00000000
  -V(xc)+E(xc)   XCENC  =        52.71630082
  PAW double counting   =       434.08818552     -436.36580876
  entropy T*S    EENTRO =        -0.00069652
  eigenvalues    EBANDS =      -221.56764367
  atomic energy  EATOM  =       588.59557325
  Solvation  Ediel_sol  =         0.00000000
  ---------------------------------------------------
  free energy    TOTEN  =       -39.43515036 eV

  energy without entropy =      -39.43445384  energy(sigma->0) =      -39.43480210


--------------------------------------------------------------------------------------------------------




--------------------------------------- Iteration      1(   5)  ---------------------------------------


     EDDAV:  cpu time      0.5933: real time      0.5945
       DOS:  cpu time      0.0015: real time      0.0015
    CHARGE:  cpu time      0.0345: real time      0.0346
    MIXING:  cpu time      0.0022: real time      0.0023
    --------------------------------------------
      LOOP:  cpu time      0.6315: real time      0.6329

 eigenvalue-minimisations  :  2292
 total energy-change (2. order) :-0.6288908E-02  (-0.6278323E-02)
 number of electron      16.0000001 magnetization 
 augmentation part        0.4270830 magnetization 

 Broyden mixing:
  rms(total) = 0.89190E+00    rms(broyden)= 0.89179E+00
  rms(prec ) = 0.96778E+00
  weight for this iteration     100.00

 Free energy of the ion-electron system (eV)
  ---------------------------------------------------
  alpha Z        PSCENC =        13.86163629
  Ewald energy   TEWEN  =       573.50152316
  -Hartree energ DENC   =     -1044.26422045
  -exchange      EXHF   =         0.00000000
  -V(xc)+E(xc)   XCENC  =        52.71630082
  PAW double counting   =       434.08818552     -436.36580876
  entropy T*S    EENTRO =        -0.00069653
  eigenvalues    EBANDS =      -221.57393257
  atomic energy  EATOM  =       588.59557325
  Solvation  Ediel_sol  =         0.00000000
  ---------------------------------------------------
  free energy    TOTEN  =       -39.44143927 eV

  energy without entropy =      -39.44074274  energy(sigma->0) =      -39.44109101


--------------------------------------------------------------------------------------------------------




--------------------------------------- Iteration      1(   6)  ---------------------------------------


    POTLOK:  cpu time      0.0126: real time      0.0131
    SETDIJ:  cpu time      0.0095: real time      0.0095
     EDDAV:  cpu time      0.5328: real time      0.5339
       DOS:  cpu time      0.0013: real time      0.0013
    CHARGE:  cpu time      0.0368: real time      0.0369
    MIXING:  cpu time      0.0020: real time      0.0021
    --------------------------------------------
      LOOP:  cpu time      0.5951: real time      0.5968

 eigenvalue-minimisations  :  2096
 total energy-change (2. order) : 0.1820978E+01  (-0.1670861E+00)
 number of electron      16.0000001 magnetization 
 augmentation part        0.4087746 magnetization 

 Broyden mixing:
  rms(total) = 0.52389E+00    rms(broyden)= 0.52388E+00
  rms(prec ) = 0.56233E+00
  weight for this iteration     100.00

 eigenvalues of (default mixing * dielectric matrix)
  average eigenvalue GAMMA=   2.2113
  2.2113

 Free energy of the ion-electron system (eV)
  ---------------------------------------------------
  alpha Z        PSCENC =        13.86163629
  Ewald energy   TEWEN  =       573.50152316
  -Hartree energ DENC   =     -1065.28406022
  -exchange      EXHF   =         0.00000000
  -V(xc)+E(xc)   XCENC  =        53.66882982
  PAW double counting   =       797.19498588     -799.77566630
  entropy T*S    EENTRO =        -0.00069653
  eigenvalues    EBANDS =      -199.38258618
  atomic energy  EATOM  =       588.59557325
  Solvation  Ediel_sol  =         0.00000000
  ---------------------------------------------------
  free energy    TOTEN  =       -37.62046084 eV

  energy without entropy =      -37.61976431  energy(sigma->0) =      -37.62011257


--------------------------------------------------------------------------------------------------------




--------------------------------------- Iteration      1(   7)  ---------------------------------------


    POTLOK:  cpu time      0.0084: real time      0.0085
    SETDIJ:  cpu time      0.0061: real time      0.0061
     EDDAV:  cpu time      0.5233: real time      0.5244
       DOS:  cpu time      0.0016: real time      0.0016
    CHARGE:  cpu time      0.0391: real time      0.0391
    MIXING:  cpu time      0.0014: real time      0.0014
    --------------------------------------------
      LOOP:  cpu time      0.5799: real time      0.5812

 eigenvalue-minimisations  :  2036
 total energy-change (2. order) : 0.7101793E+00  (-0.2274564E+00)
 number of electron      16.0000001 magnetization 
 augmentation part        0.3868114 magnetization 

 Broyden mixing:
  rms(total) = 0.13526E+00    rms(broyden)= 0.13521E+00
  rms(prec ) = 0.14221E+00
  weight for this iteration     100.00

 eigenvalues of (default mixing * dielectric matrix)
  average eigenvalue GAMMA=   2.2799
  2.2799  2.2799

 Free energy of the ion-electron system (eV)
  ---------------------------------------------------
  alpha Z        PSCENC =        13.86163629
  Ewald energy   TEWEN  =       573.50152316
  -Hartree energ DENC   =     -1093.37960524
  -exchange      EXHF   =         0.00000000
  -V(xc)+E(xc)   XCENC  =        54.95091408
  PAW double counting   =      1503.23756969    -1506.09191412
  entropy T*S    EENTRO =        -0.00069653
  eigenvalues    EBANDS =      -171.58528212
  atomic energy  EATOM  =       588.59557325
  Solvation  Ediel_sol  =         0.00000000
  ---------------------------------------------------
  free energy    TOTEN  =       -36.91028154 eV

  energy without entropy =      -36.90958501  energy(sigma->0) =      -36.90993327


--------------------------------------------------------------------------------------------------------




--------------------------------------- Iteration      1(   8)  ---------------------------------------


    POTLOK:  cpu time      0.0088: real time      0.0089
    SETDIJ:  cpu time      0.0062: real time      0.0063
     EDDAV:  cpu time      0.5439: real time      0.5450
       DOS:  cpu time      0.0014: real time      0.0014
    CHARGE:  cpu time      0.0333: real time      0.0333
    MIXING:  cpu time      0.0013: real time      0.0013
    --------------------------------------------
      LOOP:  cpu time      0.5949: real time      0.5961

 eigenvalue-minimisations  :  2192
 total energy-change (2. order) : 0.1464866E-01  (-0.6291456E-02)
 number of electron      16.0000001 magnetization 
 augmentation part        0.3855747 magnetization 

 Broyden mixing:
  rms(total) = 0.15048E-01    rms(broyden)= 0.15034E-01
  rms(prec ) = 0.29011E-01
  weight for this iteration     100.00

 eigenvalues of (default mixing * dielectric matrix)
  average eigenvalue GAMMA=   1.8103
  0.9696  2.2306  2.2306

 Free energy of the ion-electron system (eV)
  ---------------------------------------------------
  alpha Z        PSCENC =        13.86163629
  Ewald energy   TEWEN  =       573.50152316
  -Hartree energ DENC   =     -1096.61553984
  -exchange      EXHF   =         0.00000000
  -V(xc)+E(xc)   XCENC  =        54.96602334
  PAW double counting   =      1682.96117058    -1685.70046710
  entropy T*S    EENTRO =        -0.00069653
  eigenvalues    EBANDS =      -168.46485601
  atomic energy  EATOM  =       588.59557325
  Solvation  Ediel_sol  =         0.00000000
  ---------------------------------------------------
  free energy    TOTEN  =       -36.89563288 eV

  energy without entropy =      -36.89493635  energy(sigma->0) =      -36.89528461


--------------------------------------------------------------------------------------------------------




--------------------------------------- Iteration      1(   9)  ---------------------------------------


    POTLOK:  cpu time      0.0082: real time      0.0082
    SETDIJ:  cpu time      0.0060: real time      0.0060
     EDDAV:  cpu time      0.5455: real time      0.5466
       DOS:  cpu time      0.0015: real time      0.0015
    CHARGE:  cpu time      0.0328: real time      0.0328
    MIXING:  cpu time      0.0016: real time      0.0016
    --------------------------------------------
      LOOP:  cpu time      0.5957: real time      0.5968

 eigenvalue-minimisations  :  2240
 total energy-change (2. order) : 0.2394091E-02  (-0.2599719E-03)
 number of electron      16.0000001 magnetization 
 augmentation part        0.3849963 magnetization 

 Broyden mixing:
  rms(total) = 0.11407E-01    rms(broyden)= 0.11405E-01
  rms(prec ) = 0.24010E-01
  weight for this iteration     100.00

 eigenvalues of (default mixing * dielectric matrix)
  average eigenvalue GAMMA=   2.2949
  1.0004  3.6045  2.6111  1.9635

 Free energy of the ion-electron system (eV)
  ---------------------------------------------------
  alpha Z        PSCENC =        13.86163629
  Ewald energy   TEWEN  =       573.50152316
  -Hartree energ DENC   =     -1097.91865119
  -exchange      EXHF   =         0.00000000
  -V(xc)+E(xc)   XCENC  =        54.99642193
  PAW double counting   =      1679.00532008    -1681.74901130
  entropy T*S    EENTRO =        -0.00069653
  eigenvalues    EBANDS =      -167.18535448
  atomic energy  EATOM  =       588.59557325
  Solvation  Ediel_sol  =         0.00000000
  ---------------------------------------------------
  free energy    TOTEN  =       -36.89323878 eV

  energy without entropy =      -36.89254225  energy(sigma->0) =      -36.89289052


--------------------------------------------------------------------------------------------------------




--------------------------------------- Iteration      1(  10)  ---------------------------------------


    POTLOK:  cpu time      0.0083: real time      0.0084
    SETDIJ:  cpu time      0.0113: real time      0.0113
     EDDAV:  cpu time      0.5368: real time      0.5379
       DOS:  cpu time      0.0015: real time      0.0015
    CHARGE:  cpu time      0.0357: real time      0.0358
    MIXING:  cpu time      0.0010: real time      0.0010
    --------------------------------------------
      LOOP:  cpu time      0.5946: real time      0.5959

 eigenvalue-minimisations  :  1992
 total energy-change (2. order) : 0.3435319E-02  (-0.8035043E-03)
 number of electron      16.0000001 magnetization 
 augmentation part        0.3842673 magnetization 

 Broyden mixing:
  rms(total) = 0.75648E-02    rms(broyden)= 0.75624E-02
  rms(prec ) = 0.91651E-02
  weight for this iteration     100.00

 eigenvalues of (default mixing * dielectric matrix)
  average eigenvalue GAMMA=   2.1500
  3.7079  1.0547  2.2048  2.2048  1.5777

 Free energy of the ion-electron system (eV)
  ---------------------------------------------------
  alpha Z        PSCENC =        13.86163629
  Ewald energy   TEWEN  =       573.50152316
  -Hartree energ DENC   =     -1103.45140939
  -exchange      EXHF   =         0.00000000
  -V(xc)+E(xc)   XCENC  =        55.08219050
  PAW double counting   =      1660.97969014    -1663.71173506
  entropy T*S    EENTRO =        -0.00069653
  eigenvalues    EBANDS =      -161.74657582
  atomic energy  EATOM  =       588.59557325
  Solvation  Ediel_sol  =         0.00000000
  ---------------------------------------------------
  free energy    TOTEN  =       -36.88980347 eV

  energy without entropy =      -36.88910694  energy(sigma->0) =      -36.88945520


--------------------------------------------------------------------------------------------------------




--------------------------------------- Iteration      1(  11)  ---------------------------------------


    POTLOK:  cpu time      0.0123: real time      0.0127
    SETDIJ:  cpu time      0.0080: real time      0.0080
     EDDAV:  cpu time      0.5310: real time      0.5320
       DOS:  cpu time      0.0013: real time      0.0013
    CHARGE:  cpu time      0.0358: real time      0.0359
    MIXING:  cpu time      0.0017: real time      0.0017
    --------------------------------------------
      LOOP:  cpu time      0.5900: real time      0.5916

 eigenvalue-minimisations  :  2024
 total energy-change (2. order) :-0.2193122E-02  (-0.9147995E-04)
 number of electron      16.0000001 magnetization 
 augmentation part        0.3837967 magnetization 

 Broyden mixing:
  rms(total) = 0.64981E-02    rms(broyden)= 0.64971E-02
  rms(prec ) = 0.73806E-02
  weight for this iteration     100.00

 eigenvalues of (default mixing * dielectric matrix)
  average eigenvalue GAMMA=   2.6358
  6.5267  2.8446  2.5108  2.0091  0.9956  0.9281

 Free energy of the ion-electron system (eV)
  ---------------------------------------------------
  alpha Z        PSCENC =        13.86163629
  Ewald energy   TEWEN  =       573.50152316
  -Hartree energ DENC   =     -1104.34084688
  -exchange      EXHF   =         0.00000000
  -V(xc)+E(xc)   XCENC  =        55.09964344
  PAW double counting   =      1681.46204200    -1684.19910110
  entropy T*S    EENTRO =        -0.00069653
  eigenvalues    EBANDS =      -160.87177022
  atomic energy  EATOM  =       588.59557325
  Solvation  Ediel_sol  =         0.00000000
  ---------------------------------------------------
  free energy    TOTEN  =       -36.89199659 eV

  energy without entropy =      -36.89130006  energy(sigma->0) =      -36.89164832


--------------------------------------------------------------------------------------------------------




--------------------------------------- Iteration      1(  12)  ---------------------------------------


    POTLOK:  cpu time      0.0086: real time      0.0086
    SETDIJ:  cpu time      0.0063: real time      0.0064
     EDDAV:  cpu time      0.4999: real time      0.5010
       DOS:  cpu time      0.0014: real time      0.0014
    CHARGE:  cpu time      0.0372: real time      0.0373
    MIXING:  cpu time      0.0015: real time      0.0015
    --------------------------------------------
      LOOP:  cpu time      0.5551: real time      0.5563

 eigenvalue-minimisations  :  1904
 total energy-change (2. order) :-0.1481767E-02  (-0.2106019E-04)
 number of electron      16.0000001 magnetization 
 augmentation part        0.3838895 magnetization 

 Broyden mixing:
  rms(total) = 0.15474E-02    rms(broyden)= 0.15474E-02
  rms(prec ) = 0.16697E-02
  weight for this iteration     100.00

 eigenvalues of (default mixing * dielectric matrix)
  average eigenvalue GAMMA=   2.4201
  6.3511  2.8501  2.5305  2.0092  1.0011  1.0993  1.0993

 Free energy of the ion-electron system (eV)
  ---------------------------------------------------
  alpha Z        PSCENC =        13.86163629
  Ewald energy   TEWEN  =       573.50152316
  -Hartree energ DENC   =     -1104.45394806
  -exchange      EXHF   =         0.00000000
  -V(xc)+E(xc)   XCENC  =        55.08522606
  PAW double counting   =      1670.58051959    -1673.31766396
  entropy T*S    EENTRO =        -0.00069653
  eigenvalues    EBANDS =      -160.74564815
  atomic energy  EATOM  =       588.59557325
  Solvation  Ediel_sol  =         0.00000000
  ---------------------------------------------------
  free energy    TOTEN  =       -36.89347835 eV

  energy without entropy =      -36.89278182  energy(sigma->0) =      -36.89313009


--------------------------------------------------------------------------------------------------------




--------------------------------------- Iteration      1(  13)  ---------------------------------------


    POTLOK:  cpu time      0.0098: real time      0.0099
    SETDIJ:  cpu time      0.0065: real time      0.0065
     EDDAV:  cpu time      0.5424: real time      0.5437
       DOS:  cpu time      0.0015: real time      0.0015
    CHARGE:  cpu time      0.0329: real time      0.0330
    MIXING:  cpu time      0.0015: real time      0.0015
    --------------------------------------------
      LOOP:  cpu time      0.5946: real time      0.5961

 eigenvalue-minimisations  :  2068
 total energy-change (2. order) :-0.1437445E-03  (-0.1052937E-05)
 number of electron      16.0000001 magnetization 
 augmentation part        0.3839321 magnetization 

 Broyden mixing:
  rms(total) = 0.79030E-03    rms(broyden)= 0.79028E-03
  rms(prec ) = 0.85783E-03
  weight for this iteration     100.00

 eigenvalues of (default mixing * dielectric matrix)
  average eigenvalue GAMMA=   2.5443
  6.9511  3.3991  2.5372  2.4620  2.0629  1.0028  0.9695  0.9695

 Free energy of the ion-electron system (eV)
  ---------------------------------------------------
  alpha Z        PSCENC =        13.86163629
  Ewald energy   TEWEN  =       573.50152316
  -Hartree energ DENC   =     -1104.43550695
  -exchange      EXHF   =         0.00000000
  -V(xc)+E(xc)   XCENC  =        55.08388224
  PAW double counting   =      1669.75472866    -1672.49088723
  entropy T*S    EENTRO =        -0.00069653
  eigenvalues    EBANDS =      -160.76387498
  atomic energy  EATOM  =       588.59557325
  Solvation  Ediel_sol  =         0.00000000
  ---------------------------------------------------
  free energy    TOTEN  =       -36.89362210 eV

  energy without entropy =      -36.89292557  energy(sigma->0) =      -36.89327383


--------------------------------------------------------------------------------------------------------




--------------------------------------- Iteration      1(  14)  ---------------------------------------


    POTLOK:  cpu time      0.0086: real time      0.0087
    SETDIJ:  cpu time      0.0063: real time      0.0063
     EDDAV:  cpu time      0.4988: real time      0.4998
       DOS:  cpu time      0.0018: real time      0.0018
    CHARGE:  cpu time      0.0346: real time      0.0347
    MIXING:  cpu time      0.0015: real time      0.0015
    --------------------------------------------
      LOOP:  cpu time      0.5515: real time      0.5528

 eigenvalue-minimisations  :  1872
 total energy-change (2. order) :-0.1547819E-03  (-0.7594746E-06)
 number of electron      16.0000001 magnetization 
 augmentation part        0.3839491 magnetization 

 Broyden mixing:
  rms(total) = 0.11832E-03    rms(broyden)= 0.11825E-03
  rms(prec ) = 0.12187E-03
  weight for this iteration     100.00

 eigenvalues of (default mixing * dielectric matrix)
  average eigenvalue GAMMA=   2.4953
  6.9970  3.6022  2.6540  2.5017  1.9240  1.7938  1.0165  1.0165  0.9522

 Free energy of the ion-electron system (eV)
  ---------------------------------------------------
  alpha Z        PSCENC =        13.86163629
  Ewald energy   TEWEN  =       573.50152316
  -Hartree energ DENC   =     -1104.41581693
  -exchange      EXHF   =         0.00000000
  -V(xc)+E(xc)   XCENC  =        55.08267948
  PAW double counting   =      1668.70647421    -1671.44215418
  entropy T*S    EENTRO =        -0.00069653
  eigenvalues    EBANDS =      -160.78299563
  atomic energy  EATOM  =       588.59557325
  Solvation  Ediel_sol  =         0.00000000
  ---------------------------------------------------
  free energy    TOTEN  =       -36.89377688 eV

  energy without entropy =      -36.89308035  energy(sigma->0) =      -36.89342862


--------------------------------------------------------------------------------------------------------




--------------------------------------- Iteration      1(  15)  ---------------------------------------


    POTLOK:  cpu time      0.0093: real time      0.0095
    SETDIJ:  cpu time      0.0062: real time      0.0062
     EDDAV:  cpu time      0.5441: real time      0.5451
       DOS:  cpu time      0.0016: real time      0.0016
    CHARGE:  cpu time      0.0359: real time      0.0360
    MIXING:  cpu time      0.0017: real time      0.0017
    --------------------------------------------
      LOOP:  cpu time      0.5987: real time      0.6000

 eigenvalue-minimisations  :  2124
 total energy-change (2. order) :-0.2486305E-05  (-0.2832396E-07)
 number of electron      16.0000001 magnetization 
 augmentation part        0.3839562 magnetization 

 Broyden mixing:
  rms(total) = 0.68811E-04    rms(broyden)= 0.68773E-04
  rms(prec ) = 0.75932E-04
  weight for this iteration     100.00

 eigenvalues of (default mixing * dielectric matrix)
  average eigenvalue GAMMA=   2.4371
  7.0041  3.5596  2.8385  2.5008  2.5008  2.0563  1.0291  0.9845  0.9845  0.9126

 Free energy of the ion-electron system (eV)
  ---------------------------------------------------
  alpha Z        PSCENC =        13.86163629
  Ewald energy   TEWEN  =       573.50152316
  -Hartree energ DENC   =     -1104.40945890
  -exchange      EXHF   =         0.00000000
  -V(xc)+E(xc)   XCENC  =        55.08250350
  PAW double counting   =      1668.81596025    -1671.55159477
  entropy T*S    EENTRO =        -0.00069653
  eigenvalues    EBANDS =      -160.78922562
  atomic energy  EATOM  =       588.59557325
  Solvation  Ediel_sol  =         0.00000000
  ---------------------------------------------------
  free energy    TOTEN  =       -36.89377937 eV

  energy without entropy =      -36.89308284  energy(sigma->0) =      -36.89343110


--------------------------------------------------------------------------------------------------------




--------------------------------------- Iteration      1(  16)  ---------------------------------------


    POTLOK:  cpu time      0.0088: real time      0.0090
    SETDIJ:  cpu time      0.0065: real time      0.0065
     EDDAV:  cpu time      0.5371: real time      0.5381
       DOS:  cpu time      0.0014: real time      0.0014
    --------------------------------------------
      LOOP:  cpu time      0.5538: real time      0.5549

 eigenvalue-minimisations  :  2080
 total energy-change (2. order) :-0.9647579E-08  (-0.8323490E-08)
 number of electron      16.0000001 magnetization 
 augmentation part        0.3839562 magnetization 

 Free energy of the ion-electron system (eV)
  ---------------------------------------------------
  alpha Z        PSCENC =        13.86163629
  Ewald energy   TEWEN  =       573.50152316
  -Hartree energ DENC   =     -1104.41526622
  -exchange      EXHF   =         0.00000000
  -V(xc)+E(xc)   XCENC  =        55.08272333
  PAW double counting   =      1668.82064663    -1671.55639946
  entropy T*S    EENTRO =        -0.00069653
  eigenvalues    EBANDS =      -160.78351982
  atomic energy  EATOM  =       588.59557325
  Solvation  Ediel_sol  =         0.00000000
  ---------------------------------------------------
  free energy    TOTEN  =       -36.89377938 eV

  energy without entropy =      -36.89308285  energy(sigma->0) =      -36.89343111


--------------------------------------------------------------------------------------------------------




 average (electrostatic) potential at core
  the test charge radii are     0.6991
  (the norm of the test charge is              1.0000)
       1 -56.3506       2 -56.3505       3 -56.3506       4 -56.3505
 
 
 
 E-fermi :  -0.9157     XC(G=0):  -4.7303     alpha+bet : -4.2280

 Fermi energy:        -0.9157317141

 k-point     1 :       0.0000    0.0000    0.0000
  band No.  band energies     occupation 
      1     -20.4251      2.00000
      2     -20.4251      2.00000
      3      -8.5280      2.00000
      4      -8.5279      2.00000
      5      -3.9440      2.00000
      6      -3.9440      2.00000
      7      -3.9440      2.00000
      8      -3.9439      2.00000
      9       2.1304      0.00000
     10       2.7068      0.00000
     11       2.8869      0.00000
     12       4.1514      0.00000

 k-point     2 :       0.0556    0.0000    0.0000
  band No.  band energies     occupation 
      1     -20.3522      2.00000
      2     -20.3522      2.00000
      3      -8.4410      2.00000
      4      -8.4408      2.00000
      5      -4.2419      2.00000
      6      -4.2419      2.00000
      7      -4.1003      2.00000
      8      -4.1003      2.00000
      9       2.2297      0.00000
     10       2.8045      0.00000
     11       2.9869      0.00000
     12       4.2490      0.00000

 k-point     3 :       0.1111    0.0000    0.0000
  band No.  band energies     occupation 
      1     -20.1337      2.00000
      2     -20.1336      2.00000
      3      -8.1807      2.00000
      4      -8.1806      2.00000
      5      -5.0599      2.00000
      6      -5.0599      2.00000
      7      -4.5155      2.00000
      8      -4.5155      2.00000
      9       2.5277      0.00000
     10       3.0977      0.00000
     11       3.2867      0.00000
     12       4.5412      0.00000

 k-point     4 :       0.1667    0.0000    0.0000
  band No.  band energies     occupation 
      1     -19.7707      2.00000
      2     -19.7706      2.00000
      3      -7.7505      2.00000
      4      -7.7504      2.00000
      5      -6.2344      2.00000
      6      -6.2344      2.00000
      7      -5.0742      2.00000
      8      -5.0742      2.00000
      9       3.0242      0.00000
     10       3.5862      0.00000
     11       3.7854      0.00000
     12       5.0253      0.00000

 k-point     5 :       0.2222    0.0000    0.0000
  band No.  band energies     occupation 
      1     -19.2651      2.00000
      2     -19.2650      2.00000
      3      -7.6088      2.00000
      4      -7.6088      2.00000
      5      -7.1567      2.00000
      6      -7.1565      2.00000
      7      -5.6680      2.00000
      8      -5.6679      2.00000
      9       3.7187      0.00000
     10       4.2690      0.00000
     11       4.4795      0.00000
     12       5.6864      0.00000

 k-point     6 :       0.2778   -0.0000    0.0000
  band No.  band energies     occupation 
      1     -18.6200      2.00000
      2     -18.6200      2.00000
      3      -9.0688      2.00000
      4      -9.0688      2.00000
      5      -6.4110      2.00000
      6      -6.4108      2.00000
      7      -6.2209      2.00000
      8      -6.2209      2.00000
      9       4.6096      0.00000
     10       5.1430      0.00000
     11       5.2711      0.00000
     12       5.5088      0.00000

 k-point     7 :       0.3333   -0.0000    0.0000
  band No.  band energies     occupation 
      1     -17.8405      2.00000
      2     -17.8405      2.00000
      3     -10.5372      2.00000
      4     -10.5372      2.00000
      5      -6.6856      2.00000
      6      -6.6856      2.00000
      7      -5.5362      2.00000
      8      -5.5361      2.00000
      9       3.9874      0.00000
     10       3.9898      0.00000
     11       5.6919      0.00000
     12       6.1885      0.00000

 k-point     8 :       0.3889   -0.0000    0.0000
  band No.  band energies     occupation 
      1     -16.9364      2.00000
      2     -16.9364      2.00000
      3     -11.9592      2.00000
      4     -11.9592      2.00000
      5      -7.0333      2.00000
      6      -7.0333      2.00000
      7      -4.5845      2.00000
      8      -4.5844      2.00000
      9       2.5167      0.00000
     10       2.5172      0.00000
     11       6.5812      0.00000
     12       6.5911      0.00000

 k-point     9 :       0.4444    0.0000    0.0000
  band No.  band energies     occupation 
      1     -15.9383      2.00000
      2     -15.9382      2.00000
      3     -13.2776      2.00000
      4     -13.2776      2.00000
      5      -7.2476      2.00000
      6      -7.2476      2.00000
      7      -3.6984      2.00000
      8      -3.6983      2.00000
      9       1.2998      0.00000
     10       1.3000      0.00000
     11       6.4935      0.00000
     12       6.4936      0.00000

 k-point    10 :       0.5000    0.0000    0.0000
  band No.  band energies     occupation 
      1     -15.1849      2.00000
      2     -15.1848      2.00000
      3     -14.1393      2.00000
      4     -14.1393      2.00000
      5      -7.3199      2.00000
      6      -7.3199      2.00000
      7      -3.2744      2.00000
      8      -3.2744      2.00000
      9       0.7626      0.00000
     10       0.7629      0.00000
     11       6.4571      0.00000
     12       6.4572      0.00000

 k-point    11 :       0.0556    0.0556    0.0000
  band No.  band energies     occupation 
      1     -20.2065      2.00000
      2     -20.2064      2.00000
      3      -8.2673      2.00000
      4      -8.2671      2.00000
      5      -4.7729      2.00000
      6      -4.7729      2.00000
      7      -4.4132      2.00000
      8      -4.4132      2.00000
      9       2.4284      0.00000
     10       3.0000      0.00000
     11       3.1868      0.00000
     12       4.4439      0.00000

 k-point    12 :       0.1111    0.0556    0.0000
  band No.  band energies     occupation 
      1     -19.9157      2.00000
      2     -19.9157      2.00000
      3      -7.9220      2.00000
      4      -7.9218      2.00000
      5      -5.7165      2.00000
      6      -5.7165      2.00000
      7      -4.9538      2.00000
      8      -4.9538      2.00000
      9       2.8258      0.00000
     10       3.3911      0.00000
     11       3.5862      0.00000
     12       4.8325      0.00000

 k-point    13 :       0.1667    0.0556    0.0000
  band No.  band energies     occupation 
      1     -19.4814      2.00000
      2     -19.4814      2.00000
      3      -7.4096      2.00000
      4      -7.4095      2.00000
      5      -6.9490      2.00000
      6      -6.9490      2.00000
      7      -5.5734      2.00000
      8      -5.5733      2.00000
      9       3.4215      0.00000
     10       3.9772      0.00000
     11       4.1834      0.00000
     12       5.4097      0.00000

 k-point    14 :       0.2222    0.0556    0.0000
  band No.  band energies     occupation 
      1     -18.9061      2.00000
      2     -18.9060      2.00000
      3      -8.3399      2.00000
      4      -8.3399      2.00000
      5      -6.7388      2.00000
      6      -6.7387      2.00000
      7      -6.1739      2.00000
      8      -6.1739      2.00000
      9       4.2146      0.00000
     10       4.7568      0.00000
     11       4.9684      0.00000
     12       6.0278      0.00000

 k-point    15 :       0.2778    0.0556    0.0000
  band No.  band energies     occupation 
      1     -18.1937      2.00000
      2     -18.1937      2.00000
      3      -9.7889      2.00000
      4      -9.7889      2.00000
      5      -6.6982      2.00000
      6      -6.6982      2.00000
      7      -5.9256      2.00000
      8      -5.9254      2.00000
      9       4.6965      0.00000
     10       4.7038      0.00000
     11       5.2030      0.00000
     12       5.7249      0.00000

 k-point    16 :       0.3333    0.0556    0.0000
  band No.  band energies     occupation 
      1     -17.3512      2.00000
      2     -17.3511      2.00000
      3     -11.2263      2.00000
      4     -11.2263      2.00000
      5      -7.1128      2.00000
      6      -7.1128      2.00000
      7      -5.0032      2.00000
      8      -5.0031      2.00000
      9       3.2029      0.00000
     10       3.2037      0.00000
     11       6.3759      0.00000
     12       6.8085      0.00000

 k-point    17 :       0.3889    0.0556    0.0000
  band No.  band energies     occupation 
      1     -16.3944      2.00000
      2     -16.3943      2.00000
      3     -12.5975      2.00000
      4     -12.5975      2.00000
      5      -7.3982      2.00000
      6      -7.3982      2.00000
      7      -4.0546      2.00000
      8      -4.0546      2.00000
      9       1.8379      0.00000
     10       1.8382      0.00000
     11       6.8625      0.00000
     12       6.8639      0.00000

 k-point    18 :       0.4444    0.0556    0.0000
  band No.  band energies     occupation 
      1     -15.4058      2.00000
      2     -15.4057      2.00000
      3     -13.7984      2.00000
      4     -13.7984      2.00000
      5      -7.5433      2.00000
      6      -7.5433      2.00000
      7      -3.3254      2.00000
      8      -3.3254      2.00000
      9       0.8912      0.00000
     10       0.8915      0.00000
     11       6.7943      0.00000
     12       6.7943      0.00000

 k-point    19 :       0.1111    0.1111    0.0000
  band No.  band energies     occupation 
      1     -19.5536      2.00000
      2     -19.5536      2.00000
      3      -7.4943      2.00000
      4      -7.4942      2.00000
      5      -6.6164      2.00000
      6      -6.6164      2.00000
      7      -5.6585      2.00000
      8      -5.6585      2.00000
      9       3.3225      0.00000
     10       3.8802      0.00000
     11       4.0844      0.00000
     12       5.3158      0.00000

 k-point    20 :       0.1667    0.1111    0.0000
  band No.  band energies     occupation 
      1     -19.0496      2.00000
      2     -19.0496      2.00000
      3      -7.7527      2.00000
      4      -7.7527      2.00000
      5      -6.9040      2.00000
      6      -6.9038      2.00000
      7      -6.3990      2.00000
      8      -6.3990      2.00000
      9       4.0172      0.00000
     10       4.5639      0.00000
     11       4.7789      0.00000
     12       5.9804      0.00000

 k-point    21 :       0.2222    0.1111    0.0000
  band No.  band energies     occupation 
      1     -18.4069      2.00000
      2     -18.4068      2.00000
      3      -9.0651      2.00000
      4      -9.0651      2.00000
      5      -7.0396      2.00000
[...]
     11       4.8320      0.00000
     12       4.8320      0.00000

 k-point    51 :       0.2222    0.0556    0.5000
  band No.  band energies     occupation 
      1     -18.9061      2.00000
      2     -18.9061      2.00000
      3      -8.3399      2.00000
      4      -8.3399      2.00000
      5      -6.7387      2.00000
      6      -6.7387      2.00000
      7      -6.1739      2.00000
      8      -6.1739      2.00000
      9       4.3757      0.00000
     10       4.3757      0.00000
     11       5.5847      0.00000
     12       5.5847      0.00000

 k-point    52 :       0.2778    0.0556    0.5000
  band No.  band energies     occupation 
      1     -18.1937      2.00000
      2     -18.1937      2.00000
      3      -9.7890      2.00000
      4      -9.7890      2.00000
      5      -6.6982      2.00000
      6      -6.6982      2.00000
      7      -5.9255      2.00000
      8      -5.9255      2.00000
      9       4.6996      0.00000
     10       4.6996      0.00000
     11       5.3660      0.00000
     12       5.3660      0.00000

 k-point    53 :       0.3333    0.0556    0.5000
  band No.  band energies     occupation 
      1     -17.3511      2.00000
      2     -17.3511      2.00000
      3     -11.2263      2.00000
      4     -11.2263      2.00000
      5      -7.1128      2.00000
      6      -7.1128      2.00000
      7      -5.0031      2.00000
      8      -5.0031      2.00000
      9       3.2033      0.00000
     10       3.2033      0.00000
     11       6.5262      0.00000
     12       6.5262      0.00000

 k-point    54 :       0.3889    0.0556    0.5000
  band No.  band energies     occupation 
      1     -16.3943      2.00000
      2     -16.3943      2.00000
      3     -12.5975      2.00000
      4     -12.5975      2.00000
      5      -7.3982      2.00000
      6      -7.3982      2.00000
      7      -4.0546      2.00000
      8      -4.0546      2.00000
      9       1.8380      0.00000
     10       1.8380      0.00000
     11       6.8632      0.00000
     12       6.8632      0.00000

 k-point    55 :       0.4444    0.0556    0.5000
  band No.  band energies     occupation 
      1     -15.4058      2.00000
      2     -15.4058      2.00000
      3     -13.7984      2.00000
      4     -13.7984      2.00000
      5      -7.5433      2.00000
      6      -7.5433      2.00000
      7      -3.3254      2.00000
      8      -3.3254      2.00000
      9       0.8913      0.00000
     10       0.8913      0.00000
     11       6.7943      0.00000
     12       6.7943      0.00000

 k-point    56 :       0.1111    0.1111    0.5000
  band No.  band energies     occupation 
      1     -19.5536      2.00000
      2     -19.5536      2.00000
      3      -7.4942      2.00000
      4      -7.4942      2.00000
      5      -6.6164      2.00000
      6      -6.6164      2.00000
      7      -5.6585      2.00000
      8      -5.6585      2.00000
      9       3.4865      0.00000
     10       3.4865      0.00000
     11       4.7356      0.00000
     12       4.7356      0.00000

 k-point    57 :       0.1667    0.1111    0.5000
  band No.  band energies     occupation 
      1     -19.0496      2.00000
      2     -19.0496      2.00000
      3      -7.7527      2.00000
      4      -7.7527      2.00000
      5      -6.9039      2.00000
      6      -6.9039      2.00000
      7      -6.3990      2.00000
      8      -6.3990      2.00000
      9       4.1794      0.00000
     10       4.1794      0.00000
     11       5.4158      0.00000
     12       5.4158      0.00000

 k-point    58 :       0.2222    0.1111    0.5000
  band No.  band energies     occupation 
      1     -18.4069      2.00000
      2     -18.4069      2.00000
      3      -9.0651      2.00000
      4      -9.0651      2.00000
      5      -7.0396      2.00000
      6      -7.0396      2.00000
      7      -6.1623      2.00000
      8      -6.1623      2.00000
      9       5.0628      0.00000
     10       5.0628      0.00000
     11       5.2457      0.00000
     12       5.2457      0.00000

 k-point    59 :       0.2778    0.1111    0.5000
  band No.  band energies     occupation 
      1     -17.6309      2.00000
      2     -17.6309      2.00000
      3     -10.4491      2.00000
      4     -10.4491      2.00000
      5      -7.5489      2.00000
      6      -7.5489      2.00000
      7      -5.2914      2.00000
      8      -5.2914      2.00000
      9       3.8021      0.00000
     10       3.8021      0.00000
     11       6.1505      0.00000
     12       6.1505      0.00000

 k-point    60 :       0.3333    0.1111    0.5000
  band No.  band energies     occupation 
      1     -16.7319      2.00000
      2     -16.7319      2.00000
      3     -11.8221      2.00000
      4     -11.8221      2.00000
      5      -7.9183      2.00000
      6      -7.9183      2.00000
      7      -4.3402      2.00000
      8      -4.3402      2.00000
      9       2.4015      0.00000
     10       2.4015      0.00000
     11       7.4062      0.00000
     12       7.4062      0.00000

 k-point    61 :       0.3889    0.1111    0.5000
  band No.  band energies     occupation 
      1     -15.7415      2.00000
      2     -15.7415      2.00000
      3     -13.1108      2.00000
      4     -13.1108      2.00000
      5      -8.1423      2.00000
      6      -8.1423      2.00000
      7      -3.4451      2.00000
      8      -3.4451      2.00000
      9       1.2188      0.00000
     10       1.2188      0.00000
     11       7.7283      0.00000
     12       7.7283      0.00000

 k-point    62 :       0.4444    0.1111    0.5000
  band No.  band energies     occupation 
      1     -14.9972      2.00000
      2     -14.9972      2.00000
      3     -13.9568      2.00000
      4     -13.9568      2.00000
      5      -8.2174      2.00000
      6      -8.2174      2.00000
      7      -3.0085      2.00000
      8      -3.0085      2.00000
      9       0.6833      0.00000
     10       0.6833      0.00000
     11       7.6938      0.00000
     12       7.6938      0.00000

 k-point    63 :       0.1667    0.1667    0.5000
  band No.  band energies     occupation 
      1     -18.4781      2.00000
      2     -18.4781      2.00000
      3      -8.6719      2.00000
      4      -8.6719      2.00000
      5      -7.3189      2.00000
      6      -7.3189      2.00000
      7      -6.2417      2.00000
      8      -6.2417      2.00000
      9       4.9700      0.00000
     10       4.9700      0.00000
     11       5.4535      0.00000
     12       5.4535      0.00000

 k-point    64 :       0.2222    0.1667    0.5000
  band No.  band energies     occupation 
      1     -17.7716      2.00000
      2     -17.7716      2.00000
      3      -9.7828      2.00000
      4      -9.7828      2.00000
      5      -8.0818      2.00000
      6      -8.0818      2.00000
      7      -5.4381      2.00000
      8      -5.4381      2.00000
      9       4.1699      0.00000
     10       4.1699      0.00000
     11       5.9546      0.00000
     12       5.9546      0.00000

 k-point    65 :       0.2778    0.1667    0.5000
  band No.  band energies     occupation 
      1     -16.9377      2.00000
      2     -16.9377      2.00000
      3     -11.0360      2.00000
      4     -11.0360      2.00000
      5      -8.6142      2.00000
      6      -8.6142      2.00000
      7      -4.5226      2.00000
      8      -4.5226      2.00000
      9       2.8500      0.00000
     10       2.8500      0.00000
     11       7.1282      0.00000
     12       7.1282      0.00000

 k-point    66 :       0.3333    0.1667    0.5000
  band No.  band energies     occupation 
      1     -15.9940      2.00000
      2     -15.9940      2.00000
      3     -12.3097      2.00000
      4     -12.3097      2.00000
      5      -8.9507      2.00000
      6      -8.9507      2.00000
      7      -3.5679      2.00000
      8      -3.5679      2.00000
      9       1.6010      0.00000
     10       1.6010      0.00000
     11       8.4751      0.00000
     12       8.4751      0.00000

 k-point    67 :       0.3889    0.1667    0.5000
  band No.  band energies     occupation 
      1     -15.0240      2.00000
      2     -15.0240      2.00000
      3     -13.4573      2.00000
      4     -13.4573      2.00000
      5      -9.1151      2.00000
      6      -9.1151      2.00000
      7      -2.8057      2.00000
      8      -2.8057      2.00000
      9       0.6835      0.00000
     10       0.6835      0.00000
     11       9.0152      0.00000
     12       9.0152      0.00000

 k-point    68 :       0.2222    0.2222    0.5000
  band No.  band energies     occupation 
      1     -17.0068      2.00000
      2     -17.0068      2.00000
      3     -10.5822      2.00000
      4     -10.5822      2.00000
      5      -9.0492      2.00000
      6      -9.0492      2.00000
      7      -4.5851      2.00000
      8      -4.5851      2.00000
      9       3.0257      0.00000
     10       3.0257      0.00000
     11       7.0303      0.00000
     12       7.0303      0.00000

 k-point    69 :       0.2778    0.2222    0.5000
  band No.  band energies     occupation 
      1     -16.1249      2.00000
      2     -16.1249      2.00000
      3     -11.5815      2.00000
      4     -11.5815      2.00000
      5      -9.7070      2.00000
      6      -9.7070      2.00000
      7      -3.6418      2.00000
      8      -3.6418      2.00000
      9       1.8609      0.00000
     10       1.8609      0.00000
     11       8.2852      0.00000
     12       8.2852      0.00000

 k-point    70 :       0.3333    0.2222    0.5000
  band No.  band energies     occupation 
      1     -15.1595      2.00000
      2     -15.1595      2.00000
      3     -12.6925      2.00000
      4     -12.6925      2.00000
      5     -10.0477      2.00000
      6     -10.0477      2.00000
      7      -2.7147      2.00000
      8      -2.7147      2.00000
      9       0.7932      0.00000
     10       0.7932      0.00000
     11       9.6691      0.00000
     12       9.6691      0.00000

 k-point    71 :       0.3889    0.2222    0.5000
  band No.  band energies     occupation 
      1     -14.4352      2.00000
      2     -14.4352      2.00000
      3     -13.4775      2.00000
      4     -13.4775      2.00000
      5     -10.1523      2.00000
      6     -10.1523      2.00000
      7      -2.2163      2.00000
      8      -2.2163      2.00000
      9       0.2462      0.00000
     10       0.2462      0.00000
     11      10.2687      0.00000
     12      10.3649      0.00000

 k-point    72 :       0.2778    0.2778    0.5000
  band No.  band energies     occupation 
      1     -15.2136      2.00000
      2     -15.2136      2.00000
      3     -12.2109      2.00000
      4     -12.2109      2.00000
      5     -10.5840      2.00000
      6     -10.5840      2.00000
      7      -2.6921      2.00000
      8      -2.6921      2.00000
      9       0.8556      0.00000
     10       0.8556      0.00000
     11       9.5537      0.00000
     12       9.5537      0.00000

 k-point    73 :       0.3333    0.2778    0.5000
  band No.  band energies     occupation 
      1     -14.2808      2.00000
      2     -14.2808      2.00000
      3     -13.0234      2.00000
      4     -13.0234      2.00000
      5     -11.0140      2.00000
      6     -11.0140      2.00000
      7      -1.8173      2.00000
      8      -1.8173      2.00000
      9      -0.0419      0.00000
     10      -0.0419      0.00000
     11       9.8446      0.00000
     12       9.8446      0.00000

 k-point    74 :       0.3333    0.3333    0.5000
  band No.  band energies     occupation 
      1     -13.5030      2.00000
      2     -13.5030      2.00000
      3     -13.5030      2.00000
      4     -13.5030      2.00000
      5     -11.4567      2.00000
      6     -11.4567      2.00000
      7      -0.9158      1.00045
      8      -0.9158      1.00045
      9      -0.9157      0.99971
     10      -0.9157      0.99971
     11       9.7022      0.00000
     12       9.7022      0.00000


--------------------------------------------------------------------------------------------------------


 soft charge-density along one line, spin component           1
         0         1         2         3         4         5         6         7         8         9
 total charge-density along one line
 
 pseudopotential strength for first ion, spin component:           1
 10.107  13.438   0.000  -0.000  -0.000  -0.000   0.000   0.000
 13.438  17.866   0.000  -0.000  -0.000  -0.000   0.000   0.000
  0.000   0.000  -4.249  -0.000  -0.000   8.312   0.000   0.000
 -0.000  -0.000  -0.000  -4.242  -0.000   0.000   8.302   0.000
 -0.000  -0.000  -0.000  -0.000  -4.249   0.000   0.000   8.312
 -0.000  -0.000   8.312   0.000   0.000 -18.389  -0.000  -0.000
  0.000   0.000   0.000   8.302   0.000  -0.000 -18.381  -0.000
  0.000   0.000   0.000   0.000   8.312  -0.000  -0.000 -18.389
 total augmentation occupancy for first ion, spin component:           1
  8.038  -3.555  -0.000   0.000  -0.000   0.000  -0.000  -0.000
 -3.555   1.631   0.000   0.000   0.000   0.000   0.000  -0.000
  0.000  -0.000   1.813   0.000   0.000   0.166   0.000   0.000
  0.000   0.000  -0.000   1.190  -0.000   0.000   0.070   0.000
  0.000   0.000   0.000  -0.000   1.813   0.000   0.000   0.166
  0.000   0.000   0.166   0.000   0.000   0.017   0.000   0.000
  0.000   0.000  -0.000   0.070   0.000  -0.000   0.005   0.000
 -0.000  -0.000   0.000  -0.000   0.166   0.000   0.000   0.017


------------------------ aborting loop because EDIFF is reached ----------------------------------------


    CHARGE:  cpu time      0.0368: real time      0.0369
    FORLOC:  cpu time      0.0012: real time      0.0012
    FORNL :  cpu time      0.0628: real time      0.0629
    STRESS:  cpu time      0.2030: real time      0.2034
    FORCOR:  cpu time      0.0087: real time      0.0088
    FORHAR:  cpu time      0.0020: real time      0.0020
    MIXING:  cpu time      0.0008: real time      0.0008
    OFIELD:  cpu time      0.0000: real time      0.0000

 ---------------------------------------------------------------------------------------------

         DFTD3 V3.0 Rev 1        
 IVDW         = 12
 DF pbe       
 parameters
 VDW_S6       =    1.0000
 VDW_S8       =    0.7875
 VDW_A1       =    0.4289
 VDW_A2       =    4.4407
 k1-k3        =   16.0000    1.3333   -4.0000
 VDW_RADIUS   =   50.2022 A
 VDW_CNRADIUS =   21.1671 A
 Edisp (eV)   -0.35998

 E6    (eV) :    -0.2488
 E8    (eV) :    -0.1111
 % E8        : 30.87
    FORVDW:  cpu time      0.0209: real time      0.0210

  FORCE on cell =-STRESS in cart. coord.  units (eV):
  Direction    XX          YY          ZZ          XY          YZ          ZX
  --------------------------------------------------------------------------------------
  Alpha Z    13.86164    13.86164    13.86164
  Ewald    1111.18170  1111.18048 -1648.86103     0.00023    -0.00000     0.00000
  Hartree  1081.76807  1081.76805 -1059.12119     0.00001    -0.00000    -0.00000
  E(xc)     -59.41322   -59.41323   -61.64004     0.00000    -0.00000    -0.00000
  Local   -2371.46886 -2371.46813  2495.40551    -0.00032     0.00000     0.00000
  n-local   -13.72116   -14.79834   -13.00396    -0.65483     0.00000     0.00000
  augment    -1.55779    -1.55776    -1.43594     0.00002     0.00000    -0.00000
  Kinetic   236.02714   244.16677   274.77378     6.43057    -0.00000     0.00000
  Fock        0.00000     0.00000     0.00000     0.00000     0.00000     0.00000
  vdW        -0.08701    -0.08701    -0.02408    -0.00000    -0.00000     0.00000
  -------------------------------------------------------------------------------------
  Total       0.12148     0.12148    -0.04531     0.00000     0.00000     0.00000
  in kB       2.05268     2.05268    -0.76566     0.00000     0.00000     0.00000
  external pressure =        1.11 kB  Pullay stress =        0.00 kB


 VOLUME and BASIS-vectors are now :
 -----------------------------------------------------------------------------
  energy-cutoff  :      520.00
  volume of cell :       94.82
      direct lattice vectors                 reciprocal lattice vectors
     2.466303255 -0.000286638  0.000000000     0.405492344  0.234047608  0.000000000
    -1.232898690  2.136022597  0.000000000     0.000054414  0.468191249  0.000000000
     0.000000000  0.000000000 18.000000000     0.000000000  0.000000000  0.055555556

  length of vectors
     2.466303272  2.466299194 18.000000000     0.468190478  0.468191252  0.055555556


 FORCES acting on ions
    electron-ion (+dipol)            ewald-force                    non-local-force                 convergence-correction
 -----------------------------------------------------------------------------------------------
   -.215E-03 -.860E-04 -.134E-10   0.268E-03 -.928E-04 -.214E-13   0.985E-16 -.319E-16 -.414E-24   -.420E-09 0.156E-09 -.234E-12
   0.443E-03 0.402E-03 -.127E-10   -.268E-03 0.928E-04 -.214E-13   -.621E-16 0.566E-16 -.165E-23   0.484E-09 -.659E-10 -.232E-12
   -.215E-03 -.860E-04 -.160E-10   0.268E-03 -.928E-04 0.214E-13   0.103E-15 -.662E-17 0.807E-23   -.420E-09 0.156E-09 0.226E-13
   0.443E-03 0.402E-03 -.100E-10   -.268E-03 0.928E-04 0.214E-13   -.162E-15 -.478E-16 -.124E-23   0.484E-09 -.659E-10 0.254E-13
 -----------------------------------------------------------------------------------------------
   0.456E-03 0.632E-03 -.521E-10   0.658E-15 -.785E-14 0.411E-22   -.229E-16 -.297E-16 0.476E-23   0.129E-09 0.180E-09 -.417E-12
 
 
 POSITION                                       TOTAL-FORCE (eV/Angst)
 -----------------------------------------------------------------------------------
      1.23307      2.13557      0.00000        -0.000000      0.000000     -0.000000
      1.23290      0.71165      0.00000         0.000000     -0.000000      0.000000
      1.23307      2.13557      9.00000        -0.000000      0.000000      0.000000
      1.23290      0.71165      9.00000         0.000000     -0.000000     -0.000000
 -----------------------------------------------------------------------------------
    total drift:                                0.000456      0.000632     -0.000000


--------------------------------------------------------------------------------------------------------



  FREE ENERGIE OF THE ION-ELECTRON SYSTEM (eV)
  ---------------------------------------------------
  free  energy   TOTEN  =       -37.25375562 eV

  energy  without entropy=      -37.25305909  energy(sigma->0) =      -37.25340736
 


--------------------------------------------------------------------------------------------------------


    POTLOK:  cpu time      0.0167: real time      0.0167


--------------------------------------------------------------------------------------------------------


     LOOP+:  cpu time      9.7070: real time      9.7432
    4ORBIT:  cpu time      0.0000: real time      0.0000

 total amount of memory used by VASP MPI-rank0    35721. kBytes
=======================================================================

   base      :      30000. kBytes
   nonl-proj :        864. kBytes
   fftplans  :       2345. kBytes
   grid      :       1174. kBytes
   one-center:          3. kBytes
   wavefun   :       1335. kBytes
 
  
  
 General timing and accounting informations for this job:
 ========================================================
  
                  Total CPU time used (sec):       11.170
                            User time (sec):       10.737
                          System time (sec):        0.433
                         Elapsed time (sec):       12.396
  
                   Maximum memory used (kb):       61248.
                   Average memory used (kb):          N/A
  
                          Minor page faults:        23866
                          Major page faults:            0
                 Voluntary context switches:         4668
