 Entering Gaussian System, Link 0=g16
 Initial command:
 /home/szhao/Apps/g16/l1.exe "/home/szhao/tmp/Gau-41209.inp" -scrdir="/home/szhao/tmp/"
 Default is to use a total of  16 processors:
                               16 via shared-memory
                                1 via Linda
 Entering Link 1 = /home/szhao/Apps/g16/l1.exe PID=     41210.
  
 Copyright (c) 1988,1990,1992,1993,1995,1998,2003,2009,2016,
            Gaussian, Inc.  All Rights Reserved.
  
 This is part of the Gaussian(R) 16 program.  It is based on
 the Gaussian(R) 09 system (copyright 2009, Gaussian, Inc.),
 the Gaussian(R) 03 system (copyright 2003, Gaussian, Inc.),
 the Gaussian(R) 98 system (copyright 1998, Gaussian, Inc.),
 the Gaussian(R) 94 system (copyright 1995, Gaussian, Inc.),
 the Gaussian 92(TM) system (copyright 1992, Gaussian, Inc.),
 the Gaussian 90(TM) system (copyright 1990, Gaussian, Inc.),
 the Gaussian 88(TM) system (copyright 1988, Gaussian, Inc.),
 the Gaussian 86(TM) system (copyright 1986, Carnegie Mellon
 University), and the Gaussian 82(TM) system (copyright 1983,
 Carnegie Mellon University). Gaussian is a federally registered
 trademark of Gaussian, Inc.
  
 This software contains proprietary and confidential information,
 including trade secrets, belonging to Gaussian, Inc.
  
 This software is provided under written license and may be
 used, copied, transmitted, or stored only in accord with that
 written license.
  
 The following legend is applicable only to US Government
 contracts under FAR:
  
                    RESTRICTED RIGHTS LEGEND
  
 Use, reproduction and disclosure by the US Government is
 subject to restrictions as set forth in subparagraphs (a)
 and (c) of the Commercial Computer Software - Restricted
 Rights clause in FAR 52.227-19.
  
 Gaussian, Inc.
 340 Quinnipiac St., Bldg. 40, Wallingford CT 06492
  
  
 ---------------------------------------------------------------
 Warning -- This program may not be used in any manner that
 competes with the business of Gaussian, Inc. or will provide
 assistance to any competitor of Gaussian, Inc.  The licensee
 of this program is prohibited from giving any competitor of
 Gaussian, Inc. access to this program.  By using this program,
 the user acknowledges that Gaussian, Inc. is engaged in the
 business of creating and licensing software in the field of
 computational chemistry and represents and warrants to the
 licensee that it is not a competitor of Gaussian, Inc. and that
 it will not use this program in any manner prohibited above.
 ---------------------------------------------------------------
  

 Cite this work as:
 Gaussian 16, Revision A.03,
 M. J. Frisch, G. W. Trucks, H. B. Schlegel, G. E. Scuseria, 
 M. A. Robb, J. R. Cheeseman, G. Scalmani, V. Barone, 
 G. A. Petersson, H. Nakatsuji, X. Li, M. Caricato, A. V. Marenich, 
 J. Bloino, B. G. Janesko, R. Gomperts, B. Mennucci, H. P. Hratchian, 
 J. V. Ortiz, A. F. Izmaylov, J. L. Sonnenberg, D. Williams-Young, 
 F. Ding, F. Lipparini, F. Egidi, J. Goings, B. Peng, A. Petrone, 
 T. Henderson, D. Ranasinghe, V. G. Zakrzewski, J. Gao, N. Rega, 
 G. Zheng, W. Liang, M. Hada, M. Ehara, K. Toyota, R. Fukuda, 
 J. Hasegawa, M. Ishida, T. Nakajima, Y. Honda, O. Kitao, H. Nakai, 
 T. Vreven, K. Throssell, J. A. Montgomery, Jr., J. E. Peralta, 
 F. Ogliaro, M. J. Bearpark, J. J. Heyd, E. N. Brothers, K. N. Kudin, 
 V. N. Staroverov, T. A. Keith, R. Kobayashi, J. Normand, 
 K. Raghavachari, A. P. Rendell, J. C. Burant, S. S. Iyengar, 
 J. Tomasi, M. Cossi, J. M. Millam, M. Klene, C. Adamo, R. Cammi, 
 J. W. Ochterski, R. L. Martin, K. Morokuma, O. Farkas, 
 J. B. Foresman, and D. J. Fox, Gaussian, Inc., Wallingford CT, 2016.
 
 ******************************************
 Gaussian 16:  ES64L-G16RevA.03 25-Dec-2016
                21-Apr-2025 
 ******************************************
 %chk=opt.chk
 %mem=4GB
 %nprocshared=8
 Will use up to    8 processors via shared memory.
 --------------------------------------------
 #p opt UM062X/6-311+G** nosymm int=superfine
 --------------------------------------------
 1/18=20,19=15,26=5,38=1/1,3;
 2/9=110,12=2,15=1,17=6,18=5,40=1/2;
 3/5=4,6=6,7=111,11=2,25=1,30=1,71=1,74=-55,75=-7,116=2/1,2,3;
 4//1;
 5/5=2,38=5/2;
 6/7=2,8=2,9=2,10=2,28=1/1;
 7/30=1/1,2,3,16;
 1/18=20,19=15,26=5/3(2);
 2/9=110,15=1/2;
 99//99;
 2/9=110,15=1/2;
 3/5=4,6=6,7=111,11=2,25=1,30=1,71=1,74=-55,75=-7,116=2/1,2,3;
 4/5=5,16=3,69=1/1;
 5/5=2,38=5/2;
 7/30=1/1,2,3,16;
 1/18=20,19=15,26=5/3(-5);
 2/9=110,15=1/2;
 6/7=2,8=2,9=2,10=2,19=2,28=1/1;
 99/9=1/99;
 Leave Link    1 at Mon Apr 21 19:22:49 2025, MaxMem=   536870912 cpu:               1.7 elap:               0.2
 (Enter /home/szhao/Apps/g16/l101.exe)
 -------------------
 Title Card Required
 -------------------
 Symbolic Z-matrix:
 Charge =  1 Multiplicity = 2
 C                    -1   -0.91943   0.        0. 
 P                    -1    0.91943   0.        0. 
 H                    0    -2.00418   0.        0. 
 
 ITRead=  2  2  0
 MicOpt= -2 -2 -1
 NAtoms=      3 NQM=        1 NQMF=       2 NMMI=      0 NMMIF=      0
                NMic=       0 NMicF=      0.
                    Isotopes and Nuclear Properties:
 (Nuclear quadrupole moments (NQMom) in fm**2, nuclear magnetic moments (NMagM)
  in nuclear magnetons)

  Atom         1           2           3
 IAtWgt=          12          31           1
 AtmWgt=  12.0000000  30.9737634   1.0078250
 NucSpn=           0           1           1
 AtZEff=  -0.0000000  -0.0000000  -0.0000000
 NQMom=    0.0000000   0.0000000   0.0000000
 NMagM=    0.0000000   1.1316000   2.7928460
 AtZNuc=   6.0000000  15.0000000   1.0000000
 Leave Link  101 at Mon Apr 21 19:22:50 2025, MaxMem=   536870912 cpu:               3.0 elap:               0.4
 (Enter /home/szhao/Apps/g16/l103.exe)

 GradGradGradGradGradGradGradGradGradGradGradGradGradGradGradGradGradGrad
 Berny optimization.
 Initialization pass.
                           ----------------------------
                           !    Initial Parameters    !
                           ! (Angstroms and Degrees)  !
 --------------------------                            --------------------------
 ! Name  Definition              Value          Derivative Info.                !
 --------------------------------------------------------------------------------
 ! X1    R(1,-1)                -0.9194         Frozen                          !
 ! Y1    R(1,-2)                 0.0            Frozen                          !
 ! Z1    R(1,-3)                 0.0            Frozen                          !
 ! X2    R(2,-1)                 0.9194         Frozen                          !
 ! Y2    R(2,-2)                 0.0            Frozen                          !
 ! Z2    R(2,-3)                 0.0            Frozen                          !
 ! R1    R(1,3)                  1.0848         estimate D2E/DX2                !
 ! A1    L(2,1,3,-2,-1)        180.0            estimate D2E/DX2                !
 ! A2    L(2,1,3,-3,-2)        180.0            estimate D2E/DX2                !
 --------------------------------------------------------------------------------
 Trust Radius=3.00D-01 FncErr=1.00D-07 GrdErr=1.00D-07 EigMax=2.50D+02 EigMin=1.00D-04
 Number of steps in this run=     20 maximum allowed number of steps=    100.
 GradGradGradGradGradGradGradGradGradGradGradGradGradGradGradGradGradGrad

 Leave Link  103 at Mon Apr 21 19:22:50 2025, MaxMem=   536870912 cpu:               0.2 elap:               0.1
 (Enter /home/szhao/Apps/g16/l202.exe)
                          Input orientation:                          
 ---------------------------------------------------------------------
 Center     Atomic      Atomic             Coordinates (Angstroms)
 Number     Number       Type             X           Y           Z
 ---------------------------------------------------------------------
      1          6           0       -0.919427    0.000000    0.000000
      2         15           0        0.919427    0.000000    0.000000
      3          1           0       -2.004184    0.000000    0.000000
 ---------------------------------------------------------------------
                    Distance matrix (angstroms):
                    1          2          3
     1  C    0.000000
     2  P    1.838854   0.000000
     3  H    1.084757   2.923611   0.000000
 Symmetry turned off by external request.
 Stoichiometry    CHP(1+,2)
 Framework group  C*V[C*(HCP)]
 Deg. of freedom     2
 Full point group                 C*V     NOp   4
 Rotational constants (GHZ):           0.0000000          14.4534327          14.4534327
 Leave Link  202 at Mon Apr 21 19:22:50 2025, MaxMem=   536870912 cpu:               0.0 elap:               0.0
 (Enter /home/szhao/Apps/g16/l301.exe)
 Standard basis: 6-311+G(d,p) (5D, 7F)
 Ernie: Thresh=  0.10000D-02 Tol=  0.10000D-05 Strict=F.
    58 basis functions,    94 primitive gaussians,    60 cartesian basis functions
    11 alpha electrons       10 beta electrons
       nuclear repulsion energy        31.5417986946 Hartrees.
 IExCor= 4336 DFT=T Ex+Corr=M062X ExCW=0 ScaHFX=  0.540000
 ScaDFX=  1.000000  1.000000  1.000000  1.000000 ScalE2=  1.000000  1.000000
 IRadAn=      7 IRanWt=     -1 IRanGd=            0 ICorTp=0 IEmpDi=  4
 NAtoms=    3 NActive=    3 NUniq=    3 SFac= 1.00D+00 NAtFMM=   60 NAOKFM=F Big=F
 Integral buffers will be    131072 words long.
 Raffenetti 2 integral format.
 Two-electron integral symmetry is turned off.
 Leave Link  301 at Mon Apr 21 19:22:50 2025, MaxMem=   536870912 cpu:               0.6 elap:               0.1
 (Enter /home/szhao/Apps/g16/l302.exe)
 NPDir=0 NMtPBC=     1 NCelOv=     1 NCel=       1 NClECP=     1 NCelD=      1
         NCelK=      1 NCelE2=     1 NClLst=     1 CellRange=     0.0.
 One-electron integrals computed using PRISM.
 NBasis=    58 RedAO= T EigKep=  2.36D-03  NBF=    58
 NBsUse=    58 1.00D-06 EigRej= -1.00D+00 NBFU=    58
 Precomputing XC quadrature grid using
 IXCGrd= 4 IRadAn=           7 IRanWt=          -1 IRanGd=           0 AccXCQ= 0.00D+00.
 Generated NRdTot=       0 NPtTot=           0 NUsed=           0 NTot=          32
 NSgBfM=    60    60    60    60    60 MxSgAt=     3 MxSgA2=     3.
 Leave Link  302 at Mon Apr 21 19:22:51 2025, MaxMem=   536870912 cpu:               1.3 elap:               0.2
 (Enter /home/szhao/Apps/g16/l303.exe)
 DipDrv:  MaxL=1.
 Leave Link  303 at Mon Apr 21 19:22:51 2025, MaxMem=   536870912 cpu:               0.5 elap:               0.1
 (Enter /home/szhao/Apps/g16/l401.exe)
 ExpMin= 3.48D-02 ExpMax= 7.75D+04 ExpMxC= 2.65D+03 IAcc=3 IRadAn=         7 AccDes= 0.00D+00
 Harris functional with IExCor= 1009 and IRadAn=       7 diagonalized for initial guess.
 HarFok:  IExCor= 1009 AccDes= 0.00D+00 IRadAn=         7 IDoV= 1 UseB2=F ITyADJ=14
 ICtDFT=  3500011 ScaDFX=  1.000000  1.000000  1.000000  1.000000
 FoFCou: FMM=F IPFlag=           0 FMFlag=      100000 FMFlg1=           0
         NFxFlg=           0 DoJE=T BraDBF=F KetDBF=T FulRan=T
         wScrn=  0.000000 ICntrl=       500 IOpCl=  0 I1Cent=   200000004 NGrid=           0
         NMat0=    1 NMatS0=      1 NMatT0=    0 NMatD0=    1 NMtDS0=    0 NMtDT0=    0
 Symmetry not used in FoFCou.
 Harris En= -379.478392929994    
 JPrj=0 DoOrth=F DoCkMO=F.
 Initial guess <Sx>= 0.0000 <Sy>= 0.0000 <Sz>= 0.5000 <S**2>= 0.7500 S= 0.5000
 Leave Link  401 at Mon Apr 21 19:22:51 2025, MaxMem=   536870912 cpu:               2.6 elap:               0.4
 (Enter /home/szhao/Apps/g16/l502.exe)
 Keep R1 and R2 ints in memory in canonical form, NReq=10036953.
 FoFCou: FMM=F IPFlag=           0 FMFlag=           0 FMFlg1=           0
         NFxFlg=           0 DoJE=F BraDBF=F KetDBF=F FulRan=T
         wScrn=  0.000000 ICntrl=       600 IOpCl=  0 I1Cent=           0 NGrid=           0
         NMat0=    1 NMatS0=   1711 NMatT0=    0 NMatD0=    1 NMtDS0=    0 NMtDT0=    0
 Symmetry not used in FoFCou.
 Two-electron integral symmetry not used.
 UHF open shell SCF:
 Using DIIS extrapolation, IDIIS=  1040.
 NGot=   536870912 LenX=   533933447 LenY=   533929406
 Requested convergence on RMS density matrix=1.00D-08 within 128 cycles.
 Requested convergence on MAX density matrix=1.00D-06.
 Requested convergence on             energy=1.00D-06.
 No special actions if energy rises.

 Cycle   1  Pass 1  IDiag  1:
 E= -379.432750571116    
 DIIS: error= 4.42D-02 at cycle   1 NSaved=   1.
 NSaved= 1 IEnMin= 1 EnMin= -379.432750571116     IErMin= 1 ErrMin= 4.42D-02
 ErrMax= 4.42D-02  0.00D+00 EMaxC= 1.00D-01 BMatC= 4.30D-01 BMatP= 4.30D-01
 IDIUse=3 WtCom= 5.58D-01 WtEn= 4.42D-01
 Coeff-Com:  0.100D+01
 Coeff-En:   0.100D+01
 Coeff:      0.100D+01
 Gap=     0.197 Goal=   None    Shift=    0.000
 Gap=     0.181 Goal=   None    Shift=    0.000
 GapD=    0.181 DampG=1.000 DampE=0.500 DampFc=0.5000 IDamp=-1.
 Damping current iteration by 5.00D-01
 RMSDP=1.15D-02 MaxDP=2.49D-01              OVMax= 4.98D-01

 Cycle   2  Pass 1  IDiag  1:
 E= -379.438924534946     Delta-E=       -0.006173963830 Rises=F Damp=T
 DIIS: error= 1.91D-02 at cycle   2 NSaved=   2.
 NSaved= 2 IEnMin= 2 EnMin= -379.438924534946     IErMin= 2 ErrMin= 1.91D-02
 ErrMax= 1.91D-02  0.00D+00 EMaxC= 1.00D-01 BMatC= 1.01D-01 BMatP= 4.30D-01
 IDIUse=3 WtCom= 8.09D-01 WtEn= 1.91D-01
 Coeff-Com:  0.268D+00 0.732D+00
 Coeff-En:   0.480D+00 0.520D+00
 Coeff:      0.308D+00 0.692D+00
 Gap=     0.184 Goal=   None    Shift=    0.000
 Gap=     0.163 Goal=   None    Shift=    0.000
 RMSDP=3.13D-03 MaxDP=4.84D-02 DE=-6.17D-03 OVMax= 3.50D-01

 Cycle   3  Pass 1  IDiag  1:
 E= -379.539327186451     Delta-E=       -0.100402651505 Rises=F Damp=F
 DIIS: error= 7.41D-03 at cycle   3 NSaved=   3.
 NSaved= 3 IEnMin= 3 EnMin= -379.539327186451     IErMin= 3 ErrMin= 7.41D-03
 ErrMax= 7.41D-03  0.00D+00 EMaxC= 1.00D-01 BMatC= 1.11D-02 BMatP= 1.01D-01
 IDIUse=3 WtCom= 9.26D-01 WtEn= 7.41D-02
 Coeff-Com:  0.372D-02 0.222D+00 0.775D+00
 Coeff-En:   0.000D+00 0.000D+00 0.100D+01
 Coeff:      0.345D-02 0.205D+00 0.791D+00
 Gap=     0.239 Goal=   None    Shift=    0.000
 Gap=     0.163 Goal=   None    Shift=    0.000
 RMSDP=9.54D-04 MaxDP=1.61D-02 DE=-1.00D-01 OVMax= 4.67D-02

 Cycle   4  Pass 1  IDiag  1:
 E= -379.542356200974     Delta-E=       -0.003029014523 Rises=F Damp=F
 DIIS: error= 2.56D-03 at cycle   4 NSaved=   4.
 NSaved= 4 IEnMin= 4 EnMin= -379.542356200974     IErMin= 4 ErrMin= 2.56D-03
 ErrMax= 2.56D-03  0.00D+00 EMaxC= 1.00D-01 BMatC= 1.52D-03 BMatP= 1.11D-02
 IDIUse=3 WtCom= 9.74D-01 WtEn= 2.56D-02
 Coeff-Com:  0.690D-02-0.403D-01 0.182D+00 0.852D+00
 Coeff-En:   0.000D+00 0.000D+00 0.851D-01 0.915D+00
 Coeff:      0.672D-02-0.393D-01 0.179D+00 0.853D+00
 Gap=     0.245 Goal=   None    Shift=    0.000
 Gap=     0.165 Goal=   None    Shift=    0.000
 RMSDP=2.39D-04 MaxDP=5.70D-03 DE=-3.03D-03 OVMax= 1.03D-02

 Cycle   5  Pass 1  IDiag  1:
 E= -379.542833374367     Delta-E=       -0.000477173393 Rises=F Damp=F
 DIIS: error= 7.04D-04 at cycle   5 NSaved=   5.
 NSaved= 5 IEnMin= 5 EnMin= -379.542833374367     IErMin= 5 ErrMin= 7.04D-04
 ErrMax= 7.04D-04  0.00D+00 EMaxC= 1.00D-01 BMatC= 5.98D-05 BMatP= 1.52D-03
 IDIUse=3 WtCom= 9.93D-01 WtEn= 7.04D-03
 Coeff-Com:  0.479D-02-0.117D-01-0.235D-01-0.879D-01 0.112D+01
 Coeff-En:   0.000D+00 0.000D+00 0.000D+00 0.000D+00 0.100D+01
 Coeff:      0.475D-02-0.116D-01-0.234D-01-0.873D-01 0.112D+01
 Gap=     0.245 Goal=   None    Shift=    0.000
 Gap=     0.165 Goal=   None    Shift=    0.000
 RMSDP=1.31D-04 MaxDP=1.92D-03 DE=-4.77D-04 OVMax= 7.67D-03

 Cycle   6  Pass 1  IDiag  1:
 E= -379.542897604144     Delta-E=       -0.000064229778 Rises=F Damp=F
 DIIS: error= 4.37D-04 at cycle   6 NSaved=   6.
 NSaved= 6 IEnMin= 6 EnMin= -379.542897604144     IErMin= 6 ErrMin= 4.37D-04
 ErrMax= 4.37D-04  0.00D+00 EMaxC= 1.00D-01 BMatC= 1.45D-05 BMatP= 5.98D-05
 IDIUse=3 WtCom= 9.96D-01 WtEn= 4.37D-03
 Coeff-Com:  0.528D-03 0.162D-03-0.942D-02-0.539D-01 0.543D-03 0.106D+01
 Coeff-En:   0.000D+00 0.000D+00 0.000D+00 0.000D+00 0.000D+00 0.100D+01
 Coeff:      0.525D-03 0.161D-03-0.938D-02-0.537D-01 0.541D-03 0.106D+01
 Gap=     0.245 Goal=   None    Shift=    0.000
 Gap=     0.165 Goal=   None    Shift=    0.000
 RMSDP=1.01D-04 MaxDP=1.79D-03 DE=-6.42D-05 OVMax= 7.44D-03

 Cycle   7  Pass 1  IDiag  1:
 E= -379.542941659994     Delta-E=       -0.000044055850 Rises=F Damp=F
 DIIS: error= 4.87D-04 at cycle   7 NSaved=   7.
 NSaved= 7 IEnMin= 7 EnMin= -379.542941659994     IErMin= 6 ErrMin= 4.37D-04
 ErrMax= 4.87D-04  0.00D+00 EMaxC= 1.00D-01 BMatC= 1.15D-05 BMatP= 1.45D-05
 IDIUse=3 WtCom= 9.96D-01 WtEn= 4.37D-03
 Coeff-Com: -0.178D-02 0.292D-02 0.151D-01 0.729D-01-0.247D+00-0.982D+00
 Coeff-Com:  0.214D+01
 Coeff-En:   0.000D+00 0.000D+00 0.000D+00 0.000D+00 0.000D+00 0.000D+00
 Coeff-En:   0.100D+01
 Coeff:     -0.177D-02 0.290D-02 0.150D-01 0.726D-01-0.246D+00-0.978D+00
 Coeff:      0.214D+01
 Gap=     0.245 Goal=   None    Shift=    0.000
 Gap=     0.165 Goal=   None    Shift=    0.000
 RMSDP=2.00D-04 MaxDP=3.52D-03 DE=-4.41D-05 OVMax= 1.50D-02

 Cycle   8  Pass 1  IDiag  1:
 E= -379.543023056464     Delta-E=       -0.000081396470 Rises=F Damp=F
 DIIS: error= 4.65D-04 at cycle   8 NSaved=   8.
 NSaved= 8 IEnMin= 8 EnMin= -379.543023056464     IErMin= 6 ErrMin= 4.37D-04
 ErrMax= 4.65D-04  0.00D+00 EMaxC= 1.00D-01 BMatC= 1.00D-05 BMatP= 1.15D-05
 IDIUse=3 WtCom= 9.96D-01 WtEn= 4.37D-03
 Coeff-Com:  0.109D-04-0.249D-02-0.107D-01-0.820D-02 0.327D+00 0.783D+00
 Coeff-Com: -0.675D+01 0.666D+01
 Coeff-En:   0.000D+00 0.000D+00 0.000D+00 0.000D+00 0.000D+00 0.000D+00
 Coeff-En:   0.000D+00 0.100D+01
 Coeff:      0.109D-04-0.248D-02-0.106D-01-0.816D-02 0.325D+00 0.779D+00
 Coeff:     -0.672D+01 0.663D+01
 Gap=     0.246 Goal=   None    Shift=    0.000
 Gap=     0.163 Goal=   None    Shift=    0.000
 RMSDP=1.02D-03 MaxDP=1.80D-02 DE=-8.14D-05 OVMax= 7.55D-02

 Cycle   9  Pass 1  IDiag  1:
 E= -379.543298727055     Delta-E=       -0.000275670591 Rises=F Damp=F
 DIIS: error= 3.06D-04 at cycle   9 NSaved=   9.
 NSaved= 9 IEnMin= 9 EnMin= -379.543298727055     IErMin= 9 ErrMin= 3.06D-04
 ErrMax= 3.06D-04  0.00D+00 EMaxC= 1.00D-01 BMatC= 7.40D-06 BMatP= 1.00D-05
 IDIUse=3 WtCom= 9.97D-01 WtEn= 3.06D-03
 Coeff-Com: -0.171D-02 0.211D-02 0.357D-02 0.249D-01-0.238D+00 0.163D+01
 Coeff-Com: -0.284D+01 0.126D+01 0.116D+01
 Coeff-En:   0.000D+00 0.000D+00 0.000D+00 0.000D+00 0.000D+00 0.000D+00
 Coeff-En:   0.000D+00 0.000D+00 0.100D+01
 Coeff:     -0.170D-02 0.211D-02 0.356D-02 0.248D-01-0.238D+00 0.162D+01
 Coeff:     -0.283D+01 0.126D+01 0.115D+01
 Gap=     0.248 Goal=   None    Shift=    0.000
 Gap=     0.164 Goal=   None    Shift=    0.000
 RMSDP=3.24D-04 MaxDP=5.55D-03 DE=-2.76D-04 OVMax= 2.44D-02

 Cycle  10  Pass 1  IDiag  1:
 E= -379.543324852575     Delta-E=       -0.000026125520 Rises=F Damp=F
 DIIS: error= 9.19D-05 at cycle  10 NSaved=  10.
 NSaved=10 IEnMin=10 EnMin= -379.543324852575     IErMin=10 ErrMin= 9.19D-05
 ErrMax= 9.19D-05  0.00D+00 EMaxC= 1.00D-01 BMatC= 1.26D-06 BMatP= 7.40D-06
 IDIUse=1 WtCom= 1.00D+00 WtEn= 0.00D+00
 Coeff-Com: -0.678D-04 0.890D-04 0.126D-02 0.156D-01-0.314D-01-0.668D+00
 Coeff-Com:  0.138D+01-0.481D+00-0.909D+00 0.169D+01
 Coeff:     -0.678D-04 0.890D-04 0.126D-02 0.156D-01-0.314D-01-0.668D+00
 Coeff:      0.138D+01-0.481D+00-0.909D+00 0.169D+01
 Gap=     0.247 Goal=   None    Shift=    0.000
 Gap=     0.164 Goal=   None    Shift=    0.000
 RMSDP=6.91D-05 MaxDP=1.22D-03 DE=-2.61D-05 OVMax= 4.61D-03

 Cycle  11  Pass 1  IDiag  1:
 E= -379.543323534836     Delta-E=        0.000001317739 Rises=F Damp=F
 DIIS: error= 7.09D-05 at cycle  11 NSaved=  11.
 NSaved=11 IEnMin=10 EnMin= -379.543324852575     IErMin=11 ErrMin= 7.09D-05
 ErrMax= 7.09D-05  0.00D+00 EMaxC= 1.00D-01 BMatC= 5.81D-07 BMatP= 1.26D-06
 IDIUse=1 WtCom= 1.00D+00 WtEn= 0.00D+00
 Coeff-Com:  0.208D-03-0.150D-03-0.146D-02-0.110D-01 0.496D-01-0.105D+00
 Coeff-Com:  0.211D+00-0.234D+00-0.486D-01 0.388D+00 0.751D+00
 Coeff:      0.208D-03-0.150D-03-0.146D-02-0.110D-01 0.496D-01-0.105D+00
 Coeff:      0.211D+00-0.234D+00-0.486D-01 0.388D+00 0.751D+00
 Gap=     0.248 Goal=   None    Shift=    0.000
 Gap=     0.164 Goal=   None    Shift=    0.000
 RMSDP=1.28D-04 MaxDP=2.26D-03 DE= 1.32D-06 OVMax= 9.32D-03

 Cycle  12  Pass 1  IDiag  1:
 E= -379.543325892231     Delta-E=       -0.000002357395 Rises=F Damp=F
 DIIS: error= 2.96D-05 at cycle  12 NSaved=  12.
 NSaved=12 IEnMin=12 EnMin= -379.543325892231     IErMin=12 ErrMin= 2.96D-05
 ErrMax= 2.96D-05  0.00D+00 EMaxC= 1.00D-01 BMatC= 5.31D-08 BMatP= 5.81D-07
 IDIUse=1 WtCom= 1.00D+00 WtEn= 0.00D+00
 Coeff-Com: -0.859D-04 0.833D-04 0.779D-03 0.581D-02-0.251D-01 0.507D-01
 Coeff-Com: -0.376D-01 0.613D-01 0.623D-01-0.467D+00-0.242D+00 0.159D+01
 Coeff:     -0.859D-04 0.833D-04 0.779D-03 0.581D-02-0.251D-01 0.507D-01
 Coeff:     -0.376D-01 0.613D-01 0.623D-01-0.467D+00-0.242D+00 0.159D+01
 Gap=     0.248 Goal=   None    Shift=    0.000
 Gap=     0.164 Goal=   None    Shift=    0.000
 RMSDP=4.25D-05 MaxDP=7.14D-04 DE=-2.36D-06 OVMax= 2.95D-03

 Cycle  13  Pass 1  IDiag  1:
 E= -379.543325918526     Delta-E=       -0.000000026295 Rises=F Damp=F
 DIIS: error= 1.91D-05 at cycle  13 NSaved=  13.
 NSaved=13 IEnMin=13 EnMin= -379.543325918526     IErMin=13 ErrMin= 1.91D-05
 ErrMax= 1.91D-05  0.00D+00 EMaxC= 1.00D-01 BMatC= 4.40D-08 BMatP= 5.31D-08
 IDIUse=1 WtCom= 1.00D+00 WtEn= 0.00D+00
 Coeff-Com: -0.142D-04 0.133D-04 0.378D-03 0.204D-02-0.995D-02-0.257D-01
 Coeff-Com:  0.888D-01-0.436D-01-0.275D-01 0.453D-01-0.314D+00 0.103D+00
 Coeff-Com:  0.118D+01
 Coeff:     -0.142D-04 0.133D-04 0.378D-03 0.204D-02-0.995D-02-0.257D-01
 Coeff:      0.888D-01-0.436D-01-0.275D-01 0.453D-01-0.314D+00 0.103D+00
 Coeff:      0.118D+01
 Gap=     0.248 Goal=   None    Shift=    0.000
 Gap=     0.164 Goal=   None    Shift=    0.000
 RMSDP=1.69D-05 MaxDP=3.08D-04 DE=-2.63D-08 OVMax= 1.24D-03

 Cycle  14  Pass 1  IDiag  1:
 E= -379.543326031894     Delta-E=       -0.000000113368 Rises=F Damp=F
 DIIS: error= 4.76D-06 at cycle  14 NSaved=  14.
 NSaved=14 IEnMin=14 EnMin= -379.543326031894     IErMin=14 ErrMin= 4.76D-06
 ErrMax= 4.76D-06  0.00D+00 EMaxC= 1.00D-01 BMatC= 3.45D-09 BMatP= 4.40D-08
 IDIUse=1 WtCom= 1.00D+00 WtEn= 0.00D+00
 Coeff-Com:  0.519D-05-0.344D-05-0.760D-04-0.321D-03 0.187D-02-0.173D-02
 Coeff-Com:  0.252D-03-0.282D-02-0.399D-02 0.316D-01-0.772D-02-0.464D-01
 Coeff-Com: -0.250D+00 0.128D+01
 Coeff:      0.519D-05-0.344D-05-0.760D-04-0.321D-03 0.187D-02-0.173D-02
 Coeff:      0.252D-03-0.282D-02-0.399D-02 0.316D-01-0.772D-02-0.464D-01
 Coeff:     -0.250D+00 0.128D+01
 Gap=     0.248 Goal=   None    Shift=    0.000
 Gap=     0.164 Goal=   None    Shift=    0.000
 RMSDP=7.85D-06 MaxDP=1.41D-04 DE=-1.13D-07 OVMax= 5.74D-04

 Cycle  15  Pass 1  IDiag  1:
 E= -379.543326041540     Delta-E=       -0.000000009646 Rises=F Damp=F
 DIIS: error= 9.31D-07 at cycle  15 NSaved=  15.
 NSaved=15 IEnMin=15 EnMin= -379.543326041540     IErMin=15 ErrMin= 9.31D-07
 ErrMax= 9.31D-07  0.00D+00 EMaxC= 1.00D-01 BMatC= 8.98D-11 BMatP= 3.45D-09
 IDIUse=1 WtCom= 1.00D+00 WtEn= 0.00D+00
 Coeff-Com: -0.686D-06 0.255D-06 0.119D-04 0.985D-05-0.291D-03 0.926D-03
 Coeff-Com: -0.135D-02 0.913D-03 0.196D-02-0.991D-02 0.166D-01-0.565D-02
 Coeff-Com:  0.823D-01-0.405D+00 0.132D+01
 Coeff:     -0.686D-06 0.255D-06 0.119D-04 0.985D-05-0.291D-03 0.926D-03
 Coeff:     -0.135D-02 0.913D-03 0.196D-02-0.991D-02 0.166D-01-0.565D-02
 Coeff:      0.823D-01-0.405D+00 0.132D+01
 Gap=     0.248 Goal=   None    Shift=    0.000
 Gap=     0.164 Goal=   None    Shift=    0.000
 RMSDP=1.26D-06 MaxDP=2.22D-05 DE=-9.65D-09 OVMax= 9.04D-05

 Cycle  16  Pass 1  IDiag  1:
 E= -379.543326041805     Delta-E=       -0.000000000265 Rises=F Damp=F
 DIIS: error= 1.12D-07 at cycle  16 NSaved=  16.
 NSaved=16 IEnMin=16 EnMin= -379.543326041805     IErMin=16 ErrMin= 1.12D-07
 ErrMax= 1.12D-07  0.00D+00 EMaxC= 1.00D-01 BMatC= 1.80D-12 BMatP= 8.98D-11
 IDIUse=1 WtCom= 1.00D+00 WtEn= 0.00D+00
 Coeff-Com:  0.107D-06-0.505D-06 0.240D-05 0.300D-04-0.300D-04-0.402D-03
 Coeff-Com:  0.800D-03-0.155D-03-0.529D-03 0.554D-03-0.346D-02 0.687D-02
 Coeff-Com: -0.186D-01 0.415D-01-0.324D+00 0.130D+01
 Coeff:      0.107D-06-0.505D-06 0.240D-05 0.300D-04-0.300D-04-0.402D-03
 Coeff:      0.800D-03-0.155D-03-0.529D-03 0.554D-03-0.346D-02 0.687D-02
 Coeff:     -0.186D-01 0.415D-01-0.324D+00 0.130D+01
 Gap=     0.248 Goal=   None    Shift=    0.000
 Gap=     0.164 Goal=   None    Shift=    0.000
 RMSDP=5.60D-08 MaxDP=9.62D-07 DE=-2.65D-10 OVMax= 3.99D-06

 Cycle  17  Pass 1  IDiag  1:
 E= -379.543326041808     Delta-E=       -0.000000000003 Rises=F Damp=F
 DIIS: error= 7.77D-08 at cycle  17 NSaved=  17.
 NSaved=17 IEnMin=17 EnMin= -379.543326041808     IErMin=17 ErrMin= 7.77D-08
 ErrMax= 7.77D-08  0.00D+00 EMaxC= 1.00D-01 BMatC= 6.64D-13 BMatP= 1.80D-12
 IDIUse=1 WtCom= 1.00D+00 WtEn= 0.00D+00
 Coeff-Com: -0.276D-07 0.975D-07-0.323D-07 0.121D-06-0.677D-05 0.424D-04
 Coeff-Com: -0.361D-04-0.340D-04 0.252D-04 0.271D-03-0.112D-02 0.100D-02
 Coeff-Com: -0.340D-02 0.132D-01-0.467D-01-0.113D+00 0.115D+01
 Coeff:     -0.276D-07 0.975D-07-0.323D-07 0.121D-06-0.677D-05 0.424D-04
 Coeff:     -0.361D-04-0.340D-04 0.252D-04 0.271D-03-0.112D-02 0.100D-02
 Coeff:     -0.340D-02 0.132D-01-0.467D-01-0.113D+00 0.115D+01
 Gap=     0.248 Goal=   None    Shift=    0.000
 Gap=     0.164 Goal=   None    Shift=    0.000
 RMSDP=1.06D-07 MaxDP=1.89D-06 DE=-2.90D-12 OVMax= 7.69D-06

 Cycle  18  Pass 1  IDiag  1:
 E= -379.543326041810     Delta-E=       -0.000000000002 Rises=F Damp=F
 DIIS: error= 1.26D-08 at cycle  18 NSaved=  18.
 NSaved=18 IEnMin=18 EnMin= -379.543326041810     IErMin=18 ErrMin= 1.26D-08
 ErrMax= 1.26D-08  0.00D+00 EMaxC= 1.00D-01 BMatC= 1.93D-14 BMatP= 6.64D-13
 IDIUse=1 WtCom= 1.00D+00 WtEn= 0.00D+00
 Large coefficients: NSaved= 18 BigCof=    0.00 CofMax=   10.00 Det=-1.20D-15
 Inversion failed.  Reducing to 17 matrices.
 Large coefficients: NSaved= 17 BigCof=    0.00 CofMax=   10.00 Det=-1.21D-15
 Inversion failed.  Reducing to 16 matrices.
 Large coefficients: NSaved= 16 BigCof=    0.00 CofMax=   10.00 Det=-1.24D-15
 Inversion failed.  Reducing to 15 matrices.
 Coeff-Com: -0.880D-07 0.348D-05-0.204D-04 0.285D-04-0.648D-05-0.212D-04
 Coeff-Com:  0.800D-05 0.175D-03-0.409D-03 0.144D-02-0.267D-02 0.649D-02
 Coeff-Com:  0.236D-01-0.225D+00 0.120D+01
 Coeff:     -0.880D-07 0.348D-05-0.204D-04 0.285D-04-0.648D-05-0.212D-04
 Coeff:      0.800D-05 0.175D-03-0.409D-03 0.144D-02-0.267D-02 0.649D-02
 Coeff:      0.236D-01-0.225D+00 0.120D+01
 Gap=     0.248 Goal=   None    Shift=    0.000
 Gap=     0.164 Goal=   None    Shift=    0.000
 RMSDP=1.57D-08 MaxDP=2.83D-07 DE=-2.05D-12 OVMax= 1.13D-06

 Cycle  19  Pass 1  IDiag  1:
 E= -379.543326041809     Delta-E=        0.000000000000 Rises=F Damp=F
 DIIS: error= 2.28D-09 at cycle  19 NSaved=  16.
 NSaved=16 IEnMin=15 EnMin= -379.543326041810     IErMin=16 ErrMin= 2.28D-09
 ErrMax= 2.28D-09  0.00D+00 EMaxC= 1.00D-01 BMatC= 6.41D-16 BMatP= 1.93D-14
 IDIUse=1 WtCom= 1.00D+00 WtEn= 0.00D+00
 Large coefficients: NSaved= 16 BigCof=    0.00 CofMax=   10.00 Det=-7.53D-17
 Inversion failed.  Reducing to 15 matrices.
 Coeff-Com: -0.105D-05 0.148D-05-0.215D-05 0.172D-05 0.185D-05-0.392D-05
 Coeff-Com: -0.154D-07 0.193D-04-0.788D-04-0.623D-05 0.865D-03-0.294D-02
 Coeff-Com: -0.415D-02-0.899D-01 0.110D+01
 Coeff:     -0.105D-05 0.148D-05-0.215D-05 0.172D-05 0.185D-05-0.392D-05
 Coeff:     -0.154D-07 0.193D-04-0.788D-04-0.623D-05 0.865D-03-0.294D-02
 Coeff:     -0.415D-02-0.899D-01 0.110D+01
 Gap=     0.248 Goal=   None    Shift=    0.000
 Gap=     0.164 Goal=   None    Shift=    0.000
 RMSDP=2.51D-09 MaxDP=4.93D-08 DE= 2.84D-13 OVMax= 1.82D-07

 SCF Done:  E(UM062X) =  -379.543326042     A.U. after   19 cycles
            NFock= 19  Conv=0.25D-08     -V/T= 2.0025
 <Sx>= 0.0000 <Sy>= 0.0000 <Sz>= 0.5000 <S**2>= 0.8229 S= 0.5358
 <L.S>=  0.00000000000    
 KE= 3.785810739155D+02 PE=-9.575758969133D+02 EE= 1.679096982614D+02
 Annihilation of the first spin contaminant:
 S**2 before annihilation     0.8229,   after     0.7505
 Leave Link  502 at Mon Apr 21 19:22:58 2025, MaxMem=   536870912 cpu:              51.8 elap:               6.8
 (Enter /home/szhao/Apps/g16/l601.exe)
 Copying SCF densities to generalized density rwf, IOpCl= 1 IROHF=0.

 **********************************************************************

            Population analysis using the SCF density.

 **********************************************************************

 Alpha  occ. eigenvalues --  -78.39776 -10.93407  -7.21208  -5.33186  -5.32354
 Alpha  occ. eigenvalues --   -5.32034  -1.07440  -0.91403  -0.71494  -0.61752
 Alpha  occ. eigenvalues --   -0.59920
 Alpha virt. eigenvalues --   -0.35126  -0.33224  -0.20621  -0.14431  -0.10273
 Alpha virt. eigenvalues --   -0.10133  -0.09744  -0.08938  -0.05207  -0.04951
 Alpha virt. eigenvalues --   -0.00122   0.04895   0.13217   0.13300   0.13347
 Alpha virt. eigenvalues --    0.27744   0.31370   0.32860   0.37274   0.40745
 Alpha virt. eigenvalues --    0.40876   0.43050   0.44540   0.47911   0.59099
 Alpha virt. eigenvalues --    0.69908   0.95535   0.96725   1.04710   1.04771
 Alpha virt. eigenvalues --    1.26111   1.29806   1.41862   1.51617   1.65373
 Alpha virt. eigenvalues --    1.66526   2.35702   2.40918   2.44155   2.45861
 Alpha virt. eigenvalues --    3.05515   6.58150  13.64019  13.65858  13.77840
 Alpha virt. eigenvalues --   23.33460 162.81706
  Beta  occ. eigenvalues --  -78.39690 -10.92908  -7.21220  -5.32583  -5.32431
  Beta  occ. eigenvalues --   -5.32352  -1.03062  -0.89960  -0.70435  -0.57713
  Beta virt. eigenvalues --   -0.41299  -0.31105  -0.28083  -0.19247  -0.15323
  Beta virt. eigenvalues --   -0.10445  -0.09874  -0.09829  -0.08944  -0.05078
  Beta virt. eigenvalues --   -0.04987  -0.01099   0.05565   0.11018   0.13073
  Beta virt. eigenvalues --    0.13722   0.28460   0.33018   0.33921   0.37077
  Beta virt. eigenvalues --    0.41936   0.43419   0.43860   0.44969   0.47578
  Beta virt. eigenvalues --    0.60608   0.71041   0.99957   1.00698   1.09288
  Beta virt. eigenvalues --    1.10773   1.28745   1.29687   1.41932   1.53107
  Beta virt. eigenvalues --    1.68031   1.68970   2.38998   2.49245   2.49296
  Beta virt. eigenvalues --    2.49463   3.12049   6.58557  13.64808  13.66466
  Beta virt. eigenvalues --   13.78046  23.34894 162.81840
          Condensed to atoms (all electrons):
               1          2          3
     1  C    5.349605   0.283028   0.352535
     2  P    0.283028  14.044858  -0.002220
     3  H    0.352535  -0.002220   0.338852
          Atomic-Atomic Spin Densities.
               1          2          3
     1  C    0.804212   0.071280  -0.009292
     2  P    0.071280   0.093578   0.000214
     3  H   -0.009292   0.000214  -0.022194
 Mulliken charges and spin densities:
               1          2
     1  C    0.014832   0.866200
     2  P    0.674334   0.165072
     3  H    0.310833  -0.031272
 Sum of Mulliken charges =   1.00000   1.00000
 Mulliken charges and spin densities with hydrogens summed into heavy atoms:
               1          2
     1  C    0.325666   0.834928
     2  P    0.674334   0.165072
 Electronic spatial extent (au):  <R**2>=            106.8934
 Charge=              1.0000 electrons
 Dipole moment (field-independent basis, Debye):
    X=              0.3319    Y=             -0.0000    Z=             -0.0000  Tot=              0.3319
 Quadrupole moment (field-independent basis, Debye-Ang):
   XX=             -6.4640   YY=            -16.3921   ZZ=            -16.3581
   XY=             -0.0000   XZ=             -0.0000   YZ=             -1.3583
 Traceless Quadrupole moment (field-independent basis, Debye-Ang):
   XX=              6.6074   YY=             -3.3207   ZZ=             -3.2867
   XY=             -0.0000   XZ=             -0.0000   YZ=             -1.3583
 Octapole moment (field-independent basis, Debye-Ang**2):
  XXX=            -19.8520  YYY=             -0.0000  ZZZ=             -0.0000  XYY=             -3.0631
  XXY=             -0.0000  XXZ=             -0.0000  XZZ=             -3.0539  YZZ=             -0.0000
  YYZ=             -0.0000  XYZ=             -0.3685
 Hexadecapole moment (field-independent basis, Debye-Ang**3):
 XXXX=            -77.1764 YYYY=            -20.1255 ZZZZ=            -20.0443 XXXY=             -0.0000
 XXXZ=             -0.0000 YYYX=             -0.0000 YYYZ=             -1.6235 ZZZX=             -0.0000
 ZZZY=             -1.6234 XXYY=            -21.2523 XXZZ=            -21.2171 YYZZ=             -6.6951
 XXYZ=             -1.4102 YYXZ=             -0.0000 ZZXY=             -0.0000
 N-N= 3.154179869461D+01 E-N=-9.575758969188D+02  KE= 3.785810739155D+02
                          Isotropic Fermi Contact Couplings
        Atom                 a.u.       MegaHertz       Gauss      10(-4) cm-1
     1  C(13)              0.13891     156.15765      55.72093      52.08859
     2  P(31)              0.00572      10.35161       3.69371       3.45292
     3  H(1)              -0.01163     -51.97352     -18.54545     -17.33650
 --------------------------------------------------------
       Center         ----  Spin Dipole Couplings  ----
                      3XX-RR        3YY-RR        3ZZ-RR
 --------------------------------------------------------
     1   Atom       -0.468473      0.231434      0.237039
     2   Atom       -0.370159      0.162263      0.207897
     3   Atom        0.068470     -0.034337     -0.034133
 --------------------------------------------------------
                        XY            XZ            YZ
 --------------------------------------------------------
     1   Atom       -0.000000     -0.000000     -0.224118
     2   Atom       -0.000000     -0.000000     -1.824525
     3   Atom        0.000000      0.000000     -0.008179
 --------------------------------------------------------


 ---------------------------------------------------------------------------------
              Anisotropic Spin Dipole Couplings in Principal Axis System
 ---------------------------------------------------------------------------------

       Atom             a.u.   MegaHertz   Gauss  10(-4) cm-1        Axes

              Baa    -0.4685   -62.865   -22.432   -20.969  1.0000  0.0000  0.0000
     1 C(13)  Bbb     0.0101     1.355     0.484     0.452 -0.0000  0.7115  0.7027
              Bcc     0.4584    61.509    21.948    20.517  0.0000 -0.7027  0.7115
 
              Baa    -1.6396  -354.452  -126.477  -118.233  0.0000  0.7115  0.7027
     2 P(31)  Bbb    -0.3702   -80.022   -28.554   -26.693  1.0000 -0.0000 -0.0000
              Bcc     2.0097   434.475   155.031   144.925  0.0000 -0.7027  0.7115
 
              Baa    -0.0424   -22.631    -8.075    -7.549 -0.0000  0.7115  0.7027
     3 H(1)   Bbb    -0.0261   -13.902    -4.961    -4.637  0.0000 -0.7027  0.7115
              Bcc     0.0685    36.532    13.036    12.186  1.0000  0.0000  0.0000
 

 ---------------------------------------------------------------------------------

 No NMR shielding tensors so no spin-rotation constants.
 Leave Link  601 at Mon Apr 21 19:22:59 2025, MaxMem=   536870912 cpu:               1.9 elap:               0.3
 (Enter /home/szhao/Apps/g16/l701.exe)
 ... and contract with generalized density number  0.
 Compute integral first derivatives.
 Leave Link  701 at Mon Apr 21 19:22:59 2025, MaxMem=   536870912 cpu:               1.5 elap:               0.3
 (Enter /home/szhao/Apps/g16/l702.exe)
 L702 exits ... SP integral derivatives will be done elsewhere.
 Leave Link  702 at Mon Apr 21 19:22:59 2025, MaxMem=   536870912 cpu:               0.7 elap:               0.2
 (Enter /home/szhao/Apps/g16/l703.exe)
 Integral derivatives from FoFJK, PRISM(SPDF).
 Compute integral first derivatives, UseDBF=F ICtDFT=           0.
 Calling FoFJK, ICntrl=      2127 FMM=F ISym2X=0 I1Cent= 0 IOpClX= 1 NMat=1 NMatS=1 NMatT=0.
 FoFJK:  IHMeth= 1 ICntrl=    2127 DoSepK=F KAlg= 0 I1Cent=           0 FoldK=F
 IRaf=         0 NMat=       1 IRICut=       1 DoRegI=T DoRafI=F ISym2E= 0 IDoP0=0 IntGTp=1.
 FoFCou: FMM=F IPFlag=           0 FMFlag=      100000 FMFlg1=         800
         NFxFlg=           0 DoJE=F BraDBF=F KetDBF=F FulRan=T
         wScrn=  0.000000 ICntrl=      2127 IOpCl=  1 I1Cent=           0 NGrid=           0
         NMat0=    1 NMatS0=      1 NMatT0=    0 NMatD0=    1 NMtDS0=    0 NMtDT0=    0
 Symmetry not used in FoFCou.
 Leave Link  703 at Mon Apr 21 19:23:00 2025, MaxMem=   536870912 cpu:               5.8 elap:               0.8
 (Enter /home/szhao/Apps/g16/l716.exe)
 Dipole        = 1.30589174D-01-3.53106569D-13-5.44061257D-13
 -------------------------------------------------------------------
 Center     Atomic                   Forces (Hartrees/Bohr)
 Number     Number              X              Y              Z
 -------------------------------------------------------------------
      1        6          -0.000000000   -0.000000000   -0.000000000
      2       15          -0.000000000   -0.000000000   -0.000000000
      3        1          -0.004858986    0.000000000    0.000000000
 -------------------------------------------------------------------
 Cartesian Forces:  Max     0.004858986 RMS     0.001619662
 Leave Link  716 at Mon Apr 21 19:23:01 2025, MaxMem=   536870912 cpu:               0.4 elap:               0.1
 (Enter /home/szhao/Apps/g16/l103.exe)

 GradGradGradGradGradGradGradGradGradGradGradGradGradGradGradGradGradGrad
 Berny optimization.
 FormGI is forming the generalized inverse of G from B-inverse, IUseBI=4.
 Internal  Forces:  Max     0.004858986 RMS     0.002290548
 Search for a local minimum.
 Step number   1 out of a maximum of   20
 All quantities printed in internal units (Hartrees-Bohrs-Radians)
 RMS Force = .28053D-02 SwitMx=.10000D-02 MixMth= 1
 Mixed Optimization -- RFO/linear search
 Second derivative matrix not updated -- first step.
 The second derivative matrix:
                          X1        Y1        Z1        X2        Y2
           X1           0.50000
           Y1           0.00000   0.50000
           Z1           0.00000   0.00000   0.50000
           X2           0.00000   0.00000   0.00000   0.50000
           Y2           0.00000   0.00000   0.00000   0.00000   0.50000
           Z2           0.00000   0.00000   0.00000   0.00000   0.00000
           R1           0.00000   0.00000   0.00000   0.00000   0.00000
           A1           0.00000   0.00000   0.00000   0.00000   0.00000
           A2           0.00000   0.00000   0.00000   0.00000   0.00000
                          Z2        R1        A1        A2
           Z2           0.50000
           R1           0.00000   0.35426
           A1           0.00000   0.00000   0.00304
           A2           0.00000   0.00000   0.00000   0.00304
 ITU=  0
     Eigenvalues ---    0.00304   0.354261000.000001000.000001000.00000
     Eigenvalues --- 1000.000001000.000001000.000001000.00000
 RFO step:  Lambda=-6.66334084D-05 EMin= 3.04184962D-03
 Linear search not attempted -- first point.
 Iteration  1 RMS(Cart)=  0.00457115 RMS(Int)=  0.00000000
 Iteration  2 RMS(Cart)=  0.00000000 RMS(Int)=  0.00000001
 ITry= 1 IFail=0 DXMaxC= 1.37D-02 DCOld= 1.00D+10 DXMaxT= 3.00D-01 DXLimC= 3.00D+00 Rises=F
 Variable       Old X    -DE/DX   Delta X   Delta X   Delta X     New X
                                 (Linear)    (Quad)   (Total)
    X1       -1.73747  -0.00486   0.00000   0.00000   0.00000  -1.73747
    Y1        0.00000   0.00000   0.00000   0.00000   0.00000   0.00000
    Z1        0.00000  -0.00000   0.00000   0.00000   0.00000   0.00000
    X2        1.73747  -0.00000   0.00000   0.00000   0.00000   1.73747
    Y2        0.00000  -0.00000   0.00000   0.00000   0.00000   0.00000
    Z2        0.00000   0.00000   0.00000   0.00000   0.00000   0.00000
    R1        2.04989   0.00486   0.00000   0.01371   0.01371   2.06361
    A1        3.14159  -0.00000   0.00000   0.00000  -0.00000   3.14159
    A2        3.14159   0.00000   0.00000   0.00000   0.00000   3.14159
         Item               Value     Threshold  Converged?
 Maximum Force            0.004859     0.000450     NO 
 RMS     Force            0.002805     0.000300     NO 
 Maximum Displacement     0.013713     0.001800     NO 
 RMS     Displacement     0.004571     0.001200     NO 
 Predicted change in Energy=-3.332297D-05
 Lowest energy point so far.  Saving SCF results.
 GradGradGradGradGradGradGradGradGradGradGradGradGradGradGradGradGradGrad

 Leave Link  103 at Mon Apr 21 19:23:01 2025, MaxMem=   536870912 cpu:               0.6 elap:               0.1
 (Enter /home/szhao/Apps/g16/l202.exe)
                          Input orientation:                          
 ---------------------------------------------------------------------
 Center     Atomic      Atomic             Coordinates (Angstroms)
 Number     Number       Type             X           Y           Z
 ---------------------------------------------------------------------
      1          6           0       -0.919427    0.000000    0.000000
      2         15           0        0.919427    0.000000    0.000000
      3          1           0       -2.011441    0.000000    0.000000
 ---------------------------------------------------------------------
                    Distance matrix (angstroms):
                    1          2          3
     1  C    0.000000
     2  P    1.838854   0.000000
     3  H    1.092014   2.930868   0.000000
 Symmetry turned off by external request.
 Stoichiometry    CHP(1+,2)
 Framework group  C*V[C*(HCP)]
 Deg. of freedom     2
 Full point group                 C*V     NOp   4
 Rotational constants (GHZ):           0.0000000          14.4391869          14.4391869
 Leave Link  202 at Mon Apr 21 19:23:01 2025, MaxMem=   536870912 cpu:               0.1 elap:               0.0
 (Enter /home/szhao/Apps/g16/l301.exe)
 Standard basis: 6-311+G(d,p) (5D, 7F)
 Ernie: Thresh=  0.10000D-02 Tol=  0.10000D-05 Strict=F.
    58 basis functions,    94 primitive gaussians,    60 cartesian basis functions
    11 alpha electrons       10 beta electrons
       nuclear repulsion energy        31.5156254184 Hartrees.
 IExCor= 4336 DFT=T Ex+Corr=M062X ExCW=0 ScaHFX=  0.540000
 ScaDFX=  1.000000  1.000000  1.000000  1.000000 ScalE2=  1.000000  1.000000
 IRadAn=      7 IRanWt=     -1 IRanGd=            0 ICorTp=0 IEmpDi=  4
 NAtoms=    3 NActive=    3 NUniq=    3 SFac= 1.00D+00 NAtFMM=   60 NAOKFM=F Big=F
 Integral buffers will be    131072 words long.
 Raffenetti 2 integral format.
 Two-electron integral symmetry is turned off.
 Leave Link  301 at Mon Apr 21 19:23:01 2025, MaxMem=   536870912 cpu:               0.6 elap:               0.1
 (Enter /home/szhao/Apps/g16/l302.exe)
 NPDir=0 NMtPBC=     1 NCelOv=     1 NCel=       1 NClECP=     1 NCelD=      1
         NCelK=      1 NCelE2=     1 NClLst=     1 CellRange=     0.0.
 One-electron integrals computed using PRISM.
 NBasis=    58 RedAO= T EigKep=  2.36D-03  NBF=    58
 NBsUse=    58 1.00D-06 EigRej= -1.00D+00 NBFU=    58
 Precomputing XC quadrature grid using
 IXCGrd= 4 IRadAn=           7 IRanWt=          -1 IRanGd=           0 AccXCQ= 0.00D+00.
 Generated NRdTot=       0 NPtTot=           0 NUsed=           0 NTot=          32
 NSgBfM=    60    60    60    60    60 MxSgAt=     3 MxSgA2=     3.
 Leave Link  302 at Mon Apr 21 19:23:01 2025, MaxMem=   536870912 cpu:               1.8 elap:               0.3
 (Enter /home/szhao/Apps/g16/l303.exe)
 DipDrv:  MaxL=1.
 Leave Link  303 at Mon Apr 21 19:23:02 2025, MaxMem=   536870912 cpu:               0.7 elap:               0.1
 (Enter /home/szhao/Apps/g16/l401.exe)
 Initial guess from the checkpoint file:  "opt.chk"
 B after Tr=    -0.000623    0.000000    0.000000
         Rot=    1.000000    0.000000    0.000000    0.000000 Ang=   0.00 deg.
 Guess basis will be translated and rotated to current coordinates.
 JPrj=2 DoOrth=T DoCkMO=T.
 Initial guess <Sx>= 0.0000 <Sy>= 0.0000 <Sz>= 0.5000 <S**2>= 0.8229 S= 0.5358
 Leave Link  401 at Mon Apr 21 19:23:02 2025, MaxMem=   536870912 cpu:               1.2 elap:               0.2
 (Enter /home/szhao/Apps/g16/l502.exe)
 Keep R1 and R2 ints in memory in canonical form, NReq=10036953.
 FoFCou: FMM=F IPFlag=           0 FMFlag=           0 FMFlg1=           0
         NFxFlg=           0 DoJE=F BraDBF=F KetDBF=F FulRan=T
         wScrn=  0.000000 ICntrl=       600 IOpCl=  0 I1Cent=           0 NGrid=           0
         NMat0=    1 NMatS0=   1711 NMatT0=    0 NMatD0=    1 NMtDS0=    0 NMtDT0=    0
 Symmetry not used in FoFCou.
 Two-electron integral symmetry not used.
 UHF open shell SCF:
 Using DIIS extrapolation, IDIIS=  1040.
 NGot=   536870912 LenX=   533933447 LenY=   533929406
 Requested convergence on RMS density matrix=1.00D-08 within 128 cycles.
 Requested convergence on MAX density matrix=1.00D-06.
 Requested convergence on             energy=1.00D-06.
 No special actions if energy rises.

 Cycle   1  Pass 1  IDiag  1:
 E= -379.543349401872    
 DIIS: error= 4.97D-04 at cycle   1 NSaved=   1.
 NSaved= 1 IEnMin= 1 EnMin= -379.543349401872     IErMin= 1 ErrMin= 4.97D-04
 ErrMax= 4.97D-04  0.00D+00 EMaxC= 1.00D-01 BMatC= 3.78D-05 BMatP= 3.78D-05
 IDIUse=3 WtCom= 9.95D-01 WtEn= 4.97D-03
 Coeff-Com:  0.100D+01
 Coeff-En:   0.100D+01
 Coeff:      0.100D+01
 Gap=     0.545 Goal=   None    Shift=    0.000
 Gap=     0.513 Goal=   None    Shift=    0.000
 RMSDP=4.67D-05 MaxDP=6.01D-04              OVMax= 1.35D-03

 Cycle   2  Pass 1  IDiag  1:
 E= -379.543355046128     Delta-E=       -0.000005644256 Rises=F Damp=F
 DIIS: error= 2.32D-04 at cycle   2 NSaved=   2.
 NSaved= 2 IEnMin= 2 EnMin= -379.543355046128     IErMin= 2 ErrMin= 2.32D-04
 ErrMax= 2.32D-04  0.00D+00 EMaxC= 1.00D-01 BMatC= 9.68D-06 BMatP= 3.78D-05
 IDIUse=3 WtCom= 9.98D-01 WtEn= 2.32D-03
 Coeff-Com:  0.252D+00 0.748D+00
 Coeff-En:   0.000D+00 0.100D+01
 Coeff:      0.252D+00 0.748D+00
 Gap=     0.248 Goal=   None    Shift=    0.000
 Gap=     0.164 Goal=   None    Shift=    0.000
 RMSDP=4.68D-05 MaxDP=9.37D-04 DE=-5.64D-06 OVMax= 2.20D-03

 Cycle   3  Pass 1  IDiag  1:
 E= -379.543352419208     Delta-E=        0.000002626919 Rises=F Damp=F
 DIIS: error= 3.00D-04 at cycle   3 NSaved=   3.
 NSaved= 3 IEnMin= 2 EnMin= -379.543355046128     IErMin= 2 ErrMin= 2.32D-04
 ErrMax= 3.00D-04  0.00D+00 EMaxC= 1.00D-01 BMatC= 1.80D-05 BMatP= 9.68D-06
 IDIUse=3 WtCom= 3.66D-01 WtEn= 6.34D-01
 Coeff-Com:  0.425D-02 0.577D+00 0.419D+00
 Coeff-En:   0.000D+00 0.611D+00 0.389D+00
 Coeff:      0.155D-02 0.599D+00 0.400D+00
 Gap=     0.248 Goal=   None    Shift=    0.000
 Gap=     0.164 Goal=   None    Shift=    0.000
 RMSDP=2.60D-05 MaxDP=5.14D-04 DE= 2.63D-06 OVMax= 1.17D-03

 Cycle   4  Pass 1  IDiag  1:
 E= -379.543358181951     Delta-E=       -0.000005762742 Rises=F Damp=F
 DIIS: error= 2.45D-05 at cycle   4 NSaved=   4.
 NSaved= 4 IEnMin= 4 EnMin= -379.543358181951     IErMin= 4 ErrMin= 2.45D-05
 ErrMax= 2.45D-05  0.00D+00 EMaxC= 1.00D-01 BMatC= 9.81D-08 BMatP= 9.68D-06
 IDIUse=1 WtCom= 1.00D+00 WtEn= 0.00D+00
 Coeff-Com: -0.593D-02 0.622D-01-0.207D-01 0.964D+00
 Coeff:     -0.593D-02 0.622D-01-0.207D-01 0.964D+00
 Gap=     0.248 Goal=   None    Shift=    0.000
 Gap=     0.164 Goal=   None    Shift=    0.000
 RMSDP=2.24D-06 MaxDP=5.66D-05 DE=-5.76D-06 OVMax= 1.19D-04

 Cycle   5  Pass 1  IDiag  1:
 E= -379.543358216196     Delta-E=       -0.000000034245 Rises=F Damp=F
 DIIS: error= 2.44D-06 at cycle   5 NSaved=   5.
 NSaved= 5 IEnMin= 5 EnMin= -379.543358216196     IErMin= 5 ErrMin= 2.44D-06
 ErrMax= 2.44D-06  0.00D+00 EMaxC= 1.00D-01 BMatC= 1.25D-09 BMatP= 9.81D-08
 IDIUse=1 WtCom= 1.00D+00 WtEn= 0.00D+00
 Coeff-Com: -0.436D-03-0.142D-01-0.132D-01 0.967D-01 0.931D+00
 Coeff:     -0.436D-03-0.142D-01-0.132D-01 0.967D-01 0.931D+00
 Gap=     0.248 Goal=   None    Shift=    0.000
 Gap=     0.164 Goal=   None    Shift=    0.000
 RMSDP=4.96D-07 MaxDP=7.73D-06 DE=-3.42D-08 OVMax= 3.59D-05

 Cycle   6  Pass 1  IDiag  1:
 E= -379.543358217382     Delta-E=       -0.000000001186 Rises=F Damp=F
 DIIS: error= 1.28D-06 at cycle   6 NSaved=   6.
 NSaved= 6 IEnMin= 6 EnMin= -379.543358217382     IErMin= 6 ErrMin= 1.28D-06
 ErrMax= 1.28D-06  0.00D+00 EMaxC= 1.00D-01 BMatC= 3.10D-10 BMatP= 1.25D-09
 IDIUse=1 WtCom= 1.00D+00 WtEn= 0.00D+00
 Coeff-Com:  0.273D-03-0.223D-02 0.541D-03-0.282D-01-0.983D-01 0.113D+01
 Coeff:      0.273D-03-0.223D-02 0.541D-03-0.282D-01-0.983D-01 0.113D+01
 Gap=     0.248 Goal=   None    Shift=    0.000
 Gap=     0.164 Goal=   None    Shift=    0.000
 RMSDP=4.73D-07 MaxDP=8.54D-06 DE=-1.19D-09 OVMax= 3.41D-05

 Cycle   7  Pass 1  IDiag  1:
 E= -379.543358218291     Delta-E=       -0.000000000909 Rises=F Damp=F
 DIIS: error= 1.13D-06 at cycle   7 NSaved=   7.
 NSaved= 7 IEnMin= 7 EnMin= -379.543358218291     IErMin= 7 ErrMin= 1.13D-06
 ErrMax= 1.13D-06  0.00D+00 EMaxC= 1.00D-01 BMatC= 2.37D-10 BMatP= 3.10D-10
 IDIUse=1 WtCom= 1.00D+00 WtEn= 0.00D+00
 Coeff-Com:  0.156D-03 0.378D-02 0.387D-02-0.208D-01-0.250D+00-0.422D+00
 Coeff-Com:  0.168D+01
 Coeff:      0.156D-03 0.378D-02 0.387D-02-0.208D-01-0.250D+00-0.422D+00
 Coeff:      0.168D+01
 Gap=     0.248 Goal=   None    Shift=    0.000
 Gap=     0.164 Goal=   None    Shift=    0.000
 RMSDP=7.57D-07 MaxDP=1.33D-05 DE=-9.09D-10 OVMax= 5.64D-05

 Cycle   8  Pass 1  IDiag  1:
 E= -379.543358219564     Delta-E=       -0.000000001273 Rises=F Damp=F
 DIIS: error= 9.52D-07 at cycle   8 NSaved=   8.
 NSaved= 8 IEnMin= 8 EnMin= -379.543358219564     IErMin= 8 ErrMin= 9.52D-07
 ErrMax= 9.52D-07  0.00D+00 EMaxC= 1.00D-01 BMatC= 1.60D-10 BMatP= 2.37D-10
 IDIUse=1 WtCom= 1.00D+00 WtEn= 0.00D+00
 Coeff-Com: -0.496D-03 0.373D-02-0.546D-03 0.609D-01 0.155D+00-0.142D+01
 Coeff-Com: -0.976D+00 0.317D+01
 Coeff:     -0.496D-03 0.373D-02-0.546D-03 0.609D-01 0.155D+00-0.142D+01
 Coeff:     -0.976D+00 0.317D+01
 Gap=     0.248 Goal=   None    Shift=    0.000
 Gap=     0.164 Goal=   None    Shift=    0.000
 RMSDP=2.20D-06 MaxDP=3.80D-05 DE=-1.27D-09 OVMax= 1.66D-04

 Cycle   9  Pass 1  IDiag  1:
 E= -379.543358221953     Delta-E=       -0.000000002389 Rises=F Damp=F
 DIIS: error= 4.38D-07 at cycle   9 NSaved=   9.
 NSaved= 9 IEnMin= 9 EnMin= -379.543358221953     IErMin= 9 ErrMin= 4.38D-07
 ErrMax= 4.38D-07  0.00D+00 EMaxC= 1.00D-01 BMatC= 3.70D-11 BMatP= 1.60D-10
 IDIUse=1 WtCom= 1.00D+00 WtEn= 0.00D+00
 Coeff-Com:  0.259D-03-0.396D-02-0.210D-02-0.256D-01-0.947D-02 0.942D+00
 Coeff-Com:  0.959D-01-0.205D+01 0.205D+01
 Coeff:      0.259D-03-0.396D-02-0.210D-02-0.256D-01-0.947D-02 0.942D+00
 Coeff:      0.959D-01-0.205D+01 0.205D+01
 Gap=     0.248 Goal=   None    Shift=    0.000
 Gap=     0.164 Goal=   None    Shift=    0.000
 RMSDP=1.22D-06 MaxDP=2.06D-05 DE=-2.39D-09 OVMax= 9.09D-05

 Cycle  10  Pass 1  IDiag  1:
 E= -379.543358222492     Delta-E=       -0.000000000539 Rises=F Damp=F
 DIIS: error= 2.95D-07 at cycle  10 NSaved=  10.
 NSaved=10 IEnMin=10 EnMin= -379.543358222492     IErMin=10 ErrMin= 2.95D-07
 ErrMax= 2.95D-07  0.00D+00 EMaxC= 1.00D-01 BMatC= 7.03D-12 BMatP= 3.70D-11
 IDIUse=1 WtCom= 1.00D+00 WtEn= 0.00D+00
 Coeff-Com: -0.192D-04 0.187D-02 0.160D-02 0.987D-03-0.387D-01-0.241D+00
 Coeff-Com:  0.156D+00 0.605D+00-0.153D+01 0.204D+01
 Coeff:     -0.192D-04 0.187D-02 0.160D-02 0.987D-03-0.387D-01-0.241D+00
 Coeff:      0.156D+00 0.605D+00-0.153D+01 0.204D+01
 Gap=     0.248 Goal=   None    Shift=    0.000
 Gap=     0.164 Goal=   None    Shift=    0.000
 RMSDP=4.53D-07 MaxDP=7.22D-06 DE=-5.39D-10 OVMax= 3.17D-05

 Cycle  11  Pass 1  IDiag  1:
 E= -379.543358222559     Delta-E=       -0.000000000067 Rises=F Damp=F
 DIIS: error= 7.18D-08 at cycle  11 NSaved=  11.
 NSaved=11 IEnMin=11 EnMin= -379.543358222559     IErMin=11 ErrMin= 7.18D-08
 ErrMax= 7.18D-08  0.00D+00 EMaxC= 1.00D-01 BMatC= 4.48D-13 BMatP= 7.03D-12
 IDIUse=1 WtCom= 1.00D+00 WtEn= 0.00D+00
 Coeff-Com: -0.276D-04-0.956D-04-0.279D-03 0.249D-02 0.124D-01-0.275D-01
 Coeff-Com: -0.412D-01 0.470D-02 0.294D+00-0.712D+00 0.147D+01
 Coeff:     -0.276D-04-0.956D-04-0.279D-03 0.249D-02 0.124D-01-0.275D-01
 Coeff:     -0.412D-01 0.470D-02 0.294D+00-0.712D+00 0.147D+01
 Gap=     0.248 Goal=   None    Shift=    0.000
 Gap=     0.164 Goal=   None    Shift=    0.000
 RMSDP=6.44D-08 MaxDP=1.26D-06 DE=-6.71D-11 OVMax= 4.86D-06

 Cycle  12  Pass 1  IDiag  1:
 E= -379.543358222561     Delta-E=       -0.000000000002 Rises=F Damp=F
 DIIS: error= 2.53D-08 at cycle  12 NSaved=  12.
 NSaved=12 IEnMin=12 EnMin= -379.543358222561     IErMin=12 ErrMin= 2.53D-08
 ErrMax= 2.53D-08  0.00D+00 EMaxC= 1.00D-01 BMatC= 5.50D-14 BMatP= 4.48D-13
 IDIUse=1 WtCom= 1.00D+00 WtEn= 0.00D+00
 Coeff-Com:  0.738D-05-0.130D-03-0.320D-04-0.452D-03 0.136D-03 0.239D-01
 Coeff-Com: -0.847D-02-0.400D-01 0.574D-01-0.129D-01-0.306D+00 0.129D+01
 Coeff:      0.738D-05-0.130D-03-0.320D-04-0.452D-03 0.136D-03 0.239D-01
 Coeff:     -0.847D-02-0.400D-01 0.574D-01-0.129D-01-0.306D+00 0.129D+01
 Gap=     0.248 Goal=   None    Shift=    0.000
 Gap=     0.164 Goal=   None    Shift=    0.000
 RMSDP=7.45D-09 MaxDP=1.51D-07 DE=-1.93D-12 OVMax= 4.38D-07

 SCF Done:  E(UM062X) =  -379.543358223     A.U. after   12 cycles
            NFock= 12  Conv=0.75D-08     -V/T= 2.0026
 <Sx>= 0.0000 <Sy>= 0.0000 <Sz>= 0.5000 <S**2>= 0.8225 S= 0.5356
 <L.S>=  0.00000000000    
 KE= 3.785717283764D+02 PE=-9.575227247989D+02 EE= 1.678920127816D+02
 Annihilation of the first spin contaminant:
 S**2 before annihilation     0.8225,   after     0.7505
 Leave Link  502 at Mon Apr 21 19:23:07 2025, MaxMem=   536870912 cpu:              34.8 elap:               4.6
 (Enter /home/szhao/Apps/g16/l701.exe)
 ... and contract with generalized density number  0.
 Compute integral first derivatives.
 Leave Link  701 at Mon Apr 21 19:23:07 2025, MaxMem=   536870912 cpu:               1.5 elap:               0.2
 (Enter /home/szhao/Apps/g16/l702.exe)
 L702 exits ... SP integral derivatives will be done elsewhere.
 Leave Link  702 at Mon Apr 21 19:23:07 2025, MaxMem=   536870912 cpu:               0.6 elap:               0.1
 (Enter /home/szhao/Apps/g16/l703.exe)
 Integral derivatives from FoFJK, PRISM(SPDF).
 Compute integral first derivatives, UseDBF=F ICtDFT=           0.
 Calling FoFJK, ICntrl=      2127 FMM=F ISym2X=0 I1Cent= 0 IOpClX= 1 NMat=1 NMatS=1 NMatT=0.
 FoFJK:  IHMeth= 1 ICntrl=    2127 DoSepK=F KAlg= 0 I1Cent=           0 FoldK=F
 IRaf=         0 NMat=       1 IRICut=       1 DoRegI=T DoRafI=F ISym2E= 0 IDoP0=0 IntGTp=1.
 FoFCou: FMM=F IPFlag=           0 FMFlag=      100000 FMFlg1=         800
         NFxFlg=           0 DoJE=F BraDBF=F KetDBF=F FulRan=T
         wScrn=  0.000000 ICntrl=      2127 IOpCl=  1 I1Cent=           0 NGrid=           0
         NMat0=    1 NMatS0=      1 NMatT0=    0 NMatD0=    1 NMtDS0=    0 NMtDT0=    0
 Symmetry not used in FoFCou.
 Leave Link  703 at Mon Apr 21 19:23:08 2025, MaxMem=   536870912 cpu:               6.6 elap:               0.9
 (Enter /home/szhao/Apps/g16/l716.exe)
 Dipole        = 1.23847604D-01 3.54967095D-11 5.75231786D-12
 -------------------------------------------------------------------
 Center     Atomic                   Forces (Hartrees/Bohr)
 Number     Number              X              Y              Z
 -------------------------------------------------------------------
      1        6          -0.000000000   -0.000000000   -0.000000000
      2       15          -0.000000000   -0.000000000   -0.000000000
      3        1           0.000131372   -0.000000000    0.000000000
 -------------------------------------------------------------------
 Cartesian Forces:  Max     0.000131372 RMS     0.000043791
 Leave Link  716 at Mon Apr 21 19:23:09 2025, MaxMem=   536870912 cpu:               0.4 elap:               0.1
 (Enter /home/szhao/Apps/g16/l103.exe)

 GradGradGradGradGradGradGradGradGradGradGradGradGradGradGradGradGradGrad
 Berny optimization.
 Using GEDIIS/GDIIS optimizer.
 FormGI is forming the generalized inverse of G from B-inverse, IUseBI=4.
 Internal  Forces:  Max     0.000131372 RMS     0.000061930
 Search for a local minimum.
 Step number   2 out of a maximum of   20
 All quantities printed in internal units (Hartrees-Bohrs-Radians)
 RMS Force = .75848D-04 SwitMx=.10000D-02 MixMth= 2
 Mixed Optimization -- En-DIIS/RFO-DIIS
 Update second derivatives using D2CorX and points    1    2
 DE= -3.22D-05 DEPred=-3.33D-05 R= 9.66D-01
 TightC=F SS=  1.41D+00  RLast= 1.37D-02 DXNew= 5.0454D-01 4.1140D-02
 Trust test= 9.66D-01 RLast= 1.37D-02 DXMaxT set to 3.00D-01
 The second derivative matrix:
                          X1        Y1        Z1        X2        Y2
           X1           0.86390
           Y1           0.00000   0.50000
           Z1           0.00000   0.00000   0.50000
           X2          -0.00000  -0.00000  -0.00000   0.50000
           Y2          -0.00000  -0.00000  -0.00000   0.00000   0.50000
           Z2          -0.00000  -0.00000  -0.00000   0.00000   0.00000
           R1          -0.36390  -0.00000  -0.00000   0.00000   0.00000
           A1          -0.00000  -0.00000  -0.00000   0.00000   0.00000
           A2          -0.00000  -0.00000  -0.00000   0.00000   0.00000
                          Z2        R1        A1        A2
           Z2           0.50000
           R1           0.00000   0.36390
           A1           0.00000   0.00000   0.00304
           A2           0.00000  -0.00000   0.00000   0.00304
 ITU=  1  0
 Use linear search instead of GDIIS.
     Eigenvalues ---    0.00304   0.363901000.000001000.000001000.00000
     Eigenvalues --- 1000.000001000.000001000.000001000.00000
 RFO step:  Lambda= 0.00000000D+00 EMin= 3.04184962D-03
 Quartic linear search produced a step of -0.02686.
 Iteration  1 RMS(Cart)=  0.00012279 RMS(Int)=  0.00000001
 Iteration  2 RMS(Cart)=  0.00000001 RMS(Int)=  0.00000001
 ITry= 1 IFail=0 DXMaxC= 3.68D-04 DCOld= 1.00D+10 DXMaxT= 3.00D-01 DXLimC= 3.00D+00 Rises=F
 Variable       Old X    -DE/DX   Delta X   Delta X   Delta X     New X
                                 (Linear)    (Quad)   (Total)
    X1       -1.73747   0.00013   0.00000   0.00000   0.00000  -1.73747
    Y1        0.00000   0.00000   0.00000   0.00000   0.00000   0.00000
    Z1        0.00000   0.00000   0.00000   0.00000   0.00000   0.00000
    X2        1.73747  -0.00000   0.00000   0.00000   0.00000   1.73747
    Y2        0.00000  -0.00000   0.00000   0.00000   0.00000   0.00000
    Z2        0.00000  -0.00000   0.00000   0.00000   0.00000   0.00000
    R1        2.06361  -0.00013  -0.00037   0.00000  -0.00037   2.06324
    A1        3.14159  -0.00000   0.00000   0.00000   0.00000   3.14159
    A2        3.14159  -0.00000  -0.00000  -0.00000  -0.00000   3.14159
         Item               Value     Threshold  Converged?
 Maximum Force            0.000131     0.000450     YES
 RMS     Force            0.000076     0.000300     YES
 Maximum Displacement     0.000368     0.001800     YES
 RMS     Displacement     0.000123     0.001200     YES
 Predicted change in Energy=-2.370347D-08
 Optimization completed.
    -- Stationary point found.
                           ----------------------------
                           !   Optimized Parameters   !
                           ! (Angstroms and Degrees)  !
 --------------------------                            --------------------------
 ! Name  Definition              Value          Derivative Info.                !
 --------------------------------------------------------------------------------
 ! X1    R(1,-1)                -0.9194         -DE/DX =    0.0001              !
 ! Y1    R(1,-2)                 0.0            -DE/DX =    0.0                 !
 ! Z1    R(1,-3)                 0.0            -DE/DX =    0.0                 !
 ! X2    R(2,-1)                 0.9194         -DE/DX =    0.0                 !
 ! Y2    R(2,-2)                 0.0            -DE/DX =    0.0                 !
 ! Z2    R(2,-3)                 0.0            -DE/DX =    0.0                 !
 ! R1    R(1,3)                  1.092          -DE/DX =   -0.0001              !
 ! A1    L(2,1,3,-2,-1)        180.0            -DE/DX =    0.0                 !
 ! A2    L(2,1,3,-3,-2)        180.0            -DE/DX =    0.0                 !
 --------------------------------------------------------------------------------
 Lowest energy point so far.  Saving SCF results.
 Largest change from initial coordinates is atom    3       0.007 Angstoms.
 GradGradGradGradGradGradGradGradGradGradGradGradGradGradGradGradGradGrad

 Leave Link  103 at Mon Apr 21 19:23:09 2025, MaxMem=   536870912 cpu:               0.5 elap:               0.1
 (Enter /home/szhao/Apps/g16/l202.exe)
                          Input orientation:                          
 ---------------------------------------------------------------------
 Center     Atomic      Atomic             Coordinates (Angstroms)
 Number     Number       Type             X           Y           Z
 ---------------------------------------------------------------------
      1          6           0       -0.919427    0.000000    0.000000
      2         15           0        0.919427    0.000000    0.000000
      3          1           0       -2.011441    0.000000    0.000000
 ---------------------------------------------------------------------
                    Distance matrix (angstroms):
                    1          2          3
     1  C    0.000000
     2  P    1.838854   0.000000
     3  H    1.092014   2.930868   0.000000
 Symmetry turned off by external request.
 Stoichiometry    CHP(1+,2)
 Framework group  C*V[C*(HCP)]
 Deg. of freedom     2
 Full point group                 C*V     NOp   4
 Rotational constants (GHZ):           0.0000000          14.4391869          14.4391869
 Leave Link  202 at Mon Apr 21 19:23:09 2025, MaxMem=   536870912 cpu:               0.2 elap:               0.1
 (Enter /home/szhao/Apps/g16/l601.exe)
 Copying SCF densities to generalized density rwf, IOpCl= 1 IROHF=0.

 **********************************************************************

            Population analysis using the SCF density.

 **********************************************************************

 Alpha  occ. eigenvalues --  -78.39754 -10.93444  -7.21187  -5.33165  -5.32333
 Alpha  occ. eigenvalues --   -5.32013  -1.07369  -0.91245  -0.71447  -0.61733
 Alpha  occ. eigenvalues --   -0.59899
 Alpha virt. eigenvalues --   -0.35106  -0.33204  -0.20672  -0.14419  -0.10305
 Alpha virt. eigenvalues --   -0.10128  -0.09740  -0.08960  -0.05208  -0.04953
 Alpha virt. eigenvalues --   -0.00124   0.04778   0.13228   0.13309   0.13360
 Alpha virt. eigenvalues --    0.27672   0.31380   0.32870   0.37187   0.40756
 Alpha virt. eigenvalues --    0.40890   0.43045   0.44536   0.47874   0.59040
 Alpha virt. eigenvalues --    0.69769   0.95486   0.96670   1.04733   1.04793
 Alpha virt. eigenvalues --    1.26095   1.29784   1.41822   1.51526   1.64858
 Alpha virt. eigenvalues --    1.66011   2.35914   2.39744   2.44098   2.45809
 Alpha virt. eigenvalues --    3.04938   6.58173  13.64037  13.65875  13.77826
 Alpha virt. eigenvalues --   23.32455 162.81739
  Beta  occ. eigenvalues --  -78.39667 -10.92947  -7.21198  -5.32561  -5.32409
  Beta  occ. eigenvalues --   -5.32330  -1.02995  -0.89793  -0.70391  -0.57696
  Beta virt. eigenvalues --   -0.41284  -0.31089  -0.28069  -0.19297  -0.15312
  Beta virt. eigenvalues --   -0.10461  -0.09873  -0.09826  -0.08970  -0.05080
  Beta virt. eigenvalues --   -0.04993  -0.01094   0.05448   0.11024   0.13081
  Beta virt. eigenvalues --    0.13735   0.28396   0.33028   0.33933   0.37007
  Beta virt. eigenvalues --    0.41958   0.43442   0.43869   0.44972   0.47531
  Beta virt. eigenvalues --    0.60545   0.70896   0.99901   1.00639   1.09291
  Beta virt. eigenvalues --    1.10788   1.28738   1.29679   1.41919   1.53017
  Beta virt. eigenvalues --    1.67517   1.68454   2.38944   2.48371   2.49226
  Beta virt. eigenvalues --    2.49413   3.11187   6.58580  13.64832  13.66489
  Beta virt. eigenvalues --   13.78035  23.33874 162.81875
          Condensed to atoms (all electrons):
               1          2          3
     1  C    5.352670   0.282842   0.350718
     2  P    0.282842  14.046123  -0.002060
     3  H    0.350718  -0.002060   0.338206
          Atomic-Atomic Spin Densities.
               1          2          3
     1  C    0.802661   0.071366  -0.009328
     2  P    0.071366   0.095016   0.000222
     3  H   -0.009328   0.000222  -0.022197
 Mulliken charges and spin densities:
               1          2
     1  C    0.013770   0.864700
     2  P    0.673095   0.166604
     3  H    0.313135  -0.031304
 Sum of Mulliken charges =   1.00000   1.00000
 Mulliken charges and spin densities with hydrogens summed into heavy atoms:
               1          2
     1  C    0.326905   0.833396
     2  P    0.673095   0.166604
 Electronic spatial extent (au):  <R**2>=            106.9760
 Charge=              1.0000 electrons
 Dipole moment (field-independent basis, Debye):
    X=              0.3148    Y=              0.0000    Z=              0.0000  Tot=              0.3148
 Quadrupole moment (field-independent basis, Debye-Ang):
   XX=             -6.4151   YY=            -16.4021   ZZ=            -16.3681
   XY=             -0.0000   XZ=             -0.0000   YZ=             -1.3584
 Traceless Quadrupole moment (field-independent basis, Debye-Ang):
   XX=              6.6467   YY=             -3.3403   ZZ=             -3.3064
   XY=             -0.0000   XZ=             -0.0000   YZ=             -1.3584
 Octapole moment (field-independent basis, Debye-Ang**2):
  XXX=            -19.9981  YYY=             -0.0000  ZZZ=              0.0000  XYY=             -3.0493
  XXY=              0.0000  XXZ=              0.0000  XZZ=             -3.0401  YZZ=             -0.0000
  YYZ=              0.0000  XYZ=             -0.3679
 Hexadecapole moment (field-independent basis, Debye-Ang**3):
 XXXX=            -76.8587 YYYY=            -20.1439 ZZZZ=            -20.0627 XXXY=             -0.0000
 XXXZ=             -0.0000 YYYX=              0.0000 YYYZ=             -1.6238 ZZZX=             -0.0000
 ZZZY=             -1.6238 XXYY=            -21.2937 XXZZ=            -21.2584 YYZZ=             -6.7012
 XXYZ=             -1.4101 YYXZ=             -0.0000 ZZXY=              0.0000
 N-N= 3.151562541836D+01 E-N=-9.575227242109D+02  KE= 3.785717283764D+02
                          Isotropic Fermi Contact Couplings
        Atom                 a.u.       MegaHertz       Gauss      10(-4) cm-1
     1  C(13)              0.13914     156.41725      55.81357      52.17518
     2  P(31)              0.00554      10.03515       3.58079       3.34737
     3  H(1)              -0.01169     -52.24367     -18.64184     -17.42661
 --------------------------------------------------------
       Center         ----  Spin Dipole Couplings  ----
                      3XX-RR        3YY-RR        3ZZ-RR
 --------------------------------------------------------
     1   Atom       -0.467324      0.230855      0.236469
     2   Atom       -0.371895      0.163148      0.208747
     3   Atom        0.067849     -0.034025     -0.033824
 --------------------------------------------------------
                        XY            XZ            YZ
 --------------------------------------------------------
     1   Atom        0.000000     -0.000000     -0.224491
     2   Atom       -0.000000      0.000000     -1.823321
     3   Atom       -0.000000     -0.000000     -0.008014
 --------------------------------------------------------


 ---------------------------------------------------------------------------------
              Anisotropic Spin Dipole Couplings in Principal Axis System
 ---------------------------------------------------------------------------------

       Atom             a.u.   MegaHertz   Gauss  10(-4) cm-1        Axes

              Baa    -0.4673   -62.710   -22.377   -20.918  1.0000 -0.0000 -0.0000
     1 C(13)  Bbb     0.0092     1.228     0.438     0.410  0.0000  0.7115  0.7027
              Bcc     0.4582    61.482    21.938    20.508 -0.0000 -0.7027  0.7115
 
              Baa    -1.6375  -354.004  -126.318  -118.083  0.0000  0.7115  0.7027
     2 P(31)  Bbb    -0.3719   -80.398   -28.688   -26.818  1.0000  0.0000 -0.0000
              Bcc     2.0094   434.402   155.005   144.901  0.0000 -0.7027  0.7115
 
              Baa    -0.0419   -22.377    -7.985    -7.464  0.0000  0.7115  0.7027
     3 H(1)   Bbb    -0.0259   -13.824    -4.933    -4.611 -0.0000 -0.7027  0.7115
              Bcc     0.0678    36.201    12.917    12.075  1.0000 -0.0000  0.0000
 

 ---------------------------------------------------------------------------------

 No NMR shielding tensors so no spin-rotation constants.
 Leave Link  601 at Mon Apr 21 19:23:09 2025, MaxMem=   536870912 cpu:               1.7 elap:               0.3
 (Enter /home/szhao/Apps/g16/l9999.exe)
 1\1\GINC-NODE06\FOpt\UM062X\6-311+G(d,p)\C1H1P1(1+,2)\SZHAO\21-Apr-202
 5\0\\#p opt UM062X/6-311+G** nosymm int=superfine\\Title Card Required
 \\1,2\C,-0.919427,0.,0.\P,0.919427,0.,0.\H,-2.0114408391,0.0000000001,
 0.\\Version=ES64L-G16RevA.03\HF=-379.5433582\S2=0.82247\S2-1=0.\S2A=0.
 750484\RMSD=7.450e-09\RMSF=4.379e-05\Dipole=-0.4141576,0.,0.\Quadrupol
 e=4.941653,-2.4834548,-2.4581982,0.,0.,-1.0099424\PG=C*V [C*(H1C1P1)]\
 \@


 TRUTH, IN SCIENCE, CAN BE DEFINED AS THE WORKING HYPOTHESIS 
 BEST FITTED TO OPEN THE WAY TO THE NEXT BETTER ONE.

                              -- KONRAD LORENZ
 Job cpu time:       0 days  0 hours  2 minutes  4.7 seconds.
 Elapsed time:       0 days  0 hours  0 minutes 17.3 seconds.
 File lengths (MBytes):  RWF=     17 Int=      0 D2E=      0 Chk=      2 Scr=      2
 Normal termination of Gaussian 16 at Mon Apr 21 19:23:10 2025.
