Title Card Required                                                     
FOpt      UM062X                                                      6-311+G(d,p)        
Number of atoms                            I                4
Info1-9                                    I   N=           9
          13          13           0           0           0         110
           2          18        -502
Full Title                                 C   N=           2
Title Card Required     
Route                                      C   N=           4
#p opt UM062X/6-311+G** nosymm int=superfine    
Charge                                     I                0
Multiplicity                               I                1
Number of electrons                        I               26
Number of alpha electrons                  I               13
Number of beta electrons                   I               13
Number of basis functions                  I               64
Number of independent functions            I               64
Number of point charges in /Mol/           I                0
Number of translation vectors              I                0
Atomic numbers                             I   N=           4
           8          16           1           1
Nuclear charges                            R   N=           4
  8.00000000E+00  1.60000000E+01  1.00000000E+00  1.00000000E+00
Current cartesian coordinates              R   N=          12
 -2.76090121E+00 -2.36215766E-04  7.36993189E-05  2.76090121E+00  2.62671931E-04
 -1.30391103E-04 -2.75779400E+00 -1.08273542E+00  1.47938124E+00  2.45106315E+00
 -5.58036704E-01 -2.46248913E+00
Number of symbols in /Mol/                 I                0
Force Field                                I                0
Atom Types                                 C   N=           4
                                                
Int Atom Types                             I   N=           4
           0           0           0           0
MM charges                                 R   N=           4
  0.00000000E+00  0.00000000E+00  0.00000000E+00  0.00000000E+00
Integer atomic weights                     I   N=           4
          16          32           1           1
Real atomic weights                        R   N=           4
  1.59949146E+01  3.19720718E+01  1.00782504E+00  1.00782504E+00
Atom fragment info                         I   N=           4
           0           0           0           0
Atom residue num                           I   N=           4
           0           0           0           0
Nuclear spins                              I   N=           4
           0           0           1           1
Nuclear ZEff                               R   N=           4
 -5.60000000E+00 -1.36000000E+01 -1.00000000E+00 -1.00000000E+00
Nuclear ZNuc                               R   N=           4
  8.00000000E+00  1.60000000E+01  1.00000000E+00  1.00000000E+00
Nuclear QMom                               R   N=           4
  0.00000000E+00  0.00000000E+00  0.00000000E+00  0.00000000E+00
Nuclear GFac                               R   N=           4
  0.00000000E+00  0.00000000E+00  2.79284600E+00  2.79284600E+00
MicOpt                                     I   N=           4
          -2          -2          -1          -1
Number of residues                         I                0
Number of secondary structures             I                0
Redundant internal dimensions              I   N=           4
          11           8           2           1
Redundant internal coordinate indices      I   N=          44
           1          -1           0           0           1          -2
           0           0           1          -3           0           0
           2          -1           0           0           2          -2
           0           0           2          -3           0           0
           1           3           0           0           2           4
           0           0           2           1           3           0
           1           2           4           0           3           1
           2           4
Redundant internal coordinates             R   N=          11
 -2.76090121E+00 -2.36215766E-04  7.36993189E-05  2.76090121E+00  2.62671931E-04
 -1.30391103E-04  1.83307528E+00  2.54379802E+00  1.56918443E+00  1.44870784E+00
  2.28691509E+00
ZRed-IntVec                                I   N=          11
          -1          -1          -1          -1          -1          -1
           0           0           0           0           0
ZRed-FPVec                                 R   N=          11
  0.00000000E+00  0.00000000E+00  0.00000000E+00  0.00000000E+00  0.00000000E+00
  0.00000000E+00  0.00000000E+00  0.00000000E+00  0.00000000E+00  0.00000000E+00
  0.00000000E+00
ZRed-Constraint1                           R   N=          11
 -2.76090121E+00 -2.36215766E-04  7.36993189E-05  2.76090121E+00  2.62671931E-04
 -1.30391103E-04  1.83375007E+00  2.73790685E+00  1.57283934E+00  2.40656161E+00
  4.56868424E-01
ZRed-Constraint2                           R   N=          11
 -2.76090121E+00 -2.36215766E-04  7.36993189E-05  2.76090121E+00  2.62671931E-04
 -1.30391103E-04  0.00000000E+00  0.00000000E+00  0.00000000E+00  0.00000000E+00
  0.00000000E+00
Number of contracted shells                I               27
Number of primitive shells                 I               49
Pure/Cartesian d shells                    I                0
Pure/Cartesian f shells                    I                0
Highest angular momentum                   I                2
Largest degree of contraction              I                6
Shell types                                I   N=          27
           0          -1          -1          -1          -1          -2
           0           0           0           0           0           0
          -1           1           1           1           1           1
          -2           0           0           0           1           0
           0           0           1
Number of primitives per shell             I   N=          27
           6           3           1           1           1           1
           6           3           1           1           1           1
           1           4           2           1           1           1
           1           3           1           1           1           3
           1           1           1
Shell to atom map                          I   N=          27
           1           1           1           1           1           1
           2           2           2           2           2           2
           2           2           2           2           2           2
           2           3           3           3           3           4
           4           4           4
Primitive exponents                        R   N=          49
  8.58850000E+03  1.29723000E+03  2.99296000E+02  8.73771000E+01  2.56789000E+01
  3.74004000E+00  4.21175000E+01  9.62837000E+00  2.85332000E+00  9.05661000E-01
  2.55611000E-01  8.45000000E-02  1.29200000E+00  9.34134000E+04  1.39617000E+04
  3.16991000E+03  9.02456000E+02  2.97158000E+02  1.08702000E+02  1.08702000E+02
  4.31553000E+01  1.81079000E+01  5.56009000E+00  2.13183000E+00  4.20403000E-01
  1.36045000E-01  4.05000000E-02  4.95040000E+02  1.17221000E+02  3.77749000E+01
  1.40584000E+01  5.56574000E+00  2.26297000E+00  8.07994000E-01  2.77460000E-01
  7.71410000E-02  6.50000000E-01  3.38650000E+01  5.09479000E+00  1.15879000E+00
  3.25840000E-01  1.02741000E-01  7.50000000E-01  3.38650000E+01  5.09479000E+00
  1.15879000E+00  3.25840000E-01  1.02741000E-01  7.50000000E-01
Contraction coefficients                   R   N=          49
  1.89515008E-03  1.43859006E-02  7.07320031E-02  2.40001011E-01  5.94797026E-01
  2.80802012E-01  1.13889012E-01  9.20811101E-01 -3.27447036E-03  1.00000000E+00
  1.00000000E+00  1.00000000E+00  1.00000000E+00  7.42999957E-04  5.79299966E-03
  2.99539983E-02  1.19027993E-01  3.68431979E-01  5.77298966E-01  1.43186060E-01
  6.24465262E-01  2.83366119E-01  1.00000000E+00  1.00000000E+00  1.00000000E+00
  1.00000000E+00  1.00000000E+00  8.30900251E-03  6.40240194E-02  2.77614084E-01
  7.45076225E-01  6.13711672E-01  4.43817763E-01  1.00000000E+00  1.00000000E+00
  1.00000000E+00  1.00000000E+00  2.54938145E-02  1.90373109E-01  8.52161486E-01
  1.00000000E+00  1.00000000E+00  1.00000000E+00  2.54938145E-02  1.90373109E-01
  8.52161486E-01  1.00000000E+00  1.00000000E+00  1.00000000E+00
P(S=P) Contraction coefficients            R   N=          49
  0.00000000E+00  0.00000000E+00  0.00000000E+00  0.00000000E+00  0.00000000E+00
  0.00000000E+00  3.65113974E-02  2.37152983E-01  8.19701941E-01  1.00000000E+00
  1.00000000E+00  1.00000000E+00  0.00000000E+00  0.00000000E+00  0.00000000E+00
  0.00000000E+00  0.00000000E+00  0.00000000E+00  0.00000000E+00  0.00000000E+00
  0.00000000E+00  0.00000000E+00  0.00000000E+00  0.00000000E+00  0.00000000E+00
  0.00000000E+00  1.00000000E+00  0.00000000E+00  0.00000000E+00  0.00000000E+00
  0.00000000E+00  0.00000000E+00  0.00000000E+00  0.00000000E+00  0.00000000E+00
  0.00000000E+00  0.00000000E+00  0.00000000E+00  0.00000000E+00  0.00000000E+00
  0.00000000E+00  0.00000000E+00  0.00000000E+00  0.00000000E+00  0.00000000E+00
  0.00000000E+00  0.00000000E+00  0.00000000E+00  0.00000000E+00
Coordinates of each shell                  R   N=          81
 -2.76090121E+00 -2.36215766E-04  7.36993189E-05 -2.76090121E+00 -2.36215766E-04
  7.36993189E-05 -2.76090121E+00 -2.36215766E-04  7.36993189E-05 -2.76090121E+00
 -2.36215766E-04  7.36993189E-05 -2.76090121E+00 -2.36215766E-04  7.36993189E-05
 -2.76090121E+00 -2.36215766E-04  7.36993189E-05  2.76090121E+00  2.62671931E-04
 -1.30391103E-04  2.76090121E+00  2.62671931E-04 -1.30391103E-04  2.76090121E+00
  2.62671931E-04 -1.30391103E-04  2.76090121E+00  2.62671931E-04 -1.30391103E-04
  2.76090121E+00  2.62671931E-04 -1.30391103E-04  2.76090121E+00  2.62671931E-04
 -1.30391103E-04  2.76090121E+00  2.62671931E-04 -1.30391103E-04  2.76090121E+00
  2.62671931E-04 -1.30391103E-04  2.76090121E+00  2.62671931E-04 -1.30391103E-04
  2.76090121E+00  2.62671931E-04 -1.30391103E-04  2.76090121E+00  2.62671931E-04
 -1.30391103E-04  2.76090121E+00  2.62671931E-04 -1.30391103E-04  2.76090121E+00
  2.62671931E-04 -1.30391103E-04 -2.75779400E+00 -1.08273542E+00  1.47938124E+00
 -2.75779400E+00 -1.08273542E+00  1.47938124E+00 -2.75779400E+00 -1.08273542E+00
  1.47938124E+00 -2.75779400E+00 -1.08273542E+00  1.47938124E+00  2.45106315E+00
 -5.58036704E-01 -2.46248913E+00  2.45106315E+00 -5.58036704E-01 -2.46248913E+00
  2.45106315E+00 -5.58036704E-01 -2.46248913E+00  2.45106315E+00 -5.58036704E-01
 -2.46248913E+00
Num ILSW                                   I              100
ILSW                                       I   N=         100
           1           0           0           1           2           0
           0           0           0           0        4336          -1
           7           0           0           0           2           0
           0           0           0           0           1           0
           1           1           0           0           0           0
           0           0      100000           0          -1           0
           0           0           0           0           0           0
           0           0           0           1           0           0
           0 -2000000000           1           0           0           0
           0           0           4          52           0           0
           0           0          55           0           0           0
           0           0           0           4           0           1
           0           0           0           0           0           0
           0           0           0           0           0           0
           0           0           0           0           0           0
           0           0           0           0           0           0
           0           0           0           0
Num RLSW                                   I               52
RLSW                                       R   N=          52
  1.00000000E+00  1.00000000E+00  1.00000000E+00  1.00000000E+00  5.40000000E-01
  0.00000000E+00  0.00000000E+00  1.00000000E+00  0.00000000E+00  0.00000000E+00
  0.00000000E+00  0.00000000E+00  1.00000000E+00  0.00000000E+00  0.00000000E+00
  0.00000000E+00  0.00000000E+00  1.00000000E+00  0.00000000E+00  0.00000000E+00
  0.00000000E+00  0.00000000E+00  1.00000000E+00  0.00000000E+00  0.00000000E+00
  0.00000000E+00  0.00000000E+00  1.00000000E+00  0.00000000E+00  0.00000000E+00
  0.00000000E+00  0.00000000E+00  1.00000000E+00  0.00000000E+00  0.00000000E+00
  0.00000000E+00  0.00000000E+00  0.00000000E+00  1.00000000E+00  1.00000000E+00
  0.00000000E+00  1.00000000E+00  0.00000000E+00  0.00000000E+00  0.00000000E+00
  0.00000000E+00  0.00000000E+00  0.00000000E+00  0.00000000E+00  0.00000000E+00
  0.00000000E+00  0.00000000E+00
MxBond                                     I                2
NBond                                      I   N=           4
           2           2           1           1
IBond                                      I   N=           8
           2           3           1           4           1           0
           2           0
RBond                                      R   N=           8
  1.00000000E-01  1.00000000E+00  1.00000000E-01  1.00000000E+00  1.00000000E+00
  0.00000000E+00  1.00000000E+00  0.00000000E+00
Virial Ratio                               R      2.001913932467859E+00
SCF Energy                                 R     -4.744149808185065E+02
Total Energy                               R     -4.744149808185065E+02
S**2                                       R      6.279421427279885E-12
S**2 after annihilation                    R     -3.694822225964125E-13
RMS Force                                  R      8.620619027942691E-06
RMS Density                                R      1.563171951899206E-09
Job Status                                 I                1
Nuclear derivative order                   I                1
External E-field                           R   N=          35
  0.00000000E+00  0.00000000E+00  0.00000000E+00  0.00000000E+00  0.00000000E+00
  0.00000000E+00  0.00000000E+00  0.00000000E+00  0.00000000E+00  0.00000000E+00
  0.00000000E+00  0.00000000E+00  0.00000000E+00  0.00000000E+00  0.00000000E+00
  0.00000000E+00  0.00000000E+00  0.00000000E+00  0.00000000E+00  0.00000000E+00
  0.00000000E+00  0.00000000E+00  0.00000000E+00  0.00000000E+00  0.00000000E+00
  0.00000000E+00  0.00000000E+00  0.00000000E+00  0.00000000E+00  0.00000000E+00
  0.00000000E+00  0.00000000E+00  0.00000000E+00  0.00000000E+00  0.00000000E+00
IOpCl                                      I                1
IROHF                                      I                0
Alpha Orbital Energies                     R   N=          64
 -8.99779809E+01 -1.96751628E+01 -8.33880442E+00 -6.26100615E+00 -6.25725488E+00
 -6.25165147E+00 -1.08618519E+00 -8.35526853E-01 -5.26599140E-01 -4.94100276E-01
 -3.98798513E-01 -3.65932196E-01 -3.53690405E-01 -1.97242569E-01  1.62912675E-02
  3.98506690E-02  4.67680689E-02  5.56152805E-02  7.21411533E-02  1.42851971E-01
  1.94119845E-01  1.99657875E-01  2.13053486E-01  2.60720447E-01  3.10476753E-01
  3.39993750E-01  3.53684074E-01  3.96231295E-01  5.35724331E-01  5.96106720E-01
  7.08820021E-01  7.19629438E-01  7.94000743E-01  8.23334383E-01  9.72276260E-01
  1.04270734E+00  1.08472729E+00  1.08726967E+00  1.37192718E+00  1.38692086E+00
  1.39890410E+00  1.46410880E+00  1.49382956E+00  1.64566006E+00  1.66522020E+00
  1.69397531E+00  2.06366840E+00  2.09382595E+00  2.49071359E+00  2.54079171E+00
  2.88760960E+00  2.89155155E+00  3.16783986E+00  3.18753840E+00  3.84526151E+00
  5.04097197E+00  5.04831296E+00  5.51718043E+00  7.82566202E+00  1.74075131E+01
  1.74266336E+01  1.74540991E+01  4.98756341E+01  1.89086165E+02
Beta Orbital Energies                      R   N=          64
 -8.99779809E+01 -1.96751628E+01 -8.33880442E+00 -6.26100615E+00 -6.25725488E+00
 -6.25165147E+00 -1.08618519E+00 -8.35526853E-01 -5.26599140E-01 -4.94100276E-01
 -3.98798526E-01 -3.65932191E-01 -3.53690397E-01 -1.97242568E-01  1.62912642E-02
  3.98506742E-02  4.67680629E-02  5.56152827E-02  7.21411551E-02  1.42851971E-01
  1.94119852E-01  1.99657861E-01  2.13053486E-01  2.60720452E-01  3.10476754E-01
  3.39993748E-01  3.53684076E-01  3.96231294E-01  5.35724332E-01  5.96106721E-01
  7.08820020E-01  7.19629438E-01  7.94000736E-01  8.23334389E-01  9.72276259E-01
  1.04270734E+00  1.08472736E+00  1.08726960E+00  1.37192719E+00  1.38692086E+00
  1.39890410E+00  1.46410880E+00  1.49382956E+00  1.64566006E+00  1.66522021E+00
  1.69397529E+00  2.06366840E+00  2.09382595E+00  2.49071359E+00  2.54079171E+00
  2.88760951E+00  2.89155164E+00  3.16783986E+00  3.18753840E+00  3.84526151E+00
  5.04097203E+00  5.04831291E+00  5.51718043E+00  7.82566202E+00  1.74075131E+01
  1.74266336E+01  1.74540991E+01  4.98756341E+01  1.89086165E+02
Alpha MO coefficients                      R   N=        4096
 -2.54604366E-07  1.44507438E-06  4.00047131E-06  1.75196636E-07 -7.96300866E-07
 -8.07424417E-06 -1.49260071E-05 -1.11457240E-06  3.32167628E-06  7.49540821E-06
  2.49282748E-05 -1.07184319E-05  1.02556311E-05  1.47680990E-04  5.80466414E-05
 -3.38365113E-05  4.88863275E-05 -2.82840759E-07  1.43824197E-06 -5.16954413E-06
  3.70809567E-06 -1.26694805E-06  4.10787072E-01  6.54411874E-01  1.53475741E-02
 -4.34617474E-03  1.61629221E-03 -9.20910466E-04  1.18012445E-04 -3.84657522E-05
 -5.36666262E-06 -2.27528882E-05 -3.91068741E-05 -1.80383798E-05 -7.18963497E-05
  9.70233189E-06  6.00450496E-06  2.40770944E-05  1.70507000E-06  8.37501922E-07
  6.16252531E-06 -3.84391053E-05 -3.77246305E-05 -1.69105040E-04  1.13854575E-04
  4.22281703E-05  1.80945344E-04  7.96477493E-05  1.63049396E-05  3.23228865E-05
 -1.82210573E-06  3.17222635E-06 -1.74348297E-07 -2.45647249E-05 -1.18429387E-04
 -7.34424034E-06 -5.55354992E-06  5.67774826E-06  2.34906898E-05 -2.03364435E-04
  2.69798908E-04 -2.28147761E-05 -3.74467749E-05 -1.66521351E-04  5.52848166E-01
  4.69697248E-01  3.43278880E-04 -7.37645191E-04  9.96058530E-04  8.05300149E-03
 -7.98929094E-05  7.70897989E-05 -1.02023431E-04 -3.15813434E-03 -1.24514724E-04
 -1.21283067E-04  1.64155008E-04  2.65554876E-03  4.24687591E-04 -1.99160846E-04
  2.72101754E-04  7.33138582E-05  1.36921022E-06 -1.09808517E-04 -5.72713668E-05
 -2.36372189E-06 -6.62702674E-09  8.47602640E-07 -5.80379858E-06  1.01395903E-05
 -5.05918271E-06 -2.70490655E-05 -5.83326217E-04  4.21869898E-04 -1.45382863E-05
  2.81671210E-05  1.18515948E-06 -8.75428122E-08 -3.08927337E-07  1.04747914E-05
 -5.85238712E-07 -4.69126216E-07 -3.98609788E-05  2.57448424E-06  4.77654701E-06
  1.00762418E-04 -9.06741635E-06 -3.22414893E-05 -1.36778277E-05  3.34721815E-05
  8.90761498E-05  2.38876627E-05  6.92317941E-06  1.80903204E-06 -2.64084834E-05
  2.05181980E-06  7.40626112E-05 -5.10061280E-05 -9.90662063E-04  2.38931295E-06
 -2.61286740E-04  3.55209724E-04  2.82802910E-05 -9.47443123E-05  2.21269309E-04
  2.43681262E-05 -2.62103810E-06 -2.27113809E-05  1.68355662E-06  1.70113790E-05
  5.38347664E-05  3.38646227E-06 -8.35614973E-06 -1.74845447E-04 -1.44257061E-04
 -1.29029980E-05  3.75107366E-05  2.93731092E-04  4.26638376E-04 -1.28727448E-04
  1.24263198E-04  1.66655983E-03  6.58430554E-04 -4.42604979E-04  6.35442551E-04
 -1.13852990E-05  1.44926923E-05 -5.50293206E-05  5.42367010E-05 -1.21341539E-05
 -1.19760919E-01 -3.20479195E-01  5.16000768E-01  5.98992565E-01  4.29549992E-02
 -1.51352835E-02  2.24817399E-03 -5.81210808E-04 -6.41515559E-05 -2.61987341E-04
 -1.01616352E-03 -4.53658341E-04 -1.77148170E-03 -2.34909301E-03 -1.02360587E-03
 -4.00444795E-03 -2.28798820E-04 -1.06089096E-04 -3.55745869E-04 -4.14837220E-04
 -4.03679522E-04 -1.81117589E-03  1.44341461E-03  5.33849791E-04  2.27461129E-03
  8.60000049E-04  8.43556438E-05  4.76091611E-04  5.11438136E-04 -2.60183704E-06
 -2.78029479E-05 -2.68720086E-04 -1.55548143E-03 -8.02171064E-05 -6.45288478E-05
  6.73314450E-05  1.24178153E-04 -1.87949342E-03  3.42477804E-03 -2.28082824E-04
 -3.52880930E-04 -1.56979292E-03  8.58975941E-07  6.12835841E-06 -4.47475009E-05
 -1.97107918E-06  6.45613963E-06 -6.64009838E-05  1.30233298E-04  1.83791394E-05
 -4.21255431E-05  9.28478876E-05 -9.95517790E-05  1.61250141E-04 -1.64241634E-04
  1.40620597E-04  3.99559036E-04 -1.10807860E-04  9.19503037E-05 -2.96655565E-05
 -1.78352591E-05  3.96550538E-05  2.63114291E-05  1.55145890E-05 -2.36446651E-04
 -6.49773588E-04  1.22785636E-03  9.04672299E-04  1.68599588E-04 -7.90498454E-05
 -1.18253917E-04 -2.55897482E-03  1.33969465E-04  4.54234976E-04  3.70341879E-01
 -2.32721390E-02 -7.61646576E-02  6.93155760E-01 -4.35532751E-02 -1.42505786E-01
  5.37484355E-02 -3.36740257E-03 -1.10385292E-02 -7.56955731E-03  4.43165903E-04
  1.46236775E-03  4.85969075E-03 -2.50939394E-04 -8.50423242E-04  2.22082386E-04
 -4.39080945E-04  6.39350752E-05 -1.71673944E-04 -1.15756522E-04 -9.37206633E-05
  5.48538179E-04 -4.35993282E-04  1.12656009E-04  6.84117871E-05 -9.37762534E-05
  4.54438931E-05 -8.99987688E-06 -2.65672861E-05  6.77369515E-05 -2.28917010E-05
 -1.00408075E-04  4.04208983E-07  2.02119455E-06 -9.86591195E-06 -1.96509453E-06
 -5.74389818E-06 -2.27522961E-05  2.12242649E-05  1.01046265E-05  3.01884381E-05
  8.70819917E-05  1.58125438E-05 -1.69231670E-05 -1.19867767E-04 -9.79431879E-05
  3.40473435E-05  5.75946600E-05  2.14431845E-05 -3.30909633E-06 -9.60668342E-06
  4.08639977E-06  2.43604401E-06 -3.51606212E-06 -7.83542686E-04 -2.12086515E-03
  3.75858362E-03  3.78693981E-03 -6.67344486E-04 -3.32639963E-04 -4.80211897E-04
 -4.17967497E-04 -4.22311042E-04 -1.91782029E-03  7.95104920E-02  8.01910402E-02
  3.62305875E-01  1.48576837E-01  1.49798491E-01  6.76799593E-01  1.12783972E-02
  1.13673508E-02  5.13561739E-02 -1.51365905E-03 -1.47185242E-03 -6.65958677E-03
  9.68683428E-04  9.30605365E-04  4.21155196E-03 -6.08635915E-04 -3.35543008E-04
 -2.77490285E-04 -4.30195573E-05 -7.74614662E-05  5.43674400E-06  9.46499849E-06
  1.45411601E-04 -9.39211905E-06  3.95887207E-06 -9.55031862E-06 -5.56333770E-04
 -9.45020664E-05  1.13196759E-03  4.87902647E-05  1.39442001E-04  6.28151244E-04
 -3.48763870E-08  9.28269131E-08 -5.41504427E-07 -6.73013762E-06  1.81923836E-06
  1.30084389E-06  2.01575889E-06  3.71089690E-05 -1.18876089E-05 -4.57733585E-05
 -1.90778026E-05 -8.00934061E-05 -1.21076098E-05  7.15478074E-05  4.01243022E-06
  3.76918127E-05  2.13145959E-05 -3.55750889E-06 -4.83704811E-06  5.35045215E-06
  1.74931517E-06 -6.44551545E-06 -2.76910596E-05 -7.52650058E-05  1.35335959E-04
  1.28818506E-04 -2.55969880E-05  1.28832952E-05 -1.94156162E-06 -4.32810705E-05
 -2.08157231E-03  4.71918181E-04  6.15080690E-03  3.70973779E-01 -8.34599712E-02
  1.14641234E-02  6.91807524E-01 -1.55638693E-01  8.44711031E-04  5.06135103E-02
 -1.13859307E-02 -1.20486641E-04 -6.81107841E-03  1.52757361E-03  7.39310164E-05
  3.93574137E-03 -8.91172754E-04  1.65753729E-04  3.75471817E-05 -3.65968922E-04
  9.90858223E-05 -1.92746629E-04 -2.80537681E-05  1.08893559E-04 -1.14227179E-04
  4.31454082E-05  1.29394172E-05 -1.39194696E-05 -1.19490472E-06 -1.20365416E-05
  3.21027440E-06  1.43178802E-06  9.25309185E-05 -2.41058767E-05 -1.18513148E-01
 -1.95227883E-01  1.46881825E-03 -2.80359347E-02  3.78694469E-02  5.72593874E-01
  1.63722255E-03 -4.51907397E-02  6.10434588E-02  4.23258703E-01  7.39662039E-03
 -1.79178397E-02  2.33656466E-02 -2.38551891E-02 -7.45155889E-03  3.75844509E-03
 -5.27438801E-03  3.19882142E-03  3.16355351E-04 -1.06599800E-02  1.26380313E-03
 -3.82940913E-05  8.57228662E-04  2.42612611E-03 -5.00700810E-03 -9.37483216E-03
  1.46645907E-02  1.48284307E-02  8.47367668E-03 -5.44774790E-03  3.45247600E-05
  2.14635853E-04  1.55896856E-03  5.14396114E-05  7.39749024E-05  2.92949228E-03
  9.77026329E-05  1.56463762E-04 -2.93074047E-03 -7.73735544E-05 -1.54139517E-04
 -1.18058097E-02 -2.61020790E-04 -4.77556948E-05 -3.32821599E-03 -7.96909790E-04
 -2.22250809E-03 -1.08463770E-03  2.24855906E-07  2.10731952E-04  2.84013250E-03
  1.56934226E-04  1.10178141E-01  8.67668196E-02  1.77370357E-02 -3.80358393E-04
  1.49312873E-02 -2.03305590E-02  1.65713220E-03  1.47725611E-03 -3.78284259E-03
 -2.67149416E-04  8.41391286E-05  4.02387780E-04  4.42354306E-03  7.34001436E-03
  8.75134859E-03  2.14088847E-03 -3.26747531E-03 -2.24783376E-02  1.35261221E-02
  3.22867541E-03 -4.82173907E-03 -1.44471554E-02  1.10825023E-02  1.04568900E-03
 -1.86635409E-03 -8.75250588E-03 -2.88197657E-03  2.20014314E-03 -3.07494459E-03
 -6.05760831E-04  3.17800604E-04  4.76394436E-04  7.37375127E-04 -2.82339788E-04
  3.33766409E-02  9.48624580E-02 -1.99264920E-01 -3.67889386E-01  6.66706167E-01
  4.09925610E-01 -1.00095140E-02  2.81418601E-03  5.74590893E-04 -1.71523577E-03
  1.00869567E-03  3.98434696E-03  1.63918739E-02  2.05674417E-03  7.94396103E-03
  3.27435305E-02 -3.20978909E-03 -1.09297384E-02 -4.56549411E-02  1.09894146E-03
 -1.55829006E-02 -6.12313045E-02 -5.11775584E-03 -4.18904383E-03 -8.24831253E-03
  1.98853567E-02  1.84127083E-03  1.04458681E-02  9.35168414E-03  4.65218697E-04
 -5.63130152E-03 -7.52555329E-03  8.76099498E-03  1.17731233E-03 -1.00742346E-03
  1.41118256E-03  1.01128126E-01  1.32008468E-01  2.26373801E-03  4.14259606E-03
  5.04358017E-03  2.24667219E-02  3.89527711E-02  6.51899392E-02 -6.53111802E-04
 -1.47072959E-01  2.03463325E-01 -1.98323053E-01 -2.71836840E-04 -2.11347738E-01
  2.92402737E-01 -2.86341313E-01 -5.14768162E-03 -1.40699405E-01  1.96135314E-01
 -5.99630757E-02  1.75478720E-03 -1.48124327E-02  2.18507008E-02  9.44948746E-03
  1.11694292E-03 -1.48442413E-02 -7.14128348E-03 -8.08454523E-04  1.40824063E-03
  4.01942237E-03 -8.60179794E-03 -1.58641110E-02  3.10349378E-02  2.50445068E-02
  3.61438636E-03 -3.19076153E-03  7.00832203E-04 -2.92020614E-03 -3.35256499E-03
  7.50776769E-04 -6.18705461E-03 -6.45430624E-03  1.41132291E-03 -1.19673016E-02
  8.51938968E-03 -1.86013868E-03  1.68632351E-02  2.03826355E-02 -4.94009248E-03
  3.20576699E-02  9.19128313E-03 -5.24743851E-03  1.08597284E-02 -2.08192792E-03
 -3.24758889E-03 -1.10993164E-03 -1.45908218E-03  1.19870064E-03  1.65305993E-01
  2.59998613E-01  7.98402516E-02  1.14541609E-03  1.79074187E-02 -2.44660474E-02
 -1.02128333E-02 -1.56232567E-02 -1.22381355E-02  9.53186594E-04 -6.11082930E-04
 -1.31600605E-03 -2.32847938E-03 -3.89751701E-03  1.01182617E-02  2.24240061E-02
 -1.14965798E-02  1.16193560E-02  1.50228855E-02  3.24803002E-02 -1.67795285E-02
  2.01101774E-02  1.39106096E-02  2.36500950E-02 -6.89522846E-03  9.72594189E-03
  7.69800736E-03  3.69823799E-03 -7.90787827E-04 -5.78853898E-04  9.03814375E-04
  1.43491081E-03  1.20718971E-03 -6.50028749E-05  1.20002419E-02  3.42907011E-02
 -7.37643950E-02 -1.34552826E-01  2.46641045E-01  2.97049229E-01  2.05427383E-02
 -8.14626401E-04 -4.56329133E-03 -2.33439128E-02 -1.00511866E-02 -1.79170159E-02
 -8.00623451E-02 -1.95990379E-02 -3.48918885E-02 -1.55912626E-01  2.90778358E-02
  5.09758058E-02  2.27490853E-01  4.99334848E-02  8.83532867E-02  3.95941811E-01
  1.39020200E-02  2.22595702E-02  1.07370502E-01 -4.71687511E-02 -1.05907215E-02
 -1.86151680E-02  7.03238943E-03 -2.59997993E-03 -1.51104922E-02 -2.71971507E-02
 -4.33956960E-03  1.81182576E-03 -9.48376122E-04  3.45780655E-03 -1.57313203E-01
 -2.84963298E-01 -1.30833710E-01 -5.53439588E-03 -5.58083280E-03 -2.58578680E-02
 -4.61154933E-04 -7.79086987E-04 -1.23325267E-02  2.44091368E-01  1.79043435E-01
  2.67238352E-03 -1.81743714E-02  3.57237658E-01  2.62030852E-01  2.63503318E-03
 -1.69149718E-02  3.23298238E-01  2.35993866E-01 -8.57521142E-03 -5.77228658E-03
  7.27607918E-02  5.08431718E-02  1.19164106E-02  3.80597687E-04  4.17156690E-03
  6.82062088E-03  1.69063610E-03 -3.86286118E-04 -1.10840843E-03  2.42582254E-03
  4.24154106E-03 -6.95869843E-03 -1.49110017E-02 -5.46715166E-03 -7.59085326E-06
 -4.16576150E-03  3.46596961E-03 -1.16318149E-03 -8.73348950E-03  6.49474119E-03
 -2.26079938E-03 -1.67759221E-02  1.26351285E-02  3.10846644E-03  2.42517424E-02
 -1.89391910E-02  6.96916361E-03  5.11625910E-02 -3.41405752E-02  4.16090447E-03
  3.06512414E-02 -8.24534382E-03  4.05672790E-03 -1.93951509E-03 -8.25301351E-05
 -4.53692617E-04 -3.06710254E-03  4.79610807E-04  1.74893431E-03  5.65998901E-03
 -1.46520386E-03  2.89579761E-02  2.06479794E-02  9.32190639E-03  1.60072673E-02
  1.54514941E-02  2.09722301E-03  2.34645069E-03  1.10899546E-03 -6.67672814E-03
 -1.14009977E-02 -2.09066855E-01 -1.23211042E-02 -1.33148858E-02  3.96836658E-02
 -3.11263159E-01 -1.79927026E-02 -1.92684937E-02  3.24871509E-02 -3.04085484E-01
 -9.60139354E-03 -3.00793260E-02 -2.48659624E-02 -7.74817034E-02 -2.17024216E-03
  7.97171884E-05  9.51839916E-04 -9.32444857E-03  5.58291803E-04 -3.84296079E-03
  6.90613124E-03  2.20073448E-03  6.26918715E-03 -1.33273554E-02 -2.60284742E-02
  6.04245558E-02  1.57553134E-02  1.01003657E-02 -5.13652446E-02 -1.03213878E-02
  2.36590650E-03 -6.16031454E-02 -1.22701857E-02  7.20145206E-03 -1.18912810E-01
 -2.36460472E-02  1.40967966E-02  1.63978565E-01  3.53850108E-02 -2.07993553E-02
  3.72255936E-01  6.99550340E-02 -3.72780963E-02  2.00325401E-01  4.67366556E-02
 -2.67192523E-02  9.61841625E-03 -1.02927577E-02 -1.24122074E-03 -1.25396677E-02
 -3.11336441E-03  2.06117057E-04  2.07493238E-02 -8.55614150E-03 -2.43239944E-02
  1.08151156E-03 -5.06491443E-03  1.08037180E-03  8.97893865E-03 -8.87551290E-04
  1.17096697E-02  2.81936837E-03  7.94306210E-05  1.86172675E-03  3.15716387E-03
  3.35371061E-02 -3.26678400E-02 -1.06593543E-02 -1.04593929E-02  4.98480278E-02
 -4.77836751E-02 -1.56146019E-02 -1.15933818E-02  4.96389385E-02 -4.39338861E-02
 -1.43094929E-02 -2.15512536E-03  1.26406213E-02 -8.64617738E-03 -8.55516077E-03