 Entering Gaussian System, Link 0=g16
 Initial command:
 /home/szhao/Apps/g16/l1.exe "/home/szhao/tmp/Gau-55506.inp" -scrdir="/home/szhao/tmp/"
 Default is to use a total of  16 processors:
                               16 via shared-memory
                                1 via Linda
 Entering Link 1 = /home/szhao/Apps/g16/l1.exe PID=     55507.
  
 Copyright (c) 1988,1990,1992,1993,1995,1998,2003,2009,2016,
            Gaussian, Inc.  All Rights Reserved.
  
 This is part of the Gaussian(R) 16 program.  It is based on
 the Gaussian(R) 09 system (copyright 2009, Gaussian, Inc.),
 the Gaussian(R) 03 system (copyright 2003, Gaussian, Inc.),
 the Gaussian(R) 98 system (copyright 1998, Gaussian, Inc.),
 the Gaussian(R) 94 system (copyright 1995, Gaussian, Inc.),
 the Gaussian 92(TM) system (copyright 1992, Gaussian, Inc.),
 the Gaussian 90(TM) system (copyright 1990, Gaussian, Inc.),
 the Gaussian 88(TM) system (copyright 1988, Gaussian, Inc.),
 the Gaussian 86(TM) system (copyright 1986, Carnegie Mellon
 University), and the Gaussian 82(TM) system (copyright 1983,
 Carnegie Mellon University). Gaussian is a federally registered
 trademark of Gaussian, Inc.
  
 This software contains proprietary and confidential information,
 including trade secrets, belonging to Gaussian, Inc.
  
 This software is provided under written license and may be
 used, copied, transmitted, or stored only in accord with that
 written license.
  
 The following legend is applicable only to US Government
 contracts under FAR:
  
                    RESTRICTED RIGHTS LEGEND
  
 Use, reproduction and disclosure by the US Government is
 subject to restrictions as set forth in subparagraphs (a)
 and (c) of the Commercial Computer Software - Restricted
 Rights clause in FAR 52.227-19.
  
 Gaussian, Inc.
 340 Quinnipiac St., Bldg. 40, Wallingford CT 06492
  
  
 ---------------------------------------------------------------
 Warning -- This program may not be used in any manner that
 competes with the business of Gaussian, Inc. or will provide
 assistance to any competitor of Gaussian, Inc.  The licensee
 of this program is prohibited from giving any competitor of
 Gaussian, Inc. access to this program.  By using this program,
 the user acknowledges that Gaussian, Inc. is engaged in the
 business of creating and licensing software in the field of
 computational chemistry and represents and warrants to the
 licensee that it is not a competitor of Gaussian, Inc. and that
 it will not use this program in any manner prohibited above.
 ---------------------------------------------------------------
  

 Cite this work as:
 Gaussian 16, Revision A.03,
 M. J. Frisch, G. W. Trucks, H. B. Schlegel, G. E. Scuseria, 
 M. A. Robb, J. R. Cheeseman, G. Scalmani, V. Barone, 
 G. A. Petersson, H. Nakatsuji, X. Li, M. Caricato, A. V. Marenich, 
 J. Bloino, B. G. Janesko, R. Gomperts, B. Mennucci, H. P. Hratchian, 
 J. V. Ortiz, A. F. Izmaylov, J. L. Sonnenberg, D. Williams-Young, 
 F. Ding, F. Lipparini, F. Egidi, J. Goings, B. Peng, A. Petrone, 
 T. Henderson, D. Ranasinghe, V. G. Zakrzewski, J. Gao, N. Rega, 
 G. Zheng, W. Liang, M. Hada, M. Ehara, K. Toyota, R. Fukuda, 
 J. Hasegawa, M. Ishida, T. Nakajima, Y. Honda, O. Kitao, H. Nakai, 
 T. Vreven, K. Throssell, J. A. Montgomery, Jr., J. E. Peralta, 
 F. Ogliaro, M. J. Bearpark, J. J. Heyd, E. N. Brothers, K. N. Kudin, 
 V. N. Staroverov, T. A. Keith, R. Kobayashi, J. Normand, 
 K. Raghavachari, A. P. Rendell, J. C. Burant, S. S. Iyengar, 
 J. Tomasi, M. Cossi, J. M. Millam, M. Klene, C. Adamo, R. Cammi, 
 J. W. Ochterski, R. L. Martin, K. Morokuma, O. Farkas, 
 J. B. Foresman, and D. J. Fox, Gaussian, Inc., Wallingford CT, 2016.
 
 ******************************************
 Gaussian 16:  ES64L-G16RevA.03 25-Dec-2016
                21-Apr-2025 
 ******************************************
 %chk=opt.chk
 %mem=4GB
 %nprocshared=8
 Will use up to    8 processors via shared memory.
 --------------------------------------------
 #p opt UM062X/6-311+G** nosymm int=superfine
 --------------------------------------------
 1/18=20,19=15,26=5,38=1/1,3;
 2/9=110,12=2,15=1,17=6,18=5,40=1/2;
 3/5=4,6=6,7=111,11=2,25=1,30=1,71=1,74=-55,75=-7,116=2/1,2,3;
 4//1;
 5/5=2,38=5/2;
 6/7=2,8=2,9=2,10=2,28=1/1;
 7/30=1/1,2,3,16;
 1/18=20,19=15,26=5/3(2);
 2/9=110,15=1/2;
 99//99;
 2/9=110,15=1/2;
 3/5=4,6=6,7=111,11=2,25=1,30=1,71=1,74=-55,75=-7,116=2/1,2,3;
 4/5=5,16=3,69=1/1;
 5/5=2,38=5/2;
 7/30=1/1,2,3,16;
 1/18=20,19=15,26=5/3(-5);
 2/9=110,15=1/2;
 6/7=2,8=2,9=2,10=2,19=2,28=1/1;
 99/9=1/99;
 Leave Link    1 at Mon Apr 21 19:27:21 2025, MaxMem=   536870912 cpu:               1.2 elap:               0.2
 (Enter /home/szhao/Apps/g16/l101.exe)
 -------------------
 Title Card Required
 -------------------
 Symbolic Z-matrix:
 Charge =  1 Multiplicity = 2
 C                    -1   -1.86943   0.        0. 
 P                    -1    1.86943   0.        0. 
 H                    0    -2.95418   0.        0. 
 
 Add virtual bond connecting atoms P2         and C1         Dist= 7.07D+00.
 ITRead=  2  2  0
 MicOpt= -2 -2 -1
 NAtoms=      3 NQM=        1 NQMF=       2 NMMI=      0 NMMIF=      0
                NMic=       0 NMicF=      0.
                    Isotopes and Nuclear Properties:
 (Nuclear quadrupole moments (NQMom) in fm**2, nuclear magnetic moments (NMagM)
  in nuclear magnetons)

  Atom         1           2           3
 IAtWgt=          12          31           1
 AtmWgt=  12.0000000  30.9737634   1.0078250
 NucSpn=           0           1           1
 AtZEff=  -0.0000000  -0.0000000  -0.0000000
 NQMom=    0.0000000   0.0000000   0.0000000
 NMagM=    0.0000000   1.1316000   2.7928460
 AtZNuc=   6.0000000  15.0000000   1.0000000
 Leave Link  101 at Mon Apr 21 19:27:22 2025, MaxMem=   536870912 cpu:               2.5 elap:               0.4
 (Enter /home/szhao/Apps/g16/l103.exe)

 GradGradGradGradGradGradGradGradGradGradGradGradGradGradGradGradGradGrad
 Berny optimization.
 Initialization pass.
                           ----------------------------
                           !    Initial Parameters    !
                           ! (Angstroms and Degrees)  !
 --------------------------                            --------------------------
 ! Name  Definition              Value          Derivative Info.                !
 --------------------------------------------------------------------------------
 ! X1    R(1,-1)                -1.8694         Frozen                          !
 ! Y1    R(1,-2)                 0.0            Frozen                          !
 ! Z1    R(1,-3)                 0.0            Frozen                          !
 ! X2    R(2,-1)                 1.8694         Frozen                          !
 ! Y2    R(2,-2)                 0.0            Frozen                          !
 ! Z2    R(2,-3)                 0.0            Frozen                          !
 ! R1    R(1,3)                  1.0848         estimate D2E/DX2                !
 ! A1    L(2,1,3,-2,-1)        180.0            estimate D2E/DX2                !
 ! A2    L(2,1,3,-3,-2)        180.0            estimate D2E/DX2                !
 --------------------------------------------------------------------------------
 Trust Radius=3.00D-01 FncErr=1.00D-07 GrdErr=1.00D-07 EigMax=2.50D+02 EigMin=1.00D-04
 Number of steps in this run=     20 maximum allowed number of steps=    100.
 GradGradGradGradGradGradGradGradGradGradGradGradGradGradGradGradGradGrad

 Leave Link  103 at Mon Apr 21 19:27:22 2025, MaxMem=   536870912 cpu:               0.3 elap:               0.1
 (Enter /home/szhao/Apps/g16/l202.exe)
                          Input orientation:                          
 ---------------------------------------------------------------------
 Center     Atomic      Atomic             Coordinates (Angstroms)
 Number     Number       Type             X           Y           Z
 ---------------------------------------------------------------------
      1          6           0       -1.869427    0.000000    0.000000
      2         15           0        1.869427    0.000000    0.000000
      3          1           0       -2.954184    0.000000    0.000000
 ---------------------------------------------------------------------
                    Distance matrix (angstroms):
                    1          2          3
     1  C    0.000000
     2  P    3.738854   0.000000
     3  H    1.084757   4.823611   0.000000
 Symmetry turned off by external request.
 Stoichiometry    CHP(1+,2)
 Framework group  C*V[C*(HCP)]
 Deg. of freedom     2
 Full point group                 C*V     NOp   4
 Rotational constants (GHZ):           0.0000000           3.7442880           3.7442880
 Leave Link  202 at Mon Apr 21 19:27:22 2025, MaxMem=   536870912 cpu:               0.2 elap:               0.1
 (Enter /home/szhao/Apps/g16/l301.exe)
 Standard basis: 6-311+G(d,p) (5D, 7F)
 Ernie: Thresh=  0.10000D-02 Tol=  0.10000D-05 Strict=F.
    58 basis functions,    94 primitive gaussians,    60 cartesian basis functions
    11 alpha electrons       10 beta electrons
       nuclear repulsion energy        17.3106794842 Hartrees.
 IExCor= 4336 DFT=T Ex+Corr=M062X ExCW=0 ScaHFX=  0.540000
 ScaDFX=  1.000000  1.000000  1.000000  1.000000 ScalE2=  1.000000  1.000000
 IRadAn=      7 IRanWt=     -1 IRanGd=            0 ICorTp=0 IEmpDi=  4
 NAtoms=    3 NActive=    3 NUniq=    3 SFac= 1.00D+00 NAtFMM=   60 NAOKFM=F Big=F
 Integral buffers will be    131072 words long.
 Raffenetti 2 integral format.
 Two-electron integral symmetry is turned off.
 Leave Link  301 at Mon Apr 21 19:27:23 2025, MaxMem=   536870912 cpu:               0.8 elap:               0.2
 (Enter /home/szhao/Apps/g16/l302.exe)
 NPDir=0 NMtPBC=     1 NCelOv=     1 NCel=       1 NClECP=     1 NCelD=      1
         NCelK=      1 NCelE2=     1 NClLst=     1 CellRange=     0.0.
 One-electron integrals computed using PRISM.
 NBasis=    58 RedAO= T EigKep=  1.69D-02  NBF=    58
 NBsUse=    58 1.00D-06 EigRej= -1.00D+00 NBFU=    58
 Precomputing XC quadrature grid using
 IXCGrd= 4 IRadAn=           7 IRanWt=          -1 IRanGd=           0 AccXCQ= 0.00D+00.
 Generated NRdTot=       0 NPtTot=           0 NUsed=           0 NTot=          32
 NSgBfM=    58    58    58    58    58 MxSgAt=     3 MxSgA2=     3.
 Leave Link  302 at Mon Apr 21 19:27:23 2025, MaxMem=   536870912 cpu:               2.2 elap:               0.4
 (Enter /home/szhao/Apps/g16/l303.exe)
 DipDrv:  MaxL=1.
 Leave Link  303 at Mon Apr 21 19:27:24 2025, MaxMem=   536870912 cpu:               1.3 elap:               0.2
 (Enter /home/szhao/Apps/g16/l401.exe)
 ExpMin= 3.48D-02 ExpMax= 7.75D+04 ExpMxC= 2.65D+03 IAcc=3 IRadAn=         7 AccDes= 0.00D+00
 Harris functional with IExCor= 1009 and IRadAn=       7 diagonalized for initial guess.
 HarFok:  IExCor= 1009 AccDes= 0.00D+00 IRadAn=         7 IDoV= 1 UseB2=F ITyADJ=14
 ICtDFT=  3500011 ScaDFX=  1.000000  1.000000  1.000000  1.000000
 FoFCou: FMM=F IPFlag=           0 FMFlag=      100000 FMFlg1=           0
         NFxFlg=           0 DoJE=T BraDBF=F KetDBF=T FulRan=T
         wScrn=  0.000000 ICntrl=       500 IOpCl=  0 I1Cent=   200000004 NGrid=           0
         NMat0=    1 NMatS0=      1 NMatT0=    0 NMatD0=    1 NMtDS0=    0 NMtDT0=    0
 Symmetry not used in FoFCou.
 Harris En= -379.271763560464    
 JPrj=0 DoOrth=F DoCkMO=F.
 Initial guess <Sx>= 0.0000 <Sy>= 0.0000 <Sz>= 0.5000 <S**2>= 0.7500 S= 0.5000
 Leave Link  401 at Mon Apr 21 19:27:24 2025, MaxMem=   536870912 cpu:               2.8 elap:               0.4
 (Enter /home/szhao/Apps/g16/l502.exe)
 Keep R1 and R2 ints in memory in canonical form, NReq=10036953.
 FoFCou: FMM=F IPFlag=           0 FMFlag=           0 FMFlg1=           0
         NFxFlg=           0 DoJE=F BraDBF=F KetDBF=F FulRan=T
         wScrn=  0.000000 ICntrl=       600 IOpCl=  0 I1Cent=           0 NGrid=           0
         NMat0=    1 NMatS0=   1711 NMatT0=    0 NMatD0=    1 NMtDS0=    0 NMtDT0=    0
 Symmetry not used in FoFCou.
 Two-electron integral symmetry not used.
 UHF open shell SCF:
 Using DIIS extrapolation, IDIIS=  1040.
 NGot=   536870912 LenX=   533933447 LenY=   533929406
 Requested convergence on RMS density matrix=1.00D-08 within 128 cycles.
 Requested convergence on MAX density matrix=1.00D-06.
 Requested convergence on             energy=1.00D-06.
 No special actions if energy rises.

 Cycle   1  Pass 1  IDiag  1:
 E= -377.839952927783    
 DIIS: error= 9.26D-02 at cycle   1 NSaved=   1.
 NSaved= 1 IEnMin= 1 EnMin= -377.839952927783     IErMin= 1 ErrMin= 9.26D-02
 ErrMax= 9.26D-02  0.00D+00 EMaxC= 1.00D-01 BMatC= 1.62D+00 BMatP= 1.62D+00
 IDIUse=3 WtCom= 7.41D-02 WtEn= 9.26D-01
 Coeff-Com:  0.100D+01
 Coeff-En:   0.100D+01
 Coeff:      0.100D+01
 Gap=    -0.985 Goal=   None    Shift=    0.000
 Gap=     0.209 Goal=   None    Shift=    0.000
 GapD=   -0.985 DampG=0.250 DampE=0.500 DampFc=0.2500 IDamp=-1.
 Damping current iteration by 2.50D-01
 RMSDP=3.95D-02 MaxDP=1.30D+00              OVMax= 1.00D+00

 Cycle   2  Pass 1  IDiag  1:
 E= -378.602916549451     Delta-E=       -0.762963621668 Rises=F Damp=T
 DIIS: error= 2.03D-02 at cycle   2 NSaved=   2.
 NSaved= 2 IEnMin= 2 EnMin= -378.602916549451     IErMin= 2 ErrMin= 2.03D-02
 ErrMax= 2.03D-02  0.00D+00 EMaxC= 1.00D-01 BMatC= 1.04D-01 BMatP= 1.62D+00
 IDIUse=3 WtCom= 7.97D-01 WtEn= 2.03D-01
 Coeff-Com: -0.166D+00 0.117D+01
 Coeff-En:   0.532D-01 0.947D+00
 Coeff:     -0.122D+00 0.112D+01
 Gap=     0.085 Goal=   None    Shift=    0.000
 Gap=     0.339 Goal=   None    Shift=    0.000
 RMSDP=1.47D-02 MaxDP=2.97D-01 DE=-7.63D-01 OVMax= 1.00D+00

 Cycle   3  Pass 1  IDiag  1:
 E= -379.037444708097     Delta-E=       -0.434528158646 Rises=F Damp=F
 DIIS: error= 6.05D-02 at cycle   3 NSaved=   3.
 NSaved= 3 IEnMin= 3 EnMin= -379.037444708097     IErMin= 2 ErrMin= 2.03D-02
 ErrMax= 6.05D-02  0.00D+00 EMaxC= 1.00D-01 BMatC= 4.82D-01 BMatP= 1.04D-01
 IDIUse=2 WtCom= 0.00D+00 WtEn= 1.00D+00
 Coeff-En:   0.249D+00 0.000D+00 0.751D+00
 Coeff:      0.249D+00 0.000D+00 0.751D+00
 Gap=     0.084 Goal=   None    Shift=    0.000
 Gap=     0.130 Goal=   None    Shift=    0.000
 RMSDP=7.76D-03 MaxDP=1.21D-01 DE=-4.35D-01 OVMax= 3.78D-01

 Cycle   4  Pass 1  IDiag  1:
 E= -379.274915153923     Delta-E=       -0.237470445825 Rises=F Damp=F
 DIIS: error= 1.72D-02 at cycle   4 NSaved=   4.
 NSaved= 4 IEnMin= 4 EnMin= -379.274915153923     IErMin= 4 ErrMin= 1.72D-02
 ErrMax= 1.72D-02  0.00D+00 EMaxC= 1.00D-01 BMatC= 3.60D-02 BMatP= 1.04D-01
 IDIUse=3 WtCom= 8.28D-01 WtEn= 1.72D-01
 Coeff-Com: -0.741D-01 0.252D+00 0.940D-01 0.728D+00
 Coeff-En:   0.000D+00 0.000D+00 0.161D-01 0.984D+00
 Coeff:     -0.614D-01 0.209D+00 0.806D-01 0.772D+00
 Gap=     0.069 Goal=   None    Shift=    0.000
 Gap=     0.084 Goal=   None    Shift=    0.000
 RMSDP=2.74D-03 MaxDP=4.71D-02 DE=-2.37D-01 OVMax= 1.66D-01

 Cycle   5  Pass 1  IDiag  1:
 E= -379.287698198075     Delta-E=       -0.012783044152 Rises=F Damp=F
 DIIS: error= 9.00D-03 at cycle   5 NSaved=   5.
 NSaved= 5 IEnMin= 5 EnMin= -379.287698198075     IErMin= 5 ErrMin= 9.00D-03
 ErrMax= 9.00D-03  0.00D+00 EMaxC= 1.00D-01 BMatC= 1.47D-02 BMatP= 3.60D-02
 IDIUse=3 WtCom= 9.10D-01 WtEn= 9.00D-02
 Coeff-Com: -0.130D-01 0.545D-01-0.686D-01 0.286D+00 0.741D+00
 Coeff-En:   0.000D+00 0.000D+00 0.000D+00 0.237D+00 0.763D+00
 Coeff:     -0.118D-01 0.496D-01-0.624D-01 0.281D+00 0.743D+00
 Gap=     0.079 Goal=   None    Shift=    0.000
 Gap=     0.085 Goal=   None    Shift=    0.000
 RMSDP=1.09D-03 MaxDP=2.16D-02 DE=-1.28D-02 OVMax= 6.40D-02

 Cycle   6  Pass 1  IDiag  1:
 E= -379.294354596827     Delta-E=       -0.006656398753 Rises=F Damp=F
 DIIS: error= 6.72D-03 at cycle   6 NSaved=   6.
 NSaved= 6 IEnMin= 6 EnMin= -379.294354596827     IErMin= 6 ErrMin= 6.72D-03
 ErrMax= 6.72D-03  0.00D+00 EMaxC= 1.00D-01 BMatC= 3.00D-03 BMatP= 1.47D-02
 IDIUse=3 WtCom= 9.33D-01 WtEn= 6.72D-02
 Coeff-Com:  0.823D-02 0.836D-02-0.260D-01 0.111D+00 0.362D-01 0.862D+00
 Coeff-En:   0.000D+00 0.000D+00 0.000D+00 0.000D+00 0.000D+00 0.100D+01
 Coeff:      0.767D-02 0.780D-02-0.242D-01 0.104D+00 0.338D-01 0.871D+00
 Gap=     0.073 Goal=   None    Shift=    0.000
 Gap=     0.079 Goal=   None    Shift=    0.000
 RMSDP=1.09D-03 MaxDP=1.86D-02 DE=-6.66D-03 OVMax= 7.96D-02

 Cycle   7  Pass 1  IDiag  1:
 E= -379.298276933745     Delta-E=       -0.003922336918 Rises=F Damp=F
 DIIS: error= 3.82D-03 at cycle   7 NSaved=   7.
 NSaved= 7 IEnMin= 7 EnMin= -379.298276933745     IErMin= 7 ErrMin= 3.82D-03
 ErrMax= 3.82D-03  0.00D+00 EMaxC= 1.00D-01 BMatC= 4.62D-04 BMatP= 3.00D-03
 IDIUse=3 WtCom= 9.62D-01 WtEn= 3.82D-02
 Coeff-Com: -0.517D-02 0.177D-01 0.174D-02-0.579D-02-0.175D-01 0.108D-01
 Coeff-Com:  0.998D+00
 Coeff-En:   0.000D+00 0.000D+00 0.000D+00 0.000D+00 0.000D+00 0.000D+00
 Coeff-En:   0.100D+01
 Coeff:     -0.497D-02 0.170D-01 0.168D-02-0.557D-02-0.168D-01 0.104D-01
 Coeff:      0.998D+00
 Gap=     0.071 Goal=   None    Shift=    0.000
 Gap=     0.082 Goal=   None    Shift=    0.000
 RMSDP=1.35D-03 MaxDP=2.83D-02 DE=-3.92D-03 OVMax= 1.16D-01

 Cycle   8  Pass 1  IDiag  1:
 E= -379.300766869606     Delta-E=       -0.002489935861 Rises=F Damp=F
 DIIS: error= 8.39D-03 at cycle   8 NSaved=   8.
 NSaved= 8 IEnMin= 8 EnMin= -379.300766869606     IErMin= 7 ErrMin= 3.82D-03
 ErrMax= 8.39D-03  0.00D+00 EMaxC= 1.00D-01 BMatC= 2.86D-03 BMatP= 4.62D-04
 IDIUse=3 WtCom= 9.62D-01 WtEn= 3.82D-02
 Coeff-Com: -0.402D-02 0.175D-01-0.412D-02-0.793D-02-0.184D-01 0.409D+00
 Coeff-Com:  0.226D+00 0.383D+00
 Coeff-En:   0.000D+00 0.000D+00 0.000D+00 0.000D+00 0.000D+00 0.000D+00
 Coeff-En:   0.000D+00 0.100D+01
 Coeff:     -0.387D-02 0.168D-01-0.396D-02-0.762D-02-0.177D-01 0.393D+00
 Coeff:      0.217D+00 0.406D+00
 Gap=     0.073 Goal=   None    Shift=    0.000
 Gap=     0.090 Goal=   None    Shift=    0.000
 RMSDP=6.05D-04 MaxDP=1.24D-02 DE=-2.49D-03 OVMax= 5.78D-02

 Cycle   9  Pass 1  IDiag  1:
 E= -379.303700099904     Delta-E=       -0.002933230298 Rises=F Damp=F
 DIIS: error= 7.03D-03 at cycle   9 NSaved=   9.
 NSaved= 9 IEnMin= 9 EnMin= -379.303700099904     IErMin= 7 ErrMin= 3.82D-03
 ErrMax= 7.03D-03  0.00D+00 EMaxC= 1.00D-01 BMatC= 1.73D-03 BMatP= 4.62D-04
 IDIUse=3 WtCom= 9.62D-01 WtEn= 3.82D-02
 Coeff-Com: -0.459D-02 0.178D-01-0.954D-02-0.674D-01-0.904D-01 0.116D+01
 Coeff-Com: -0.612D+00 0.191D+01-0.130D+01
 Coeff-En:   0.000D+00 0.000D+00 0.000D+00 0.000D+00 0.000D+00 0.000D+00
 Coeff-En:   0.000D+00 0.000D+00 0.100D+01
 Coeff:     -0.441D-02 0.172D-01-0.918D-02-0.648D-01-0.869D-01 0.111D+01
 Coeff:     -0.589D+00 0.184D+01-0.121D+01
 Gap=     0.073 Goal=   None    Shift=    0.000
 Gap=     0.080 Goal=   None    Shift=    0.000
 RMSDP=1.48D-03 MaxDP=3.06D-02 DE=-2.93D-03 OVMax= 1.12D-01

 Cycle  10  Pass 1  IDiag  1:
 E= -379.299678463708     Delta-E=        0.004021636196 Rises=F Damp=F
 DIIS: error= 2.86D-03 at cycle  10 NSaved=  10.
 NSaved=10 IEnMin= 9 EnMin= -379.303700099904     IErMin=10 ErrMin= 2.86D-03
 ErrMax= 2.86D-03  0.00D+00 EMaxC= 1.00D-01 BMatC= 3.23D-04 BMatP= 4.62D-04
 IDIUse=3 WtCom= 9.71D-01 WtEn= 2.86D-02
 Rare condition: small coef for last iteration:  0.000D+00
 Coeff-Com: -0.496D-03 0.201D-02 0.609D-02-0.227D-01-0.602D-01 0.744D-01
 Coeff-Com: -0.130D+01-0.556D+00 0.134D+00 0.272D+01
 Coeff-En:   0.000D+00 0.000D+00 0.000D+00 0.000D+00 0.000D+00 0.000D+00
 Coeff-En:   0.000D+00 0.000D+00 0.000D+00 0.100D+01
 Coeff:     -0.496D-03 0.201D-02 0.609D-02-0.227D-01-0.602D-01 0.744D-01
 Coeff:     -0.130D+01-0.556D+00 0.134D+00 0.272D+01
 Gap=     0.080 Goal=   None    Shift=    0.000
 Gap=     0.080 Goal=   None    Shift=    0.000
 RMSDP=1.09D-03 MaxDP=1.92D-02 DE= 4.02D-03 OVMax= 9.23D-02

 Cycle  11  Pass 1  IDiag  1:
 E= -379.299912048251     Delta-E=       -0.000233584543 Rises=F Damp=F
 DIIS: error= 2.89D-03 at cycle  11 NSaved=  11.
 NSaved=11 IEnMin= 9 EnMin= -379.303700099904     IErMin=10 ErrMin= 2.86D-03
 ErrMax= 2.89D-03  0.00D+00 EMaxC= 1.00D-01 BMatC= 4.42D-04 BMatP= 3.23D-04
 IDIUse=3 WtCom= 9.71D-01 WtEn= 2.86D-02
 Coeff-Com: -0.375D-03-0.511D-03 0.728D-03-0.407D-02-0.298D-01 0.712D-01
 Coeff-Com:  0.436D+00-0.474D+00 0.301D+00-0.228D+00 0.927D+00
 Coeff-En:   0.000D+00 0.000D+00 0.000D+00 0.000D+00 0.000D+00 0.000D+00
 Coeff-En:   0.000D+00 0.000D+00 0.000D+00 0.000D+00 0.100D+01
 Coeff:     -0.364D-03-0.496D-03 0.707D-03-0.396D-02-0.289D-01 0.692D-01
 Coeff:      0.424D+00-0.460D+00 0.293D+00-0.221D+00 0.929D+00
 Gap=     0.080 Goal=   None    Shift=    0.000
 Gap=     0.080 Goal=   None    Shift=    0.000
 RMSDP=4.43D-04 MaxDP=7.34D-03 DE=-2.34D-04 OVMax= 3.13D-02

 Cycle  12  Pass 1  IDiag  1:
 E= -379.300133302626     Delta-E=       -0.000221254375 Rises=F Damp=F
 DIIS: error= 1.11D-03 at cycle  12 NSaved=  12.
 NSaved=12 IEnMin= 9 EnMin= -379.303700099904     IErMin=12 ErrMin= 1.11D-03
 ErrMax= 1.11D-03  0.00D+00 EMaxC= 1.00D-01 BMatC= 7.56D-05 BMatP= 3.23D-04
 IDIUse=3 WtCom= 9.89D-01 WtEn= 1.11D-02
 Coeff-Com: -0.190D-05-0.311D-03 0.764D-03-0.195D-02-0.808D-02 0.483D-02
 Coeff-Com:  0.111D+00-0.750D-01 0.911D-01-0.189D+00 0.419D+00 0.647D+00
 Coeff-En:   0.000D+00 0.000D+00 0.000D+00 0.000D+00 0.000D+00 0.000D+00
 Coeff-En:   0.000D+00 0.000D+00 0.000D+00 0.000D+00 0.235D+00 0.765D+00
 Coeff:     -0.187D-05-0.308D-03 0.756D-03-0.193D-02-0.799D-02 0.477D-02
 Coeff:      0.110D+00-0.742D-01 0.900D-01-0.187D+00 0.417D+00 0.649D+00
 Gap=     0.080 Goal=   None    Shift=    0.000
 Gap=     0.081 Goal=   None    Shift=    0.000
 RMSDP=1.57D-04 MaxDP=2.39D-03 DE=-2.21D-04 OVMax= 1.12D-02

 Cycle  13  Pass 1  IDiag  1:
 E= -379.300202205664     Delta-E=       -0.000068903038 Rises=F Damp=F
 DIIS: error= 2.36D-04 at cycle  13 NSaved=  13.
 NSaved=13 IEnMin= 9 EnMin= -379.303700099904     IErMin=13 ErrMin= 2.36D-04
 ErrMax= 2.36D-04  0.00D+00 EMaxC= 1.00D-01 BMatC= 1.97D-06 BMatP= 7.56D-05
 IDIUse=3 WtCom= 9.98D-01 WtEn= 2.36D-03
 Coeff-Com: -0.734D-06-0.723D-04 0.110D-03-0.159D-02-0.386D-02 0.164D-01
 Coeff-Com:  0.248D-01-0.149D-01-0.364D-02-0.158D-01 0.924D-01-0.122D+00
 Coeff-Com:  0.103D+01
 Coeff-En:   0.000D+00 0.000D+00 0.000D+00 0.000D+00 0.000D+00 0.000D+00
 Coeff-En:   0.000D+00 0.000D+00 0.000D+00 0.000D+00 0.000D+00 0.000D+00
 Coeff-En:   0.100D+01
 Coeff:     -0.732D-06-0.721D-04 0.110D-03-0.159D-02-0.385D-02 0.164D-01
 Coeff:      0.248D-01-0.149D-01-0.363D-02-0.158D-01 0.921D-01-0.122D+00
 Coeff:      0.103D+01
 Gap=     0.080 Goal=   None    Shift=    0.000
 Gap=     0.081 Goal=   None    Shift=    0.000
 RMSDP=3.52D-05 MaxDP=8.01D-04 DE=-6.89D-05 OVMax= 3.30D-03

 Cycle  14  Pass 1  IDiag  1:
 E= -379.300203545298     Delta-E=       -0.000001339634 Rises=F Damp=F
 DIIS: error= 5.58D-05 at cycle  14 NSaved=  14.
 NSaved=14 IEnMin= 9 EnMin= -379.303700099904     IErMin=14 ErrMin= 5.58D-05
 ErrMax= 5.58D-05  0.00D+00 EMaxC= 1.00D-01 BMatC= 2.47D-07 BMatP= 1.97D-06
 IDIUse=1 WtCom= 1.00D+00 WtEn= 0.00D+00
 Coeff-Com: -0.216D-05 0.134D-04-0.261D-04 0.374D-03 0.150D-02 0.150D-02
 Coeff-Com: -0.776D-02-0.130D-01 0.114D-01-0.765D-03-0.162D-01-0.799D-01
 Coeff-Com:  0.165D+00 0.938D+00
 Coeff:     -0.216D-05 0.134D-04-0.261D-04 0.374D-03 0.150D-02 0.150D-02
 Coeff:     -0.776D-02-0.130D-01 0.114D-01-0.765D-03-0.162D-01-0.799D-01
 Coeff:      0.165D+00 0.938D+00
 Gap=     0.080 Goal=   None    Shift=    0.000
 Gap=     0.081 Goal=   None    Shift=    0.000
 RMSDP=1.70D-05 MaxDP=2.94D-04 DE=-1.34D-06 OVMax= 1.49D-03

 Cycle  15  Pass 1  IDiag  1:
 E= -379.300203820706     Delta-E=       -0.000000275408 Rises=F Damp=F
 DIIS: error= 3.03D-05 at cycle  15 NSaved=  15.
 NSaved=15 IEnMin= 9 EnMin= -379.303700099904     IErMin=15 ErrMin= 3.03D-05
 ErrMax= 3.03D-05  0.00D+00 EMaxC= 1.00D-01 BMatC= 4.73D-08 BMatP= 2.47D-07
 IDIUse=1 WtCom= 1.00D+00 WtEn= 0.00D+00
 Coeff-Com:  0.136D-05-0.103D-04-0.501D-05-0.535D-04-0.348D-03 0.306D-04
 Coeff-Com: -0.167D-03 0.178D-02-0.213D-02 0.286D-02-0.165D-02-0.841D-02
 Coeff-Com: -0.915D-01-0.118D-01 0.111D+01
 Coeff:      0.136D-05-0.103D-04-0.501D-05-0.535D-04-0.348D-03 0.306D-04
 Coeff:     -0.167D-03 0.178D-02-0.213D-02 0.286D-02-0.165D-02-0.841D-02
 Coeff:     -0.915D-01-0.118D-01 0.111D+01
 Gap=     0.080 Goal=   None    Shift=    0.000
 Gap=     0.081 Goal=   None    Shift=    0.000
 RMSDP=4.32D-06 MaxDP=8.69D-05 DE=-2.75D-07 OVMax= 3.59D-04

 Cycle  16  Pass 1  IDiag  1:
 E= -379.300203847780     Delta-E=       -0.000000027074 Rises=F Damp=F
 DIIS: error= 5.73D-06 at cycle  16 NSaved=  16.
 NSaved=16 IEnMin= 9 EnMin= -379.303700099904     IErMin=16 ErrMin= 5.73D-06
 ErrMax= 5.73D-06  0.00D+00 EMaxC= 1.00D-01 BMatC= 1.65D-09 BMatP= 4.73D-08
 IDIUse=1 WtCom= 1.00D+00 WtEn= 0.00D+00
 Coeff-Com:  0.128D-05 0.380D-05-0.616D-05 0.507D-05 0.536D-04-0.172D-03
 Coeff-Com:  0.826D-03 0.209D-02-0.394D-03-0.288D-02 0.184D-02 0.223D-01
 Coeff-Com: -0.528D-02-0.111D+00-0.343D+00 0.144D+01
 Coeff:      0.128D-05 0.380D-05-0.616D-05 0.507D-05 0.536D-04-0.172D-03
 Coeff:      0.826D-03 0.209D-02-0.394D-03-0.288D-02 0.184D-02 0.223D-01
 Coeff:     -0.528D-02-0.111D+00-0.343D+00 0.144D+01
 Gap=     0.080 Goal=   None    Shift=    0.000
 Gap=     0.081 Goal=   None    Shift=    0.000
 RMSDP=1.45D-06 MaxDP=2.98D-05 DE=-2.71D-08 OVMax= 1.26D-04

 Cycle  17  Pass 1  IDiag  1:
 E= -379.300203848528     Delta-E=       -0.000000000749 Rises=F Damp=F
 DIIS: error= 6.19D-06 at cycle  17 NSaved=  17.
 NSaved=17 IEnMin= 9 EnMin= -379.303700099904     IErMin=16 ErrMin= 5.73D-06
 ErrMax= 6.19D-06  0.00D+00 EMaxC= 1.00D-01 BMatC= 1.94D-09 BMatP= 1.65D-09
 IDIUse=1 WtCom= 1.00D+00 WtEn= 0.00D+00
 Coeff-Com: -0.252D-06-0.311D-05 0.595D-05-0.178D-04-0.411D-04-0.228D-03
 Coeff-Com: -0.107D-03 0.950D-03-0.128D-02 0.108D-02 0.394D-03-0.138D-02
 Coeff-Com:  0.780D-02-0.149D-01-0.167D+00-0.320D+00 0.150D+01
 Coeff:     -0.252D-06-0.311D-05 0.595D-05-0.178D-04-0.411D-04-0.228D-03
 Coeff:     -0.107D-03 0.950D-03-0.128D-02 0.108D-02 0.394D-03-0.138D-02
 Coeff:      0.780D-02-0.149D-01-0.167D+00-0.320D+00 0.150D+01
 Gap=     0.080 Goal=   None    Shift=    0.000
 Gap=     0.081 Goal=   None    Shift=    0.000
 RMSDP=1.43D-06 MaxDP=3.19D-05 DE=-7.49D-10 OVMax= 1.30D-04

 Cycle  18  Pass 1  IDiag  1:
 E= -379.300203847943     Delta-E=        0.000000000586 Rises=F Damp=F
 DIIS: error= 7.68D-06 at cycle  18 NSaved=  18.
 NSaved=18 IEnMin= 9 EnMin= -379.303700099904     IErMin=16 ErrMin= 5.73D-06
 ErrMax= 7.68D-06  0.00D+00 EMaxC= 1.00D-01 BMatC= 3.12D-09 BMatP= 1.65D-09
 IDIUse=1 WtCom= 1.00D+00 WtEn= 0.00D+00
 Coeff-Com:  0.642D-06-0.336D-07 0.368D-05 0.371D-05-0.395D-04-0.552D-04
 Coeff-Com: -0.397D-04-0.578D-03 0.344D-03 0.376D-03-0.103D-04 0.427D-03
 Coeff-Com: -0.662D-02-0.350D-02 0.194D+00-0.423D+00 0.833D-01 0.116D+01
 Coeff:      0.642D-06-0.336D-07 0.368D-05 0.371D-05-0.395D-04-0.552D-04
 Coeff:     -0.397D-04-0.578D-03 0.344D-03 0.376D-03-0.103D-04 0.427D-03
 Coeff:     -0.662D-02-0.350D-02 0.194D+00-0.423D+00 0.833D-01 0.116D+01
 Gap=     0.080 Goal=   None    Shift=    0.000
 Gap=     0.081 Goal=   None    Shift=    0.000
 RMSDP=7.68D-07 MaxDP=1.69D-05 DE= 5.86D-10 OVMax= 7.01D-05

 Cycle  19  Pass 1  IDiag  1:
 E= -379.300203849736     Delta-E=       -0.000000001793 Rises=F Damp=F
 DIIS: error= 1.66D-07 at cycle  19 NSaved=  19.
 NSaved=19 IEnMin= 9 EnMin= -379.303700099904     IErMin=19 ErrMin= 1.66D-07
 ErrMax= 1.66D-07  0.00D+00 EMaxC= 1.00D-01 BMatC= 1.85D-12 BMatP= 1.65D-09
 IDIUse=1 WtCom= 1.00D+00 WtEn= 0.00D+00
 Coeff-Com:  0.172D-07-0.144D-06-0.573D-07 0.108D-05 0.105D-04-0.175D-04
 Coeff-Com: -0.381D-04-0.189D-04 0.502D-04 0.533D-04-0.240D-03 0.120D-03
 Coeff-Com: -0.568D-03 0.409D-02-0.287D-01 0.786D-01-0.841D-01-0.170D+00
 Coeff-Com:  0.120D+01
 Coeff:      0.172D-07-0.144D-06-0.573D-07 0.108D-05 0.105D-04-0.175D-04
 Coeff:     -0.381D-04-0.189D-04 0.502D-04 0.533D-04-0.240D-03 0.120D-03
 Coeff:     -0.568D-03 0.409D-02-0.287D-01 0.786D-01-0.841D-01-0.170D+00
 Coeff:      0.120D+01
 Gap=     0.080 Goal=   None    Shift=    0.000
 Gap=     0.081 Goal=   None    Shift=    0.000
 RMSDP=6.42D-08 MaxDP=9.40D-07 DE=-1.79D-09 OVMax= 4.51D-06

 Cycle  20  Pass 1  IDiag  1:
 E= -379.300203849738     Delta-E=       -0.000000000003 Rises=F Damp=F
 DIIS: error= 3.13D-07 at cycle  20 NSaved=  20.
 NSaved=20 IEnMin= 9 EnMin= -379.303700099904     IErMin=19 ErrMin= 1.66D-07
 ErrMax= 3.13D-07  0.00D+00 EMaxC= 1.00D-01 BMatC= 4.36D-12 BMatP= 1.85D-12
 IDIUse=1 WtCom= 1.00D+00 WtEn= 0.00D+00
 Coeff-Com:  0.181D-08 0.305D-07-0.779D-07 0.257D-06 0.148D-05 0.321D-05
 Coeff-Com: -0.173D-04 0.128D-04-0.156D-04 0.118D-04-0.289D-04-0.281D-04
 Coeff-Com:  0.195D-03 0.862D-03-0.221D-02 0.870D-02-0.164D-01 0.187D-01
 Coeff-Com: -0.170D+00 0.116D+01
 Coeff:      0.181D-08 0.305D-07-0.779D-07 0.257D-06 0.148D-05 0.321D-05
 Coeff:     -0.173D-04 0.128D-04-0.156D-04 0.118D-04-0.289D-04-0.281D-04
 Coeff:      0.195D-03 0.862D-03-0.221D-02 0.870D-02-0.164D-01 0.187D-01
 Coeff:     -0.170D+00 0.116D+01
 Gap=     0.080 Goal=   None    Shift=    0.000
 Gap=     0.081 Goal=   None    Shift=    0.000
 RMSDP=4.38D-08 MaxDP=1.17D-06 DE=-2.61D-12 OVMax= 4.31D-06

 Cycle  21  Pass 1  IDiag  1:
 E= -379.300203849740     Delta-E=       -0.000000000002 Rises=F Damp=F
 DIIS: error= 5.81D-08 at cycle  21 NSaved=  20.
 NSaved=20 IEnMin= 8 EnMin= -379.303700099904     IErMin=20 ErrMin= 5.81D-08
 ErrMax= 5.81D-08  0.00D+00 EMaxC= 1.00D-01 BMatC= 1.82D-13 BMatP= 1.85D-12
 IDIUse=1 WtCom= 1.00D+00 WtEn= 0.00D+00
 Large coefficients: NSaved= 20 BigCof=    0.00 CofMax=   10.00 Det=-6.45D-15
 Inversion failed.  Reducing to 19 matrices.
 Large coefficients: NSaved= 19 BigCof=    0.00 CofMax=   10.00 Det=-6.49D-15
 Inversion failed.  Reducing to 18 matrices.
 Large coefficients: NSaved= 18 BigCof=    0.00 CofMax=   10.00 Det=-6.67D-15
 Inversion failed.  Reducing to 17 matrices.
 Large coefficients: NSaved= 17 BigCof=    0.00 CofMax=   10.00 Det=-6.75D-15
 Inversion failed.  Reducing to 16 matrices.
 Large coefficients: NSaved= 16 BigCof=    0.00 CofMax=   10.00 Det=-6.76D-15
 Inversion failed.  Reducing to 15 matrices.
 Coeff-Com:  0.320D-06 0.962D-06-0.828D-06-0.517D-05 0.711D-05-0.907D-05
 Coeff-Com:  0.115D-03-0.118D-03 0.602D-03-0.329D-02 0.556D-02 0.136D-02
 Coeff-Com: -0.368D-01-0.384D-02 0.104D+01
 Coeff:      0.320D-06 0.962D-06-0.828D-06-0.517D-05 0.711D-05-0.907D-05
 Coeff:      0.115D-03-0.118D-03 0.602D-03-0.329D-02 0.556D-02 0.136D-02
 Coeff:     -0.368D-01-0.384D-02 0.104D+01
 Gap=     0.080 Goal=   None    Shift=    0.000
 Gap=     0.081 Goal=   None    Shift=    0.000
 RMSDP=1.25D-08 MaxDP=2.02D-07 DE=-1.65D-12 OVMax= 1.27D-06

 Cycle  22  Pass 1  IDiag  1:
 E= -379.300203849740     Delta-E=       -0.000000000000 Rises=F Damp=F
 DIIS: error= 4.07D-08 at cycle  22 NSaved=  16.
 NSaved=16 IEnMin= 3 EnMin= -379.303700099904     IErMin=16 ErrMin= 4.07D-08
 ErrMax= 4.07D-08  0.00D+00 EMaxC= 1.00D-01 BMatC= 4.65D-14 BMatP= 1.82D-13
 IDIUse=1 WtCom= 1.00D+00 WtEn= 0.00D+00
 Large coefficients: NSaved= 16 BigCof=    0.00 CofMax=   10.00 Det=-5.06D-16
 Inversion failed.  Reducing to 15 matrices.
 Coeff-Com:  0.104D-05-0.956D-06-0.869D-05 0.140D-04-0.251D-04 0.228D-03
 Coeff-Com: -0.236D-03 0.134D-02-0.707D-02 0.117D-01 0.177D-02-0.618D-01
 Coeff-Com: -0.750D-01 0.205D+01-0.919D+00
 Coeff:      0.104D-05-0.956D-06-0.869D-05 0.140D-04-0.251D-04 0.228D-03
 Coeff:     -0.236D-03 0.134D-02-0.707D-02 0.117D-01 0.177D-02-0.618D-01
 Coeff:     -0.750D-01 0.205D+01-0.919D+00
 Gap=     0.080 Goal=   None    Shift=    0.000
 Gap=     0.081 Goal=   None    Shift=    0.000
 RMSDP=9.55D-09 MaxDP=1.31D-07 DE=-2.84D-13 OVMax= 9.83D-07

 SCF Done:  E(UM062X) =  -379.300203850     A.U. after   22 cycles
            NFock= 22  Conv=0.95D-08     -V/T= 2.0014
 <Sx>= 0.0000 <Sy>= 0.0000 <Sz>= 0.5000 <S**2>= 0.7559 S= 0.5029
 <L.S>=  0.00000000000    
 KE= 3.787866364566D+02 PE=-9.302125906262D+02 EE= 1.548150708356D+02
 Annihilation of the first spin contaminant:
 S**2 before annihilation     0.7559,   after     0.7500
 Leave Link  502 at Mon Apr 21 19:27:32 2025, MaxMem=   536870912 cpu:              56.9 elap:               7.6
 (Enter /home/szhao/Apps/g16/l601.exe)
 Copying SCF densities to generalized density rwf, IOpCl= 1 IROHF=0.

 **********************************************************************

            Population analysis using the SCF density.

 **********************************************************************

 Alpha  occ. eigenvalues --  -78.32978 -10.97027  -7.14492  -5.26629  -5.26272
 Alpha  occ. eigenvalues --   -5.25246  -1.00351  -0.86201  -0.65765  -0.51797
 Alpha  occ. eigenvalues --   -0.46295
 Alpha virt. eigenvalues --   -0.38293  -0.34903  -0.34392  -0.13202  -0.09767
 Alpha virt. eigenvalues --   -0.08573  -0.08244  -0.06498  -0.05568  -0.05178
 Alpha virt. eigenvalues --   -0.02165   0.00951   0.16367   0.16475   0.16684
 Alpha virt. eigenvalues --    0.26226   0.31287   0.35888   0.36160   0.42633
 Alpha virt. eigenvalues --    0.44363   0.46277   0.46763   0.46883   0.49545
 Alpha virt. eigenvalues --    0.56913   0.88575   0.89238   1.06587   1.07348
 Alpha virt. eigenvalues --    1.30488   1.32791   1.34456   1.36841   1.63539
 Alpha virt. eigenvalues --    1.64040   2.18429   2.29491   2.44055   2.44283
 Alpha virt. eigenvalues --    2.97362   6.49514  13.68945  13.71251  13.72936
 Alpha virt. eigenvalues --   23.28681 162.72605
  Beta  occ. eigenvalues --  -78.32226 -10.96984  -7.14265  -5.26058  -5.25110
  Beta  occ. eigenvalues --   -5.24335  -1.00131  -0.81041  -0.65578  -0.45291
  Beta virt. eigenvalues --   -0.37184  -0.34747  -0.33123  -0.29402  -0.13674
  Beta virt. eigenvalues --   -0.10777  -0.08464  -0.08246  -0.06468  -0.05216
  Beta virt. eigenvalues --   -0.04856  -0.02561   0.00847   0.14060   0.15394
  Beta virt. eigenvalues --    0.16099   0.25854   0.32256   0.35982   0.36146
  Beta virt. eigenvalues --    0.43459   0.48696   0.50170   0.50887   0.51159
  Beta virt. eigenvalues --    0.53522   0.57344   0.89127   0.89907   1.06995
  Beta virt. eigenvalues --    1.07531   1.33279   1.34825   1.37293   1.37656
  Beta virt. eigenvalues --    1.63716   1.64285   2.19748   2.29806   2.44458
  Beta virt. eigenvalues --    2.44881   2.98260   6.50461  13.71933  13.73950
  Beta virt. eigenvalues --   13.74265  23.28817 162.73846
          Condensed to atoms (all electrons):
               1          2          3
     1  C    5.446882   0.031254   0.288571
     2  P    0.031254  14.446710   0.000483
     3  H    0.288571   0.000483   0.465793
          Atomic-Atomic Spin Densities.
               1          2          3
     1  C    0.057427  -0.002709  -0.001299
     2  P   -0.002709   0.951519  -0.000029
     3  H   -0.001299  -0.000029  -0.000872
 Mulliken charges and spin densities:
               1          2
     1  C    0.233293   0.053419
     2  P    0.521553   0.948781
     3  H    0.245153  -0.002200
 Sum of Mulliken charges =   1.00000   1.00000
 Mulliken charges and spin densities with hydrogens summed into heavy atoms:
               1          2
     1  C    0.478447   0.051219
     2  P    0.521553   0.948781
 Electronic spatial extent (au):  <R**2>=            311.6644
 Charge=              1.0000 electrons
 Dipole moment (field-independent basis, Debye):
    X=             -1.7996    Y=             -0.0000    Z=             -0.0000  Tot=              1.7996
 Quadrupole moment (field-independent basis, Debye-Ang):
   XX=             11.7573   YY=            -18.9107   ZZ=            -17.6207
   XY=              0.0000   XZ=             -0.0000   YZ=              1.4416
 Traceless Quadrupole moment (field-independent basis, Debye-Ang):
   XX=             20.0154   YY=            -10.6527   ZZ=             -9.3627
   XY=              0.0000   XZ=             -0.0000   YZ=              1.4416
 Octapole moment (field-independent basis, Debye-Ang**2):
  XXX=            -41.3315  YYY=              0.0000  ZZZ=              0.0000  XYY=            -13.9683
  XXY=              0.0000  XXZ=             -0.0000  XZZ=            -13.4282  YZZ=              0.0000
  YYZ=             -0.0000  XYZ=              0.6034
 Hexadecapole moment (field-independent basis, Debye-Ang**3):
 XXXX=           -187.4033 YYYY=            -29.0580 ZZZZ=            -25.1213 XXXY=              0.0000
 XXXZ=             -0.0000 YYYX=              0.0000 YYYZ=              2.1999 ZZZX=             -0.0000
 ZZZY=              2.1996 XXYY=            -73.9762 XXZZ=            -69.0508 YYZZ=             -9.0300
 XXYZ=              5.5043 YYXZ=             -0.0000 ZZXY=              0.0000
 N-N= 1.731067948422D+01 E-N=-9.302125904626D+02  KE= 3.787866364566D+02
                          Isotropic Fermi Contact Couplings
        Atom                 a.u.       MegaHertz       Gauss      10(-4) cm-1
     1  C(13)              0.00600       6.74251       2.40590       2.24906
     2  P(31)             -0.11499    -208.26443     -74.31393     -69.46954
     3  H(1)              -0.00041      -1.84934      -0.65989      -0.61687
 --------------------------------------------------------
       Center         ----  Spin Dipole Couplings  ----
                      3XX-RR        3YY-RR        3ZZ-RR
 --------------------------------------------------------
     1   Atom       -0.028651      0.036434     -0.007783
     2   Atom       -1.741054     -0.247561      1.988616
     3   Atom        0.007117     -0.002775     -0.004342
 --------------------------------------------------------
                        XY            XZ            YZ
 --------------------------------------------------------
     1   Atom        0.000000     -0.000000     -0.049400
     2   Atom        0.000000     -0.000000      2.499036
     3   Atom       -0.000000      0.000000     -0.001750
 --------------------------------------------------------


 ---------------------------------------------------------------------------------
              Anisotropic Spin Dipole Couplings in Principal Axis System
 ---------------------------------------------------------------------------------

       Atom             a.u.   MegaHertz   Gauss  10(-4) cm-1        Axes

              Baa    -0.0398    -5.340    -1.906    -1.781  0.0000  0.5438  0.8392
     1 C(13)  Bbb    -0.0287    -3.845    -1.372    -1.282  1.0000 -0.0000  0.0000
              Bcc     0.0684     9.185     3.277     3.064  0.0000  0.8392 -0.5438
 
              Baa    -1.8672  -403.664  -144.038  -134.648 -0.0000  0.8392 -0.5439
     2 P(31)  Bbb    -1.7411  -376.388  -134.305  -125.549  1.0000  0.0000 -0.0000
              Bcc     3.6083   780.052   278.342   260.197 -0.0000  0.5439  0.8392
 
              Baa    -0.0055    -2.922    -1.043    -0.975 -0.0000  0.5438  0.8392
     3 H(1)   Bbb    -0.0016    -0.875    -0.312    -0.292  0.0000  0.8392 -0.5438
              Bcc     0.0071     3.797     1.355     1.267  1.0000 -0.0000  0.0000
 

 ---------------------------------------------------------------------------------

 No NMR shielding tensors so no spin-rotation constants.
 Leave Link  601 at Mon Apr 21 19:27:32 2025, MaxMem=   536870912 cpu:               1.8 elap:               0.3
 (Enter /home/szhao/Apps/g16/l701.exe)
 ... and contract with generalized density number  0.
 Compute integral first derivatives.
 Leave Link  701 at Mon Apr 21 19:27:32 2025, MaxMem=   536870912 cpu:               0.8 elap:               0.1
 (Enter /home/szhao/Apps/g16/l702.exe)
 L702 exits ... SP integral derivatives will be done elsewhere.
 Leave Link  702 at Mon Apr 21 19:27:33 2025, MaxMem=   536870912 cpu:               0.4 elap:               0.1
 (Enter /home/szhao/Apps/g16/l703.exe)
 Integral derivatives from FoFJK, PRISM(SPDF).
 Compute integral first derivatives, UseDBF=F ICtDFT=           0.
 Calling FoFJK, ICntrl=      2127 FMM=F ISym2X=0 I1Cent= 0 IOpClX= 1 NMat=1 NMatS=1 NMatT=0.
 FoFJK:  IHMeth= 1 ICntrl=    2127 DoSepK=F KAlg= 0 I1Cent=           0 FoldK=F
 IRaf=         0 NMat=       1 IRICut=       1 DoRegI=T DoRafI=F ISym2E= 0 IDoP0=0 IntGTp=1.
 FoFCou: FMM=F IPFlag=           0 FMFlag=      100000 FMFlg1=         800
         NFxFlg=           0 DoJE=F BraDBF=F KetDBF=F FulRan=T
         wScrn=  0.000000 ICntrl=      2127 IOpCl=  1 I1Cent=           0 NGrid=           0
         NMat0=    1 NMatS0=      1 NMatT0=    0 NMatD0=    1 NMtDS0=    0 NMtDT0=    0
 Symmetry not used in FoFCou.
 Leave Link  703 at Mon Apr 21 19:27:33 2025, MaxMem=   536870912 cpu:               4.5 elap:               0.6
 (Enter /home/szhao/Apps/g16/l716.exe)
 Dipole        =-7.08030023D-01-1.13804675D-12-7.63584098D-13
 -------------------------------------------------------------------
 Center     Atomic                   Forces (Hartrees/Bohr)
 Number     Number              X              Y              Z
 -------------------------------------------------------------------
      1        6          -0.000000000   -0.000000000   -0.000000000
      2       15          -0.000000000   -0.000000000   -0.000000000
      3        1          -0.022747663   -0.000000000    0.000000000
 -------------------------------------------------------------------
 Cartesian Forces:  Max     0.022747663 RMS     0.007582554
 Leave Link  716 at Mon Apr 21 19:27:33 2025, MaxMem=   536870912 cpu:               0.5 elap:               0.1
 (Enter /home/szhao/Apps/g16/l103.exe)

 GradGradGradGradGradGradGradGradGradGradGradGradGradGradGradGradGradGrad
 Berny optimization.
 FormGI is forming the generalized inverse of G from B-inverse, IUseBI=4.
 Internal  Forces:  Max     0.022747663 RMS     0.010723351
 Search for a local minimum.
 Step number   1 out of a maximum of   20
 All quantities printed in internal units (Hartrees-Bohrs-Radians)
 RMS Force = .13133D-01 SwitMx=.10000D-02 MixMth= 1
 Mixed Optimization -- RFO/linear search
 Second derivative matrix not updated -- first step.
 The second derivative matrix:
                          X1        Y1        Z1        X2        Y2
           X1           0.50000
           Y1           0.00000   0.50000
           Z1           0.00000   0.00000   0.50000
           X2           0.00000   0.00000   0.00000   0.50000
           Y2           0.00000   0.00000   0.00000   0.00000   0.50000
           Z2           0.00000   0.00000   0.00000   0.00000   0.00000
           R1           0.00000   0.00000   0.00000   0.00000   0.00000
           A1           0.00000   0.00000   0.00000   0.00000   0.00000
           A2           0.00000   0.00000   0.00000   0.00000   0.00000
                          Z2        R1        A1        A2
           Z2           0.50000
           R1           0.00000   0.35426
           A1           0.00000   0.00000   0.00304
           A2           0.00000   0.00000   0.00000   0.00304
 ITU=  0
     Eigenvalues ---    0.00304   0.354261000.000001000.000001000.00000
     Eigenvalues --- 1000.000001000.000001000.000001000.00000
 RFO step:  Lambda=-1.45470934D-03 EMin= 3.04184962D-03
 Linear search not attempted -- first point.
 Iteration  1 RMS(Cart)=  0.02131661 RMS(Int)=  0.00000000
 Iteration  2 RMS(Cart)=  0.00000000 RMS(Int)=  0.00000000
 ITry= 1 IFail=0 DXMaxC= 6.39D-02 DCOld= 1.00D+10 DXMaxT= 3.00D-01 DXLimC= 3.00D+00 Rises=F
 Variable       Old X    -DE/DX   Delta X   Delta X   Delta X     New X
                                 (Linear)    (Quad)   (Total)
    X1       -3.53271  -0.02275   0.00000   0.00000   0.00000  -3.53271
    Y1        0.00000   0.00000   0.00000   0.00000   0.00000   0.00000
    Z1        0.00000   0.00000   0.00000   0.00000   0.00000   0.00000
    X2        3.53271  -0.00000   0.00000   0.00000   0.00000   3.53271
    Y2        0.00000  -0.00000   0.00000   0.00000   0.00000   0.00000
    Z2        0.00000  -0.00000   0.00000   0.00000   0.00000   0.00000
    R1        2.04989   0.02275   0.00000   0.06395   0.06395   2.11384
    A1        3.14159  -0.00000   0.00000  -0.00000   0.00000   3.14159
    A2        3.14159  -0.00000   0.00000   0.00000   0.00000   3.14159
         Item               Value     Threshold  Converged?
 Maximum Force            0.022748     0.000450     NO 
 RMS     Force            0.013133     0.000300     NO 
 Maximum Displacement     0.063950     0.001800     NO 
 RMS     Displacement     0.021317     0.001200     NO 
 Predicted change in Energy=-7.303292D-04
 Lowest energy point so far.  Saving SCF results.
 GradGradGradGradGradGradGradGradGradGradGradGradGradGradGradGradGradGrad

 Leave Link  103 at Mon Apr 21 19:27:34 2025, MaxMem=   536870912 cpu:               0.2 elap:               0.1
 (Enter /home/szhao/Apps/g16/l202.exe)
                          Input orientation:                          
 ---------------------------------------------------------------------
 Center     Atomic      Atomic             Coordinates (Angstroms)
 Number     Number       Type             X           Y           Z
 ---------------------------------------------------------------------
      1          6           0       -1.869427    0.000000    0.000000
      2         15           0        1.869427    0.000000    0.000000
      3          1           0       -2.988025    0.000000    0.000000
 ---------------------------------------------------------------------
                    Distance matrix (angstroms):
                    1          2          3
     1  C    0.000000
     2  P    3.738854   0.000000
     3  H    1.118598   4.857452   0.000000
 Symmetry turned off by external request.
 Stoichiometry    CHP(1+,2)
 Framework group  C*V[C*(HCP)]
 Deg. of freedom     2
 Full point group                 C*V     NOp   4
 Rotational constants (GHZ):           0.0000000           3.7372818           3.7372818
 Leave Link  202 at Mon Apr 21 19:27:34 2025, MaxMem=   536870912 cpu:               0.6 elap:               0.1
 (Enter /home/szhao/Apps/g16/l301.exe)
 Standard basis: 6-311+G(d,p) (5D, 7F)
 Ernie: Thresh=  0.10000D-02 Tol=  0.10000D-05 Strict=F.
    58 basis functions,    94 primitive gaussians,    60 cartesian basis functions
    11 alpha electrons       10 beta electrons
       nuclear repulsion energy        17.2106654815 Hartrees.
 IExCor= 4336 DFT=T Ex+Corr=M062X ExCW=0 ScaHFX=  0.540000
 ScaDFX=  1.000000  1.000000  1.000000  1.000000 ScalE2=  1.000000  1.000000
 IRadAn=      7 IRanWt=     -1 IRanGd=            0 ICorTp=0 IEmpDi=  4
 NAtoms=    3 NActive=    3 NUniq=    3 SFac= 1.00D+00 NAtFMM=   60 NAOKFM=F Big=F
 Integral buffers will be    131072 words long.
 Raffenetti 2 integral format.
 Two-electron integral symmetry is turned off.
 Leave Link  301 at Mon Apr 21 19:27:34 2025, MaxMem=   536870912 cpu:               0.9 elap:               0.2
 (Enter /home/szhao/Apps/g16/l302.exe)
 NPDir=0 NMtPBC=     1 NCelOv=     1 NCel=       1 NClECP=     1 NCelD=      1
         NCelK=      1 NCelE2=     1 NClLst=     1 CellRange=     0.0.
 One-electron integrals computed using PRISM.
 NBasis=    58 RedAO= T EigKep=  1.78D-02  NBF=    58
 NBsUse=    58 1.00D-06 EigRej= -1.00D+00 NBFU=    58
 Precomputing XC quadrature grid using
 IXCGrd= 4 IRadAn=           7 IRanWt=          -1 IRanGd=           0 AccXCQ= 0.00D+00.
 Generated NRdTot=       0 NPtTot=           0 NUsed=           0 NTot=          32
 NSgBfM=    58    58    58    58    58 MxSgAt=     3 MxSgA2=     3.
 Leave Link  302 at Mon Apr 21 19:27:35 2025, MaxMem=   536870912 cpu:               1.9 elap:               0.3
 (Enter /home/szhao/Apps/g16/l303.exe)
 DipDrv:  MaxL=1.
 Leave Link  303 at Mon Apr 21 19:27:35 2025, MaxMem=   536870912 cpu:               0.3 elap:               0.1
 (Enter /home/szhao/Apps/g16/l401.exe)
 Initial guess from the checkpoint file:  "opt.chk"
 B after Tr=    -0.002907   -0.000000    0.000000
         Rot=    1.000000   -0.000000   -0.000000    0.000000 Ang=   0.00 deg.
 Guess basis will be translated and rotated to current coordinates.
 JPrj=2 DoOrth=T DoCkMO=T.
 Initial guess <Sx>= 0.0000 <Sy>= 0.0000 <Sz>= 0.5000 <S**2>= 0.7559 S= 0.5029
 Generating alternative initial guess.
 ExpMin= 3.48D-02 ExpMax= 7.75D+04 ExpMxC= 2.65D+03 IAcc=3 IRadAn=         5 AccDes= 0.00D+00
 Harris functional with IExCor= 1009 and IRadAn=       5 diagonalized for initial guess.
 HarFok:  IExCor= 1009 AccDes= 0.00D+00 IRadAn=         5 IDoV= 1 UseB2=F ITyADJ=14
 ICtDFT=  3500011 ScaDFX=  1.000000  1.000000  1.000000  1.000000
 FoFCou: FMM=F IPFlag=           0 FMFlag=      100000 FMFlg1=           0
         NFxFlg=           0 DoJE=T BraDBF=F KetDBF=T FulRan=T
         wScrn=  0.000000 ICntrl=       500 IOpCl=  0 I1Cent=   200000004 NGrid=           0
         NMat0=    1 NMatS0=      1 NMatT0=    0 NMatD0=    1 NMtDS0=    0 NMtDT0=    0
 Symmetry not used in FoFCou.
 Harris En= -379.267900944229    
 Leave Link  401 at Mon Apr 21 19:27:35 2025, MaxMem=   536870912 cpu:               2.7 elap:               0.4
 (Enter /home/szhao/Apps/g16/l502.exe)
 Keep R1 and R2 ints in memory in canonical form, NReq=10036953.
 FoFCou: FMM=F IPFlag=           0 FMFlag=           0 FMFlg1=           0
         NFxFlg=           0 DoJE=F BraDBF=F KetDBF=F FulRan=T
         wScrn=  0.000000 ICntrl=       600 IOpCl=  0 I1Cent=           0 NGrid=           0
         NMat0=    1 NMatS0=   1711 NMatT0=    0 NMatD0=    1 NMtDS0=    0 NMtDT0=    0
 Symmetry not used in FoFCou.
 Two-electron integral symmetry not used.
 UHF open shell SCF:
 Using DIIS extrapolation, IDIIS=  1040.
 NGot=   536870912 LenX=   533933447 LenY=   533929406
 Requested convergence on RMS density matrix=1.00D-08 within 128 cycles.
 Requested convergence on MAX density matrix=1.00D-06.
 Requested convergence on             energy=1.00D-06.
 No special actions if energy rises.

 Cycle   1  Pass 1  IDiag  1:
 E= -379.300745598065    
 DIIS: error= 2.45D-03 at cycle   1 NSaved=   1.
 NSaved= 1 IEnMin= 1 EnMin= -379.300745598065     IErMin= 1 ErrMin= 2.45D-03
 ErrMax= 2.45D-03  0.00D+00 EMaxC= 1.00D-01 BMatC= 7.88D-04 BMatP= 7.88D-04
 IDIUse=3 WtCom= 9.75D-01 WtEn= 2.45D-02
 Coeff-Com:  0.100D+01
 Coeff-En:   0.100D+01
 Coeff:      0.100D+01
 Gap=     0.431 Goal=   None    Shift=    0.000
 Gap=     0.419 Goal=   None    Shift=    0.000
 GapD=    0.419 DampG=2.000 DampE=1.000 DampFc=2.0000 IDamp=-1.
 RMSDP=2.49D-04 MaxDP=3.37D-03              OVMax= 1.34D-02

 Cycle   2  Pass 1  IDiag  1:
 E= -379.300811554405     Delta-E=       -0.000065956341 Rises=F Damp=F
 DIIS: error= 1.35D-03 at cycle   2 NSaved=   2.
 NSaved= 2 IEnMin= 2 EnMin= -379.300811554405     IErMin= 2 ErrMin= 1.35D-03
 ErrMax= 1.35D-03  0.00D+00 EMaxC= 1.00D-01 BMatC= 2.26D-04 BMatP= 7.88D-04
 IDIUse=3 WtCom= 9.87D-01 WtEn= 1.35D-02
 Coeff-Com:  0.249D+00 0.751D+00
 Coeff-En:   0.266D+00 0.734D+00
 Coeff:      0.250D+00 0.750D+00
 Gap=     0.077 Goal=   None    Shift=    0.000
 Gap=     0.077 Goal=   None    Shift=    0.000
 RMSDP=6.62D-04 MaxDP=1.31D-02 DE=-6.60D-05 OVMax= 4.68D-02

 Cycle   3  Pass 1  IDiag  1:
 E= -379.299729566033     Delta-E=        0.001081988372 Rises=F Damp=F
 DIIS: error= 4.51D-03 at cycle   3 NSaved=   3.
 NSaved= 3 IEnMin= 2 EnMin= -379.300811554405     IErMin= 2 ErrMin= 1.35D-03
 ErrMax= 4.51D-03  0.00D+00 EMaxC= 1.00D-01 BMatC= 2.26D-03 BMatP= 2.26D-04
 IDIUse=3 WtCom= 1.30D-01 WtEn= 8.70D-01
 Coeff-Com: -0.194D-01 0.775D+00 0.244D+00
 Coeff-En:   0.000D+00 0.816D+00 0.184D+00
 Coeff:     -0.251D-02 0.811D+00 0.192D+00
 Gap=     0.079 Goal=   None    Shift=    0.000
 Gap=     0.080 Goal=   None    Shift=    0.000
 RMSDP=3.56D-04 MaxDP=7.43D-03 DE= 1.08D-03 OVMax= 2.63D-02

 Cycle   4  Pass 1  IDiag  1:
 E= -379.300842871479     Delta-E=       -0.001113305446 Rises=F Damp=F
 DIIS: error= 1.30D-03 at cycle   4 NSaved=   4.
 NSaved= 4 IEnMin= 4 EnMin= -379.300842871479     IErMin= 4 ErrMin= 1.30D-03
 ErrMax= 1.30D-03  0.00D+00 EMaxC= 1.00D-01 BMatC= 1.77D-04 BMatP= 2.26D-04
 IDIUse=3 WtCom= 9.87D-01 WtEn= 1.30D-02
 Coeff-Com: -0.111D-01 0.111D+00-0.300D+00 0.120D+01
 Coeff-En:   0.000D+00 0.455D+00 0.000D+00 0.545D+00
 Coeff:     -0.109D-01 0.115D+00-0.296D+00 0.119D+01
 Gap=     0.080 Goal=   None    Shift=    0.000
 Gap=     0.081 Goal=   None    Shift=    0.000
 RMSDP=1.55D-04 MaxDP=3.88D-03 DE=-1.11D-03 OVMax= 1.40D-02

 Cycle   5  Pass 1  IDiag  1:
 E= -379.300946463513     Delta-E=       -0.000103592033 Rises=F Damp=F
 DIIS: error= 2.33D-04 at cycle   5 NSaved=   5.
 NSaved= 5 IEnMin= 5 EnMin= -379.300946463513     IErMin= 5 ErrMin= 2.33D-04
 ErrMax= 2.33D-04  0.00D+00 EMaxC= 1.00D-01 BMatC= 2.65D-06 BMatP= 1.77D-04
 IDIUse=3 WtCom= 9.98D-01 WtEn= 2.33D-03
 Coeff-Com: -0.116D-01 0.115D+00-0.320D+00 0.127D+01-0.570D-01
 Coeff-En:   0.000D+00 0.000D+00 0.000D+00 0.000D+00 0.100D+01
 Coeff:     -0.116D-01 0.115D+00-0.319D+00 0.127D+01-0.546D-01
 Gap=     0.080 Goal=   None    Shift=    0.000
 Gap=     0.081 Goal=   None    Shift=    0.000
 RMSDP=6.13D-06 MaxDP=1.16D-04 DE=-1.04D-04 OVMax= 4.41D-04

 Cycle   6  Pass 1  IDiag  1:
 E= -379.300945256630     Delta-E=        0.000001206883 Rises=F Damp=F
 DIIS: error= 2.18D-04 at cycle   6 NSaved=   6.
 NSaved= 6 IEnMin= 5 EnMin= -379.300946463513     IErMin= 6 ErrMin= 2.18D-04
 ErrMax= 2.18D-04  0.00D+00 EMaxC= 1.00D-01 BMatC= 2.29D-06 BMatP= 2.65D-06
 IDIUse=3 WtCom= 9.98D-01 WtEn= 2.18D-03
 Large coefficients: NSaved=  6 BigCof=   11.87 CofMax=   10.00 Det=-7.20D-09
 Inversion failed.  Reducing to  5 matrices.
 Large coefficients: NSaved=  5 BigCof=   13.17 CofMax=   10.00 Det=-9.77D-09
 Inversion failed.  Reducing to  4 matrices.
 Large coefficients: NSaved=  4 BigCof=   13.10 CofMax=   10.00 Det=-1.01D-08
 Inversion failed.  Reducing to  3 matrices.
 Large coefficients: NSaved=  3 BigCof=   12.36 CofMax=   10.00 Det=-1.43D-08
 Inversion failed.  Reducing to  2 matrices.
 Large coefficients: NSaved=  2 BigCof=   12.81 CofMax=   10.00 Det=-1.46D-08
 Coeff-Com: -0.118D+02 0.128D+02
 Coeff-En:   0.000D+00 0.100D+01
 Coeff:     -0.118D+02 0.128D+02
 Gap=     0.080 Goal=   None    Shift=    0.000
 Gap=     0.081 Goal=   None    Shift=    0.000
 RMSDP=7.49D-05 MaxDP=1.76D-03 DE= 1.21D-06 OVMax= 6.61D-03

 Cycle   7  Pass 1  IDiag  1:
 E= -379.300937066057     Delta-E=        0.000008190573 Rises=F Damp=F
 DIIS: error= 1.52D-04 at cycle   7 NSaved=   3.
 NSaved= 3 IEnMin= 1 EnMin= -379.300946463513     IErMin= 3 ErrMin= 1.52D-04
 ErrMax= 1.52D-04  0.00D+00 EMaxC= 1.00D-01 BMatC= 2.57D-06 BMatP= 2.29D-06
 IDIUse=3 WtCom= 9.98D-01 WtEn= 2.18D-03
 Rare condition: small coef for last iteration:  0.000D+00
 Coeff-Com: -0.913D+01 0.991D+01 0.215D+00
 Coeff-En:   0.000D+00 0.000D+00 0.100D+01
 Coeff:     -0.913D+01 0.991D+01 0.215D+00
 Gap=     0.080 Goal=   None    Shift=    0.000
 Gap=     0.081 Goal=   None    Shift=    0.000
 RMSDP=1.99D-05 MaxDP=4.44D-04 DE= 8.19D-06 OVMax= 1.60D-03

 Cycle   8  Pass 1  IDiag  1:
 E= -379.300938471360     Delta-E=       -0.000001405303 Rises=F Damp=F
 DIIS: error= 2.96D-05 at cycle   8 NSaved=   4.
 NSaved= 4 IEnMin= 1 EnMin= -379.300946463513     IErMin= 4 ErrMin= 2.96D-05
 ErrMax= 2.96D-05  0.00D+00 EMaxC= 1.00D-01 BMatC= 6.98D-08 BMatP= 2.29D-06
 IDIUse=1 WtCom= 1.00D+00 WtEn= 0.00D+00
 Coeff-Com: -0.253D+01 0.269D+01 0.135D+00 0.698D+00
 Coeff:     -0.253D+01 0.269D+01 0.135D+00 0.698D+00
 Gap=     0.080 Goal=   None    Shift=    0.000
 Gap=     0.081 Goal=   None    Shift=    0.000
 RMSDP=5.24D-06 MaxDP=1.33D-04 DE=-1.41D-06 OVMax= 4.96D-04

 Cycle   9  Pass 1  IDiag  1:
 E= -379.300938478143     Delta-E=       -0.000000006783 Rises=F Damp=F
 DIIS: error= 1.16D-06 at cycle   9 NSaved=   5.
 NSaved= 5 IEnMin= 1 EnMin= -379.300946463513     IErMin= 5 ErrMin= 1.16D-06
 ErrMax= 1.16D-06  0.00D+00 EMaxC= 1.00D-01 BMatC= 4.04D-10 BMatP= 6.98D-08
 IDIUse=1 WtCom= 1.00D+00 WtEn= 0.00D+00
 Coeff-Com:  0.999D+00-0.107D+01-0.302D-01-0.991D-01 0.120D+01
 Coeff:      0.999D+00-0.107D+01-0.302D-01-0.991D-01 0.120D+01
 Gap=     0.080 Goal=   None    Shift=    0.000
 Gap=     0.081 Goal=   None    Shift=    0.000
 RMSDP=4.32D-07 MaxDP=1.06D-05 DE=-6.78D-09 OVMax= 2.03D-05

 Cycle  10  Pass 1  IDiag  1:
 E= -379.300938478253     Delta-E=       -0.000000000110 Rises=F Damp=F
 DIIS: error= 2.53D-07 at cycle  10 NSaved=   6.
 NSaved= 6 IEnMin= 1 EnMin= -379.300946463513     IErMin= 6 ErrMin= 2.53D-07
 ErrMax= 2.53D-07  0.00D+00 EMaxC= 1.00D-01 BMatC= 1.59D-11 BMatP= 4.04D-10
 IDIUse=1 WtCom= 1.00D+00 WtEn= 0.00D+00
 Coeff-Com:  0.193D+00-0.207D+00-0.591D-02-0.241D-01 0.170D+00 0.874D+00
 Coeff:      0.193D+00-0.207D+00-0.591D-02-0.241D-01 0.170D+00 0.874D+00
 Gap=     0.080 Goal=   None    Shift=    0.000
 Gap=     0.081 Goal=   None    Shift=    0.000
 RMSDP=6.94D-08 MaxDP=1.83D-06 DE=-1.10D-10 OVMax= 3.52D-06

 Cycle  11  Pass 1  IDiag  1:
 E= -379.300938478266     Delta-E=       -0.000000000014 Rises=F Damp=F
 DIIS: error= 1.69D-07 at cycle  11 NSaved=   7.
 NSaved= 7 IEnMin= 1 EnMin= -379.300946463513     IErMin= 7 ErrMin= 1.69D-07
 ErrMax= 1.69D-07  0.00D+00 EMaxC= 1.00D-01 BMatC= 5.42D-12 BMatP= 1.59D-11
 IDIUse=1 WtCom= 1.00D+00 WtEn= 0.00D+00
 Coeff-Com: -0.239D+00 0.256D+00 0.751D-02 0.266D-01-0.273D+00-0.222D+00
 Coeff-Com:  0.144D+01
 Coeff:     -0.239D+00 0.256D+00 0.751D-02 0.266D-01-0.273D+00-0.222D+00
 Coeff:      0.144D+01
 Gap=     0.080 Goal=   None    Shift=    0.000
 Gap=     0.081 Goal=   None    Shift=    0.000
 RMSDP=7.29D-08 MaxDP=1.81D-06 DE=-1.35D-11 OVMax= 3.31D-06

 Cycle  12  Pass 1  IDiag  1:
 E= -379.300938478277     Delta-E=       -0.000000000011 Rises=F Damp=F
 DIIS: error= 6.68D-08 at cycle  12 NSaved=   8.
 NSaved= 8 IEnMin= 1 EnMin= -379.300946463513     IErMin= 8 ErrMin= 6.68D-08
 ErrMax= 6.68D-08  0.00D+00 EMaxC= 1.00D-01 BMatC= 1.30D-12 BMatP= 5.42D-12
 IDIUse=1 WtCom= 1.00D+00 WtEn= 0.00D+00
 Coeff-Com:  0.787D-02-0.867D-02-0.243D-03 0.645D-03 0.269D-01-0.174D+00
 Coeff-Com: -0.493D+00 0.164D+01
 Coeff:      0.787D-02-0.867D-02-0.243D-03 0.645D-03 0.269D-01-0.174D+00
 Coeff:     -0.493D+00 0.164D+01
 Gap=     0.080 Goal=   None    Shift=    0.000
 Gap=     0.081 Goal=   None    Shift=    0.000
 RMSDP=6.70D-08 MaxDP=1.52D-06 DE=-1.09D-11 OVMax= 3.74D-06

 Cycle  13  Pass 1  IDiag  1:
 E= -379.300938478282     Delta-E=       -0.000000000005 Rises=F Damp=F
 DIIS: error= 5.89D-08 at cycle  13 NSaved=   9.
 NSaved= 9 IEnMin= 1 EnMin= -379.300946463513     IErMin= 9 ErrMin= 5.89D-08
 ErrMax= 5.89D-08  0.00D+00 EMaxC= 1.00D-01 BMatC= 2.75D-13 BMatP= 1.30D-12
 IDIUse=1 WtCom= 1.00D+00 WtEn= 0.00D+00
 Coeff-Com:  0.962D-02-0.103D-01-0.312D-03-0.753D-03 0.983D-02 0.196D-01
 Coeff-Com: -0.368D-01-0.181D+00 0.119D+01
 Coeff:      0.962D-02-0.103D-01-0.312D-03-0.753D-03 0.983D-02 0.196D-01
 Coeff:     -0.368D-01-0.181D+00 0.119D+01
 Gap=     0.080 Goal=   None    Shift=    0.000
 Gap=     0.081 Goal=   None    Shift=    0.000
 RMSDP=3.34D-08 MaxDP=4.77D-07 DE=-5.46D-12 OVMax= 2.75D-06

 Cycle  14  Pass 1  IDiag  1:
 E= -379.300938478284     Delta-E=       -0.000000000002 Rises=F Damp=F
 DIIS: error= 5.81D-08 at cycle  14 NSaved=  10.
 NSaved=10 IEnMin= 1 EnMin= -379.300946463513     IErMin=10 ErrMin= 5.81D-08
 ErrMax= 5.81D-08  0.00D+00 EMaxC= 1.00D-01 BMatC= 2.52D-13 BMatP= 2.75D-13
 IDIUse=1 WtCom= 1.00D+00 WtEn= 0.00D+00
 Coeff-Com:  0.611D-02-0.653D-02-0.186D-03-0.566D-03 0.605D-02 0.151D-01
 Coeff-Com: -0.220D-01-0.122D+00 0.723D+00 0.401D+00
 Coeff:      0.611D-02-0.653D-02-0.186D-03-0.566D-03 0.605D-02 0.151D-01
 Coeff:     -0.220D-01-0.122D+00 0.723D+00 0.401D+00
 Gap=     0.080 Goal=   None    Shift=    0.000
 Gap=     0.081 Goal=   None    Shift=    0.000
 RMSDP=1.11D-08 MaxDP=1.58D-07 DE=-2.05D-12 OVMax= 9.26D-07

 Cycle  15  Pass 1  IDiag  1:
 E= -379.300938478285     Delta-E=       -0.000000000001 Rises=F Damp=F
 DIIS: error= 6.25D-08 at cycle  15 NSaved=  11.
 NSaved=11 IEnMin= 1 EnMin= -379.300946463513     IErMin=10 ErrMin= 5.81D-08
 ErrMax= 6.25D-08  0.00D+00 EMaxC= 1.00D-01 BMatC= 2.64D-13 BMatP= 2.52D-13
 IDIUse=1 WtCom= 1.00D+00 WtEn= 0.00D+00
 Large coefficients: NSaved= 11 BigCof=   18.10 CofMax=   10.00 Det=-3.10D-16
 Inversion failed.  Reducing to 10 matrices.
 Large coefficients: NSaved= 10 BigCof=   17.21 CofMax=   10.00 Det=-3.36D-16
 Inversion failed.  Reducing to  9 matrices.
 Coeff-Com:  0.462D-02-0.494D-02 0.541D-02 0.196D-01-0.879D-02-0.194D+00
 Coeff-Com:  0.704D+00 0.536D+01-0.488D+01
 Coeff:      0.462D-02-0.494D-02 0.541D-02 0.196D-01-0.879D-02-0.194D+00
 Coeff:      0.704D+00 0.536D+01-0.488D+01
 Gap=     0.080 Goal=   None    Shift=    0.000
 Gap=     0.081 Goal=   None    Shift=    0.000
 RMSDP=5.55D-08 MaxDP=7.97D-07 DE=-9.09D-13 OVMax= 4.55D-06

 Cycle  16  Pass 1  IDiag  1:
 E= -379.300938478282     Delta-E=        0.000000000004 Rises=F Damp=F
 DIIS: error= 5.82D-08 at cycle  16 NSaved=  10.
 NSaved=10 IEnMin= 1 EnMin= -379.300946463513     IErMin= 8 ErrMin= 5.81D-08
 ErrMax= 5.82D-08  0.00D+00 EMaxC= 1.00D-01 BMatC= 2.18D-13 BMatP= 2.52D-13
 IDIUse=1 WtCom= 1.00D+00 WtEn= 0.00D+00
 Coeff-Com: -0.559D-02 0.616D-02-0.177D-01 0.524D-01 0.189D+00-0.299D+00
 Coeff-Com: -0.173D+01 0.740D+01-0.818D+01 0.359D+01
 Coeff:     -0.559D-02 0.616D-02-0.177D-01 0.524D-01 0.189D+00-0.299D+00
 Coeff:     -0.173D+01 0.740D+01-0.818D+01 0.359D+01
 Gap=     0.080 Goal=   None    Shift=    0.000
 Gap=     0.081 Goal=   None    Shift=    0.000
 RMSDP=1.46D-07 MaxDP=1.97D-06 DE= 3.52D-12 OVMax= 1.15D-05

 Cycle  17  Pass 1  IDiag  1:
 E= -379.300938478277     Delta-E=        0.000000000005 Rises=F Damp=F
 DIIS: error= 2.61D-08 at cycle  17 NSaved=  11.
 NSaved=11 IEnMin= 1 EnMin= -379.300946463513     IErMin=11 ErrMin= 2.61D-08
 ErrMax= 2.61D-08  0.00D+00 EMaxC= 1.00D-01 BMatC= 3.53D-14 BMatP= 2.18D-13
 IDIUse=1 WtCom= 1.00D+00 WtEn= 0.00D+00
 Coeff-Com:  0.517D-03-0.577D-03 0.236D-02-0.893D-02-0.279D-01 0.950D-01
 Coeff-Com: -0.980D-01-0.231D+00 0.520D+00-0.625D+00 0.137D+01
 Coeff:      0.517D-03-0.577D-03 0.236D-02-0.893D-02-0.279D-01 0.950D-01
 Coeff:     -0.980D-01-0.231D+00 0.520D+00-0.625D+00 0.137D+01
 Gap=     0.080 Goal=   None    Shift=    0.000
 Gap=     0.081 Goal=   None    Shift=    0.000
 RMSDP=3.78D-08 MaxDP=5.49D-07 DE= 5.23D-12 OVMax= 3.21D-06

 Cycle  18  Pass 1  IDiag  1:
 E= -379.300938478276     Delta-E=        0.000000000000 Rises=F Damp=F
 DIIS: error= 1.42D-08 at cycle  18 NSaved=  12.
 NSaved=12 IEnMin= 1 EnMin= -379.300946463513     IErMin=12 ErrMin= 1.42D-08
 ErrMax= 1.42D-08  0.00D+00 EMaxC= 1.00D-01 BMatC= 2.63D-14 BMatP= 3.53D-14
 IDIUse=1 WtCom= 1.00D+00 WtEn= 0.00D+00
 Coeff-Com:  0.762D-03-0.854D-03 0.366D-02-0.143D-01-0.425D-01 0.143D+00
 Coeff-Com: -0.121D+00-0.405D+00 0.848D+00-0.972D+00 0.200D+01-0.443D+00
 Coeff:      0.762D-03-0.854D-03 0.366D-02-0.143D-01-0.425D-01 0.143D+00
 Coeff:     -0.121D+00-0.405D+00 0.848D+00-0.972D+00 0.200D+01-0.443D+00
 Gap=     0.080 Goal=   None    Shift=    0.000
 Gap=     0.081 Goal=   None    Shift=    0.000
 RMSDP=3.92D-09 MaxDP=5.46D-08 DE= 3.41D-13 OVMax= 3.12D-07

 SCF Done:  E(UM062X) =  -379.300938478     A.U. after   18 cycles
            NFock= 18  Conv=0.39D-08     -V/T= 2.0015
 <Sx>= 0.0000 <Sy>= 0.0000 <Sz>= 0.5000 <S**2>= 0.7559 S= 0.5030
 <L.S>=  0.00000000000    
 KE= 3.787458958247D+02 PE=-9.300002781733D+02 EE= 1.547427783889D+02
 Annihilation of the first spin contaminant:
 S**2 before annihilation     0.7559,   after     0.7500
 Leave Link  502 at Mon Apr 21 19:27:41 2025, MaxMem=   536870912 cpu:              43.4 elap:               5.7
 (Enter /home/szhao/Apps/g16/l701.exe)
 ... and contract with generalized density number  0.
 Compute integral first derivatives.
 Leave Link  701 at Mon Apr 21 19:27:42 2025, MaxMem=   536870912 cpu:               0.9 elap:               0.1
 (Enter /home/szhao/Apps/g16/l702.exe)
 L702 exits ... SP integral derivatives will be done elsewhere.
 Leave Link  702 at Mon Apr 21 19:27:42 2025, MaxMem=   536870912 cpu:               0.5 elap:               0.1
 (Enter /home/szhao/Apps/g16/l703.exe)
 Integral derivatives from FoFJK, PRISM(SPDF).
 Compute integral first derivatives, UseDBF=F ICtDFT=           0.
 Calling FoFJK, ICntrl=      2127 FMM=F ISym2X=0 I1Cent= 0 IOpClX= 1 NMat=1 NMatS=1 NMatT=0.
 FoFJK:  IHMeth= 1 ICntrl=    2127 DoSepK=F KAlg= 0 I1Cent=           0 FoldK=F
 IRaf=         0 NMat=       1 IRICut=       1 DoRegI=T DoRafI=F ISym2E= 0 IDoP0=0 IntGTp=1.
 FoFCou: FMM=F IPFlag=           0 FMFlag=      100000 FMFlg1=         800
         NFxFlg=           0 DoJE=F BraDBF=F KetDBF=F FulRan=T
         wScrn=  0.000000 ICntrl=      2127 IOpCl=  1 I1Cent=           0 NGrid=           0
         NMat0=    1 NMatS0=      1 NMatT0=    0 NMatD0=    1 NMtDS0=    0 NMtDT0=    0
 Symmetry not used in FoFCou.
 Leave Link  703 at Mon Apr 21 19:27:42 2025, MaxMem=   536870912 cpu:               4.9 elap:               0.6
 (Enter /home/szhao/Apps/g16/l716.exe)
 Dipole        =-7.22677175D-01 2.04356258D-10 4.57549487D-10
 -------------------------------------------------------------------
 Center     Atomic                   Forces (Hartrees/Bohr)
 Number     Number              X              Y              Z
 -------------------------------------------------------------------
      1        6          -0.000000000   -0.000000000   -0.000000000
      2       15          -0.000000000   -0.000000000   -0.000000000
      3        1          -0.000913375    0.000000001   -0.000000001
 -------------------------------------------------------------------
 Cartesian Forces:  Max     0.000913375 RMS     0.000304458
 Leave Link  716 at Mon Apr 21 19:27:43 2025, MaxMem=   536870912 cpu:               0.6 elap:               0.2
 (Enter /home/szhao/Apps/g16/l103.exe)

 GradGradGradGradGradGradGradGradGradGradGradGradGradGradGradGradGradGrad
 Berny optimization.
 Using GEDIIS/GDIIS optimizer.
 FormGI is forming the generalized inverse of G from B-inverse, IUseBI=4.
 Internal  Forces:  Max     0.000913375 RMS     0.000430569
 Search for a local minimum.
 Step number   2 out of a maximum of   20
 All quantities printed in internal units (Hartrees-Bohrs-Radians)
 RMS Force = .52734D-03 SwitMx=.10000D-02 MixMth= 2
 Mixed Optimization -- En-DIIS/RFO-DIIS
 Update second derivatives using D2CorX and points    1    2
 DE= -7.35D-04 DEPred=-7.30D-04 R= 1.01D+00
 TightC=F SS=  1.41D+00  RLast= 6.39D-02 DXNew= 5.0454D-01 1.9185D-01
 Trust test= 1.01D+00 RLast= 6.39D-02 DXMaxT set to 3.00D-01
 The second derivative matrix:
                          X1        Y1        Z1        X2        Y2
           X1           0.84143
           Y1          -0.00000   0.50000
           Z1          -0.00000   0.00000   0.50000
           X2          -0.00000   0.00000   0.00000   0.50000
           Y2           0.00000  -0.00000  -0.00000  -0.00000   0.50000
           Z2           0.00000  -0.00000  -0.00000  -0.00000   0.00000
           R1          -0.34143   0.00000   0.00000   0.00000  -0.00000
           A1           0.00000  -0.00000  -0.00000  -0.00000   0.00000
           A2           0.00000  -0.00000  -0.00000  -0.00000   0.00000
                          Z2        R1        A1        A2
           Z2           0.50000
           R1          -0.00000   0.34143
           A1           0.00000  -0.00000   0.00304
           A2           0.00000  -0.00000   0.00000   0.00304
 ITU=  1  0
 Use linear search instead of GDIIS.
     Eigenvalues ---    0.00304   0.341431000.000001000.000001000.00000
     Eigenvalues --- 1000.000001000.000001000.000001000.00000
 RFO step:  Lambda= 0.00000000D+00 EMin= 3.04184962D-03
 Quartic linear search produced a step of  0.04632.
 Iteration  1 RMS(Cart)=  0.00098741 RMS(Int)=  0.00000000
 Iteration  2 RMS(Cart)=  0.00000000 RMS(Int)=  0.00000000
 ITry= 1 IFail=0 DXMaxC= 2.96D-03 DCOld= 1.00D+10 DXMaxT= 3.00D-01 DXLimC= 3.00D+00 Rises=F
 Variable       Old X    -DE/DX   Delta X   Delta X   Delta X     New X
                                 (Linear)    (Quad)   (Total)
    X1       -3.53271  -0.00091   0.00000   0.00000   0.00000  -3.53271
    Y1        0.00000  -0.00000   0.00000   0.00000   0.00000   0.00000
    Z1        0.00000  -0.00000   0.00000   0.00000   0.00000   0.00000
    X2        3.53271  -0.00000   0.00000   0.00000   0.00000   3.53271
    Y2        0.00000   0.00000   0.00000   0.00000   0.00000   0.00000
    Z2        0.00000   0.00000   0.00000   0.00000   0.00000   0.00000
    R1        2.11384   0.00091   0.00296   0.00000   0.00296   2.11681
    A1        3.14159   0.00000   0.00000   0.00000   0.00000   3.14159
    A2        3.14159   0.00000   0.00000   0.00000   0.00000   3.14159
         Item               Value     Threshold  Converged?
 Maximum Force            0.000913     0.000450     NO 
 RMS     Force            0.000527     0.000300     NO 
 Maximum Displacement     0.002962     0.001800     NO 
 RMS     Displacement     0.000987     0.001200     YES
 Predicted change in Energy=-1.207643D-06
 Lowest energy point so far.  Saving SCF results.
 GradGradGradGradGradGradGradGradGradGradGradGradGradGradGradGradGradGrad

 Leave Link  103 at Mon Apr 21 19:27:43 2025, MaxMem=   536870912 cpu:               0.4 elap:               0.1
 (Enter /home/szhao/Apps/g16/l202.exe)
                          Input orientation:                          
 ---------------------------------------------------------------------
 Center     Atomic      Atomic             Coordinates (Angstroms)
 Number     Number       Type             X           Y           Z
 ---------------------------------------------------------------------
      1          6           0       -1.869427    0.000000    0.000000
      2         15           0        1.869427    0.000000    0.000000
      3          1           0       -2.989592    0.000000   -0.000000
 ---------------------------------------------------------------------
                    Distance matrix (angstroms):
                    1          2          3
     1  C    0.000000
     2  P    3.738854   0.000000
     3  H    1.120165   4.859019   0.000000
 Symmetry turned off by external request.
 Stoichiometry    CHP(1+,2)
 Framework group  C*V[C*(HCP)]
 Deg. of freedom     2
 Full point group                 C*V     NOp   4
 Rotational constants (GHZ):           0.0000000           3.7369564           3.7369564
 Leave Link  202 at Mon Apr 21 19:27:44 2025, MaxMem=   536870912 cpu:               0.1 elap:               0.2
 (Enter /home/szhao/Apps/g16/l301.exe)
 Standard basis: 6-311+G(d,p) (5D, 7F)
 Ernie: Thresh=  0.10000D-02 Tol=  0.10000D-05 Strict=F.
    58 basis functions,    94 primitive gaussians,    60 cartesian basis functions
    11 alpha electrons       10 beta electrons
       nuclear repulsion energy        17.2061662368 Hartrees.
 IExCor= 4336 DFT=T Ex+Corr=M062X ExCW=0 ScaHFX=  0.540000
 ScaDFX=  1.000000  1.000000  1.000000  1.000000 ScalE2=  1.000000  1.000000
 IRadAn=      7 IRanWt=     -1 IRanGd=            0 ICorTp=0 IEmpDi=  4
 NAtoms=    3 NActive=    3 NUniq=    3 SFac= 1.00D+00 NAtFMM=   60 NAOKFM=F Big=F
 Integral buffers will be    131072 words long.
 Raffenetti 2 integral format.
 Two-electron integral symmetry is turned off.
 Leave Link  301 at Mon Apr 21 19:27:44 2025, MaxMem=   536870912 cpu:               0.8 elap:               0.2
 (Enter /home/szhao/Apps/g16/l302.exe)
 NPDir=0 NMtPBC=     1 NCelOv=     1 NCel=       1 NClECP=     1 NCelD=      1
         NCelK=      1 NCelE2=     1 NClLst=     1 CellRange=     0.0.
 One-electron integrals computed using PRISM.
 NBasis=    58 RedAO= T EigKep=  1.78D-02  NBF=    58
 NBsUse=    58 1.00D-06 EigRej= -1.00D+00 NBFU=    58
 Precomputing XC quadrature grid using
 IXCGrd= 4 IRadAn=           7 IRanWt=          -1 IRanGd=           0 AccXCQ= 0.00D+00.
 Generated NRdTot=       0 NPtTot=           0 NUsed=           0 NTot=          32
 NSgBfM=    58    58    58    58    58 MxSgAt=     3 MxSgA2=     3.
 Leave Link  302 at Mon Apr 21 19:27:44 2025, MaxMem=   536870912 cpu:               2.1 elap:               0.4
 (Enter /home/szhao/Apps/g16/l303.exe)
 DipDrv:  MaxL=1.
 Leave Link  303 at Mon Apr 21 19:27:45 2025, MaxMem=   536870912 cpu:               0.7 elap:               0.1
 (Enter /home/szhao/Apps/g16/l401.exe)
 Initial guess from the checkpoint file:  "opt.chk"
 B after Tr=    -0.000135    0.000000   -0.000000
         Rot=    1.000000   -0.000000    0.000000   -0.000000 Ang=  -0.00 deg.
 Guess basis will be translated and rotated to current coordinates.
 JPrj=2 DoOrth=T DoCkMO=T.
 Initial guess <Sx>= 0.0000 <Sy>= 0.0000 <Sz>= 0.5000 <S**2>= 0.7559 S= 0.5030
 Leave Link  401 at Mon Apr 21 19:27:45 2025, MaxMem=   536870912 cpu:               1.7 elap:               0.3
 (Enter /home/szhao/Apps/g16/l502.exe)
 Keep R1 and R2 ints in memory in canonical form, NReq=10036953.
 FoFCou: FMM=F IPFlag=           0 FMFlag=           0 FMFlg1=           0
         NFxFlg=           0 DoJE=F BraDBF=F KetDBF=F FulRan=T
         wScrn=  0.000000 ICntrl=       600 IOpCl=  0 I1Cent=           0 NGrid=           0
         NMat0=    1 NMatS0=   1711 NMatT0=    0 NMatD0=    1 NMtDS0=    0 NMtDT0=    0
 Symmetry not used in FoFCou.
 Two-electron integral symmetry not used.
 UHF open shell SCF:
 Using DIIS extrapolation, IDIIS=  1040.
 NGot=   536870912 LenX=   533933447 LenY=   533929406
 Requested convergence on RMS density matrix=1.00D-08 within 128 cycles.
 Requested convergence on MAX density matrix=1.00D-06.
 Requested convergence on             energy=1.00D-06.
 No special actions if energy rises.

 Cycle   1  Pass 1  IDiag  1:
 E= -379.300939428249    
 DIIS: error= 1.10D-04 at cycle   1 NSaved=   1.
 NSaved= 1 IEnMin= 1 EnMin= -379.300939428249     IErMin= 1 ErrMin= 1.10D-04
 ErrMax= 1.10D-04  0.00D+00 EMaxC= 1.00D-01 BMatC= 1.58D-06 BMatP= 1.58D-06
 IDIUse=3 WtCom= 9.99D-01 WtEn= 1.10D-03
 Coeff-Com:  0.100D+01
 Coeff-En:   0.100D+01
 Coeff:      0.100D+01
 Gap=     0.427 Goal=   None    Shift=    0.000
 Gap=     0.415 Goal=   None    Shift=    0.000
 RMSDP=1.15D-05 MaxDP=1.58D-04              OVMax= 6.24D-04

 Cycle   2  Pass 1  IDiag  1:
 E= -379.300939547159     Delta-E=       -0.000000118910 Rises=F Damp=F
 DIIS: error= 6.35D-05 at cycle   2 NSaved=   2.
 NSaved= 2 IEnMin= 2 EnMin= -379.300939547159     IErMin= 2 ErrMin= 6.35D-05
 ErrMax= 6.35D-05  0.00D+00 EMaxC= 1.00D-01 BMatC= 5.02D-07 BMatP= 1.58D-06
 IDIUse=1 WtCom= 1.00D+00 WtEn= 0.00D+00
 Coeff-Com:  0.268D+00 0.732D+00
 Coeff:      0.268D+00 0.732D+00
 Gap=     0.080 Goal=   None    Shift=    0.000
 Gap=     0.081 Goal=   None    Shift=    0.000
 RMSDP=2.95D-05 MaxDP=5.81D-04 DE=-1.19D-07 OVMax= 2.09D-03

 Cycle   3  Pass 1  IDiag  1:
 E= -379.300937572824     Delta-E=        0.000001974335 Rises=F Damp=F
 DIIS: error= 1.87D-04 at cycle   3 NSaved=   3.
 NSaved= 3 IEnMin= 2 EnMin= -379.300939547159     IErMin= 2 ErrMin= 6.35D-05
 ErrMax= 1.87D-04  0.00D+00 EMaxC= 1.00D-01 BMatC= 4.11D-06 BMatP= 5.02D-07
 IDIUse=3 WtCom= 4.22D-01 WtEn= 5.78D-01
 Coeff-Com: -0.200D-01 0.757D+00 0.263D+00
 Coeff-En:   0.000D+00 0.798D+00 0.202D+00
 Coeff:     -0.844D-02 0.781D+00 0.228D+00
 Gap=     0.080 Goal=   None    Shift=    0.000
 Gap=     0.081 Goal=   None    Shift=    0.000
 RMSDP=1.78D-05 MaxDP=3.68D-04 DE= 1.97D-06 OVMax= 1.31D-03

 Cycle   4  Pass 1  IDiag  1:
 E= -379.300939752521     Delta-E=       -0.000002179697 Rises=F Damp=F
 DIIS: error= 3.70D-05 at cycle   4 NSaved=   4.
 NSaved= 4 IEnMin= 4 EnMin= -379.300939752521     IErMin= 4 ErrMin= 3.70D-05
 ErrMax= 3.70D-05  0.00D+00 EMaxC= 1.00D-01 BMatC= 1.38D-07 BMatP= 5.02D-07
 IDIUse=1 WtCom= 1.00D+00 WtEn= 0.00D+00
 Coeff-Com: -0.112D-01 0.847D-01-0.169D+00 0.110D+01
 Coeff:     -0.112D-01 0.847D-01-0.169D+00 0.110D+01
 Gap=     0.080 Goal=   None    Shift=    0.000
 Gap=     0.081 Goal=   None    Shift=    0.000
 RMSDP=4.60D-06 MaxDP=1.22D-04 DE=-2.18D-06 OVMax= 4.40D-04

 Cycle   5  Pass 1  IDiag  1:
 E= -379.300939840637     Delta-E=       -0.000000088115 Rises=F Damp=F
 DIIS: error= 9.13D-06 at cycle   5 NSaved=   5.
 NSaved= 5 IEnMin= 5 EnMin= -379.300939840637     IErMin= 5 ErrMin= 9.13D-06
 ErrMax= 9.13D-06  0.00D+00 EMaxC= 1.00D-01 BMatC= 4.41D-09 BMatP= 1.38D-07
 IDIUse=1 WtCom= 1.00D+00 WtEn= 0.00D+00
 Coeff-Com: -0.111D-01 0.840D-01-0.168D+00 0.109D+01 0.782D-02
 Coeff:     -0.111D-01 0.840D-01-0.168D+00 0.109D+01 0.782D-02
 Gap=     0.080 Goal=   None    Shift=    0.000
 Gap=     0.081 Goal=   None    Shift=    0.000
 RMSDP=3.95D-08 MaxDP=7.28D-07 DE=-8.81D-08 OVMax= 2.92D-06

 Cycle   6  Pass 1  IDiag  1:
 E= -379.300939840979     Delta-E=       -0.000000000343 Rises=F Damp=F
 DIIS: error= 9.23D-06 at cycle   6 NSaved=   6.
 NSaved= 6 IEnMin= 6 EnMin= -379.300939840979     IErMin= 5 ErrMin= 9.13D-06
 ErrMax= 9.23D-06  0.00D+00 EMaxC= 1.00D-01 BMatC= 4.51D-09 BMatP= 4.41D-09
 IDIUse=1 WtCom= 1.00D+00 WtEn= 0.00D+00
 Large coefficients: NSaved=  6 BigCof=   77.18 CofMax=   10.00 Det=-2.64D-13
 Inversion failed.  Reducing to  5 matrices.
 Large coefficients: NSaved=  5 BigCof=   86.79 CofMax=   10.00 Det=-3.36D-13
 Inversion failed.  Reducing to  4 matrices.
 Large coefficients: NSaved=  4 BigCof=   86.61 CofMax=   10.00 Det=-3.55D-13
 Inversion failed.  Reducing to  3 matrices.
 Large coefficients: NSaved=  3 BigCof=   80.23 CofMax=   10.00 Det=-5.95D-13
 Inversion failed.  Reducing to  2 matrices.
 Large coefficients: NSaved=  2 BigCof=   81.65 CofMax=   10.00 Det=-5.98D-13
 Coeff-Com:  0.817D+02-0.807D+02
 Coeff:      0.817D+02-0.807D+02
 Gap=     0.080 Goal=   None    Shift=    0.000
 Gap=     0.081 Goal=   None    Shift=    0.000
 RMSDP=3.18D-06 MaxDP=7.43D-05 DE=-3.43D-10 OVMax= 2.78D-04

 Cycle   7  Pass 1  IDiag  1:
 E= -379.300939824058     Delta-E=        0.000000016921 Rises=F Damp=F
 DIIS: error= 7.01D-06 at cycle   7 NSaved=   3.
 NSaved= 3 IEnMin= 2 EnMin= -379.300939840979     IErMin= 3 ErrMin= 7.01D-06
 ErrMax= 7.01D-06  0.00D+00 EMaxC= 1.00D-01 BMatC= 4.76D-09 BMatP= 4.41D-09
 IDIUse=1 WtCom= 1.00D+00 WtEn= 0.00D+00
 Large coefficients: NSaved=  3 BigCof=   66.34 CofMax=   10.00 Det=-4.23D-13
 Inversion failed.  Reducing to  2 matrices.
 Coeff-Com:  0.512D+00 0.488D+00
 Coeff:      0.512D+00 0.488D+00
 Gap=     0.080 Goal=   None    Shift=    0.000
 Gap=     0.081 Goal=   None    Shift=    0.000
 RMSDP=4.89D-06 MaxDP=1.23D-04 DE= 1.69D-08 OVMax= 4.58D-04

 Cycle   8  Pass 1  IDiag  1:
 E= -379.300939847691     Delta-E=       -0.000000023633 Rises=F Damp=F
 DIIS: error= 2.16D-05 at cycle   8 NSaved=   3.
 NSaved= 3 IEnMin= 3 EnMin= -379.300939847691     IErMin= 2 ErrMin= 7.01D-06
 ErrMax= 2.16D-05  0.00D+00 EMaxC= 1.00D-01 BMatC= 2.33D-08 BMatP= 4.51D-09
 IDIUse=1 WtCom= 1.00D+00 WtEn= 0.00D+00
 Coeff-Com: -0.116D+01 0.132D+01 0.840D+00
 Coeff:     -0.116D+01 0.132D+01 0.840D+00
 Gap=     0.080 Goal=   None    Shift=    0.000
 Gap=     0.081 Goal=   None    Shift=    0.000
 RMSDP=3.70D-06 MaxDP=8.67D-05 DE=-2.36D-08 OVMax= 3.24D-04

 Cycle   9  Pass 1  IDiag  1:
 E= -379.300939828096     Delta-E=        0.000000019595 Rises=F Damp=F
 DIIS: error= 4.86D-06 at cycle   9 NSaved=   4.
 NSaved= 4 IEnMin= 3 EnMin= -379.300939847691     IErMin= 4 ErrMin= 4.86D-06
 ErrMax= 4.86D-06  0.00D+00 EMaxC= 1.00D-01 BMatC= 1.12D-09 BMatP= 4.51D-09
 IDIUse=1 WtCom= 1.00D+00 WtEn= 0.00D+00
 Coeff-Com: -0.540D+00 0.436D+00 0.111D+00 0.993D+00
 Coeff:     -0.540D+00 0.436D+00 0.111D+00 0.993D+00
 Gap=     0.080 Goal=   None    Shift=    0.000
 Gap=     0.081 Goal=   None    Shift=    0.000
 RMSDP=1.14D-06 MaxDP=2.55D-05 DE= 1.96D-08 OVMax= 9.56D-05

 Cycle  10  Pass 1  IDiag  1:
 E= -379.300939826578     Delta-E=        0.000000001517 Rises=F Damp=F
 DIIS: error= 3.06D-07 at cycle  10 NSaved=   5.
 NSaved= 5 IEnMin= 3 EnMin= -379.300939847691     IErMin= 5 ErrMin= 3.06D-07
 ErrMax= 3.06D-07  0.00D+00 EMaxC= 1.00D-01 BMatC= 6.16D-12 BMatP= 1.12D-09
 IDIUse=1 WtCom= 1.00D+00 WtEn= 0.00D+00
 Coeff-Com:  0.114D+00-0.944D-01-0.487D-01-0.173D+00 0.120D+01
 Coeff:      0.114D+00-0.944D-01-0.487D-01-0.173D+00 0.120D+01
 Gap=     0.080 Goal=   None    Shift=    0.000
 Gap=     0.081 Goal=   None    Shift=    0.000
 RMSDP=9.25D-08 MaxDP=1.52D-06 DE= 1.52D-09 OVMax= 7.10D-06

 Cycle  11  Pass 1  IDiag  1:
 E= -379.300939826583     Delta-E=       -0.000000000005 Rises=F Damp=F
 DIIS: error= 1.19D-07 at cycle  11 NSaved=   6.
 NSaved= 6 IEnMin= 3 EnMin= -379.300939847691     IErMin= 6 ErrMin= 1.19D-07
 ErrMax= 1.19D-07  0.00D+00 EMaxC= 1.00D-01 BMatC= 2.11D-12 BMatP= 6.16D-12
 IDIUse=1 WtCom= 1.00D+00 WtEn= 0.00D+00
 Coeff-Com:  0.932D-01-0.774D-01-0.391D-01-0.142D+00 0.952D+00 0.213D+00
 Coeff:      0.932D-01-0.774D-01-0.391D-01-0.142D+00 0.952D+00 0.213D+00
 Gap=     0.080 Goal=   None    Shift=    0.000
 Gap=     0.081 Goal=   None    Shift=    0.000
 RMSDP=1.80D-08 MaxDP=3.43D-07 DE=-4.77D-12 OVMax= 1.20D-06

 Cycle  12  Pass 1  IDiag  1:
 E= -379.300939826586     Delta-E=       -0.000000000003 Rises=F Damp=F
 DIIS: error= 1.30D-07 at cycle  12 NSaved=   7.
 NSaved= 7 IEnMin= 3 EnMin= -379.300939847691     IErMin= 6 ErrMin= 1.19D-07
 ErrMax= 1.30D-07  0.00D+00 EMaxC= 1.00D-01 BMatC= 2.46D-12 BMatP= 2.11D-12
 IDIUse=1 WtCom= 1.00D+00 WtEn= 0.00D+00
 Coeff-Com:  0.220D+00-0.187D+00-0.691D-01-0.376D+00 0.117D+01 0.875D+01
 Coeff-Com: -0.851D+01
 Coeff:      0.220D+00-0.187D+00-0.691D-01-0.376D+00 0.117D+01 0.875D+01
 Coeff:     -0.851D+01
 Gap=     0.080 Goal=   None    Shift=    0.000
 Gap=     0.081 Goal=   None    Shift=    0.000
 RMSDP=2.03D-07 MaxDP=3.88D-06 DE=-2.96D-12 OVMax= 1.35D-05

 Cycle  13  Pass 1  IDiag  1:
 E= -379.300939826568     Delta-E=        0.000000000019 Rises=F Damp=F
 DIIS: error= 1.67D-08 at cycle  13 NSaved=   8.
 NSaved= 8 IEnMin= 3 EnMin= -379.300939847691     IErMin= 8 ErrMin= 1.67D-08
 ErrMax= 1.67D-08  0.00D+00 EMaxC= 1.00D-01 BMatC= 1.45D-14 BMatP= 2.11D-12
 IDIUse=1 WtCom= 1.00D+00 WtEn= 0.00D+00
 Coeff-Com: -0.142D-01 0.113D-01 0.481D-02 0.234D-01-0.835D-01-0.482D+00
 Coeff-Com:  0.464D+00 0.108D+01
 Coeff:     -0.142D-01 0.113D-01 0.481D-02 0.234D-01-0.835D-01-0.482D+00
 Coeff:      0.464D+00 0.108D+01
 Gap=     0.080 Goal=   None    Shift=    0.000
 Gap=     0.081 Goal=   None    Shift=    0.000
 RMSDP=5.89D-09 MaxDP=8.68D-08 DE= 1.86D-11 OVMax= 5.15D-07

 SCF Done:  E(UM062X) =  -379.300939827     A.U. after   13 cycles
            NFock= 13  Conv=0.59D-08     -V/T= 2.0015
 <Sx>= 0.0000 <Sy>= 0.0000 <Sz>= 0.5000 <S**2>= 0.7559 S= 0.5030
 <L.S>=  0.00000000000    
 KE= 3.787441059182D+02 PE=-9.299907107655D+02 EE= 1.547394987839D+02
 Annihilation of the first spin contaminant:
 S**2 before annihilation     0.7559,   after     0.7500
 Leave Link  502 at Mon Apr 21 19:27:49 2025, MaxMem=   536870912 cpu:              32.5 elap:               4.3
 (Enter /home/szhao/Apps/g16/l701.exe)
 ... and contract with generalized density number  0.
 Compute integral first derivatives.
 Leave Link  701 at Mon Apr 21 19:27:50 2025, MaxMem=   536870912 cpu:               1.0 elap:               0.2
 (Enter /home/szhao/Apps/g16/l702.exe)
 L702 exits ... SP integral derivatives will be done elsewhere.
 Leave Link  702 at Mon Apr 21 19:27:50 2025, MaxMem=   536870912 cpu:               0.4 elap:               0.1
 (Enter /home/szhao/Apps/g16/l703.exe)
 Integral derivatives from FoFJK, PRISM(SPDF).
 Compute integral first derivatives, UseDBF=F ICtDFT=           0.
 Calling FoFJK, ICntrl=      2127 FMM=F ISym2X=0 I1Cent= 0 IOpClX= 1 NMat=1 NMatS=1 NMatT=0.
 FoFJK:  IHMeth= 1 ICntrl=    2127 DoSepK=F KAlg= 0 I1Cent=           0 FoldK=F
 IRaf=         0 NMat=       1 IRICut=       1 DoRegI=T DoRafI=F ISym2E= 0 IDoP0=0 IntGTp=1.
 FoFCou: FMM=F IPFlag=           0 FMFlag=      100000 FMFlg1=         800
         NFxFlg=           0 DoJE=F BraDBF=F KetDBF=F FulRan=T
         wScrn=  0.000000 ICntrl=      2127 IOpCl=  1 I1Cent=           0 NGrid=           0
         NMat0=    1 NMatS0=      1 NMatT0=    0 NMatD0=    1 NMtDS0=    0 NMtDT0=    0
 Symmetry not used in FoFCou.
 Leave Link  703 at Mon Apr 21 19:27:51 2025, MaxMem=   536870912 cpu:               5.1 elap:               0.7
 (Enter /home/szhao/Apps/g16/l716.exe)
 Dipole        =-7.23343739D-01-4.05203565D-09-2.81226735D-07
 -------------------------------------------------------------------
 Center     Atomic                   Forces (Hartrees/Bohr)
 Number     Number              X              Y              Z
 -------------------------------------------------------------------
      1        6          -0.000000000   -0.000000000   -0.000000000
      2       15          -0.000000000   -0.000000000   -0.000000000
      3        1           0.000001725    0.000000002    0.000000002
 -------------------------------------------------------------------
 Cartesian Forces:  Max     0.000001725 RMS     0.000000575
 Leave Link  716 at Mon Apr 21 19:27:51 2025, MaxMem=   536870912 cpu:               0.6 elap:               0.1
 (Enter /home/szhao/Apps/g16/l103.exe)

 GradGradGradGradGradGradGradGradGradGradGradGradGradGradGradGradGradGrad
 Berny optimization.
 Using GEDIIS/GDIIS optimizer.
 FormGI is forming the generalized inverse of G from B-inverse, IUseBI=4.
 Internal  Forces:  Max     0.000001725 RMS     0.000000813
 Search for a local minimum.
 Step number   3 out of a maximum of   20
 All quantities printed in internal units (Hartrees-Bohrs-Radians)
 RMS Force = .99582D-06 SwitMx=.10000D-02 MixMth= 2
 Mixed Optimization -- En-DIIS/RFO-DIIS
 Swapping is turned off.
 Update second derivatives using D2CorX and points    1    2    3
 DE= -1.35D-06 DEPred=-1.21D-06 R= 1.12D+00
 TightC=F SS=  1.41D+00  RLast= 2.96D-03 DXNew= 5.0454D-01 8.8867D-03
 Trust test= 1.12D+00 RLast= 2.96D-03 DXMaxT set to 3.00D-01
 The second derivative matrix:
                          X1        Y1        Z1        X2        Y2
           X1           0.80892
           Y1           0.00000   0.50000
           Z1           0.00000   0.00000   0.50000
           X2          -0.00000  -0.00000  -0.00000   0.50000
           Y2          -0.00000  -0.00000  -0.00000   0.00000   0.50000
           Z2          -0.00000  -0.00000  -0.00000   0.00000   0.00000
           R1          -0.30892  -0.00000  -0.00000   0.00000   0.00000
           A1          -0.00000  -0.00000  -0.00000   0.00000   0.00000
           A2           0.00000   0.00000   0.00000  -0.00000  -0.00000
                          Z2        R1        A1        A2
           Z2           0.50000
           R1           0.00000   0.30892
           A1           0.00000   0.00000   0.00304
           A2          -0.00000  -0.00000  -0.00000   0.00304
 ITU=  1  1  0
     Eigenvalues ---    0.00304   0.308921000.000001000.000001000.00000
     Eigenvalues --- 1000.000001000.000001000.000001000.00000
 En-DIIS/RFO-DIIS/Sim-DIIS IScMMF=       -3 using points:     3    2
 RFO step:  Lambda=-8.36260393D-12.
 NNeg= 0 NGDIIS= 2 SimSw=  2.50D-03 Rises=F DC= -1.35D-06 SmlDif=  1.00D-05
 NRisDI= 0 DoIntr=F SqrtH=F CThrHd= 10.0 CDAdj=  3.0
 RMS Error=  0.1900892391D-05 NUsed= 2 OKEnD=F EnDIS=F
 InvSVX:  RCond= 9.87D-06 Info=           0 Equed=N FErr=  8.90D-16 BErr=  4.55D-17
 DidBck=F Rises=F RFO-DIIS coefs:    0.99812    0.00188
 Iteration  1 RMS(Cart)=  0.00000203 RMS(Int)=  0.00000000
 Iteration  2 RMS(Cart)=  0.00000000 RMS(Int)=  0.00000000
 ITry= 1 IFail=0 DXMaxC= 5.58D-06 DCOld= 1.00D+10 DXMaxT= 3.00D-01 DXLimC= 3.00D+00 Rises=F
 Variable       Old X    -DE/DX   Delta X   Delta X   Delta X     New X
                                 (Linear)    (Quad)   (Total)
    X1       -3.53271   0.00000   0.00000   0.00000   0.00000  -3.53271
    Y1        0.00000   0.00000   0.00000   0.00000   0.00000   0.00000
    Z1        0.00000  -0.00000   0.00000   0.00000   0.00000   0.00000
    X2        3.53271  -0.00000   0.00000   0.00000   0.00000   3.53271
    Y2        0.00000  -0.00000   0.00000   0.00000   0.00000   0.00000
    Z2        0.00000   0.00000   0.00000   0.00000   0.00000   0.00000
    R1        2.11681  -0.00000  -0.00001   0.00000  -0.00001   2.11680
    A1        3.14159  -0.00000  -0.00000  -0.00000  -0.00000   3.14159
    A2        3.14159   0.00000   0.00000   0.00000   0.00000   3.14159
         Item               Value     Threshold  Converged?
 Maximum Force            0.000002     0.000450     YES
 RMS     Force            0.000001     0.000300     YES
 Maximum Displacement     0.000006     0.001800     YES
 RMS     Displacement     0.000002     0.001200     YES
 Predicted change in Energy=-4.817079D-12
 Optimization completed.
    -- Stationary point found.
                           ----------------------------
                           !   Optimized Parameters   !
                           ! (Angstroms and Degrees)  !
 --------------------------                            --------------------------
 ! Name  Definition              Value          Derivative Info.                !
 --------------------------------------------------------------------------------
 ! X1    R(1,-1)                -1.8694         -DE/DX =    0.0                 !
 ! Y1    R(1,-2)                 0.0            -DE/DX =    0.0                 !
 ! Z1    R(1,-3)                 0.0            -DE/DX =    0.0                 !
 ! X2    R(2,-1)                 1.8694         -DE/DX =    0.0                 !
 ! Y2    R(2,-2)                 0.0            -DE/DX =    0.0                 !
 ! Z2    R(2,-3)                 0.0            -DE/DX =    0.0                 !
 ! R1    R(1,3)                  1.1202         -DE/DX =    0.0                 !
 ! A1    L(2,1,3,-2,-1)        180.0            -DE/DX =    0.0                 !
 ! A2    L(2,1,3,-3,-2)        180.0            -DE/DX =    0.0                 !
 --------------------------------------------------------------------------------
 Lowest energy point so far.  Saving SCF results.
 Largest change from initial coordinates is atom    3       0.035 Angstoms.
 GradGradGradGradGradGradGradGradGradGradGradGradGradGradGradGradGradGrad

 Leave Link  103 at Mon Apr 21 19:27:51 2025, MaxMem=   536870912 cpu:               0.2 elap:               0.0
 (Enter /home/szhao/Apps/g16/l202.exe)
                          Input orientation:                          
 ---------------------------------------------------------------------
 Center     Atomic      Atomic             Coordinates (Angstroms)
 Number     Number       Type             X           Y           Z
 ---------------------------------------------------------------------
      1          6           0       -1.869427    0.000000    0.000000
      2         15           0        1.869427    0.000000    0.000000
      3          1           0       -2.989592    0.000000   -0.000000
 ---------------------------------------------------------------------
                    Distance matrix (angstroms):
                    1          2          3
     1  C    0.000000
     2  P    3.738854   0.000000
     3  H    1.120165   4.859019   0.000000
 Symmetry turned off by external request.
 Stoichiometry    CHP(1+,2)
 Framework group  C*V[C*(HCP)]
 Deg. of freedom     2
 Full point group                 C*V     NOp   4
 Rotational constants (GHZ):           0.0000000           3.7369564           3.7369564
 Leave Link  202 at Mon Apr 21 19:27:51 2025, MaxMem=   536870912 cpu:               0.1 elap:               0.0
 (Enter /home/szhao/Apps/g16/l601.exe)
 Copying SCF densities to generalized density rwf, IOpCl= 1 IROHF=0.

 **********************************************************************

            Population analysis using the SCF density.

 **********************************************************************

 Alpha  occ. eigenvalues --  -78.32926 -10.97339  -7.14442  -5.26579  -5.26222
 Alpha  occ. eigenvalues --   -5.25195  -0.99381  -0.86163  -0.65572  -0.51762
 Alpha  occ. eigenvalues --   -0.46268
 Alpha virt. eigenvalues --   -0.38261  -0.34925  -0.34371  -0.13313  -0.09759
 Alpha virt. eigenvalues --   -0.08577  -0.08245  -0.06568  -0.05575  -0.05181
 Alpha virt. eigenvalues --   -0.02398   0.00257   0.16420   0.16488   0.16698
 Alpha virt. eigenvalues --    0.26566   0.30901   0.35834   0.36105   0.41874
 Alpha virt. eigenvalues --    0.44399   0.46279   0.46804   0.46925   0.49575
 Alpha virt. eigenvalues --    0.56209   0.88216   0.88837   1.06579   1.07337
 Alpha virt. eigenvalues --    1.30523   1.31831   1.34492   1.36444   1.60986
 Alpha virt. eigenvalues --    1.61482   2.16601   2.27881   2.43643   2.43993
 Alpha virt. eigenvalues --    2.94671   6.49537  13.68994  13.71301  13.72982
 Alpha virt. eigenvalues --   23.23318 162.72634
  Beta  occ. eigenvalues --  -78.32174 -10.97295  -7.14215  -5.26008  -5.25060
  Beta  occ. eigenvalues --   -5.24286  -0.99153  -0.81004  -0.65387  -0.45268
  Beta virt. eigenvalues --   -0.37156  -0.34777  -0.33103  -0.29373  -0.13767
  Beta virt. eigenvalues --   -0.10783  -0.08477  -0.08249  -0.06531  -0.05220
  Beta virt. eigenvalues --   -0.04859  -0.02727   0.00065   0.14075   0.15422
  Beta virt. eigenvalues --    0.16115   0.26227   0.31836   0.35929   0.36089
  Beta virt. eigenvalues --    0.42647   0.48733   0.50179   0.50922   0.51198
  Beta virt. eigenvalues --    0.53537   0.56670   0.88711   0.89445   1.06982
  Beta virt. eigenvalues --    1.07523   1.32177   1.34856   1.37322   1.37420
  Beta virt. eigenvalues --    1.61156   1.61719   2.17699   2.28182   2.44174
  Beta virt. eigenvalues --    2.44473   2.95318   6.50484  13.71980  13.73995
  Beta virt. eigenvalues --   13.74312  23.23437 162.73874
          Condensed to atoms (all electrons):
               1          2          3
     1  C    5.450981   0.031270   0.285909
     2  P    0.031270  14.449098   0.000515
     3  H    0.285909   0.000515   0.464533
          Atomic-Atomic Spin Densities.
               1          2          3
     1  C    0.057557  -0.002727  -0.001187
     2  P   -0.002727   0.951260  -0.000027
     3  H   -0.001187  -0.000027  -0.000935
 Mulliken charges and spin densities:
               1          2
     1  C    0.231840   0.053642
     2  P    0.519117   0.948506
     3  H    0.249043  -0.002149
 Sum of Mulliken charges =   1.00000   1.00000
 Mulliken charges and spin densities with hydrogens summed into heavy atoms:
               1          2
     1  C    0.480883   0.051494
     2  P    0.519117   0.948506
 Electronic spatial extent (au):  <R**2>=            312.4231
 Charge=              1.0000 electrons
 Dipole moment (field-independent basis, Debye):
    X=             -1.8386    Y=             -0.0000    Z=             -0.0000  Tot=              1.8386
 Quadrupole moment (field-independent basis, Debye-Ang):
   XX=             11.8243   YY=            -18.9497   ZZ=            -17.6583
   XY=              0.0000   XZ=              0.0000   YZ=              1.4433
 Traceless Quadrupole moment (field-independent basis, Debye-Ang):
   XX=             20.0855   YY=            -10.6885   ZZ=             -9.3970
   XY=              0.0000   XZ=              0.0000   YZ=              1.4433
 Octapole moment (field-independent basis, Debye-Ang**2):
  XXX=            -41.8905  YYY=             -0.0000  ZZZ=              0.0000  XYY=            -13.8835
  XXY=              0.0000  XXZ=             -0.0000  XZZ=            -13.3322  YZZ=             -0.0000
  YYZ=              0.0000  XYZ=              0.6160
 Hexadecapole moment (field-independent basis, Debye-Ang**3):
 XXXX=           -185.9654 YYYY=            -29.1277 ZZZZ=            -25.1813 XXXY=              0.0000
 XXXZ=              0.0000 YYYX=              0.0000 YYYZ=              2.2052 ZZZX=             -0.0000
 ZZZY=              2.2050 XXYY=            -74.4405 XXZZ=            -69.5099 YYZZ=             -9.0516
 XXYZ=              5.5102 YYXZ=             -0.0000 ZZXY=              0.0000
 N-N= 1.720616623676D+01 E-N=-9.299907111683D+02  KE= 3.787441059182D+02
                          Isotropic Fermi Contact Couplings
        Atom                 a.u.       MegaHertz       Gauss      10(-4) cm-1
     1  C(13)              0.00578       6.50047       2.31953       2.16832
     2  P(31)             -0.11491    -208.11659     -74.26117     -69.42022
     3  H(1)              -0.00047      -2.10619      -0.75154      -0.70255
 --------------------------------------------------------
       Center         ----  Spin Dipole Couplings  ----
                      3XX-RR        3YY-RR        3ZZ-RR
 --------------------------------------------------------
     1   Atom       -0.028558      0.036524     -0.007966
     2   Atom       -1.739772     -0.248057      1.987829
     3   Atom        0.006977     -0.002789     -0.004189
 --------------------------------------------------------
                        XY            XZ            YZ
 --------------------------------------------------------
     1   Atom        0.000000     -0.000000     -0.049720
     2   Atom       -0.000000      0.000000      2.498771
     3   Atom        0.000000      0.000000     -0.001565
 --------------------------------------------------------


 ---------------------------------------------------------------------------------
              Anisotropic Spin Dipole Couplings in Principal Axis System
 ---------------------------------------------------------------------------------

       Atom             a.u.   MegaHertz   Gauss  10(-4) cm-1        Axes

              Baa    -0.0402    -5.393    -1.924    -1.799 -0.0000  0.5439  0.8392
     1 C(13)  Bbb    -0.0286    -3.832    -1.367    -1.278  1.0000 -0.0000  0.0000
              Bcc     0.0687     9.225     3.292     3.077  0.0000  0.8392 -0.5439
 
              Baa    -1.8676  -403.738  -144.064  -134.672  0.0000  0.8392 -0.5439
     2 P(31)  Bbb    -1.7398  -376.111  -134.206  -125.457  1.0000 -0.0000  0.0000
              Bcc     3.6073   779.848   278.269   260.129  0.0000  0.5439  0.8392
 
              Baa    -0.0052    -2.776    -0.991    -0.926 -0.0000  0.5439  0.8392
     3 H(1)   Bbb    -0.0018    -0.947    -0.338    -0.316  0.0000  0.8392 -0.5439
              Bcc     0.0070     3.723     1.328     1.242  1.0000  0.0000  0.0000
 

 ---------------------------------------------------------------------------------

 No NMR shielding tensors so no spin-rotation constants.
 Leave Link  601 at Mon Apr 21 19:27:52 2025, MaxMem=   536870912 cpu:               1.5 elap:               0.2
 (Enter /home/szhao/Apps/g16/l9999.exe)
 1\1\GINC-NODE05\FOpt\UM062X\6-311+G(d,p)\C1H1P1(1+,2)\SZHAO\21-Apr-202
 5\0\\#p opt UM062X/6-311+G** nosymm int=superfine\\Title Card Required
 \\1,2\C,-1.869427,0.,0.\P,1.869427,0.,0.\H,-2.9895923407,0.,-0.0000004
 357\\Version=ES64L-G16RevA.03\HF=-379.3009398\S2=0.755927\S2-1=0.\S2A=
 0.750017\RMSD=5.892e-09\RMSF=5.749e-07\Dipole=-1.9117453,0.,-0.0000002
 \Quadrupole=14.9331056,-7.9466362,-6.9864694,0.0000002,0.0000008,1.073
 0292\PG=C*V [C*(H1C1P1)]\\@


 Change starts when someone sees the next step.
                            -- William Drayton
 Job cpu time:       0 days  0 hours  3 minutes  1.8 seconds.
 Elapsed time:       0 days  0 hours  0 minutes 25.6 seconds.
 File lengths (MBytes):  RWF=     17 Int=      0 D2E=      0 Chk=      2 Scr=      2
 Normal termination of Gaussian 16 at Mon Apr 21 19:27:52 2025.
