Title Card Required                                                     
FOpt      UM062X                                                      6-311+G(d,p)        
Number of atoms                            I                6
Info1-9                                    I   N=           9
          15          15           0           0           0         110
           2          18        -502
Full Title                                 C   N=           2
Title Card Required     
Route                                      C   N=           4
#p opt UM062X/6-311+G** nosymm int=superfine    
Charge                                     I                1
Multiplicity                               I                2
Number of electrons                        I               15
Number of alpha electrons                  I                8
Number of beta electrons                   I                7
Number of basis functions                  I               68
Number of independent functions            I               68
Number of point charges in /Mol/           I                0
Number of translation vectors              I                0
Atomic numbers                             I   N=           6
           6           6           1           1           1           1
Nuclear charges                            R   N=           6
  6.00000000E+00  6.00000000E+00  1.00000000E+00  1.00000000E+00  1.00000000E+00
  1.00000000E+00
Current cartesian coordinates              R   N=          18
 -1.49613215E+00  0.00000000E+00  0.00000000E+00  1.49613215E+00  0.00000000E+00
  0.00000000E+00 -2.48902952E+00 -1.79445654E+00 -5.55023336E-09 -2.48915010E+00
  1.79439455E+00 -1.05473505E-08  2.48902952E+00  1.79445654E+00  4.96061855E-09
  2.48915010E+00 -1.79439455E+00 -3.80518896E-11
Number of symbols in /Mol/                 I                0
Force Field                                I                0
Atom Types                                 C   N=           6
                                                            
            
Int Atom Types                             I   N=           6
           0           0           0           0           0           0
MM charges                                 R   N=           6
  0.00000000E+00  0.00000000E+00  0.00000000E+00  0.00000000E+00  0.00000000E+00
  0.00000000E+00
Integer atomic weights                     I   N=           6
          12          12           1           1           1           1
Real atomic weights                        R   N=           6
  1.20000000E+01  1.20000000E+01  1.00782504E+00  1.00782504E+00  1.00782504E+00
  1.00782504E+00
Atom fragment info                         I   N=           6
           0           0           0           0           0           0
Atom residue num                           I   N=           6
           0           0           0           0           0           0
Nuclear spins                              I   N=           6
           0           0           1           1           1           1
Nuclear ZEff                               R   N=           6
 -3.60000000E+00 -3.60000000E+00 -1.00000000E+00 -1.00000000E+00 -1.00000000E+00
 -1.00000000E+00
Nuclear ZNuc                               R   N=           6
  6.00000000E+00  6.00000000E+00  1.00000000E+00  1.00000000E+00  1.00000000E+00
  1.00000000E+00
Nuclear QMom                               R   N=           6
  0.00000000E+00  0.00000000E+00  0.00000000E+00  0.00000000E+00  0.00000000E+00
  0.00000000E+00
Nuclear GFac                               R   N=           6
  0.00000000E+00  0.00000000E+00  2.79284600E+00  2.79284600E+00  2.79284600E+00
  2.79284600E+00
MicOpt                                     I   N=           6
          -2          -2          -1          -1          -1          -1
Number of residues                         I                0
Number of secondary structures             I                0
Redundant internal dimensions              I   N=           4
          20          10           6           4
Redundant internal coordinate indices      I   N=          80
           1          -1           0           0           1          -2
           0           0           1          -3           0           0
           2          -1           0           0           2          -2
           0           0           2          -3           0           0
           1           3           0           0           1           4
           0           0           2           5           0           0
           2           6           0           0           2           1
           3           0           2           1           4           0
           3           1           4           0           1           2
           5           0           1           2           6           0
           5           2           6           0           3           1
           2           5           3           1           2           6
           4           1           2           5           4           1
           2           6
Redundant internal coordinates             R   N=          20
 -1.49613215E+00  0.00000000E+00  0.00000000E+00  1.49613215E+00  0.00000000E+00
  0.00000000E+00  2.05083385E+00  2.05083799E+00  2.05083385E+00  2.05083799E+00
  2.07618007E+00  2.07624616E+00  2.13075908E+00  2.07618007E+00  2.07624616E+00
  2.13075908E+00  3.14159265E+00 -0.00000000E+00  0.00000000E+00  3.14159265E+00
ZRed-IntVec                                I   N=          20
          -1          -1          -1          -1          -1          -1
           0           0           0           0           0           0
           0           0           0           0           0           0
           0           0
ZRed-FPVec                                 R   N=          20
  0.00000000E+00  0.00000000E+00  0.00000000E+00  0.00000000E+00  0.00000000E+00
  0.00000000E+00  0.00000000E+00  0.00000000E+00  0.00000000E+00  0.00000000E+00
  0.00000000E+00  0.00000000E+00  0.00000000E+00  0.00000000E+00  0.00000000E+00
  0.00000000E+00  0.00000000E+00  0.00000000E+00  0.00000000E+00  0.00000000E+00
ZRed-Constraint1                           R   N=          20
 -1.49613215E+00  0.00000000E+00  0.00000000E+00  1.49613215E+00  0.00000000E+00
  0.00000000E+00  2.11844554E+00  2.12146238E+00  2.11844554E+00  2.12146238E+00
  2.15953654E+00  2.15465296E+00  1.96899581E+00  2.15953654E+00  2.15465296E+00
  1.96899581E+00  3.14159265E+00  0.00000000E+00  0.00000000E+00  3.14159265E+00
ZRed-Constraint2                           R   N=          20
 -1.49613215E+00  0.00000000E+00  0.00000000E+00  1.49613215E+00  0.00000000E+00
  0.00000000E+00  0.00000000E+00  0.00000000E+00  0.00000000E+00  0.00000000E+00
  0.00000000E+00  0.00000000E+00  0.00000000E+00  0.00000000E+00  0.00000000E+00
  0.00000000E+00  0.00000000E+00  0.00000000E+00  0.00000000E+00  0.00000000E+00
Number of contracted shells                I               28
Number of primitive shells                 I               50
Pure/Cartesian d shells                    I                0
Pure/Cartesian f shells                    I                0
Highest angular momentum                   I                2
Largest degree of contraction              I                6
Shell types                                I   N=          28
           0          -1          -1          -1          -1          -2
           0          -1          -1          -1          -1          -2
           0           0           0           1           0           0
           0           1           0           0           0           1
           0           0           0           1
Number of primitives per shell             I   N=          28
           6           3           1           1           1           1
           6           3           1           1           1           1
           3           1           1           1           3           1
           1           1           3           1           1           1
           3           1           1           1
Shell to atom map                          I   N=          28
           1           1           1           1           1           1
           2           2           2           2           2           2
           3           3           3           3           4           4
           4           4           5           5           5           5
           6           6           6           6
Primitive exponents                        R   N=          50
  4.56324000E+03  6.82024000E+02  1.54973000E+02  4.44553000E+01  1.30290000E+01
  1.82773000E+00  2.09642000E+01  4.80331000E+00  1.45933000E+00  4.83456000E-01
  1.45585000E-01  4.38000000E-02  6.26000000E-01  4.56324000E+03  6.82024000E+02
  1.54973000E+02  4.44553000E+01  1.30290000E+01  1.82773000E+00  2.09642000E+01
  4.80331000E+00  1.45933000E+00  4.83456000E-01  1.45585000E-01  4.38000000E-02
  6.26000000E-01  3.38650000E+01  5.09479000E+00  1.15879000E+00  3.25840000E-01
  1.02741000E-01  7.50000000E-01  3.38650000E+01  5.09479000E+00  1.15879000E+00
  3.25840000E-01  1.02741000E-01  7.50000000E-01  3.38650000E+01  5.09479000E+00
  1.15879000E+00  3.25840000E-01  1.02741000E-01  7.50000000E-01  3.38650000E+01
  5.09479000E+00  1.15879000E+00  3.25840000E-01  1.02741000E-01  7.50000000E-01
Contraction coefficients                   R   N=          50
  1.96665025E-03  1.52306019E-02  7.61269097E-02  2.60801033E-01  6.16462078E-01
  2.21006028E-01  1.14660081E-01  9.19999648E-01 -3.03068213E-03  1.00000000E+00
  1.00000000E+00  1.00000000E+00  1.00000000E+00  1.96665025E-03  1.52306019E-02
  7.61269097E-02  2.60801033E-01  6.16462078E-01  2.21006028E-01  1.14660081E-01
  9.19999648E-01 -3.03068213E-03  1.00000000E+00  1.00000000E+00  1.00000000E+00
  1.00000000E+00  2.54938145E-02  1.90373109E-01  8.52161486E-01  1.00000000E+00
  1.00000000E+00  1.00000000E+00  2.54938145E-02  1.90373109E-01  8.52161486E-01
  1.00000000E+00  1.00000000E+00  1.00000000E+00  2.54938145E-02  1.90373109E-01
  8.52161486E-01  1.00000000E+00  1.00000000E+00  1.00000000E+00  2.54938145E-02
  1.90373109E-01  8.52161486E-01  1.00000000E+00  1.00000000E+00  1.00000000E+00
P(S=P) Contraction coefficients            R   N=          50
  0.00000000E+00  0.00000000E+00  0.00000000E+00  0.00000000E+00  0.00000000E+00
  0.00000000E+00  4.02486927E-02  2.37593957E-01  8.15853851E-01  1.00000000E+00
  1.00000000E+00  1.00000000E+00  0.00000000E+00  0.00000000E+00  0.00000000E+00
  0.00000000E+00  0.00000000E+00  0.00000000E+00  0.00000000E+00  4.02486927E-02
  2.37593957E-01  8.15853851E-01  1.00000000E+00  1.00000000E+00  1.00000000E+00
  0.00000000E+00  0.00000000E+00  0.00000000E+00  0.00000000E+00  0.00000000E+00
  0.00000000E+00  0.00000000E+00  0.00000000E+00  0.00000000E+00  0.00000000E+00
  0.00000000E+00  0.00000000E+00  0.00000000E+00  0.00000000E+00  0.00000000E+00
  0.00000000E+00  0.00000000E+00  0.00000000E+00  0.00000000E+00  0.00000000E+00
  0.00000000E+00  0.00000000E+00  0.00000000E+00  0.00000000E+00  0.00000000E+00
Coordinates of each shell                  R   N=          84
 -1.49613215E+00  0.00000000E+00  0.00000000E+00 -1.49613215E+00  0.00000000E+00
  0.00000000E+00 -1.49613215E+00  0.00000000E+00  0.00000000E+00 -1.49613215E+00
  0.00000000E+00  0.00000000E+00 -1.49613215E+00  0.00000000E+00  0.00000000E+00
 -1.49613215E+00  0.00000000E+00  0.00000000E+00  1.49613215E+00  0.00000000E+00
  0.00000000E+00  1.49613215E+00  0.00000000E+00  0.00000000E+00  1.49613215E+00
  0.00000000E+00  0.00000000E+00  1.49613215E+00  0.00000000E+00  0.00000000E+00
  1.49613215E+00  0.00000000E+00  0.00000000E+00  1.49613215E+00  0.00000000E+00
  0.00000000E+00 -2.48902952E+00 -1.79445654E+00 -5.55023336E-09 -2.48902952E+00
 -1.79445654E+00 -5.55023336E-09 -2.48902952E+00 -1.79445654E+00 -5.55023336E-09
 -2.48902952E+00 -1.79445654E+00 -5.55023336E-09 -2.48915010E+00  1.79439455E+00
 -1.05473505E-08 -2.48915010E+00  1.79439455E+00 -1.05473505E-08 -2.48915010E+00
  1.79439455E+00 -1.05473505E-08 -2.48915010E+00  1.79439455E+00 -1.05473505E-08
  2.48902952E+00  1.79445654E+00  4.96061855E-09  2.48902952E+00  1.79445654E+00
  4.96061855E-09  2.48902952E+00  1.79445654E+00  4.96061855E-09  2.48902952E+00
  1.79445654E+00  4.96061855E-09  2.48915010E+00 -1.79439455E+00 -3.80518896E-11
  2.48915010E+00 -1.79439455E+00 -3.80518896E-11  2.48915010E+00 -1.79439455E+00
 -3.80518896E-11  2.48915010E+00 -1.79439455E+00 -3.80518896E-11
Num ILSW                                   I              100
ILSW                                       I   N=         100
           1           0           0           1           2           0
           0           0           0           0        4336          -1
           7           0           0           0           2           0
           0           0           0           0           1           0
           1           1           0           0           0           0
           0           0      100000           0          -1           0
           0           0           0           0           0           0
           0           0           0           1           0           0
           0 -2000000000           1           0           0           0
           0           0           4          52           0           0
           0           0          55           0           0           0
           0           0           0           6           0           1
           0           0           0           0           0           0
           0           0           0           0           0           0
           0           0           0           0           0           0
           0           0           0           0           0           0
           0           0           0           0
Num RLSW                                   I               52
RLSW                                       R   N=          52
  1.00000000E+00  1.00000000E+00  1.00000000E+00  1.00000000E+00  5.40000000E-01
  0.00000000E+00  0.00000000E+00  1.00000000E+00  0.00000000E+00  0.00000000E+00
  0.00000000E+00  0.00000000E+00  1.00000000E+00  0.00000000E+00  0.00000000E+00
  0.00000000E+00  0.00000000E+00  1.00000000E+00  0.00000000E+00  0.00000000E+00
  0.00000000E+00  0.00000000E+00  1.00000000E+00  0.00000000E+00  0.00000000E+00
  0.00000000E+00  0.00000000E+00  1.00000000E+00  0.00000000E+00  0.00000000E+00
  0.00000000E+00  0.00000000E+00  1.00000000E+00  0.00000000E+00  0.00000000E+00
  0.00000000E+00  0.00000000E+00  0.00000000E+00  1.00000000E+00  1.00000000E+00
  0.00000000E+00  1.00000000E+00  0.00000000E+00  0.00000000E+00  0.00000000E+00
  0.00000000E+00  0.00000000E+00  0.00000000E+00  0.00000000E+00  0.00000000E+00
  0.00000000E+00  0.00000000E+00
MxBond                                     I                3
NBond                                      I   N=           6
           3           3           1           1           1           1
IBond                                      I   N=          18
           2           3           4           1           5           6
           1           0           0           1           0           0
           2           0           0           2           0           0
RBond                                      R   N=          18
  1.00000000E+00  1.00000000E+00  1.00000000E+00  1.00000000E+00  1.00000000E+00
  1.00000000E+00  1.00000000E+00  0.00000000E+00  0.00000000E+00  1.00000000E+00
  0.00000000E+00  0.00000000E+00  1.00000000E+00  0.00000000E+00  0.00000000E+00
  1.00000000E+00  0.00000000E+00  0.00000000E+00
Virial Ratio                               R      2.007701740133974E+00
SCF Energy                                 R     -7.816631553312972E+01
Total Energy                               R     -7.816631553312972E+01
S**2                                       R      7.524197122040022E-01
S**2 after annihilation                    R      7.500046398222642E-01
RMS Force                                  R      4.870721785567662E-06
RMS Density                                R      6.971886819621201E-09
Job Status                                 I                1
Nuclear derivative order                   I                1
External E-field                           R   N=          35
  0.00000000E+00  0.00000000E+00  0.00000000E+00  0.00000000E+00  0.00000000E+00
  0.00000000E+00  0.00000000E+00  0.00000000E+00  0.00000000E+00  0.00000000E+00
  0.00000000E+00  0.00000000E+00  0.00000000E+00  0.00000000E+00  0.00000000E+00
  0.00000000E+00  0.00000000E+00  0.00000000E+00  0.00000000E+00  0.00000000E+00
  0.00000000E+00  0.00000000E+00  0.00000000E+00  0.00000000E+00  0.00000000E+00
  0.00000000E+00  0.00000000E+00  0.00000000E+00  0.00000000E+00  0.00000000E+00
  0.00000000E+00  0.00000000E+00  0.00000000E+00  0.00000000E+00  0.00000000E+00
IOpCl                                      I                1
IROHF                                      I                0
Alpha Orbital Energies                     R   N=          68
 -1.09069928E+01 -1.09065814E+01 -1.13829475E+00 -9.85158016E-01 -8.30505997E-01
 -7.60245392E-01 -7.46754583E-01 -6.29022793E-01 -3.21133581E-01 -1.45605437E-01
 -1.34563918E-01 -1.17749844E-01 -9.21774467E-02 -7.58246298E-02 -7.10617519E-02
 -4.65691442E-02 -4.58909603E-02 -3.01077053E-02 -1.99876428E-02 -1.01112448E-02
  3.50984724E-02  1.01802218E-01  1.93610984E-01  2.32568809E-01  2.66750133E-01
  3.12539626E-01  3.25896496E-01  3.74310932E-01  4.22006033E-01  4.27210995E-01
  4.61011070E-01  4.75541621E-01  5.52030845E-01  5.77615562E-01  7.67576767E-01
  7.76993857E-01  8.43329811E-01  1.15537599E+00  1.17114190E+00  1.17487349E+00
  1.19428571E+00  1.28817910E+00  1.32417699E+00  1.32821238E+00  1.47684035E+00
  1.60342286E+00  1.65874635E+00  1.66078643E+00  1.71975051E+00  1.81106980E+00
  1.81442991E+00  1.87153628E+00  2.13616560E+00  2.19919750E+00  2.26705374E+00
  2.32251451E+00  2.38648257E+00  2.39602779E+00  2.42278419E+00  2.50032234E+00
  2.53671160E+00  2.62425626E+00  2.72895822E+00  3.42710653E+00  3.51129207E+00
  3.75260605E+00  2.35005687E+01  2.35527579E+01
Beta Orbital Energies                      R   N=          68
 -1.09047385E+01 -1.09044377E+01 -1.10193444E+00 -9.65057360E-01 -8.21482010E-01
 -7.49654838E-01 -7.43314042E-01 -3.96958574E-01 -2.44610235E-01 -1.62655285E-01
 -1.30750825E-01 -1.20636448E-01 -9.46420563E-02 -8.35330036E-02 -7.15339112E-02
 -4.67988756E-02 -3.94803761E-02 -2.26048357E-02 -1.42882577E-02  1.03401492E-03
  3.49212185E-02  1.06671690E-01  1.88865334E-01  2.28223295E-01  2.74312578E-01
  3.20791155E-01  3.29143104E-01  3.61093452E-01  4.35416122E-01  4.38840447E-01
  4.72127270E-01  4.82015836E-01  5.28639316E-01  5.68443196E-01  8.01241521E-01
  8.16000142E-01  8.69340739E-01  1.17452271E+00  1.18418605E+00  1.19324149E+00
  1.24572469E+00  1.31647074E+00  1.33662884E+00  1.34432894E+00  1.49169718E+00
  1.62456506E+00  1.68749305E+00  1.68950241E+00  1.73497229E+00  1.82642238E+00
  1.83480698E+00  1.90344005E+00  2.17021891E+00  2.23482958E+00  2.27772806E+00
  2.32965326E+00  2.40839658E+00  2.41930228E+00  2.46080217E+00  2.52133013E+00
  2.58242527E+00  2.66447248E+00  2.74878590E+00  3.47569898E+00  3.55977930E+00
  3.81275426E+00  2.35137320E+01  2.35662730E+01
Alpha MO coefficients                      R   N=        4624
  3.98997424E-01  3.27972977E-01  7.16719977E-04  2.26488973E-08  6.89417511E-12
  8.42018023E-03 -1.61819728E-03 -7.52833244E-08 -1.68640473E-11 -2.14816786E-03
 -5.74368822E-05  4.14047498E-08  1.61547453E-12 -5.98411018E-04  5.57172094E-04
 -3.06762954E-08  3.86914375E-12 -7.23852032E-04  5.31323987E-12 -3.42200605E-12
 -9.01065764E-04 -8.06961240E-08  3.98997422E-01  3.27972976E-01 -7.16719976E-04
 -2.26488937E-08 -1.41333303E-12  8.42018020E-03  1.61819728E-03  7.52833043E-08
  5.05800805E-12 -2.14816785E-03  5.74368788E-05 -4.14047375E-08 -1.61869324E-13
 -5.98411028E-04 -5.57172089E-04  3.06763090E-08 -2.45628494E-12 -7.23852029E-04
  1.19458579E-12  3.41247292E-12 -9.01065762E-04 -8.06961313E-08  1.58159770E-04
 -2.35912028E-03  1.56070458E-03 -7.16625015E-04 -1.27031883E-03 -3.81033582E-12
  1.58169503E-04 -2.35917726E-03  1.56073965E-03 -7.16709907E-04  1.27027693E-03
 -7.12486736E-12  1.58159769E-04 -2.35912027E-03  1.56070458E-03  7.16625013E-04
  1.27031882E-03  3.37958688E-12  1.58169502E-04 -2.35917725E-03  1.56073965E-03
  7.16709905E-04 -1.27027693E-03  3.09569155E-14  3.99024730E-01  3.28083511E-01
  2.76306553E-04  1.27903534E-08  6.13437212E-12  7.92027988E-03 -1.09172618E-03
 -5.66335841E-08 -1.40828929E-11 -4.07312481E-03 -9.22123754E-04  1.23590571E-08
  2.78246937E-12  2.86863081E-03  1.41279628E-03  1.63418570E-08  2.74363937E-12
 -8.28985589E-04  4.54118305E-12 -2.28104809E-12 -3.96970825E-04 -3.37867212E-08
 -3.99024732E-01 -3.28083512E-01  2.76306555E-04  1.27903580E-08  8.09566000E-13
 -7.92027991E-03 -1.09172619E-03 -5.66336000E-08 -3.93935631E-12  4.07312481E-03
 -9.22123754E-04  1.23592067E-08  3.97564853E-13 -2.86863080E-03  1.41279628E-03
  1.63419603E-08 -6.57151049E-14  8.28985592E-04 -1.36986847E-12 -2.26904978E-12
  3.96970828E-04  3.37867235E-08  1.96667577E-04 -1.82142245E-03  1.42059579E-03
 -5.12391045E-04 -1.10181949E-03 -3.33567761E-12  1.96664806E-04 -1.82141162E-03
  1.42056773E-03 -5.12443376E-04  1.10178076E-03 -6.39783626E-12 -1.96667577E-04
  1.82142246E-03 -1.42059580E-03 -5.12391047E-04 -1.10181949E-03 -3.05786539E-12
 -1.96664807E-04  1.82141163E-03 -1.42056774E-03 -5.12443378E-04  1.10178076E-03
  4.00606002E-14 -8.31630307E-02 -1.35214088E-01  2.92520483E-02 -8.21049031E-07
 -9.82970117E-11  3.68485718E-01  5.25221238E-02 -8.19560569E-07 -1.02805051E-10
  2.19773947E-01  1.70075438E-02 -5.80573453E-07 -6.18663037E-11  1.11720954E-04
 -9.42494744E-03  1.97178272E-07 -4.56417900E-11 -6.21492730E-03  6.29535887E-12
 -5.18550389E-12  7.16013913E-03 -3.13203700E-07 -8.31630307E-02 -1.35214088E-01
 -2.92520483E-02  8.21049030E-07  8.94730605E-13  3.68485718E-01 -5.25221238E-02
  8.19560595E-07 -5.62555731E-12  2.19773947E-01 -1.70075438E-02  5.80573431E-07
 -8.76398808E-12  1.11720957E-04  9.42494744E-03 -1.97178296E-07  3.41099112E-11
 -6.21492730E-03  8.22254238E-12  5.17950655E-12  7.16013913E-03 -3.13203694E-07
  5.59358486E-02  5.99971706E-02 -9.63121143E-03  5.99209145E-03  9.79911570E-03
  2.44656073E-11  5.59344577E-02  5.99964794E-02 -9.63133848E-03  5.99256723E-03
 -9.79845805E-03  5.35164851E-11  5.59358486E-02  5.99971706E-02 -9.63121143E-03
 -5.99209145E-03 -9.79911570E-03 -2.68131688E-11  5.59344577E-02  5.99964794E-02
 -9.63133848E-03 -5.99256723E-03  9.79845805E-03  2.19016491E-12 -7.38777254E-02
 -1.21005441E-01 -6.51378563E-02 -1.17131600E-06 -2.84045313E-10  3.37017683E-01
 -9.65941231E-02 -1.58844087E-06 -3.84656787E-10  2.64841526E-01 -2.46408938E-02
 -9.65985606E-07 -1.85048108E-10 -5.89764130E-02 -2.11195333E-02 -4.02288498E-08
 -3.15525110E-11 -1.51462921E-03  1.95867196E-11 -1.99357733E-11 -1.15567314E-02
 -6.50194726E-07  7.38777254E-02  1.21005441E-01 -6.51378563E-02 -1.17131600E-06
 -1.14657754E-10 -3.37017683E-01 -9.65941231E-02 -1.58844086E-06 -1.67535595E-10
 -2.64841526E-01 -2.46408938E-02 -9.65985748E-07 -7.66650437E-11  5.89764130E-02
 -2.11195333E-02 -4.02289672E-08  9.17073716E-12  1.51462921E-03  7.32297814E-12
 -1.99664529E-11  1.15567314E-02  6.50194723E-07  8.51963413E-02  9.99320762E-02
 -2.84752634E-03  4.56970802E-03  1.33388515E-02  2.67072131E-11  8.51973780E-02
  9.99339334E-02 -2.84738440E-03  4.57065061E-03 -1.33387703E-02  6.80195049E-11
 -8.51963413E-02 -9.99320762E-02  2.84752634E-03  4.56970802E-03  1.33388515E-02
  3.27866502E-11 -8.51973780E-02 -9.99339334E-02  2.84738440E-03  4.57065061E-03
 -1.33387703E-02 -8.63986037E-12 -1.54611276E-07 -2.43941545E-07 -2.39526668E-06
  1.58137520E-01 -1.35822973E-10  8.03302765E-07 -2.89012567E-06  2.37085759E-01
 -1.90782757E-10 -1.32497132E-06 -3.02591460E-06  1.42608171E-01 -1.25029249E-10
 -8.08292110E-06 -2.62751621E-06  4.15956048E-03 -2.43746341E-11  2.06492687E-07
  2.18469380E-11 -1.14500165E-10  1.27582047E-06  1.84475118E-05  1.54611277E-07
  2.43941546E-07 -2.39526669E-06  1.58137520E-01  1.35943723E-10 -8.03302765E-07
 -2.89012568E-06  2.37085759E-01  1.90670176E-10  1.32497132E-06 -3.02591461E-06
  1.42608171E-01  1.25769779E-10  8.08292110E-06 -2.62751620E-06  4.15956048E-03
  2.39592307E-11 -2.06492691E-07  2.18515880E-11  2.72981873E-11 -1.27582047E-06
 -1.84475119E-05 -9.77643007E-02 -1.22104939E-01  1.44431711E-04 -8.37455433E-03
 -9.35084266E-03 -4.78980103E-11  9.77627135E-02  1.22103678E-01 -1.43987284E-04
  8.37549219E-03 -9.35056872E-03  8.50930014E-11  9.77643007E-02  1.22104939E-01
 -1.44431711E-04 -8.37455433E-03 -9.35084266E-03 -3.91476330E-11 -9.77627135E-02
 -1.22103678E-01  1.43987284E-04  8.37549219E-03 -9.35056872E-03  1.91719706E-12
 -1.72130939E-03 -3.10361640E-03  1.89754535E-01 -5.26119950E-05  5.52928675E-10
  1.49725537E-02  2.95357444E-01 -7.67808308E-05  8.24310428E-10 -7.71865182E-03
  1.52975365E-01 -5.67599239E-05  5.11330092E-10 -3.17138682E-03 -1.06619116E-02
 -7.21239035E-06  4.57766404E-12 -1.32895870E-03 -2.19231720E-11  2.13491233E-11
  2.07439870E-02  9.07087973E-06 -1.72130939E-03 -3.10361640E-03 -1.89754535E-01
  5.26119950E-05 -6.49908896E-11  1.49725537E-02 -2.95357444E-01  7.67808307E-05
 -5.71229219E-11 -7.71865182E-03 -1.52975365E-01  5.67599239E-05 -5.49273826E-11
 -3.17138682E-03  1.06619116E-02  7.21239037E-06 -1.32202097E-11 -1.32895870E-03
 -4.31953441E-11 -2.13314444E-11  2.07439870E-02  9.07087972E-06 -7.08786496E-02
 -1.00720412E-01 -1.97900589E-02  2.53451394E-03 -1.04235073E-02 -1.97896432E-12
 -7.09582397E-02 -1.00825906E-01 -1.97955564E-02  2.52719312E-03  1.04295909E-02
 -3.38239119E-11 -7.08786496E-02 -1.00720412E-01 -1.97900589E-02 -2.53451394E-03
  1.04235073E-02  2.57230053E-11 -7.09582397E-02 -1.00825906E-01 -1.97955564E-02
 -2.52719312E-03 -1.04295909E-02 -6.24761100E-12 -1.40406136E-06 -2.44042815E-06
  6.42230754E-05  1.60512712E-01 -4.02387784E-10  9.37140733E-06  1.00590738E-04
  2.36405584E-01 -6.38240086E-10  2.92491078E-06  5.21063698E-05  1.68198964E-01
 -4.21675584E-10 -6.08941439E-07 -4.67275020E-06  1.52709016E-02  1.70864387E-12
 -2.88811815E-07 -2.02361482E-11 -1.50077578E-10  8.58254033E-06 -2.58768009E-02
 -1.40406136E-06 -2.44042815E-06 -6.42230754E-05 -1.60512712E-01 -4.02931025E-10
  9.37140731E-06 -1.00590738E-04 -2.36405584E-01 -6.38651586E-10  2.92491084E-06
 -5.21063698E-05 -1.68198964E-01 -4.22537865E-10 -6.08943559E-07  4.67275082E-06
 -1.52709016E-02  2.58608359E-12 -2.88811816E-07  2.02174850E-11 -5.61597561E-11
  8.58254033E-06 -2.58768009E-02 -1.12230451E-01 -1.51706312E-01 -1.59059893E-02
 -9.01987171E-03 -7.72379304E-03 -5.60213375E-11  1.12180216E-01  1.51634338E-01
  1.58891717E-02  9.02244344E-03 -7.71573241E-03  6.28367503E-11 -1.12230451E-01
 -1.51706312E-01 -1.59059893E-02  9.01987171E-03  7.72379304E-03  2.21226180E-11
  1.12180216E-01  1.51634338E-01  1.58891717E-02 -9.02244344E-03  7.71573241E-03
 -1.53257686E-11 -2.14994639E-10 -3.69805987E-10 -3.88728137E-10  4.31325346E-10
  1.85592759E-01  1.18927587E-09 -6.35941780E-10  6.65593415E-10  3.10188679E-01
  1.14315628E-09 -3.19268089E-10  3.23825428E-10  2.57001138E-01 -1.49329567E-09
 -4.11105669E-10 -8.64487105E-11 -1.59513066E-03  6.40810326E-11  2.62757293E-02
 -1.23713347E-07 -4.00535710E-12 -4.64136066E-11  1.18298719E-10  2.03659044E-10
  2.33151435E-10 -4.31261307E-10  1.85592759E-01 -6.59669975E-10  3.44511059E-10
 -6.68108338E-10  3.10188679E-01 -6.10540679E-10  2.92401464E-10 -3.24779270E-10
  2.57001138E-01  1.43557662E-09 -3.97247154E-10  8.77585416E-11 -1.59513066E-03
 -2.71965073E-11 -2.62757293E-02  1.23713348E-07 -1.75917515E-11 -4.74881569E-11
 -3.28524678E-10 -4.50635717E-10 -8.52360487E-11 -5.49682916E-11 -1.53111013E-11
  1.03664418E-02 -1.53089219E-11  2.05151491E-10  3.28784436E-10 -2.34115263E-11
  1.66711783E-11  1.03664948E-02 -1.57954487E-11 -1.38494055E-10 -2.47530667E-10
  1.64539844E-11 -1.99518317E-11  1.03664418E-02  2.98388482E-10  5.10087754E-10
  1.72071441E-10 -1.40201537E-11  1.67797316E-11  1.03664948E-02 -2.12077953E-10
 -3.67748022E-10 -5.34572082E-10  2.25698432E-10  2.07619206E-01  1.13977051E-09
 -9.05526337E-10  3.77018520E-10  3.37165824E-01  2.30871798E-09 -1.01397880E-09
  5.52242476E-10  4.20157605E-01 -6.51244115E-10 -4.22463486E-10  8.51370497E-11
  9.70264789E-02  9.89548665E-11 -2.03802731E-02 -1.29699935E-07  4.17377944E-11
  4.85932391E-11 -7.24510577E-12 -1.62645659E-11  4.04079421E-10  2.25989086E-10
 -2.07619206E-01  4.30211642E-11  6.81845118E-10  3.77123446E-10 -3.37165824E-01
  4.64017289E-10  6.54150588E-10  5.53126387E-10 -4.20157605E-01  1.05029680E-09
 -1.41506557E-10  8.32535581E-11 -9.70264789E-02  2.80105627E-11 -2.03802731E-02
 -1.29699935E-07  1.75868664E-11 -4.86274737E-11 -3.04105906E-10 -5.23665002E-10
 -2.93418967E-10 -5.47680383E-11 -9.86449683E-12  1.77511276E-02 -5.13302743E-10
 -9.56397643E-10 -7.03902674E-10 -5.06928348E-11  6.25942253E-11  1.77515616E-02
 -1.80587398E-10 -3.76163691E-10 -3.58801612E-10  3.25068792E-11  3.40614736E-11
 -1.77511276E-02  2.87670727E-11  5.71581991E-11  4.94386264E-11  3.70701495E-11
  1.82717350E-11 -1.77515616E-02  3.14736522E-02  5.45130982E-02  4.23951755E-02
  1.53570644E-06  2.46609583E-10 -1.71053336E-01  6.07957323E-02  1.69740062E-06
  5.75490660E-10 -6.79001928E-01  1.90945052E-01  2.01761555E-05  9.13768421E-10
  8.33819714E-01 -1.18650680E-01  3.28958619E-05 -1.68466401E-09  1.08226716E-02
 -3.98043814E-11  2.38299039E-11 -5.74394824E-03  5.33902941E-07  3.14736522E-02
  5.45130982E-02 -4.23951755E-02 -1.53570650E-06 -6.48732881E-11 -1.71053336E-01
 -6.07957323E-02 -1.69740070E-06 -1.68433879E-10 -6.79001928E-01 -1.90945052E-01