 Entering Gaussian System, Link 0=g16
 Initial command:
 /home/szhao/Apps/g16/l1.exe "/home/szhao/tmp/Gau-58006.inp" -scrdir="/home/szhao/tmp/"
 Default is to use a total of  16 processors:
                               16 via shared-memory
                                1 via Linda
 Entering Link 1 = /home/szhao/Apps/g16/l1.exe PID=     58008.
  
 Copyright (c) 1988,1990,1992,1993,1995,1998,2003,2009,2016,
            Gaussian, Inc.  All Rights Reserved.
  
 This is part of the Gaussian(R) 16 program.  It is based on
 the Gaussian(R) 09 system (copyright 2009, Gaussian, Inc.),
 the Gaussian(R) 03 system (copyright 2003, Gaussian, Inc.),
 the Gaussian(R) 98 system (copyright 1998, Gaussian, Inc.),
 the Gaussian(R) 94 system (copyright 1995, Gaussian, Inc.),
 the Gaussian 92(TM) system (copyright 1992, Gaussian, Inc.),
 the Gaussian 90(TM) system (copyright 1990, Gaussian, Inc.),
 the Gaussian 88(TM) system (copyright 1988, Gaussian, Inc.),
 the Gaussian 86(TM) system (copyright 1986, Carnegie Mellon
 University), and the Gaussian 82(TM) system (copyright 1983,
 Carnegie Mellon University). Gaussian is a federally registered
 trademark of Gaussian, Inc.
  
 This software contains proprietary and confidential information,
 including trade secrets, belonging to Gaussian, Inc.
  
 This software is provided under written license and may be
 used, copied, transmitted, or stored only in accord with that
 written license.
  
 The following legend is applicable only to US Government
 contracts under FAR:
  
                    RESTRICTED RIGHTS LEGEND
  
 Use, reproduction and disclosure by the US Government is
 subject to restrictions as set forth in subparagraphs (a)
 and (c) of the Commercial Computer Software - Restricted
 Rights clause in FAR 52.227-19.
  
 Gaussian, Inc.
 340 Quinnipiac St., Bldg. 40, Wallingford CT 06492
  
  
 ---------------------------------------------------------------
 Warning -- This program may not be used in any manner that
 competes with the business of Gaussian, Inc. or will provide
 assistance to any competitor of Gaussian, Inc.  The licensee
 of this program is prohibited from giving any competitor of
 Gaussian, Inc. access to this program.  By using this program,
 the user acknowledges that Gaussian, Inc. is engaged in the
 business of creating and licensing software in the field of
 computational chemistry and represents and warrants to the
 licensee that it is not a competitor of Gaussian, Inc. and that
 it will not use this program in any manner prohibited above.
 ---------------------------------------------------------------
  

 Cite this work as:
 Gaussian 16, Revision A.03,
 M. J. Frisch, G. W. Trucks, H. B. Schlegel, G. E. Scuseria, 
 M. A. Robb, J. R. Cheeseman, G. Scalmani, V. Barone, 
 G. A. Petersson, H. Nakatsuji, X. Li, M. Caricato, A. V. Marenich, 
 J. Bloino, B. G. Janesko, R. Gomperts, B. Mennucci, H. P. Hratchian, 
 J. V. Ortiz, A. F. Izmaylov, J. L. Sonnenberg, D. Williams-Young, 
 F. Ding, F. Lipparini, F. Egidi, J. Goings, B. Peng, A. Petrone, 
 T. Henderson, D. Ranasinghe, V. G. Zakrzewski, J. Gao, N. Rega, 
 G. Zheng, W. Liang, M. Hada, M. Ehara, K. Toyota, R. Fukuda, 
 J. Hasegawa, M. Ishida, T. Nakajima, Y. Honda, O. Kitao, H. Nakai, 
 T. Vreven, K. Throssell, J. A. Montgomery, Jr., J. E. Peralta, 
 F. Ogliaro, M. J. Bearpark, J. J. Heyd, E. N. Brothers, K. N. Kudin, 
 V. N. Staroverov, T. A. Keith, R. Kobayashi, J. Normand, 
 K. Raghavachari, A. P. Rendell, J. C. Burant, S. S. Iyengar, 
 J. Tomasi, M. Cossi, J. M. Millam, M. Klene, C. Adamo, R. Cammi, 
 J. W. Ochterski, R. L. Martin, K. Morokuma, O. Farkas, 
 J. B. Foresman, and D. J. Fox, Gaussian, Inc., Wallingford CT, 2016.
 
 ******************************************
 Gaussian 16:  ES64L-G16RevA.03 25-Dec-2016
                15-May-2025 
 ******************************************
 %chk=opt.chk
 %mem=4GB
 %nprocshared=8
 Will use up to    8 processors via shared memory.
 --------------------------------------------
 #p opt UM062X/6-311+G** nosymm int=superfine
 --------------------------------------------
 1/18=20,19=15,26=5,38=1/1,3;
 2/9=110,12=2,15=1,17=6,18=5,40=1/2;
 3/5=4,6=6,7=111,11=2,25=1,30=1,71=1,74=-55,75=-7,116=2/1,2,3;
 4//1;
 5/5=2,38=5/2;
 6/7=2,8=2,9=2,10=2,28=1/1;
 7/30=1/1,2,3,16;
 1/18=20,19=15,26=5/3(2);
 2/9=110,15=1/2;
 99//99;
 2/9=110,15=1/2;
 3/5=4,6=6,7=111,11=2,25=1,30=1,71=1,74=-55,75=-7,116=2/1,2,3;
 4/5=5,16=3,69=1/1;
 5/5=2,38=5/2;
 7/30=1/1,2,3,16;
 1/18=20,19=15,26=5/3(-5);
 2/9=110,15=1/2;
 6/7=2,8=2,9=2,10=2,19=2,28=1/1;
 99/9=1/99;
 Leave Link    1 at Thu May 15 15:40:08 2025, MaxMem=   536870912 cpu:               0.3 elap:               0.0
 (Enter /home/szhao/Apps/g16/l101.exe)
 -------------------
 Title Card Required
 -------------------
 Symbolic Z-matrix:
 Charge =  0 Multiplicity = 1
 N                    -1   -1.59043   0.        0. 
 N                    -1    1.59043   0.        0. 
 H                    0    -1.89106  -0.98793   0. 
 H                    0     1.89106   0.98793   0. 
 
 Add virtual bond connecting atoms N2         and N1         Dist= 6.01D+00.
 ITRead=  2  2  0  0
 MicOpt= -2 -2 -1 -1
 NAtoms=      4 NQM=        2 NQMF=       2 NMMI=      0 NMMIF=      0
                NMic=       0 NMicF=      0.
                    Isotopes and Nuclear Properties:
 (Nuclear quadrupole moments (NQMom) in fm**2, nuclear magnetic moments (NMagM)
  in nuclear magnetons)

  Atom         1           2           3           4
 IAtWgt=          14          14           1           1
 AtmWgt=  14.0030740  14.0030740   1.0078250   1.0078250
 NucSpn=           2           2           1           1
 AtZEff=  -0.0000000  -0.0000000  -0.0000000  -0.0000000
 NQMom=    2.0440000   2.0440000   0.0000000   0.0000000
 NMagM=    0.4037610   0.4037610   2.7928460   2.7928460
 AtZNuc=   7.0000000   7.0000000   1.0000000   1.0000000
 Leave Link  101 at Thu May 15 15:40:08 2025, MaxMem=   536870912 cpu:               1.7 elap:               0.2
 (Enter /home/szhao/Apps/g16/l103.exe)

 GradGradGradGradGradGradGradGradGradGradGradGradGradGradGradGradGradGrad
 Berny optimization.
 Initialization pass.
                           ----------------------------
                           !    Initial Parameters    !
                           ! (Angstroms and Degrees)  !
 --------------------------                            --------------------------
 ! Name  Definition              Value          Derivative Info.                !
 --------------------------------------------------------------------------------
 ! X1    R(1,-1)                -1.5904         Frozen                          !
 ! Y1    R(1,-2)                 0.0            Frozen                          !
 ! Z1    R(1,-3)                 0.0            Frozen                          !
 ! X2    R(2,-1)                 1.5904         Frozen                          !
 ! Y2    R(2,-2)                 0.0            Frozen                          !
 ! Z2    R(2,-3)                 0.0            Frozen                          !
 ! R1    R(1,3)                  1.0327         estimate D2E/DX2                !
 ! R2    R(2,4)                  1.0327         estimate D2E/DX2                !
 ! A1    A(2,1,3)              106.9253         estimate D2E/DX2                !
 ! A2    A(1,2,4)              106.9253         estimate D2E/DX2                !
 ! D1    D(3,1,2,4)            180.0            estimate D2E/DX2                !
 --------------------------------------------------------------------------------
 Trust Radius=3.00D-01 FncErr=1.00D-07 GrdErr=1.00D-07 EigMax=2.50D+02 EigMin=1.00D-04
 Number of steps in this run=     21 maximum allowed number of steps=    100.
 GradGradGradGradGradGradGradGradGradGradGradGradGradGradGradGradGradGrad

 Leave Link  103 at Thu May 15 15:40:08 2025, MaxMem=   536870912 cpu:               0.2 elap:               0.0
 (Enter /home/szhao/Apps/g16/l202.exe)
                          Input orientation:                          
 ---------------------------------------------------------------------
 Center     Atomic      Atomic             Coordinates (Angstroms)
 Number     Number       Type             X           Y           Z
 ---------------------------------------------------------------------
      1          7           0       -1.590428    0.000000    0.000000
      2          7           0        1.590428    0.000000    0.000000
      3          1           0       -1.891061   -0.987932    0.000000
      4          1           0        1.891061    0.987932    0.000000
 ---------------------------------------------------------------------
                    Distance matrix (angstroms):
                    1          2          3          4
     1  N    0.000000
     2  N    3.180856   0.000000
     3  H    1.032662   3.618947   0.000000
     4  H    3.618947   1.032662   4.267141   0.000000
 Symmetry turned off by external request.
 Stoichiometry    H2N2
 Framework group  C2H[SGH(H2N2)]
 Deg. of freedom     3
 Full point group                 C2H     NOp   4
 Rotational constants (GHZ):         283.7036739           6.4597898           6.3159782
 Leave Link  202 at Thu May 15 15:40:08 2025, MaxMem=   536870912 cpu:               0.0 elap:               0.0
 (Enter /home/szhao/Apps/g16/l301.exe)
 Standard basis: 6-311+G(d,p) (5D, 7F)
 Ernie: Thresh=  0.10000D-02 Tol=  0.10000D-05 Strict=F.
    56 basis functions,    88 primitive gaussians,    58 cartesian basis functions
     8 alpha electrons        8 beta electrons
       nuclear repulsion energy        17.4971021916 Hartrees.
 IExCor= 4336 DFT=T Ex+Corr=M062X ExCW=0 ScaHFX=  0.540000
 ScaDFX=  1.000000  1.000000  1.000000  1.000000 ScalE2=  1.000000  1.000000
 IRadAn=      7 IRanWt=     -1 IRanGd=            0 ICorTp=0 IEmpDi=  4
 NAtoms=    4 NActive=    4 NUniq=    4 SFac= 1.00D+00 NAtFMM=   60 NAOKFM=F Big=F
 Integral buffers will be    131072 words long.
 Raffenetti 2 integral format.
 Two-electron integral symmetry is turned off.
 Leave Link  301 at Thu May 15 15:40:08 2025, MaxMem=   536870912 cpu:               0.3 elap:               0.0
 (Enter /home/szhao/Apps/g16/l302.exe)
 NPDir=0 NMtPBC=     1 NCelOv=     1 NCel=       1 NClECP=     1 NCelD=      1
         NCelK=      1 NCelE2=     1 NClLst=     1 CellRange=     0.0.
 One-electron integrals computed using PRISM.
 NBasis=    56 RedAO= T EigKep=  8.89D-03  NBF=    56
 NBsUse=    56 1.00D-06 EigRej= -1.00D+00 NBFU=    56
 Precomputing XC quadrature grid using
 IXCGrd= 4 IRadAn=           7 IRanWt=          -1 IRanGd=           0 AccXCQ= 0.00D+00.
 Generated NRdTot=       0 NPtTot=           0 NUsed=           0 NTot=          32
 NSgBfM=    58    58    58    58    58 MxSgAt=     4 MxSgA2=     4.
 Leave Link  302 at Thu May 15 15:40:08 2025, MaxMem=   536870912 cpu:               0.8 elap:               0.1
 (Enter /home/szhao/Apps/g16/l303.exe)
 DipDrv:  MaxL=1.
 Leave Link  303 at Thu May 15 15:40:08 2025, MaxMem=   536870912 cpu:               0.3 elap:               0.1
 (Enter /home/szhao/Apps/g16/l401.exe)
 ExpMin= 6.39D-02 ExpMax= 6.29D+03 ExpMxC= 9.49D+02 IAcc=3 IRadAn=         7 AccDes= 0.00D+00
 Harris functional with IExCor= 1009 and IRadAn=       7 diagonalized for initial guess.
 HarFok:  IExCor= 1009 AccDes= 0.00D+00 IRadAn=         7 IDoV= 1 UseB2=F ITyADJ=14
 ICtDFT=  3500011 ScaDFX=  1.000000  1.000000  1.000000  1.000000
 FoFCou: FMM=F IPFlag=           0 FMFlag=      100000 FMFlg1=           0
         NFxFlg=           0 DoJE=T BraDBF=F KetDBF=T FulRan=T
         wScrn=  0.000000 ICntrl=       500 IOpCl=  0 I1Cent=   200000004 NGrid=           0
         NMat0=    1 NMatS0=      1 NMatT0=    0 NMatD0=    1 NMtDS0=    0 NMtDT0=    0
 Symmetry not used in FoFCou.
 Harris En= -110.223028756022    
 JPrj=0 DoOrth=F DoCkMO=F.
 Initial guess <Sx>= 0.0000 <Sy>= 0.0000 <Sz>= 0.0000 <S**2>=-0.0000 S=-0.0000
 Leave Link  401 at Thu May 15 15:40:08 2025, MaxMem=   536870912 cpu:               1.4 elap:               0.2
 (Enter /home/szhao/Apps/g16/l502.exe)
 Keep R1 and R2 ints in memory in canonical form, NReq=9624198.
 FoFCou: FMM=F IPFlag=           0 FMFlag=           0 FMFlg1=           0
         NFxFlg=           0 DoJE=F BraDBF=F KetDBF=F FulRan=T
         wScrn=  0.000000 ICntrl=       600 IOpCl=  0 I1Cent=           0 NGrid=           0
         NMat0=    1 NMatS0=   1596 NMatT0=    0 NMatD0=    1 NMtDS0=    0 NMtDT0=    0
 Symmetry not used in FoFCou.
 Two-electron integral symmetry not used.
 UHF open shell SCF:
 Using DIIS extrapolation, IDIIS=  1040.
 NGot=   536870912 LenX=   534314338 LenY=   534310533
 Requested convergence on RMS density matrix=1.00D-08 within 128 cycles.
 Requested convergence on MAX density matrix=1.00D-06.
 Requested convergence on             energy=1.00D-06.
 No special actions if energy rises.
 Integral accuracy reduced to 1.0D-05 until final iterations.

 Cycle   1  Pass 0  IDiag  1:
 E= -110.183998998231    
 DIIS: error= 2.17D-02 at cycle   1 NSaved=   1.
 NSaved= 1 IEnMin= 1 EnMin= -110.183998998231     IErMin= 1 ErrMin= 2.17D-02
 ErrMax= 2.17D-02  0.00D+00 EMaxC= 1.00D-01 BMatC= 9.62D-02 BMatP= 9.62D-02
 IDIUse=3 WtCom= 7.83D-01 WtEn= 2.17D-01
 Coeff-Com:  0.100D+01
 Coeff-En:   0.100D+01
 Coeff:      0.100D+01
 Gap=     0.094 Goal=   None    Shift=    0.000
 Gap=     0.094 Goal=   None    Shift=    0.000
 GapD=    0.094 DampG=0.500 DampE=0.500 DampFc=0.2500 IDamp=-1.
 Damping current iteration by 2.50D-01
 RMSDP=1.54D-03 MaxDP=1.10D-02              OVMax= 4.32D-02

 Cycle   2  Pass 0  IDiag  1:
 E= -110.186418951129     Delta-E=       -0.002419952897 Rises=F Damp=T
 DIIS: error= 1.58D-02 at cycle   2 NSaved=   2.
 NSaved= 2 IEnMin= 2 EnMin= -110.186418951129     IErMin= 2 ErrMin= 1.58D-02
 ErrMax= 1.58D-02  0.00D+00 EMaxC= 1.00D-01 BMatC= 5.04D-02 BMatP= 9.62D-02
 IDIUse=3 WtCom= 8.42D-01 WtEn= 1.58D-01
 Coeff-Com: -0.236D+01 0.336D+01
 Coeff-En:   0.000D+00 0.100D+01
 Coeff:     -0.198D+01 0.298D+01
 Gap=     0.094 Goal=   None    Shift=    0.000
 Gap=     0.094 Goal=   None    Shift=    0.000
 RMSDP=1.01D-03 MaxDP=1.82D-02 DE=-2.42D-03 OVMax= 1.60D-02

 Cycle   3  Pass 0  IDiag  1:
 E= -110.192649677525     Delta-E=       -0.006230726397 Rises=F Damp=F
 DIIS: error= 3.82D-03 at cycle   3 NSaved=   3.
 NSaved= 3 IEnMin= 3 EnMin= -110.192649677525     IErMin= 3 ErrMin= 3.82D-03
 ErrMax= 3.82D-03  0.00D+00 EMaxC= 1.00D-01 BMatC= 1.22D-03 BMatP= 5.04D-02
 IDIUse=3 WtCom= 9.62D-01 WtEn= 3.82D-02
 Coeff-Com: -0.780D+00 0.104D+01 0.736D+00
 Coeff-En:   0.000D+00 0.000D+00 0.100D+01
 Coeff:     -0.750D+00 0.100D+01 0.746D+00
 Gap=     0.094 Goal=   None    Shift=    0.000
 Gap=     0.094 Goal=   None    Shift=    0.000
 RMSDP=2.27D-04 MaxDP=2.67D-03 DE=-6.23D-03 OVMax= 7.49D-03

 Cycle   4  Pass 0  IDiag  1:
 E= -110.192952447018     Delta-E=       -0.000302769492 Rises=F Damp=F
 DIIS: error= 3.10D-04 at cycle   4 NSaved=   4.
 NSaved= 4 IEnMin= 4 EnMin= -110.192952447018     IErMin= 4 ErrMin= 3.10D-04
 ErrMax= 3.10D-04  0.00D+00 EMaxC= 1.00D-01 BMatC= 2.36D-05 BMatP= 1.22D-03
 IDIUse=3 WtCom= 9.97D-01 WtEn= 3.10D-03
 Coeff-Com:  0.109D+00-0.149D+00 0.258D-01 0.101D+01
 Coeff-En:   0.000D+00 0.000D+00 0.000D+00 0.100D+01
 Coeff:      0.109D+00-0.149D+00 0.257D-01 0.101D+01
 Gap=     0.094 Goal=   None    Shift=    0.000
 Gap=     0.094 Goal=   None    Shift=    0.000
 RMSDP=5.03D-05 MaxDP=8.41D-04 DE=-3.03D-04 OVMax= 1.99D-03

 Cycle   5  Pass 0  IDiag  1:
 E= -110.192961206870     Delta-E=       -0.000008759852 Rises=F Damp=F
 DIIS: error= 6.09D-05 at cycle   5 NSaved=   5.
 NSaved= 5 IEnMin= 5 EnMin= -110.192961206870     IErMin= 5 ErrMin= 6.09D-05
 ErrMax= 6.09D-05  0.00D+00 EMaxC= 1.00D-01 BMatC= 7.95D-07 BMatP= 2.36D-05
 IDIUse=1 WtCom= 1.00D+00 WtEn= 0.00D+00
 Coeff-Com:  0.523D-01-0.700D-01-0.393D-01 0.284D-02 0.105D+01
 Coeff:      0.523D-01-0.700D-01-0.393D-01 0.284D-02 0.105D+01
 Gap=     0.094 Goal=   None    Shift=    0.000
 Gap=     0.094 Goal=   None    Shift=    0.000
 RMSDP=1.71D-05 MaxDP=1.03D-04 DE=-8.76D-06 OVMax= 9.47D-04

 Cycle   6  Pass 0  IDiag  1:
 E= -110.192962062896     Delta-E=       -0.000000856026 Rises=F Damp=F
 DIIS: error= 2.91D-05 at cycle   6 NSaved=   6.
 NSaved= 6 IEnMin= 6 EnMin= -110.192962062896     IErMin= 6 ErrMin= 2.91D-05
 ErrMax= 2.91D-05  0.00D+00 EMaxC= 1.00D-01 BMatC= 6.55D-08 BMatP= 7.95D-07
 IDIUse=1 WtCom= 1.00D+00 WtEn= 0.00D+00
 Coeff-Com: -0.226D-01 0.303D-01 0.119D-01-0.296D-01-0.424D+00 0.143D+01
 Coeff:     -0.226D-01 0.303D-01 0.119D-01-0.296D-01-0.424D+00 0.143D+01
 Gap=     0.094 Goal=   None    Shift=    0.000
 Gap=     0.094 Goal=   None    Shift=    0.000
 RMSDP=7.20D-06 MaxDP=4.56D-05 DE=-8.56D-07 OVMax= 5.16D-04

 Initial convergence to 1.0D-05 achieved.  Increase integral accuracy.
 Cycle   7  Pass 1  IDiag  1:
 E= -110.192960527300     Delta-E=        0.000001535596 Rises=F Damp=F
 DIIS: error= 7.78D-06 at cycle   1 NSaved=   1.
 NSaved= 1 IEnMin= 1 EnMin= -110.192960527300     IErMin= 1 ErrMin= 7.78D-06
 ErrMax= 7.78D-06  0.00D+00 EMaxC= 1.00D-01 BMatC= 8.19D-09 BMatP= 8.19D-09
 IDIUse=1 WtCom= 1.00D+00 WtEn= 0.00D+00
 Coeff-Com:  0.100D+01
 Coeff:      0.100D+01
 Gap=     0.094 Goal=   None    Shift=    0.000
 Gap=     0.094 Goal=   None    Shift=    0.000
 RMSDP=7.20D-06 MaxDP=4.56D-05 DE= 1.54D-06 OVMax= 7.21D-05

 Cycle   8  Pass 1  IDiag  1:
 E= -110.192960533951     Delta-E=       -0.000000006652 Rises=F Damp=F
 DIIS: error= 3.90D-06 at cycle   2 NSaved=   2.
 NSaved= 2 IEnMin= 2 EnMin= -110.192960533951     IErMin= 2 ErrMin= 3.90D-06
 ErrMax= 3.90D-06  0.00D+00 EMaxC= 1.00D-01 BMatC= 8.48D-10 BMatP= 8.19D-09
 IDIUse=1 WtCom= 1.00D+00 WtEn= 0.00D+00
 Coeff-Com: -0.803D-01 0.108D+01
 Coeff:     -0.803D-01 0.108D+01
 Gap=     0.094 Goal=   None    Shift=    0.000
 Gap=     0.094 Goal=   None    Shift=    0.000
 RMSDP=6.18D-07 MaxDP=4.02D-06 DE=-6.65D-09 OVMax= 4.39D-05

 Cycle   9  Pass 1  IDiag  1:
 E= -110.192960535224     Delta-E=       -0.000000001273 Rises=F Damp=F
 DIIS: error= 5.08D-06 at cycle   3 NSaved=   3.
 NSaved= 3 IEnMin= 3 EnMin= -110.192960535224     IErMin= 2 ErrMin= 3.90D-06
 ErrMax= 5.08D-06  0.00D+00 EMaxC= 1.00D-01 BMatC= 1.87D-09 BMatP= 8.48D-10
 IDIUse=1 WtCom= 1.00D+00 WtEn= 0.00D+00
 Coeff-Com: -0.126D+00 0.799D+00 0.327D+00
 Coeff:     -0.126D+00 0.799D+00 0.327D+00
 Gap=     0.094 Goal=   None    Shift=    0.000
 Gap=     0.094 Goal=   None    Shift=    0.000
 RMSDP=5.85D-07 MaxDP=7.46D-06 DE=-1.27D-09 OVMax= 3.85D-05

 Cycle  10  Pass 1  IDiag  1:
 E= -110.192960531218     Delta-E=        0.000000004006 Rises=F Damp=F
 DIIS: error= 1.83D-05 at cycle   4 NSaved=   4.
 NSaved= 4 IEnMin= 3 EnMin= -110.192960535224     IErMin= 2 ErrMin= 3.90D-06
 ErrMax= 1.83D-05  0.00D+00 EMaxC= 1.00D-01 BMatC= 2.00D-08 BMatP= 8.48D-10
 IDIUse=1 WtCom= 1.00D+00 WtEn= 0.00D+00
 Coeff-Com: -0.216D+00-0.440D-02 0.955D+00 0.265D+00
 Coeff:     -0.216D+00-0.440D-02 0.955D+00 0.265D+00
 Gap=     0.094 Goal=   None    Shift=    0.000
 Gap=     0.094 Goal=   None    Shift=    0.000
 RMSDP=5.48D-07 MaxDP=5.90D-06 DE= 4.01D-09 OVMax= 3.04D-05

 Cycle  11  Pass 1  IDiag  1:
 E= -110.192960536006     Delta-E=       -0.000000004788 Rises=F Damp=F
 DIIS: error= 1.45D-07 at cycle   5 NSaved=   5.
 NSaved= 5 IEnMin= 5 EnMin= -110.192960536006     IErMin= 5 ErrMin= 1.45D-07
 ErrMax= 1.45D-07  0.00D+00 EMaxC= 1.00D-01 BMatC= 6.53D-12 BMatP= 8.48D-10
 IDIUse=1 WtCom= 1.00D+00 WtEn= 0.00D+00
 Coeff-Com: -0.309D-02-0.274D-01-0.270D-01 0.737D-03 0.106D+01
 Coeff:     -0.309D-02-0.274D-01-0.270D-01 0.737D-03 0.106D+01
 Gap=     0.094 Goal=   None    Shift=    0.000
 Gap=     0.094 Goal=   None    Shift=    0.000
 RMSDP=6.02D-08 MaxDP=3.39D-07 DE=-4.79D-09 OVMax= 3.57D-06

 Cycle  12  Pass 1  IDiag  1:
 E= -110.192960536011     Delta-E=       -0.000000000006 Rises=F Damp=F
 DIIS: error= 1.39D-07 at cycle   6 NSaved=   6.
 NSaved= 6 IEnMin= 6 EnMin= -110.192960536011     IErMin= 6 ErrMin= 1.39D-07
 ErrMax= 1.39D-07  0.00D+00 EMaxC= 1.00D-01 BMatC= 1.80D-12 BMatP= 6.53D-12
 IDIUse=1 WtCom= 1.00D+00 WtEn= 0.00D+00
 Coeff-Com:  0.114D-01-0.640D-02-0.722D-01-0.167D-01 0.446D+00 0.638D+00
 Coeff:      0.114D-01-0.640D-02-0.722D-01-0.167D-01 0.446D+00 0.638D+00
 Gap=     0.094 Goal=   None    Shift=    0.000
 Gap=     0.094 Goal=   None    Shift=    0.000
 RMSDP=1.01D-08 MaxDP=1.38D-07 DE=-5.51D-12 OVMax= 2.59D-07

 Cycle  13  Pass 1  IDiag  1:
 E= -110.192960536012     Delta-E=       -0.000000000001 Rises=F Damp=F
 DIIS: error= 7.72D-09 at cycle   7 NSaved=   7.
 NSaved= 7 IEnMin= 7 EnMin= -110.192960536012     IErMin= 7 ErrMin= 7.72D-09
 ErrMax= 7.72D-09  0.00D+00 EMaxC= 1.00D-01 BMatC= 1.61D-14 BMatP= 1.80D-12
 IDIUse=1 WtCom= 1.00D+00 WtEn= 0.00D+00
 Coeff-Com:  0.224D-03 0.181D-02-0.215D-02-0.869D-03-0.322D-01 0.345D-01
 Coeff-Com:  0.999D+00
 Coeff:      0.224D-03 0.181D-02-0.215D-02-0.869D-03-0.322D-01 0.345D-01
 Coeff:      0.999D+00
 Gap=     0.094 Goal=   None    Shift=    0.000
 Gap=     0.094 Goal=   None    Shift=    0.000
 RMSDP=1.92D-09 MaxDP=1.93D-08 DE=-6.39D-13 OVMax= 4.52D-08

 SCF Done:  E(UM062X) =  -110.192960536     A.U. after   13 cycles
            NFock= 13  Conv=0.19D-08     -V/T= 2.0048
 <Sx>= 0.0000 <Sy>= 0.0000 <Sz>= 0.0000 <S**2>=-0.0000 S=-0.0000
 <L.S>=  0.00000000000    
 KE= 1.096682123448D+02 PE=-2.930919300341D+02 EE= 5.573365496180D+01
 Annihilation of the first spin contaminant:
 S**2 before annihilation    -0.0000,   after     0.0000
 Leave Link  502 at Thu May 15 15:40:11 2025, MaxMem=   536870912 cpu:              18.4 elap:               2.4
 (Enter /home/szhao/Apps/g16/l601.exe)
 Copying SCF densities to generalized density rwf, IOpCl= 1 IROHF=0.

 **********************************************************************

            Population analysis using the SCF density.

 **********************************************************************

 Alpha  occ. eigenvalues --  -14.87811 -14.87808  -0.92481  -0.91822  -0.48516
 Alpha  occ. eigenvalues --   -0.48127  -0.31081  -0.29810
 Alpha virt. eigenvalues --   -0.20438  -0.18776   0.05337   0.06967   0.11297
 Alpha virt. eigenvalues --    0.12227   0.14366   0.15211   0.15639   0.17730
 Alpha virt. eigenvalues --    0.20511   0.24046   0.54634   0.55187   0.74083
 Alpha virt. eigenvalues --    0.75101   0.76826   0.79191   0.81616   0.85095
 Alpha virt. eigenvalues --    0.94914   1.05068   1.28681   1.29127   1.29442
 Alpha virt. eigenvalues --    1.33067   1.90863   1.90897   1.97196   1.97322
 Alpha virt. eigenvalues --    1.97474   1.98870   2.34608   2.34652   2.34775
 Alpha virt. eigenvalues --    2.35346   2.48058   2.48712   2.92450   2.95260
 Alpha virt. eigenvalues --    3.74879   3.76632   3.79067   3.84484   4.31135
 Alpha virt. eigenvalues --    4.35752  35.31095  35.32003
  Beta  occ. eigenvalues --  -14.87811 -14.87808  -0.92481  -0.91822  -0.48516
  Beta  occ. eigenvalues --   -0.48127  -0.31081  -0.29810
  Beta virt. eigenvalues --   -0.20438  -0.18776   0.05337   0.06967   0.11297
  Beta virt. eigenvalues --    0.12227   0.14366   0.15211   0.15639   0.17730
  Beta virt. eigenvalues --    0.20511   0.24046   0.54634   0.55187   0.74083
  Beta virt. eigenvalues --    0.75101   0.76826   0.79191   0.81616   0.85095
  Beta virt. eigenvalues --    0.94914   1.05068   1.28681   1.29127   1.29442
  Beta virt. eigenvalues --    1.33067   1.90863   1.90897   1.97196   1.97322
  Beta virt. eigenvalues --    1.97474   1.98870   2.34608   2.34652   2.34775
  Beta virt. eigenvalues --    2.35346   2.48058   2.48712   2.92450   2.95260
  Beta virt. eigenvalues --    3.74879   3.76632   3.79067   3.84484   4.31135
  Beta virt. eigenvalues --    4.35752  35.31095  35.32003
          Condensed to atoms (all electrons):
               1          2          3          4
     1  N    6.900708   0.095250   0.231692   0.001123
     2  N    0.095250   6.900708   0.001123   0.231692
     3  H    0.231692   0.001123   0.538312   0.000101
     4  H    0.001123   0.231692   0.000101   0.538312
          Atomic-Atomic Spin Densities.
               1          2          3          4
     1  N    0.000000   0.000000   0.000000   0.000000
     2  N    0.000000  -0.000000  -0.000000  -0.000000
     3  H    0.000000  -0.000000  -0.000000  -0.000000
     4  H    0.000000  -0.000000  -0.000000   0.000000
 Mulliken charges and spin densities:
               1          2
     1  N   -0.228772   0.000000
     2  N   -0.228772  -0.000000
     3  H    0.228772  -0.000000
     4  H    0.228772   0.000000
 Sum of Mulliken charges =  -0.00000  -0.00000
 Mulliken charges and spin densities with hydrogens summed into heavy atoms:
               1          2
     1  N    0.000000   0.000000
     2  N   -0.000000  -0.000000
 Electronic spatial extent (au):  <R**2>=            184.8994
 Charge=             -0.0000 electrons
 Dipole moment (field-independent basis, Debye):
    X=             -0.0000    Y=             -0.0000    Z=              0.0000  Tot=              0.0000
 Quadrupole moment (field-independent basis, Debye-Ang):
   XX=             -9.2597   YY=            -11.4832   ZZ=            -14.1303
   XY=              6.5343   XZ=             -0.0000   YZ=              0.0000
 Traceless Quadrupole moment (field-independent basis, Debye-Ang):
   XX=              2.3647   YY=              0.1412   ZZ=             -2.5059
   XY=              6.5343   XZ=             -0.0000   YZ=              0.0000
 Octapole moment (field-independent basis, Debye-Ang**2):
  XXX=              0.0000  YYY=             -0.0000  ZZZ=              0.0000  XYY=             -0.0000
  XXY=             -0.0000  XXZ=              0.0000  XZZ=             -0.0000  YZZ=             -0.0000
  YYZ=              0.0000  XYZ=              0.0000
 Hexadecapole moment (field-independent basis, Debye-Ang**3):
 XXXX=           -202.3172 YYYY=            -17.6159 ZZZZ=            -17.0797 XXXY=             18.4201
 XXXZ=             -0.0000 YYYX=              1.1340 YYYZ=              0.0000 ZZZX=             -0.0000
 ZZZY=              0.0000 XXYY=            -32.1320 XXZZ=            -40.6484 YYZZ=             -6.3535
 XXYZ=              0.0000 YYXZ=             -0.0000 ZZXY=             -1.3355
 N-N= 1.749710219157D+01 E-N=-2.930919303308D+02  KE= 1.096682123448D+02
                          Isotropic Fermi Contact Couplings
        Atom                 a.u.       MegaHertz       Gauss      10(-4) cm-1
     1  N(14)             -0.00000      -0.00000      -0.00000      -0.00000
     2  N(14)             -0.00000      -0.00000      -0.00000      -0.00000
     3  H(1)              -0.00000      -0.00000      -0.00000      -0.00000
     4  H(1)               0.00000       0.00000       0.00000       0.00000
 --------------------------------------------------------
       Center         ----  Spin Dipole Couplings  ----
                      3XX-RR        3YY-RR        3ZZ-RR
 --------------------------------------------------------
     1   Atom        0.000000      0.000000      0.000000
     2   Atom        0.000000      0.000000      0.000000
     3   Atom        0.000000      0.000000      0.000000
     4   Atom        0.000000      0.000000      0.000000
 --------------------------------------------------------
                        XY            XZ            YZ
 --------------------------------------------------------
     1   Atom        0.000000      0.000000      0.000000
     2   Atom        0.000000      0.000000      0.000000
     3   Atom        0.000000      0.000000      0.000000
     4   Atom        0.000000      0.000000      0.000000
 --------------------------------------------------------


 ---------------------------------------------------------------------------------
              Anisotropic Spin Dipole Couplings in Principal Axis System
 ---------------------------------------------------------------------------------

       Atom             a.u.   MegaHertz   Gauss  10(-4) cm-1        Axes

              Baa     0.0000     0.000     0.000     0.000  1.0000  0.0000  0.0000
     1 N(14)  Bbb     0.0000     0.000     0.000     0.000 -0.0000  1.0000  0.0000
              Bcc     0.0000     0.000     0.000     0.000  0.0000  0.0000  1.0000
 
              Baa     0.0000     0.000     0.000     0.000  1.0000  0.0000  0.0000
     2 N(14)  Bbb     0.0000     0.000     0.000     0.000 -0.0000  1.0000  0.0000
              Bcc     0.0000     0.000     0.000     0.000  0.0000  0.0000  1.0000
 
              Baa     0.0000     0.000     0.000     0.000  1.0000  0.0000  0.0000
     3 H(1)   Bbb     0.0000     0.000     0.000     0.000 -0.0000  1.0000  0.0000
              Bcc     0.0000     0.000     0.000     0.000  0.0000  0.0000  1.0000
 
              Baa     0.0000     0.000     0.000     0.000  1.0000  0.0000  0.0000
     4 H(1)   Bbb     0.0000     0.000     0.000     0.000 -0.0000  1.0000  0.0000
              Bcc     0.0000     0.000     0.000     0.000  0.0000  0.0000  1.0000
 

 ---------------------------------------------------------------------------------

 No NMR shielding tensors so no spin-rotation constants.
 Leave Link  601 at Thu May 15 15:40:11 2025, MaxMem=   536870912 cpu:               0.9 elap:               0.1
 (Enter /home/szhao/Apps/g16/l701.exe)
 ... and contract with generalized density number  0.
 Compute integral first derivatives.
 Leave Link  701 at Thu May 15 15:40:11 2025, MaxMem=   536870912 cpu:               0.9 elap:               0.1
 (Enter /home/szhao/Apps/g16/l702.exe)
 L702 exits ... SP integral derivatives will be done elsewhere.
 Leave Link  702 at Thu May 15 15:40:11 2025, MaxMem=   536870912 cpu:               0.2 elap:               0.0
 (Enter /home/szhao/Apps/g16/l703.exe)
 Integral derivatives from FoFJK, PRISM(SPDF).
 Compute integral first derivatives, UseDBF=F ICtDFT=           0.
 Calling FoFJK, ICntrl=      2127 FMM=F ISym2X=0 I1Cent= 0 IOpClX= 1 NMat=1 NMatS=1 NMatT=0.
 FoFJK:  IHMeth= 1 ICntrl=    2127 DoSepK=F KAlg= 0 I1Cent=           0 FoldK=F
 IRaf=         0 NMat=       1 IRICut=       1 DoRegI=T DoRafI=F ISym2E= 0 IDoP0=0 IntGTp=1.
 FoFCou: FMM=F IPFlag=           0 FMFlag=      100000 FMFlg1=         800
         NFxFlg=           0 DoJE=F BraDBF=F KetDBF=F FulRan=T
         wScrn=  0.000000 ICntrl=      2127 IOpCl=  1 I1Cent=           0 NGrid=           0
         NMat0=    1 NMatS0=      1 NMatT0=    0 NMatD0=    1 NMtDS0=    0 NMtDT0=    0
 Symmetry not used in FoFCou.
 Leave Link  703 at Thu May 15 15:40:12 2025, MaxMem=   536870912 cpu:               3.5 elap:               0.4
 (Enter /home/szhao/Apps/g16/l716.exe)
 Dipole        =-7.54023510D-11-1.15663035D-12 3.48770036D-15
 -------------------------------------------------------------------
 Center     Atomic                   Forces (Hartrees/Bohr)
 Number     Number              X              Y              Z
 -------------------------------------------------------------------
      1        7          -0.000000000   -0.000000000   -0.000000000
      2        7          -0.000000000   -0.000000000   -0.000000000
      3        1           0.006879852   -0.007762661   -0.000000000
      4        1          -0.006879852    0.007762661    0.000000000
 -------------------------------------------------------------------
 Cartesian Forces:  Max     0.007762661 RMS     0.004234605
 Leave Link  716 at Thu May 15 15:40:12 2025, MaxMem=   536870912 cpu:               0.2 elap:               0.0
 (Enter /home/szhao/Apps/g16/l103.exe)

 GradGradGradGradGradGradGradGradGradGradGradGradGradGradGradGradGradGrad
 Berny optimization.
 FormGI is forming the generalized inverse of G from B-inverse, IUseBI=4.
 Internal  Forces:  Max     0.017254223 RMS     0.010061649
 Search for a local minimum.
 Step number   1 out of a maximum of   21
 All quantities printed in internal units (Hartrees-Bohrs-Radians)
 RMS Force = .11439D-01 SwitMx=.10000D-02 MixMth= 1
 Mixed Optimization -- RFO/linear search
 Second derivative matrix not updated -- first step.
 The second derivative matrix:
                          X1        Y1        Z1        X2        Y2
           X1           0.50000
           Y1           0.00000   0.50000
           Z1           0.00000   0.00000   0.50000
           X2           0.00000   0.00000   0.00000   0.50000
           Y2           0.00000   0.00000   0.00000   0.00000   0.50000
           Z2           0.00000   0.00000   0.00000   0.00000   0.00000
           R1           0.00000   0.00000   0.00000   0.00000   0.00000
           R2           0.00000   0.00000   0.00000   0.00000   0.00000
           A1           0.00000   0.00000   0.00000   0.00000   0.00000
           A2           0.00000   0.00000   0.00000   0.00000   0.00000
           D1           0.00000   0.00000   0.00000   0.00000   0.00000
                          Z2        R1        R2        A1        A2
           Z2           0.50000
           R1           0.00000   0.42378
           R2           0.00000   0.00000   0.42378
           A1           0.00000   0.00000   0.00000   0.16000
           A2           0.00000   0.00000   0.00000   0.00000   0.16000
           D1           0.00000   0.00000   0.00000   0.00000   0.00000
                          D1
           D1           0.00230
 ITU=  0
     Eigenvalues ---    0.00230   0.16000   0.16000   0.42378   0.42378
     Eigenvalues --- 1000.000001000.000001000.000001000.000001000.00000
     Eigenvalues --- 1000.00000
 RFO step:  Lambda=-3.77321054D-03 EMin= 2.30000000D-03
 Linear search not attempted -- first point.
 Iteration  1 RMS(Cart)=  0.08675052 RMS(Int)=  0.00450826
 Iteration  2 RMS(Cart)=  0.00481443 RMS(Int)=  0.00000568
 Iteration  3 RMS(Cart)=  0.00001048 RMS(Int)=  0.00000000
 Iteration  4 RMS(Cart)=  0.00000000 RMS(Int)=  0.00000000
 ITry= 1 IFail=0 DXMaxC= 1.97D-01 DCOld= 1.00D+10 DXMaxT= 3.00D-01 DXLimC= 3.00D+00 Rises=F
 Variable       Old X    -DE/DX   Delta X   Delta X   Delta X     New X
                                 (Linear)    (Quad)   (Total)
    X1       -3.00547   0.00688   0.00000   0.00000   0.00000  -3.00547
    Y1        0.00000  -0.01350   0.00000   0.00000   0.00000   0.00000
    Z1        0.00000  -0.00000   0.00000   0.00000   0.00000   0.00000
    X2        3.00547  -0.00688   0.00000   0.00000   0.00000   3.00547
    Y2        0.00000   0.01350   0.00000   0.00000   0.00000   0.00000
    Z2        0.00000  -0.00000   0.00000   0.00000   0.00000   0.00000
    R1        1.95145   0.00542   0.00000   0.01269   0.01269   1.96413
    R2        1.95145   0.00542   0.00000   0.01269   0.01269   1.96413
    A1        1.86620  -0.01725   0.00000  -0.10535  -0.10535   1.76084
    A2        1.86620  -0.01725   0.00000  -0.10535  -0.10535   1.76084
    D1        3.14159  -0.00000   0.00000  -0.00000   0.00000   3.14159
         Item               Value     Threshold  Converged?
 Maximum Force            0.017254     0.000450     NO 
 RMS     Force            0.011439     0.000300     NO 
 Maximum Displacement     0.197078     0.001800     NO 
 RMS     Displacement     0.088075     0.001200     NO 
 Predicted change in Energy=-1.929094D-03
 Lowest energy point so far.  Saving SCF results.
 GradGradGradGradGradGradGradGradGradGradGradGradGradGradGradGradGradGrad

 Leave Link  103 at Thu May 15 15:40:12 2025, MaxMem=   536870912 cpu:               0.4 elap:               0.1
 (Enter /home/szhao/Apps/g16/l202.exe)
                          Input orientation:                          
 ---------------------------------------------------------------------
 Center     Atomic      Atomic             Coordinates (Angstroms)
 Number     Number       Type             X           Y           Z
 ---------------------------------------------------------------------
      1          7           0       -1.590428    0.000000    0.000000
      2          7           0        1.590428    0.000000    0.000000
      3          1           0       -1.786772   -1.020661   -0.000000
      4          1           0        1.786772    1.020661   -0.000000
 ---------------------------------------------------------------------
                    Distance matrix (angstroms):
                    1          2          3          4
     1  N    0.000000
     2  N    3.180856   0.000000
     3  H    1.039375   3.528063   0.000000
     4  H    3.528063   1.039375   4.115484   0.000000
 Symmetry turned off by external request.
 Stoichiometry    H2N2
 Framework group  C2H[SGH(H2N2)]
 Deg. of freedom     3
 Full point group                 C2H     NOp   4
 Rotational constants (GHZ):         263.1517492           6.5248205           6.3669526
 Leave Link  202 at Thu May 15 15:40:12 2025, MaxMem=   536870912 cpu:               0.1 elap:               0.0
 (Enter /home/szhao/Apps/g16/l301.exe)
 Standard basis: 6-311+G(d,p) (5D, 7F)
 Ernie: Thresh=  0.10000D-02 Tol=  0.10000D-05 Strict=F.
    56 basis functions,    88 primitive gaussians,    58 cartesian basis functions
     8 alpha electrons        8 beta electrons
       nuclear repulsion energy        17.5080737236 Hartrees.
 IExCor= 4336 DFT=T Ex+Corr=M062X ExCW=0 ScaHFX=  0.540000
 ScaDFX=  1.000000  1.000000  1.000000  1.000000 ScalE2=  1.000000  1.000000
 IRadAn=      7 IRanWt=     -1 IRanGd=            0 ICorTp=0 IEmpDi=  4
 NAtoms=    4 NActive=    4 NUniq=    4 SFac= 1.00D+00 NAtFMM=   60 NAOKFM=F Big=F
 Integral buffers will be    131072 words long.
 Raffenetti 2 integral format.
 Two-electron integral symmetry is turned off.
 Leave Link  301 at Thu May 15 15:40:12 2025, MaxMem=   536870912 cpu:               0.3 elap:               0.0
 (Enter /home/szhao/Apps/g16/l302.exe)
 NPDir=0 NMtPBC=     1 NCelOv=     1 NCel=       1 NClECP=     1 NCelD=      1
         NCelK=      1 NCelE2=     1 NClLst=     1 CellRange=     0.0.
 One-electron integrals computed using PRISM.
 NBasis=    56 RedAO= T EigKep=  8.02D-03  NBF=    56
 NBsUse=    56 1.00D-06 EigRej= -1.00D+00 NBFU=    56
 Precomputing XC quadrature grid using
 IXCGrd= 4 IRadAn=           7 IRanWt=          -1 IRanGd=           0 AccXCQ= 0.00D+00.
 Generated NRdTot=       0 NPtTot=           0 NUsed=           0 NTot=          32
 NSgBfM=    58    58    58    58    58 MxSgAt=     4 MxSgA2=     4.
 Leave Link  302 at Thu May 15 15:40:12 2025, MaxMem=   536870912 cpu:               0.8 elap:               0.1
 (Enter /home/szhao/Apps/g16/l303.exe)
 DipDrv:  MaxL=1.
 Leave Link  303 at Thu May 15 15:40:12 2025, MaxMem=   536870912 cpu:               0.2 elap:               0.0
 (Enter /home/szhao/Apps/g16/l401.exe)
 Initial guess from the checkpoint file:  "opt.chk"
 B after Tr=     0.000000    0.000000   -0.000000
         Rot=    0.999993   -0.000000   -0.000000   -0.003732 Ang=  -0.43 deg.
 Guess basis will be translated and rotated to current coordinates.
 JPrj=2 DoOrth=T DoCkMO=T.
 Initial guess <Sx>= 0.0000 <Sy>= 0.0000 <Sz>= 0.0000 <S**2>=-0.0000 S=-0.0000
 Generating alternative initial guess.
 ExpMin= 6.39D-02 ExpMax= 6.29D+03 ExpMxC= 9.49D+02 IAcc=3 IRadAn=         5 AccDes= 0.00D+00
 Harris functional with IExCor= 1009 and IRadAn=       5 diagonalized for initial guess.
 HarFok:  IExCor= 1009 AccDes= 0.00D+00 IRadAn=         5 IDoV= 1 UseB2=F ITyADJ=14
 ICtDFT=  3500011 ScaDFX=  1.000000  1.000000  1.000000  1.000000
 FoFCou: FMM=F IPFlag=           0 FMFlag=      100000 FMFlg1=           0
         NFxFlg=           0 DoJE=T BraDBF=F KetDBF=T FulRan=T
         wScrn=  0.000000 ICntrl=       500 IOpCl=  0 I1Cent=   200000004 NGrid=           0
         NMat0=    1 NMatS0=      1 NMatT0=    0 NMatD0=    1 NMtDS0=    0 NMtDT0=    0
 Symmetry not used in FoFCou.
 Harris En= -110.225121274992    
 Leave Link  401 at Thu May 15 15:40:12 2025, MaxMem=   536870912 cpu:               1.2 elap:               0.2
 (Enter /home/szhao/Apps/g16/l502.exe)
 Keep R1 and R2 ints in memory in canonical form, NReq=9624198.
 FoFCou: FMM=F IPFlag=           0 FMFlag=           0 FMFlg1=           0
         NFxFlg=           0 DoJE=F BraDBF=F KetDBF=F FulRan=T
         wScrn=  0.000000 ICntrl=       600 IOpCl=  0 I1Cent=           0 NGrid=           0
         NMat0=    1 NMatS0=   1596 NMatT0=    0 NMatD0=    1 NMtDS0=    0 NMtDT0=    0
 Symmetry not used in FoFCou.
 Two-electron integral symmetry not used.
 UHF open shell SCF:
 Using DIIS extrapolation, IDIIS=  1040.
 NGot=   536870912 LenX=   534314338 LenY=   534310533
 Requested convergence on RMS density matrix=1.00D-08 within 128 cycles.
 Requested convergence on MAX density matrix=1.00D-06.
 Requested convergence on             energy=1.00D-06.
 No special actions if energy rises.
 Integral accuracy reduced to 1.0D-05 until final iterations.

 Cycle   1  Pass 0  IDiag  1:
 E= -110.193675377831    
 DIIS: error= 5.62D-03 at cycle   1 NSaved=   1.
 NSaved= 1 IEnMin= 1 EnMin= -110.193675377831     IErMin= 1 ErrMin= 5.62D-03
 ErrMax= 5.62D-03  0.00D+00 EMaxC= 1.00D-01 BMatC= 4.59D-03 BMatP= 4.59D-03
 IDIUse=3 WtCom= 9.44D-01 WtEn= 5.62D-02
 Coeff-Com:  0.100D+01
 Coeff-En:   0.100D+01
 Coeff:      0.100D+01
 Gap=     0.513 Goal=   None    Shift=    0.000
 Gap=     0.513 Goal=   None    Shift=    0.000
 GapD=    0.513 DampG=2.000 DampE=1.000 DampFc=2.0000 IDamp=-1.
 RMSDP=6.92D-04 MaxDP=6.97D-03              OVMax= 2.85D-02

 Cycle   2  Pass 0  IDiag  1:
 E= -110.196013386532     Delta-E=       -0.002338008701 Rises=F Damp=F
 DIIS: error= 1.56D-03 at cycle   2 NSaved=   2.
 NSaved= 2 IEnMin= 2 EnMin= -110.196013386532     IErMin= 2 ErrMin= 1.56D-03
 ErrMax= 1.56D-03  0.00D+00 EMaxC= 1.00D-01 BMatC= 2.24D-04 BMatP= 4.59D-03
 IDIUse=3 WtCom= 9.84D-01 WtEn= 1.56D-02
 Coeff-Com: -0.177D+00 0.118D+01
 Coeff-En:   0.000D+00 0.100D+01
 Coeff:     -0.174D+00 0.117D+01
 Gap=     0.094 Goal=   None    Shift=    0.000
 Gap=     0.094 Goal=   None    Shift=    0.000
 RMSDP=2.60D-04 MaxDP=2.55D-03 DE=-2.34D-03 OVMax= 1.68D-02

 Cycle   3  Pass 0  IDiag  1:
 E= -110.196302155495     Delta-E=       -0.000288768962 Rises=F Damp=F
 DIIS: error= 5.13D-04 at cycle   3 NSaved=   3.
 NSaved= 3 IEnMin= 3 EnMin= -110.196302155495     IErMin= 3 ErrMin= 5.13D-04
 ErrMax= 5.13D-04  0.00D+00 EMaxC= 1.00D-01 BMatC= 2.19D-05 BMatP= 2.24D-04
 IDIUse=3 WtCom= 9.95D-01 WtEn= 5.13D-03
 Coeff-Com:  0.401D-01-0.459D+00 0.142D+01
 Coeff-En:   0.000D+00 0.000D+00 0.100D+01
 Coeff:      0.399D-01-0.457D+00 0.142D+01
 Gap=     0.094 Goal=   None    Shift=    0.000
 Gap=     0.094 Goal=   None    Shift=    0.000
 RMSDP=1.19D-04 MaxDP=8.20D-04 DE=-2.89D-04 OVMax= 9.07D-03

 Cycle   4  Pass 0  IDiag  1:
 E= -110.196346913025     Delta-E=       -0.000044757530 Rises=F Damp=F
 DIIS: error= 1.44D-04 at cycle   4 NSaved=   4.
 NSaved= 4 IEnMin= 4 EnMin= -110.196346913025     IErMin= 4 ErrMin= 1.44D-04
 ErrMax= 1.44D-04  0.00D+00 EMaxC= 1.00D-01 BMatC= 4.49D-06 BMatP= 2.19D-05
 IDIUse=3 WtCom= 9.99D-01 WtEn= 1.44D-03
 Coeff-Com:  0.299D-01-0.271D+00 0.439D+00 0.802D+00
 Coeff-En:   0.000D+00 0.000D+00 0.000D+00 0.100D+01
 Coeff:      0.299D-01-0.270D+00 0.438D+00 0.802D+00
 Gap=     0.094 Goal=   None    Shift=    0.000
 Gap=     0.094 Goal=   None    Shift=    0.000
 RMSDP=3.20D-05 MaxDP=2.05D-04 DE=-4.48D-05 OVMax= 2.16D-03

 Cycle   5  Pass 0  IDiag  1:
 E= -110.196350133596     Delta-E=       -0.000003220572 Rises=F Damp=F
 DIIS: error= 5.22D-05 at cycle   5 NSaved=   5.
 NSaved= 5 IEnMin= 5 EnMin= -110.196350133596     IErMin= 5 ErrMin= 5.22D-05
 ErrMax= 5.22D-05  0.00D+00 EMaxC= 1.00D-01 BMatC= 3.90D-07 BMatP= 4.49D-06
 IDIUse=1 WtCom= 1.00D+00 WtEn= 0.00D+00
 Coeff-Com: -0.102D-02 0.278D-01-0.166D+00 0.141D+00 0.999D+00
 Coeff:     -0.102D-02 0.278D-01-0.166D+00 0.141D+00 0.999D+00
 Gap=     0.094 Goal=   None    Shift=    0.000
 Gap=     0.094 Goal=   None    Shift=    0.000
 RMSDP=1.37D-05 MaxDP=9.13D-05 DE=-3.22D-06 OVMax= 7.50D-04

 Cycle   6  Pass 0  IDiag  1:
 E= -110.196350404642     Delta-E=       -0.000000271046 Rises=F Damp=F
 DIIS: error= 1.05D-05 at cycle   6 NSaved=   6.
 NSaved= 6 IEnMin= 6 EnMin= -110.196350404642     IErMin= 6 ErrMin= 1.05D-05
 ErrMax= 1.05D-05  0.00D+00 EMaxC= 1.00D-01 BMatC= 2.42D-08 BMatP= 3.90D-07
 IDIUse=1 WtCom= 1.00D+00 WtEn= 0.00D+00
 Coeff-Com: -0.205D-02 0.234D-01-0.549D-01-0.113D-01 0.256D+00 0.789D+00
 Coeff:     -0.205D-02 0.234D-01-0.549D-01-0.113D-01 0.256D+00 0.789D+00
 Gap=     0.094 Goal=   None    Shift=    0.000
 Gap=     0.094 Goal=   None    Shift=    0.000
 RMSDP=1.97D-06 MaxDP=1.71D-05 DE=-2.71D-07 OVMax= 4.83D-05

 Initial convergence to 1.0D-05 achieved.  Increase integral accuracy.
 Cycle   7  Pass 1  IDiag  1:
 E= -110.196347383287     Delta-E=        0.000003021355 Rises=F Damp=F
 DIIS: error= 9.66D-06 at cycle   1 NSaved=   1.
 NSaved= 1 IEnMin= 1 EnMin= -110.196347383287     IErMin= 1 ErrMin= 9.66D-06
 ErrMax= 9.66D-06  0.00D+00 EMaxC= 1.00D-01 BMatC= 7.04D-09 BMatP= 7.04D-09
 IDIUse=1 WtCom= 1.00D+00 WtEn= 0.00D+00
 Coeff-Com:  0.100D+01
 Coeff:      0.100D+01
 Gap=     0.094 Goal=   None    Shift=    0.000
 Gap=     0.094 Goal=   None    Shift=    0.000
 RMSDP=1.97D-06 MaxDP=1.71D-05 DE= 3.02D-06 OVMax= 2.27D-04

 Cycle   8  Pass 1  IDiag  1:
 E= -110.196347166537     Delta-E=        0.000000216750 Rises=F Damp=F
 DIIS: error= 1.27D-04 at cycle   2 NSaved=   2.
 NSaved= 2 IEnMin= 1 EnMin= -110.196347383287     IErMin= 1 ErrMin= 9.66D-06
 ErrMax= 1.27D-04  0.00D+00 EMaxC= 1.00D-01 BMatC= 9.54D-07 BMatP= 7.04D-09
 IDIUse=3 WtCom= 4.70D-01 WtEn= 5.30D-01
 Coeff-Com:  0.928D+00 0.720D-01
 Coeff-En:   0.961D+00 0.392D-01
 Coeff:      0.945D+00 0.546D-01
 Gap=     0.094 Goal=   None    Shift=    0.000
 Gap=     0.094 Goal=   None    Shift=    0.000
 RMSDP=2.40D-06 MaxDP=3.15D-05 DE= 2.17D-07 OVMax= 1.63D-04

 Cycle   9  Pass 1  IDiag  1:
 E= -110.196347373737     Delta-E=       -0.000000207200 Rises=F Damp=F
 DIIS: error= 2.90D-05 at cycle   3 NSaved=   3.
 NSaved= 3 IEnMin= 1 EnMin= -110.196347383287     IErMin= 1 ErrMin= 9.66D-06
 ErrMax= 2.90D-05  0.00D+00 EMaxC= 1.00D-01 BMatC= 4.99D-08 BMatP= 7.04D-09
 IDIUse=1 WtCom= 1.00D+00 WtEn= 0.00D+00
 Coeff-Com: -0.432D-01-0.313D+00 0.136D+01
 Coeff:     -0.432D-01-0.313D+00 0.136D+01
 Gap=     0.094 Goal=   None    Shift=    0.000
 Gap=     0.094 Goal=   None    Shift=    0.000
 RMSDP=7.29D-07 MaxDP=9.79D-06 DE=-2.07D-07 OVMax= 4.82D-05

 Cycle  10  Pass 1  IDiag  1:
 E= -110.196347385184     Delta-E=       -0.000000011447 Rises=F Damp=F
 DIIS: error= 3.78D-07 at cycle   4 NSaved=   4.
 NSaved= 4 IEnMin= 4 EnMin= -110.196347385184     IErMin= 4 ErrMin= 3.78D-07
 ErrMax= 3.78D-07  0.00D+00 EMaxC= 1.00D-01 BMatC= 2.33D-11 BMatP= 7.04D-09
 IDIUse=1 WtCom= 1.00D+00 WtEn= 0.00D+00
 Coeff-Com: -0.493D-01-0.126D+00 0.535D+00 0.640D+00
 Coeff:     -0.493D-01-0.126D+00 0.535D+00 0.640D+00
 Gap=     0.094 Goal=   None    Shift=    0.000
 Gap=     0.094 Goal=   None    Shift=    0.000
 RMSDP=3.48D-08 MaxDP=5.58D-07 DE=-1.14D-08 OVMax= 1.41D-06

 Cycle  11  Pass 1  IDiag  1:
 E= -110.196347385192     Delta-E=       -0.000000000008 Rises=F Damp=F
 DIIS: error= 9.78D-08 at cycle   5 NSaved=   5.
 NSaved= 5 IEnMin= 5 EnMin= -110.196347385192     IErMin= 5 ErrMin= 9.78D-08
 ErrMax= 9.78D-08  0.00D+00 EMaxC= 1.00D-01 BMatC= 1.41D-12 BMatP= 2.33D-11
 IDIUse=1 WtCom= 1.00D+00 WtEn= 0.00D+00
 Coeff-Com:  0.473D-02 0.333D-01-0.144D+00-0.491D-03 0.111D+01
 Coeff:      0.473D-02 0.333D-01-0.144D+00-0.491D-03 0.111D+01
 Gap=     0.094 Goal=   None    Shift=    0.000
 Gap=     0.094 Goal=   None    Shift=    0.000
 RMSDP=2.49D-08 MaxDP=1.74D-07 DE=-7.60D-12 OVMax= 1.42D-06

 Cycle  12  Pass 1  IDiag  1:
 E= -110.196347385194     Delta-E=       -0.000000000002 Rises=F Damp=F
 DIIS: error= 4.26D-08 at cycle   6 NSaved=   6.
 NSaved= 6 IEnMin= 6 EnMin= -110.196347385194     IErMin= 6 ErrMin= 4.26D-08
 ErrMax= 4.26D-08  0.00D+00 EMaxC= 1.00D-01 BMatC= 1.34D-13 BMatP= 1.41D-12
 IDIUse=1 WtCom= 1.00D+00 WtEn= 0.00D+00
 Coeff-Com:  0.325D-02 0.696D-02-0.293D-01-0.779D-01-0.192D+00 0.129D+01
 Coeff:      0.325D-02 0.696D-02-0.293D-01-0.779D-01-0.192D+00 0.129D+01
 Gap=     0.094 Goal=   None    Shift=    0.000
 Gap=     0.094 Goal=   None    Shift=    0.000
 RMSDP=1.10D-08 MaxDP=7.82D-08 DE=-1.83D-12 OVMax= 7.73D-07

 Cycle  13  Pass 1  IDiag  1:
 E= -110.196347385194     Delta-E=       -0.000000000000 Rises=F Damp=F
 DIIS: error= 9.66D-09 at cycle   7 NSaved=   7.
 NSaved= 7 IEnMin= 7 EnMin= -110.196347385194     IErMin= 7 ErrMin= 9.66D-09
 ErrMax= 9.66D-09  0.00D+00 EMaxC= 1.00D-01 BMatC= 1.13D-14 BMatP= 1.34D-13
 IDIUse=1 WtCom= 1.00D+00 WtEn= 0.00D+00
 Coeff-Com: -0.503D-03-0.309D-02 0.134D-01-0.340D-02-0.122D+00 0.109D+00
 Coeff-Com:  0.101D+01
 Coeff:     -0.503D-03-0.309D-02 0.134D-01-0.340D-02-0.122D+00 0.109D+00
 Coeff:      0.101D+01
 Gap=     0.094 Goal=   None    Shift=    0.000
 Gap=     0.094 Goal=   None    Shift=    0.000
 RMSDP=1.88D-09 MaxDP=1.27D-08 DE=-2.56D-13 OVMax= 1.41D-07

 SCF Done:  E(UM062X) =  -110.196347385     A.U. after   13 cycles
            NFock= 13  Conv=0.19D-08     -V/T= 2.0051
 <Sx>= 0.0000 <Sy>= 0.0000 <Sz>= 0.0000 <S**2>=-0.0000 S=-0.0000
 <L.S>=  0.00000000000    
 KE= 1.096400424864D+02 PE=-2.930749301760D+02 EE= 5.573046658076D+01
 Annihilation of the first spin contaminant:
 S**2 before annihilation    -0.0000,   after    -0.0000
 Leave Link  502 at Thu May 15 15:40:14 2025, MaxMem=   536870912 cpu:              18.6 elap:               2.4
 (Enter /home/szhao/Apps/g16/l701.exe)
 ... and contract with generalized density number  0.
 Compute integral first derivatives.
 Leave Link  701 at Thu May 15 15:40:15 2025, MaxMem=   536870912 cpu:               0.7 elap:               0.1
 (Enter /home/szhao/Apps/g16/l702.exe)
 L702 exits ... SP integral derivatives will be done elsewhere.
 Leave Link  702 at Thu May 15 15:40:15 2025, MaxMem=   536870912 cpu:               0.2 elap:               0.0
 (Enter /home/szhao/Apps/g16/l703.exe)
 Integral derivatives from FoFJK, PRISM(SPDF).
 Compute integral first derivatives, UseDBF=F ICtDFT=           0.
 Calling FoFJK, ICntrl=      2127 FMM=F ISym2X=0 I1Cent= 0 IOpClX= 1 NMat=1 NMatS=1 NMatT=0.
 FoFJK:  IHMeth= 1 ICntrl=    2127 DoSepK=F KAlg= 0 I1Cent=           0 FoldK=F
 IRaf=         0 NMat=       1 IRICut=       1 DoRegI=T DoRafI=F ISym2E= 0 IDoP0=0 IntGTp=1.
 FoFCou: FMM=F IPFlag=           0 FMFlag=      100000 FMFlg1=         800
         NFxFlg=           0 DoJE=F BraDBF=F KetDBF=F FulRan=T
         wScrn=  0.000000 ICntrl=      2127 IOpCl=  1 I1Cent=           0 NGrid=           0
         NMat0=    1 NMatS0=      1 NMatT0=    0 NMatD0=    1 NMtDS0=    0 NMtDT0=    0
 Symmetry not used in FoFCou.
 Leave Link  703 at Thu May 15 15:40:15 2025, MaxMem=   536870912 cpu:               3.5 elap:               0.4
 (Enter /home/szhao/Apps/g16/l716.exe)
 Dipole        =-1.93512597D-08-4.02704536D-10 3.01757773D-12
 -------------------------------------------------------------------
 Center     Atomic                   Forces (Hartrees/Bohr)
 Number     Number              X              Y              Z
 -------------------------------------------------------------------
      1        7          -0.000000000   -0.000000000   -0.000000000
      2        7          -0.000000000   -0.000000000   -0.000000000
      3        1           0.007092794   -0.001308683   -0.000000000
      4        1          -0.007092794    0.001308683    0.000000000
 -------------------------------------------------------------------
 Cartesian Forces:  Max     0.007092794 RMS     0.002944497
 Leave Link  716 at Thu May 15 15:40:15 2025, MaxMem=   536870912 cpu:               0.2 elap:               0.0
 (Enter /home/szhao/Apps/g16/l103.exe)

 GradGradGradGradGradGradGradGradGradGradGradGradGradGradGradGradGradGrad
 Berny optimization.
 Using GEDIIS/GDIIS optimizer.
 FormGI is forming the generalized inverse of G from B-inverse, IUseBI=4.
 Internal  Forces:  Max     0.014165934 RMS     0.007226839
 Search for a local minimum.
 Step number   2 out of a maximum of   21
 All quantities printed in internal units (Hartrees-Bohrs-Radians)
 RMS Force = .89594D-02 SwitMx=.10000D-02 MixMth= 1
 Mixed Optimization -- RFO/linear search
 Update second derivatives using D2CorX and points    1    2
 DE= -3.39D-03 DEPred=-1.93D-03 R= 1.76D+00
 TightC=F SS=  1.41D+00  RLast= 1.50D-01 DXNew= 5.0454D-01 4.5021D-01
 Trust test= 1.76D+00 RLast= 1.50D-01 DXMaxT set to 4.50D-01
 The second derivative matrix:
                          X1        Y1        Z1        X2        Y2
           X1           0.50006
           Y1           0.00202   0.57088
           Z1           0.00000   0.00000   0.50000
           X2          -0.00006  -0.00202  -0.00000   0.50006
           Y2          -0.00202  -0.07088  -0.00000   0.00202   0.57088
           Z2           0.00000   0.00000   0.00000  -0.00000  -0.00000
           R1          -0.00148  -0.05190  -0.00000   0.00148   0.05190
           R2          -0.00148  -0.05190  -0.00000   0.00148   0.05190
           A1           0.00083   0.02926   0.00000  -0.00083  -0.02926
           A2           0.00083   0.02926   0.00000  -0.00083  -0.02926
           D1           0.00000   0.00000   0.00000  -0.00000  -0.00000
                          Z2        R1        R2        A1        A2
           Z2           0.50000
           R1          -0.00000   0.45395
           R2          -0.00000   0.03017   0.45395
           A1           0.00000   0.00315   0.00315   0.09504
           A2           0.00000   0.00315   0.00315  -0.06496   0.09504
           D1           0.00000  -0.00000  -0.00000   0.00000   0.00000
                          D1
           D1           0.00230
 ITU=  1  0
 Use linear search instead of GDIIS.
     Eigenvalues ---    0.00230   0.02998   0.16000   0.42378   0.48420
     Eigenvalues --- 1000.000001000.000001000.000001000.000001000.00000
     Eigenvalues --- 1000.00000
 RFO step:  Lambda=-6.79918597D-04 EMin= 2.30000000D-03
 Quartic linear search produced a step of  2.00000.
 Iteration  1 RMS(Cart)=  0.16325760 RMS(Int)=  0.02991865
 Iteration  2 RMS(Cart)=  0.05333383 RMS(Int)=  0.00161065
 Iteration  3 RMS(Cart)=  0.00177941 RMS(Int)=  0.00000094
 Iteration  4 RMS(Cart)=  0.00000168 RMS(Int)=  0.00000000
 Iteration  5 RMS(Cart)=  0.00000000 RMS(Int)=  0.00000000
 ITry= 1 IFail=0 DXMaxC= 4.93D-01 DCOld= 1.00D+10 DXMaxT= 4.50D-01 DXLimC= 3.00D+00 Rises=F
 Variable       Old X    -DE/DX   Delta X   Delta X   Delta X     New X
                                 (Linear)    (Quad)   (Total)
    X1       -3.00547   0.00709   0.00000   0.00000   0.00000  -3.00547
    Y1        0.00000  -0.00602   0.00000   0.00000   0.00000   0.00000
    Z1        0.00000   0.00000   0.00000   0.00000   0.00000   0.00000
    X2        3.00547  -0.00709   0.00000   0.00000   0.00000   3.00547
    Y2        0.00000   0.00602   0.00000   0.00000   0.00000   0.00000
    Z2        0.00000   0.00000   0.00000   0.00000   0.00000   0.00000
    R1        1.96413  -0.00005   0.02537  -0.02381   0.00156   1.96570
    R2        1.96413  -0.00005   0.02537  -0.02381   0.00156   1.96570
    A1        1.76084  -0.01417  -0.21071  -0.04134  -0.25205   1.50879
    A2        1.76084  -0.01417  -0.21071  -0.04134  -0.25205   1.50879
    D1        3.14159   0.00000   0.00000   0.00000   0.00000   3.14159
         Item               Value     Threshold  Converged?
 Maximum Force            0.014166     0.000450     NO 
 RMS     Force            0.008959     0.000300     NO 
 Maximum Displacement     0.492835     0.001800     NO 
 RMS     Displacement     0.210620     0.001200     NO 
 Predicted change in Energy=-5.234270D-03
 Lowest energy point so far.  Saving SCF results.
 GradGradGradGradGradGradGradGradGradGradGradGradGradGradGradGradGradGrad

 Leave Link  103 at Thu May 15 15:40:15 2025, MaxMem=   536870912 cpu:               0.0 elap:               0.0
 (Enter /home/szhao/Apps/g16/l202.exe)
                          Input orientation:                          
 ---------------------------------------------------------------------
 Center     Atomic      Atomic             Coordinates (Angstroms)
 Number     Number       Type             X           Y           Z
 ---------------------------------------------------------------------
      1          7           0       -1.590428    0.000000    0.000000
      2          7           0        1.590428    0.000000    0.000000
      3          1           0       -1.525975   -1.038202    0.000000
      4          1           0        1.525975    1.038202    0.000000
 ---------------------------------------------------------------------
                    Distance matrix (angstroms):
                    1          2          3          4
     1  N    0.000000
     2  N    3.180856   0.000000
     3  H    1.040201   3.284788   0.000000
     4  H    3.284788   1.040201   3.691321   0.000000
 Symmetry turned off by external request.
 Stoichiometry    H2N2
 Framework group  C2H[SGH(H2N2)]
 Deg. of freedom     3
 Full point group                 C2H     NOp   4
 Rotational constants (GHZ):         248.4829740           6.6784723           6.5036732
 Leave Link  202 at Thu May 15 15:40:15 2025, MaxMem=   536870912 cpu:               0.0 elap:               0.0
 (Enter /home/szhao/Apps/g16/l301.exe)
 Standard basis: 6-311+G(d,p) (5D, 7F)
 Ernie: Thresh=  0.10000D-02 Tol=  0.10000D-05 Strict=F.
    56 basis functions,    88 primitive gaussians,    58 cartesian basis functions
     8 alpha electrons        8 beta electrons
       nuclear repulsion energy        17.6727038719 Hartrees.
 IExCor= 4336 DFT=T Ex+Corr=M062X ExCW=0 ScaHFX=  0.540000
 ScaDFX=  1.000000  1.000000  1.000000  1.000000 ScalE2=  1.000000  1.000000
 IRadAn=      7 IRanWt=     -1 IRanGd=            0 ICorTp=0 IEmpDi=  4
 NAtoms=    4 NActive=    4 NUniq=    4 SFac= 1.00D+00 NAtFMM=   60 NAOKFM=F Big=F
 Integral buffers will be    131072 words long.
 Raffenetti 2 integral format.
 Two-electron integral symmetry is turned off.
 Leave Link  301 at Thu May 15 15:40:15 2025, MaxMem=   536870912 cpu:               0.2 elap:               0.0
 (Enter /home/szhao/Apps/g16/l302.exe)
 NPDir=0 NMtPBC=     1 NCelOv=     1 NCel=       1 NClECP=     1 NCelD=      1
         NCelK=      1 NCelE2=     1 NClLst=     1 CellRange=     0.0.
 One-electron integrals computed using PRISM.
 NBasis=    56 RedAO= T EigKep=  6.75D-03  NBF=    56
 NBsUse=    56 1.00D-06 EigRej= -1.00D+00 NBFU=    56
 Precomputing XC quadrature grid using
 IXCGrd= 4 IRadAn=           7 IRanWt=          -1 IRanGd=           0 AccXCQ= 0.00D+00.
 Generated NRdTot=       0 NPtTot=           0 NUsed=           0 NTot=          32
 NSgBfM=    58    58    58    58    58 MxSgAt=     4 MxSgA2=     4.
 Leave Link  302 at Thu May 15 15:40:15 2025, MaxMem=   536870912 cpu:               1.0 elap:               0.2
 (Enter /home/szhao/Apps/g16/l303.exe)
 DipDrv:  MaxL=1.
 Leave Link  303 at Thu May 15 15:40:15 2025, MaxMem=   536870912 cpu:               0.2 elap:               0.0
 (Enter /home/szhao/Apps/g16/l401.exe)
 Initial guess from the checkpoint file:  "opt.chk"
 B after Tr=    -0.000000    0.000000    0.000000
         Rot=    0.999976   -0.000000   -0.000000   -0.006921 Ang=  -0.79 deg.
 Guess basis will be translated and rotated to current coordinates.
 JPrj=2 DoOrth=T DoCkMO=T.
 Initial guess <Sx>= 0.0000 <Sy>= 0.0000 <Sz>= 0.0000 <S**2>=-0.0000 S=-0.0000
 Generating alternative initial guess.
 ExpMin= 6.39D-02 ExpMax= 6.29D+03 ExpMxC= 9.49D+02 IAcc=3 IRadAn=         5 AccDes= 0.00D+00
 Harris functional with IExCor= 1009 and IRadAn=       5 diagonalized for initial guess.
 HarFok:  IExCor= 1009 AccDes= 0.00D+00 IRadAn=         5 IDoV= 1 UseB2=F ITyADJ=14
 ICtDFT=  3500011 ScaDFX=  1.000000  1.000000  1.000000  1.000000
 FoFCou: FMM=F IPFlag=           0 FMFlag=      100000 FMFlg1=           0
         NFxFlg=           0 DoJE=T BraDBF=F KetDBF=T FulRan=T
         wScrn=  0.000000 ICntrl=       500 IOpCl=  0 I1Cent=   200000004 NGrid=           0
         NMat0=    1 NMatS0=      1 NMatT0=    0 NMatD0=    1 NMtDS0=    0 NMtDT0=    0
 Symmetry not used in FoFCou.
 Harris En= -110.227910125038    
 Leave Link  401 at Thu May 15 15:40:16 2025, MaxMem=   536870912 cpu:               1.3 elap:               0.2
 (Enter /home/szhao/Apps/g16/l502.exe)
 Keep R1 and R2 ints in memory in canonical form, NReq=9624198.
 FoFCou: FMM=F IPFlag=           0 FMFlag=           0 FMFlg1=           0
         NFxFlg=           0 DoJE=F BraDBF=F KetDBF=F FulRan=T
         wScrn=  0.000000 ICntrl=       600 IOpCl=  0 I1Cent=           0 NGrid=           0
         NMat0=    1 NMatS0=   1596 NMatT0=    0 NMatD0=    1 NMtDS0=    0 NMtDT0=    0
 Symmetry not used in FoFCou.
 Two-electron integral symmetry not used.
 UHF open shell SCF:
 Using DIIS extrapolation, IDIIS=  1040.
 NGot=   536870912 LenX=   534314338 LenY=   534310533
 Requested convergence on RMS density matrix=1.00D-08 within 128 cycles.
 Requested convergence on MAX density matrix=1.00D-06.
 Requested convergence on             energy=1.00D-06.
 No special actions if energy rises.
 Integral accuracy reduced to 1.0D-05 until final iterations.

 Cycle   1  Pass 0  IDiag  1:
 E= -110.185835954114    
 DIIS: error= 1.28D-02 at cycle   1 NSaved=   1.
 NSaved= 1 IEnMin= 1 EnMin= -110.185835954114     IErMin= 1 ErrMin= 1.28D-02
 ErrMax= 1.28D-02  0.00D+00 EMaxC= 1.00D-01 BMatC= 2.67D-02 BMatP= 2.67D-02
 IDIUse=3 WtCom= 8.72D-01 WtEn= 1.28D-01
 Coeff-Com:  0.100D+01
 Coeff-En:   0.100D+01
 Coeff:      0.100D+01
 Recover alternate guess density for next cycle.
 RMSDP=2.76D-03 MaxDP=2.68D-02              OVMax= 0.00D+00

 Cycle   2  Pass 0  IDiag  1:
 E= -110.192974073205     Delta-E=       -0.007138119091 Rises=F Damp=F
 DIIS: error= 2.38D-02 at cycle   2 NSaved=   2.
 NSaved= 2 IEnMin= 2 EnMin= -110.192974073205     IErMin= 1 ErrMin= 1.28D-02
 ErrMax= 2.38D-02  0.00D+00 EMaxC= 1.00D-01 BMatC= 9.30D-02 BMatP= 2.67D-02
 IDIUse=2 WtCom= 0.00D+00 WtEn= 1.00D+00
 Coeff-En:   0.000D+00 0.100D+01
 Coeff:      0.000D+00 0.100D+01
 Gap=     0.095 Goal=   None    Shift=    0.000
 Gap=     0.095 Goal=   None    Shift=    0.000
 RMSDP=1.36D-03 MaxDP=8.73D-03 DE=-7.14D-03 OVMax= 3.99D-02

 Cycle   3  Pass 0  IDiag  1:
 E= -110.199837127899     Delta-E=       -0.006863054693 Rises=F Damp=F
 DIIS: error= 6.55D-03 at cycle   3 NSaved=   3.
 NSaved= 3 IEnMin= 3 EnMin= -110.199837127899     IErMin= 3 ErrMin= 6.55D-03
 ErrMax= 6.55D-03  0.00D+00 EMaxC= 1.00D-01 BMatC= 6.90D-03 BMatP= 2.67D-02
 IDIUse=3 WtCom= 9.34D-01 WtEn= 6.55D-02
 Coeff-Com:  0.152D+00 0.111D+00 0.737D+00
 Coeff-En:   0.000D+00 0.000D+00 0.100D+01
 Coeff:      0.142D+00 0.104D+00 0.755D+00
 Gap=     0.095 Goal=   None    Shift=    0.000
 Gap=     0.095 Goal=   None    Shift=    0.000
 RMSDP=7.76D-04 MaxDP=1.54D-02 DE=-6.86D-03 OVMax= 1.76D-02

 Cycle   4  Pass 0  IDiag  1:
 E= -110.200879099871     Delta-E=       -0.001041971972 Rises=F Damp=F
 DIIS: error= 4.35D-03 at cycle   4 NSaved=   4.
 NSaved= 4 IEnMin= 4 EnMin= -110.200879099871     IErMin= 4 ErrMin= 4.35D-03
 ErrMax= 4.35D-03  0.00D+00 EMaxC= 1.00D-01 BMatC= 1.81D-03 BMatP= 6.90D-03
 IDIUse=3 WtCom= 9.56D-01 WtEn= 4.35D-02
 Coeff-Com: -0.155D-01 0.230D-02 0.339D+00 0.674D+00
 Coeff-En:   0.000D+00 0.000D+00 0.141D+00 0.859D+00
 Coeff:     -0.149D-01 0.220D-02 0.330D+00 0.682D+00
 Gap=     0.095 Goal=   None    Shift=    0.000
 Gap=     0.095 Goal=   None    Shift=    0.000
 RMSDP=2.81D-04 MaxDP=3.99D-03 DE=-1.04D-03 OVMax= 9.01D-03

 Cycle   5  Pass 0  IDiag  1:
 E= -110.201333595296     Delta-E=       -0.000454495425 Rises=F Damp=F
 DIIS: error= 2.62D-04 at cycle   5 NSaved=   5.
 NSaved= 5 IEnMin= 5 EnMin= -110.201333595296     IErMin= 5 ErrMin= 2.62D-04
 ErrMax= 2.62D-04  0.00D+00 EMaxC= 1.00D-01 BMatC= 1.81D-05 BMatP= 1.81D-03
 IDIUse=3 WtCom= 9.97D-01 WtEn= 2.62D-03
 Coeff-Com: -0.401D-02-0.255D-02-0.401D-01 0.110D-01 0.104D+01
 Coeff-En:   0.000D+00 0.000D+00 0.000D+00 0.000D+00 0.100D+01
 Coeff:     -0.400D-02-0.254D-02-0.400D-01 0.110D-01 0.104D+01
 Gap=     0.095 Goal=   None    Shift=    0.000
 Gap=     0.095 Goal=   None    Shift=    0.000
 RMSDP=4.70D-05 MaxDP=7.31D-04 DE=-4.54D-04 OVMax= 2.32D-03

 Cycle   6  Pass 0  IDiag  1:
 E= -110.201342085129     Delta-E=       -0.000008489833 Rises=F Damp=F
 DIIS: error= 6.78D-05 at cycle   6 NSaved=   6.
 NSaved= 6 IEnMin= 6 EnMin= -110.201342085129     IErMin= 6 ErrMin= 6.78D-05
 ErrMax= 6.78D-05  0.00D+00 EMaxC= 1.00D-01 BMatC= 8.20D-07 BMatP= 1.81D-05
 IDIUse=1 WtCom= 1.00D+00 WtEn= 0.00D+00
 Coeff-Com: -0.299D-03-0.759D-04-0.225D-01-0.378D-01 0.258D-01 0.103D+01
 Coeff:     -0.299D-03-0.759D-04-0.225D-01-0.378D-01 0.258D-01 0.103D+01
 Gap=     0.095 Goal=   None    Shift=    0.000
 Gap=     0.095 Goal=   None    Shift=    0.000
 RMSDP=2.06D-05 MaxDP=1.87D-04 DE=-8.49D-06 OVMax= 1.01D-03

 Cycle   7  Pass 0  IDiag  1:
 E= -110.201339454208     Delta-E=        0.000002630921 Rises=F Damp=F
 DIIS: error= 5.06D-04 at cycle   7 NSaved=   7.
 NSaved= 7 IEnMin= 6 EnMin= -110.201342085129     IErMin= 6 ErrMin= 6.78D-05
 ErrMax= 5.06D-04  0.00D+00 EMaxC= 1.00D-01 BMatC= 1.53D-05 BMatP= 8.20D-07
 IDIUse=1 WtCom= 1.00D+00 WtEn= 0.00D+00
 Coeff-Com: -0.217D-03-0.117D-04-0.202D-01-0.358D-01 0.143D-02 0.968D+00
 Coeff-Com:  0.865D-01
 Coeff:     -0.217D-03-0.117D-04-0.202D-01-0.358D-01 0.143D-02 0.968D+00
 Coeff:      0.865D-01
 Gap=     0.095 Goal=   None    Shift=    0.000
 Gap=     0.095 Goal=   None    Shift=    0.000
 RMSDP=1.47D-05 MaxDP=1.94D-04 DE= 2.63D-06 OVMax= 1.00D-03

 Cycle   8  Pass 0  IDiag  1:
 E= -110.201342856378     Delta-E=       -0.000003402171 Rises=F Damp=F
 DIIS: error= 9.06D-05 at cycle   8 NSaved=   8.
 NSaved= 8 IEnMin= 8 EnMin= -110.201342856378     IErMin= 6 ErrMin= 6.78D-05
 ErrMax= 9.06D-05  0.00D+00 EMaxC= 1.00D-01 BMatC= 5.35D-07 BMatP= 8.20D-07
 IDIUse=1 WtCom= 1.00D+00 WtEn= 0.00D+00
 Coeff-Com: -0.199D-03 0.115D-03 0.788D-02 0.981D-02-0.251D-01-0.350D+00
 Coeff-Com:  0.184D+00 0.117D+01
 Coeff:     -0.199D-03 0.115D-03 0.788D-02 0.981D-02-0.251D-01-0.350D+00
 Coeff:      0.184D+00 0.117D+01
 Gap=     0.095 Goal=   None    Shift=    0.000
 Gap=     0.095 Goal=   None    Shift=    0.000
 RMSDP=6.37D-06 MaxDP=4.27D-05 DE=-3.40D-06 OVMax= 4.26D-04

 Initial convergence to 1.0D-05 achieved.  Increase integral accuracy.
 Cycle   9  Pass 1  IDiag  1:
 E= -110.201342011301     Delta-E=        0.000000845078 Rises=F Damp=F
 DIIS: error= 4.71D-06 at cycle   1 NSaved=   1.
 NSaved= 1 IEnMin= 1 EnMin= -110.201342011301     IErMin= 1 ErrMin= 4.71D-06
 ErrMax= 4.71D-06  0.00D+00 EMaxC= 1.00D-01 BMatC= 4.54D-09 BMatP= 4.54D-09
 IDIUse=1 WtCom= 1.00D+00 WtEn= 0.00D+00
 Coeff-Com:  0.100D+01
 Coeff:      0.100D+01
 Gap=     0.095 Goal=   None    Shift=    0.000
 Gap=     0.095 Goal=   None    Shift=    0.000
 RMSDP=6.37D-06 MaxDP=4.27D-05 DE= 8.45D-07 OVMax= 4.24D-05

 Cycle  10  Pass 1  IDiag  1:
 E= -110.201342014024     Delta-E=       -0.000000002724 Rises=F Damp=F
 DIIS: error= 3.73D-06 at cycle   2 NSaved=   2.
 NSaved= 2 IEnMin= 2 EnMin= -110.201342014024     IErMin= 2 ErrMin= 3.73D-06
 ErrMax= 3.73D-06  0.00D+00 EMaxC= 1.00D-01 BMatC= 1.25D-09 BMatP= 4.54D-09
 IDIUse=1 WtCom= 1.00D+00 WtEn= 0.00D+00
 Coeff-Com:  0.172D+00 0.828D+00
 Coeff:      0.172D+00 0.828D+00
 Gap=     0.095 Goal=   None    Shift=    0.000
 Gap=     0.095 Goal=   None    Shift=    0.000
 RMSDP=1.10D-06 MaxDP=1.46D-05 DE=-2.72D-09 OVMax= 7.21D-05

 Cycle  11  Pass 1  IDiag  1:
 E= -110.201341993749     Delta-E=        0.000000020275 Rises=F Damp=F
 DIIS: error= 3.92D-05 at cycle   3 NSaved=   3.
 NSaved= 3 IEnMin= 2 EnMin= -110.201342014024     IErMin= 2 ErrMin= 3.73D-06
 ErrMax= 3.92D-05  0.00D+00 EMaxC= 1.00D-01 BMatC= 9.19D-08 BMatP= 1.25D-09
 IDIUse=1 WtCom= 1.00D+00 WtEn= 0.00D+00
 Coeff-Com: -0.279D-01 0.936D+00 0.922D-01
 Coeff:     -0.279D-01 0.936D+00 0.922D-01
 Gap=     0.095 Goal=   None    Shift=    0.000
 Gap=     0.095 Goal=   None    Shift=    0.000
 RMSDP=1.00D-06 MaxDP=1.34D-05 DE= 2.03D-08 OVMax= 6.84D-05

 Cycle  12  Pass 1  IDiag  1:
 E= -110.201342014766     Delta-E=       -0.000000021017 Rises=F Damp=F
 DIIS: error= 1.54D-06 at cycle   4 NSaved=   4.
 NSaved= 4 IEnMin= 4 EnMin= -110.201342014766     IErMin= 4 ErrMin= 1.54D-06
 ErrMax= 1.54D-06  0.00D+00 EMaxC= 1.00D-01 BMatC= 3.18D-10 BMatP= 1.25D-09
 IDIUse=1 WtCom= 1.00D+00 WtEn= 0.00D+00
 Coeff-Com: -0.149D+00 0.240D+00 0.574D-01 0.851D+00
 Coeff:     -0.149D+00 0.240D+00 0.574D-01 0.851D+00
 Gap=     0.095 Goal=   None    Shift=    0.000
 Gap=     0.095 Goal=   None    Shift=    0.000
 RMSDP=1.85D-07 MaxDP=1.32D-06 DE=-2.10D-08 OVMax= 1.21D-05

 Cycle  13  Pass 1  IDiag  1:
 E= -110.201342014935     Delta-E=       -0.000000000169 Rises=F Damp=F
 DIIS: error= 4.44D-07 at cycle   5 NSaved=   5.
 NSaved= 5 IEnMin= 5 EnMin= -110.201342014935     IErMin= 5 ErrMin= 4.44D-07
 ErrMax= 4.44D-07  0.00D+00 EMaxC= 1.00D-01 BMatC= 2.22D-11 BMatP= 3.18D-10
 IDIUse=1 WtCom= 1.00D+00 WtEn= 0.00D+00
 Coeff-Com: -0.524D-01-0.656D-01 0.558D-03 0.177D+00 0.941D+00
 Coeff:     -0.524D-01-0.656D-01 0.558D-03 0.177D+00 0.941D+00
 Gap=     0.095 Goal=   None    Shift=    0.000
 Gap=     0.095 Goal=   None    Shift=    0.000
 RMSDP=8.44D-08 MaxDP=6.28D-07 DE=-1.69D-10 OVMax= 6.00D-06

 Cycle  14  Pass 1  IDiag  1:
 E= -110.201342014957     Delta-E=       -0.000000000022 Rises=F Damp=F
 DIIS: error= 1.10D-07 at cycle   6 NSaved=   6.
 NSaved= 6 IEnMin= 6 EnMin= -110.201342014957     IErMin= 6 ErrMin= 1.10D-07
 ErrMax= 1.10D-07  0.00D+00 EMaxC= 1.00D-01 BMatC= 1.38D-12 BMatP= 2.22D-11
 IDIUse=1 WtCom= 1.00D+00 WtEn= 0.00D+00
 Coeff-Com:  0.153D-01-0.262D-01-0.748D-02-0.121D+00 0.117D+00 0.102D+01
 Coeff:      0.153D-01-0.262D-01-0.748D-02-0.121D+00 0.117D+00 0.102D+01
 Gap=     0.095 Goal=   None    Shift=    0.000
 Gap=     0.095 Goal=   None    Shift=    0.000
 RMSDP=2.47D-08 MaxDP=2.21D-07 DE=-2.22D-11 OVMax= 1.64D-06

 Cycle  15  Pass 1  IDiag  1:
 E= -110.201342014958     Delta-E=       -0.000000000001 Rises=F Damp=F
 DIIS: error= 8.83D-09 at cycle   7 NSaved=   7.
 NSaved= 7 IEnMin= 7 EnMin= -110.201342014958     IErMin= 7 ErrMin= 8.83D-09
 ErrMax= 8.83D-09  0.00D+00 EMaxC= 1.00D-01 BMatC= 1.37D-14 BMatP= 1.38D-12
 IDIUse=1 WtCom= 1.00D+00 WtEn= 0.00D+00
 Coeff-Com: -0.679D-03 0.302D-02 0.530D-03 0.749D-02-0.311D-01-0.460D-01
 Coeff-Com:  0.107D+01
 Coeff:     -0.679D-03 0.302D-02 0.530D-03 0.749D-02-0.311D-01-0.460D-01
 Coeff:      0.107D+01
 Gap=     0.095 Goal=   None    Shift=    0.000
 Gap=     0.095 Goal=   None    Shift=    0.000
 RMSDP=2.03D-09 MaxDP=1.47D-08 DE=-1.36D-12 OVMax= 9.21D-08

 SCF Done:  E(UM062X) =  -110.201342015     A.U. after   15 cycles
            NFock= 15  Conv=0.20D-08     -V/T= 2.0052
 <Sx>= 0.0000 <Sy>= 0.0000 <Sz>= 0.0000 <S**2>=-0.0000 S=-0.0000
 <L.S>=  0.00000000000    
 KE= 1.096296267803D+02 PE=-2.933440828389D+02 EE= 5.584041017165D+01
 Annihilation of the first spin contaminant:
 S**2 before annihilation    -0.0000,   after    -0.0000
 Leave Link  502 at Thu May 15 15:40:18 2025, MaxMem=   536870912 cpu:              19.3 elap:               2.5
 (Enter /home/szhao/Apps/g16/l701.exe)
 ... and contract with generalized density number  0.
 Compute integral first derivatives.
 Leave Link  701 at Thu May 15 15:40:18 2025, MaxMem=   536870912 cpu:               0.8 elap:               0.1
 (Enter /home/szhao/Apps/g16/l702.exe)
 L702 exits ... SP integral derivatives will be done elsewhere.
 Leave Link  702 at Thu May 15 15:40:18 2025, MaxMem=   536870912 cpu:               0.2 elap:               0.0
 (Enter /home/szhao/Apps/g16/l703.exe)
 Integral derivatives from FoFJK, PRISM(SPDF).
 Compute integral first derivatives, UseDBF=F ICtDFT=           0.
 Calling FoFJK, ICntrl=      2127 FMM=F ISym2X=0 I1Cent= 0 IOpClX= 1 NMat=1 NMatS=1 NMatT=0.
 FoFJK:  IHMeth= 1 ICntrl=    2127 DoSepK=F KAlg= 0 I1Cent=           0 FoldK=F
 IRaf=         0 NMat=       1 IRICut=       1 DoRegI=T DoRafI=F ISym2E= 0 IDoP0=0 IntGTp=1.
 FoFCou: FMM=F IPFlag=           0 FMFlag=      100000 FMFlg1=         800
         NFxFlg=           0 DoJE=F BraDBF=F KetDBF=F FulRan=T
         wScrn=  0.000000 ICntrl=      2127 IOpCl=  1 I1Cent=           0 NGrid=           0
         NMat0=    1 NMatS0=      1 NMatT0=    0 NMatD0=    1 NMtDS0=    0 NMtDT0=    0
 Symmetry not used in FoFCou.
 Leave Link  703 at Thu May 15 15:40:19 2025, MaxMem=   536870912 cpu:               3.6 elap:               0.5
 (Enter /home/szhao/Apps/g16/l716.exe)
 Dipole        =-1.95031645D-07-4.70556283D-09 4.60249913D-09
 -------------------------------------------------------------------
 Center     Atomic                   Forces (Hartrees/Bohr)
 Number     Number              X              Y              Z
 -------------------------------------------------------------------
      1        7          -0.000000000   -0.000000000   -0.000000000
      2        7          -0.000000000   -0.000000000   -0.000000000
      3        1           0.002686543    0.001198636   -0.000000000
      4        1          -0.002686544   -0.001198634    0.000000000
 -------------------------------------------------------------------
 Cartesian Forces:  Max     0.002686544 RMS     0.001200989
 Leave Link  716 at Thu May 15 15:40:19 2025, MaxMem=   536870912 cpu:               0.2 elap:               0.0
 (Enter /home/szhao/Apps/g16/l103.exe)

 GradGradGradGradGradGradGradGradGradGradGradGradGradGradGradGradGradGrad
 Berny optimization.
 Using GEDIIS/GDIIS optimizer.
 FormGI is forming the generalized inverse of G from B-inverse, IUseBI=4.
 Internal  Forces:  Max     0.005416772 RMS     0.002627960
 Search for a local minimum.
 Step number   3 out of a maximum of   21
 All quantities printed in internal units (Hartrees-Bohrs-Radians)
 RMS Force = .34872D-02 SwitMx=.10000D-02 MixMth= 1
 Mixed Optimization -- RFO/linear search
 Update second derivatives using D2CorX and points    1    2    3
 DE= -4.99D-03 DEPred=-5.23D-03 R= 9.54D-01
 TightC=F SS=  1.41D+00  RLast= 3.56D-01 DXNew= 7.5716D-01 1.0694D+00
 Trust test= 9.54D-01 RLast= 3.56D-01 DXMaxT set to 7.57D-01
 The second derivative matrix:
                          X1        Y1        Z1        X2        Y2
           X1           0.50441
           Y1          -0.00575   0.51582
           Z1           0.00000  -0.00000   0.50000
           X2          -0.00441   0.00575  -0.00000   0.50441
           Y2           0.00575  -0.01582   0.00000  -0.00575   0.51582
           Z2           0.00000  -0.00000   0.00000  -0.00000   0.00000
           R1           0.00273  -0.04849   0.00000  -0.00273   0.04849
           R2           0.00273  -0.04849   0.00000  -0.00273   0.04849
           A1          -0.00872   0.01045  -0.00000   0.00872  -0.01045
           A2          -0.00872   0.01045  -0.00000   0.00872  -0.01045
           D1           0.00000  -0.00000   0.00000  -0.00000   0.00000
                          Z2        R1        R2        A1        A2
           Z2           0.50000
           R1           0.00000   0.45615
           R2           0.00000   0.03237   0.45615
           A1          -0.00000  -0.00042  -0.00042   0.09735
           A2          -0.00000  -0.00042  -0.00042  -0.06265   0.09735
           D1           0.00000   0.00000   0.00000  -0.00000  -0.00000
                          D1
           D1           0.00230
 ITU=  1  1  0
 Use linear search instead of GDIIS.
     Eigenvalues ---    0.00230   0.03471   0.16000   0.42378   0.48852
     Eigenvalues --- 1000.000001000.000001000.000001000.000001000.00000
     Eigenvalues --- 1000.00000
 RFO step:  Lambda=-1.00855716D-05 EMin= 2.30000000D-03
 Quartic linear search produced a step of  0.54645.
 Iteration  1 RMS(Cart)=  0.11449022 RMS(Int)=  0.00785792
 Iteration  2 RMS(Cart)=  0.00801737 RMS(Int)=  0.00000890
 Iteration  3 RMS(Cart)=  0.00001714 RMS(Int)=  0.00000000
 Iteration  4 RMS(Cart)=  0.00000000 RMS(Int)=  0.00000000
 ITry= 1 IFail=0 DXMaxC= 2.68D-01 DCOld= 1.00D+10 DXMaxT= 7.57D-01 DXLimC= 3.00D+00 Rises=F
 Variable       Old X    -DE/DX   Delta X   Delta X   Delta X     New X
                                 (Linear)    (Quad)   (Total)
    X1       -3.00547   0.00269   0.00000   0.00000   0.00000  -3.00547
    Y1        0.00000  -0.00060   0.00000   0.00000   0.00000   0.00000
    Z1        0.00000  -0.00000   0.00000   0.00000   0.00000   0.00000
    X2        3.00547  -0.00269   0.00000   0.00000   0.00000   3.00547
    Y2        0.00000   0.00060   0.00000   0.00000   0.00000   0.00000
    Z2        0.00000  -0.00000   0.00000   0.00000   0.00000   0.00000
    R1        1.96570  -0.00103   0.00085  -0.00321  -0.00235   1.96334
    R2        1.96570  -0.00103   0.00085  -0.00321  -0.00235   1.96334
    A1        1.50879  -0.00542  -0.13773  -0.00036  -0.13809   1.37071
    A2        1.50879  -0.00542  -0.13773  -0.00036  -0.13809   1.37070
    D1        3.14159  -0.00000   0.00000  -0.00000  -0.00000   3.14159
         Item               Value     Threshold  Converged?
 Maximum Force            0.005417     0.000450     NO 
 RMS     Force            0.003487     0.000300     NO 
 Maximum Displacement     0.268433     0.001800     NO 
 RMS     Displacement     0.115586     0.001200     NO 
 Predicted change in Energy=-8.368716D-04
 Lowest energy point so far.  Saving SCF results.
 GradGradGradGradGradGradGradGradGradGradGradGradGradGradGradGradGradGrad

 Leave Link  103 at Thu May 15 15:40:19 2025, MaxMem=   536870912 cpu:               0.0 elap:               0.0
 (Enter /home/szhao/Apps/g16/l202.exe)
                          Input orientation:                          
 ---------------------------------------------------------------------
 Center     Atomic      Atomic             Coordinates (Angstroms)
 Number     Number       Type             X           Y           Z
 ---------------------------------------------------------------------
      1          7           0       -1.590428    0.000000    0.000000
      2          7           0        1.590428    0.000000    0.000000
      3          1           0       -1.383926   -1.018227   -0.000000
      4          1           0        1.383926    1.018227   -0.000000
 ---------------------------------------------------------------------
                    Distance matrix (angstroms):
                    1          2          3          4
     1  N    0.000000
     2  N    3.180856   0.000000
     3  H    1.038956   3.143815   0.000000
     4  H    3.143815   1.038956   3.436299   0.000000
 Symmetry turned off by external request.
 Stoichiometry    H2N2
 Framework group  C1[X(H2N2)]
 Deg. of freedom     6
 Full point group                 C1      NOp   1
 Rotational constants (GHZ):         255.3890008           6.7553307           6.5812492
 Leave Link  202 at Thu May 15 15:40:19 2025, MaxMem=   536870912 cpu:               0.0 elap:               0.0
 (Enter /home/szhao/Apps/g16/l301.exe)
 Standard basis: 6-311+G(d,p) (5D, 7F)
 Ernie: Thresh=  0.10000D-02 Tol=  0.10000D-05 Strict=F.
    56 basis functions,    88 primitive gaussians,    58 cartesian basis functions
     8 alpha electrons        8 beta electrons
       nuclear repulsion energy        17.7930167301 Hartrees.
 IExCor= 4336 DFT=T Ex+Corr=M062X ExCW=0 ScaHFX=  0.540000
 ScaDFX=  1.000000  1.000000  1.000000  1.000000 ScalE2=  1.000000  1.000000
 IRadAn=      7 IRanWt=     -1 IRanGd=            0 ICorTp=0 IEmpDi=  4
 NAtoms=    4 NActive=    4 NUniq=    4 SFac= 1.00D+00 NAtFMM=   60 NAOKFM=F Big=F
 Integral buffers will be    131072 words long.
 Raffenetti 2 integral format.
 Two-electron integral symmetry is turned off.
 Leave Link  301 at Thu May 15 15:40:19 2025, MaxMem=   536870912 cpu:               0.2 elap:               0.0
 (Enter /home/szhao/Apps/g16/l302.exe)
 NPDir=0 NMtPBC=     1 NCelOv=     1 NCel=       1 NClECP=     1 NCelD=      1
         NCelK=      1 NCelE2=     1 NClLst=     1 CellRange=     0.0.
 One-electron integrals computed using PRISM.
 NBasis=    56 RedAO= T EigKep=  6.89D-03  NBF=    56
 NBsUse=    56 1.00D-06 EigRej= -1.00D+00 NBFU=    56
 Precomputing XC quadrature grid using
[...]
 IDIUse=1 WtCom= 1.00D+00 WtEn= 0.00D+00
 Coeff-Com:  0.241D-03-0.257D-02 0.703D-02 0.118D-02-0.515D-03-0.337D-01
 Coeff-Com: -0.143D+00 0.791D-01-0.762D-01 0.201D+00-0.234D+01 0.331D+01
 Coeff:      0.241D-03-0.257D-02 0.703D-02 0.118D-02-0.515D-03-0.337D-01
 Coeff:     -0.143D+00 0.791D-01-0.762D-01 0.201D+00-0.234D+01 0.331D+01
 Gap=     0.095 Goal=   None    Shift=    0.000
 Gap=     0.095 Goal=   None    Shift=    0.000
 RMSDP=1.07D-07 MaxDP=1.11D-06 DE= 1.34D-11 OVMax= 7.27D-06

 Cycle  13  Pass 1  IDiag  1:
 E= -110.202126327030     Delta-E=        0.000000000013 Rises=F Damp=F
 DIIS: error= 4.38D-08 at cycle  13 NSaved=  13.
 NSaved=13 IEnMin= 8 EnMin= -110.202126329566     IErMin=13 ErrMin= 4.38D-08
 ErrMax= 4.38D-08  0.00D+00 EMaxC= 1.00D-01 BMatC= 7.74D-14 BMatP= 3.52D-12
 IDIUse=1 WtCom= 1.00D+00 WtEn= 0.00D+00
 Coeff-Com:  0.546D-04-0.551D-03 0.138D-02 0.973D-03 0.231D-03-0.533D-02
 Coeff-Com: -0.435D-01 0.253D-01 0.261D-01-0.377D-01-0.667D+00 0.960D+00
 Coeff-Com:  0.740D+00
 Coeff:      0.546D-04-0.551D-03 0.138D-02 0.973D-03 0.231D-03-0.533D-02
 Coeff:     -0.435D-01 0.253D-01 0.261D-01-0.377D-01-0.667D+00 0.960D+00
 Coeff:      0.740D+00
 Gap=     0.095 Goal=   None    Shift=    0.000
 Gap=     0.095 Goal=   None    Shift=    0.000
 RMSDP=9.62D-09 MaxDP=1.10D-07 DE= 1.28D-11 OVMax= 6.21D-07

 SCF Done:  E(UM062X) =  -110.202126327     A.U. after   13 cycles
            NFock= 13  Conv=0.96D-08     -V/T= 2.0052
 <Sx>= 0.0000 <Sy>= 0.0000 <Sz>= 0.0000 <S**2>= 0.0000 S= 0.0000
 <L.S>=  0.00000000000    
 KE= 1.096365927333D+02 PE=-2.935689717417D+02 EE= 5.593259396288D+01
 Annihilation of the first spin contaminant:
 S**2 before annihilation     0.0000,   after    -0.0000
 Leave Link  502 at Thu May 15 15:40:26 2025, MaxMem=   536870912 cpu:              24.5 elap:               3.1
 (Enter /home/szhao/Apps/g16/l701.exe)
 ... and contract with generalized density number  0.
 Compute integral first derivatives.
 Leave Link  701 at Thu May 15 15:40:26 2025, MaxMem=   536870912 cpu:               0.7 elap:               0.1
 (Enter /home/szhao/Apps/g16/l702.exe)
 L702 exits ... SP integral derivatives will be done elsewhere.
 Leave Link  702 at Thu May 15 15:40:26 2025, MaxMem=   536870912 cpu:               0.3 elap:               0.0
 (Enter /home/szhao/Apps/g16/l703.exe)
 Integral derivatives from FoFJK, PRISM(SPDF).
 Compute integral first derivatives, UseDBF=F ICtDFT=           0.
 Calling FoFJK, ICntrl=      2127 FMM=F ISym2X=0 I1Cent= 0 IOpClX= 1 NMat=1 NMatS=1 NMatT=0.
 FoFJK:  IHMeth= 1 ICntrl=    2127 DoSepK=F KAlg= 0 I1Cent=           0 FoldK=F
 IRaf=         0 NMat=       1 IRICut=       1 DoRegI=T DoRafI=F ISym2E= 0 IDoP0=0 IntGTp=1.
 FoFCou: FMM=F IPFlag=           0 FMFlag=      100000 FMFlg1=         800
         NFxFlg=           0 DoJE=F BraDBF=F KetDBF=F FulRan=T
         wScrn=  0.000000 ICntrl=      2127 IOpCl=  1 I1Cent=           0 NGrid=           0
         NMat0=    1 NMatS0=      1 NMatT0=    0 NMatD0=    1 NMtDS0=    0 NMtDT0=    0
 Symmetry not used in FoFCou.
 Leave Link  703 at Thu May 15 15:40:27 2025, MaxMem=   536870912 cpu:               3.8 elap:               0.5
 (Enter /home/szhao/Apps/g16/l716.exe)
 Dipole        =-6.88487258D-08-1.84277726D-09 1.07330774D-07
 -------------------------------------------------------------------
 Center     Atomic                   Forces (Hartrees/Bohr)
 Number     Number              X              Y              Z
 -------------------------------------------------------------------
      1        7          -0.000000000   -0.000000000   -0.000000000
      2        7          -0.000000000   -0.000000000   -0.000000000
      3        1           0.000004380   -0.000015497   -0.000000001
      4        1          -0.000004381    0.000015501   -0.000000001
 -------------------------------------------------------------------
 Cartesian Forces:  Max     0.000015501 RMS     0.000006575
 Leave Link  716 at Thu May 15 15:40:27 2025, MaxMem=   536870912 cpu:               0.2 elap:               0.0
 (Enter /home/szhao/Apps/g16/l103.exe)

 GradGradGradGradGradGradGradGradGradGradGradGradGradGradGradGradGradGrad
 Berny optimization.
 Using GEDIIS/GDIIS optimizer.
 FormGI is forming the generalized inverse of G from B-inverse, IUseBI=4.
 Internal  Forces:  Max     0.000016236 RMS     0.000009961
 Search for a local minimum.
 Step number   5 out of a maximum of   21
 All quantities printed in internal units (Hartrees-Bohrs-Radians)
 RMS Force = .10257D-04 SwitMx=.10000D-02 MixMth= 2
 Mixed Optimization -- En-DIIS/RFO-DIIS
 Swapping is turned off.
 Update second derivatives using D2CorX and points    2    3    4    5
 DE= -1.17D-06 DEPred=-1.18D-06 R= 9.96D-01
 TightC=F SS=  1.41D+00  RLast= 7.79D-03 DXNew= 1.2734D+00 2.3364D-02
 Trust test= 9.96D-01 RLast= 7.79D-03 DXMaxT set to 7.57D-01
 The second derivative matrix:
                          X1        Y1        Z1        X2        Y2
           X1           0.50472
           Y1          -0.00258   0.51135
           Z1           0.00000  -0.00000   0.50000
           X2          -0.00472   0.00258  -0.00000   0.50472
           Y2           0.00258  -0.01135   0.00000  -0.00258   0.51135
           Z2           0.00000  -0.00000   0.00000  -0.00000   0.00000
           R1           0.00200  -0.05028  -0.00000  -0.00200   0.05028
           R2           0.00200  -0.05028  -0.00000  -0.00200   0.05028
           A1          -0.00944   0.00413  -0.00000   0.00944  -0.00413
           A2          -0.00944   0.00413  -0.00000   0.00944  -0.00413
           D1           0.00000  -0.00000   0.00000  -0.00000   0.00000
                          Z2        R1        R2        A1        A2
           Z2           0.50000
           R1          -0.00000   0.45601
           R2          -0.00000   0.03223   0.45601
           A1          -0.00000   0.00109   0.00109   0.09896
           A2          -0.00000   0.00109   0.00109  -0.06104   0.09896
           D1           0.00000  -0.00000  -0.00000  -0.00000  -0.00000
                          D1
           D1           0.00230
 ITU=  1  1  1  1  0
     Eigenvalues ---    0.00230   0.03790   0.16000   0.42378   0.48825
     Eigenvalues --- 1000.000001000.000001000.000001000.000001000.00000
     Eigenvalues --- 1000.00000
 En-DIIS/RFO-DIIS/Sim-DIIS IScMMF=       -3 using points:     5    4
 RFO step:  Lambda=-1.08449815D-09.
 NNeg= 0 NGDIIS= 2 SimSw=  2.50D-01 Rises=F DC= -1.17D-06 SmlDif=  1.00D-05
 NRisDI= 0 DoIntr=F SqrtH=F CThrHd= 10.0 CDAdj=  3.0
 RMS Error=  0.2927402833D-04 NUsed= 2 OKEnD=F EnDIS=F
 InvSVX:  RCond= 1.52D-05 Info=           0 Equed=N FErr=  9.09D-16 BErr=  3.52D-17
 DidBck=F Rises=F RFO-DIIS coefs:    1.01094   -0.01094
 Iteration  1 RMS(Cart)=  0.00005227 RMS(Int)=  0.00000000
 Iteration  2 RMS(Cart)=  0.00000000 RMS(Int)=  0.00000000
 ITry= 1 IFail=0 DXMaxC= 1.22D-04 DCOld= 1.00D+10 DXMaxT= 7.57D-01 DXLimC= 3.00D+00 Rises=F
 Variable       Old X    -DE/DX   Delta X   Delta X   Delta X     New X
                                 (Linear)    (Quad)   (Total)
    X1       -3.00547   0.00000  -0.00000   0.00000   0.00000  -3.00547
    Y1        0.00000  -0.00002   0.00000   0.00000   0.00000   0.00000
    Z1        0.00000  -0.00000   0.00000   0.00000   0.00000   0.00000
    X2        3.00547  -0.00000   0.00000   0.00000   0.00000   3.00547
    Y2        0.00000   0.00002   0.00000   0.00000   0.00000   0.00000
    Z2        0.00000  -0.00000   0.00000   0.00000   0.00000   0.00000
    R1        1.96336   0.00002   0.00000   0.00003   0.00003   1.96340
    R2        1.96336   0.00002   0.00000   0.00003   0.00003   1.96340
    A1        1.36520  -0.00000  -0.00006   0.00000  -0.00006   1.36514
    A2        1.36520  -0.00000  -0.00006   0.00000  -0.00006   1.36514
    D1       -3.14159  -0.00000   0.00000  -0.00000  -0.00000   3.14159
         Item               Value     Threshold  Converged?
 Maximum Force            0.000016     0.000450     YES
 RMS     Force            0.000010     0.000300     YES
 Maximum Displacement     0.000122     0.001800     YES
 RMS     Displacement     0.000052     0.001200     YES
 Predicted change in Energy=-6.656631D-10
 Optimization completed.
    -- Stationary point found.
                           ----------------------------
                           !   Optimized Parameters   !
                           ! (Angstroms and Degrees)  !
 --------------------------                            --------------------------
 ! Name  Definition              Value          Derivative Info.                !
 --------------------------------------------------------------------------------
 ! X1    R(1,-1)                -1.5904         -DE/DX =    0.0                 !
 ! Y1    R(1,-2)                 0.0            -DE/DX =    0.0                 !
 ! Z1    R(1,-3)                 0.0            -DE/DX =    0.0                 !
 ! X2    R(2,-1)                 1.5904         -DE/DX =    0.0                 !
 ! Y2    R(2,-2)                 0.0            -DE/DX =    0.0                 !
 ! Z2    R(2,-3)                 0.0            -DE/DX =    0.0                 !
 ! R1    R(1,3)                  1.039          -DE/DX =    0.0                 !
 ! R2    R(2,4)                  1.039          -DE/DX =    0.0                 !
 ! A1    A(2,1,3)               78.2201         -DE/DX =    0.0                 !
 ! A2    A(1,2,4)               78.2201         -DE/DX =    0.0                 !
 ! D1    D(3,1,2,4)            180.0            -DE/DX =    0.0                 !
 --------------------------------------------------------------------------------
 Lowest energy point so far.  Saving SCF results.
 Largest change from initial coordinates is atom    4       0.514 Angstoms.
 GradGradGradGradGradGradGradGradGradGradGradGradGradGradGradGradGradGrad

 Leave Link  103 at Thu May 15 15:40:27 2025, MaxMem=   536870912 cpu:               0.1 elap:               0.0
 (Enter /home/szhao/Apps/g16/l202.exe)
                          Input orientation:                          
 ---------------------------------------------------------------------
 Center     Atomic      Atomic             Coordinates (Angstroms)
 Number     Number       Type             X           Y           Z
 ---------------------------------------------------------------------
      1          7           0       -1.590428    0.000000    0.000000
      2          7           0        1.590428    0.000000    0.000000
      3          1           0       -1.378320   -1.017086    0.000000
      4          1           0        1.378320    1.017086    0.000000
 ---------------------------------------------------------------------
                    Distance matrix (angstroms):
                    1          2          3          4
     1  N    0.000000
     2  N    3.180856   0.000000
     3  H    1.038968   3.138141   0.000000
     4  H    3.138141   1.038968   3.425919   0.000000
 Symmetry turned off by external request.
 Stoichiometry    H2N2
 Framework group  C2[X(H2N2)]
 Deg. of freedom     4
 Full point group                 C2      NOp   2
 Rotational constants (GHZ):         255.8514873           6.7582502           6.5843269
 Leave Link  202 at Thu May 15 15:40:27 2025, MaxMem=   536870912 cpu:               0.1 elap:               0.0
 (Enter /home/szhao/Apps/g16/l601.exe)
 Copying SCF densities to generalized density rwf, IOpCl= 1 IROHF=0.

 **********************************************************************

            Population analysis using the SCF density.

 **********************************************************************

 Alpha  occ. eigenvalues --  -14.88652 -14.88649  -0.93008  -0.92074  -0.49252
 Alpha  occ. eigenvalues --   -0.48689  -0.32206  -0.30569
 Alpha virt. eigenvalues --   -0.21041  -0.19218   0.05295   0.07176   0.10723
 Alpha virt. eigenvalues --    0.11582   0.13278   0.14775   0.15579   0.18045
 Alpha virt. eigenvalues --    0.19509   0.22955   0.52000   0.55059   0.71463
 Alpha virt. eigenvalues --    0.75447   0.77805   0.78621   0.80923   0.86373
 Alpha virt. eigenvalues --    0.94332   1.02991   1.28856   1.29023   1.30245
 Alpha virt. eigenvalues --    1.30506   1.89492   1.89518   1.96373   1.96668
 Alpha virt. eigenvalues --    1.96851   1.98274   2.33015   2.33394   2.33688
 Alpha virt. eigenvalues --    2.34586   2.45759   2.53099   2.91352   2.94962
 Alpha virt. eigenvalues --    3.73870   3.75885   3.78146   3.85293   4.31405
 Alpha virt. eigenvalues --    4.31535  35.29459  35.30355
  Beta  occ. eigenvalues --  -14.88652 -14.88649  -0.93008  -0.92074  -0.49252
  Beta  occ. eigenvalues --   -0.48689  -0.32206  -0.30569
  Beta virt. eigenvalues --   -0.21041  -0.19218   0.05295   0.07176   0.10723
  Beta virt. eigenvalues --    0.11582   0.13278   0.14775   0.15579   0.18045
  Beta virt. eigenvalues --    0.19509   0.22955   0.52000   0.55059   0.71463
  Beta virt. eigenvalues --    0.75447   0.77805   0.78621   0.80923   0.86373
  Beta virt. eigenvalues --    0.94332   1.02991   1.28856   1.29023   1.30245
  Beta virt. eigenvalues --    1.30506   1.89492   1.89518   1.96373   1.96668
  Beta virt. eigenvalues --    1.96851   1.98274   2.33015   2.33394   2.33688
  Beta virt. eigenvalues --    2.34586   2.45759   2.53099   2.91352   2.94962
  Beta virt. eigenvalues --    3.73870   3.75885   3.78146   3.85293   4.31405
  Beta virt. eigenvalues --    4.31535  35.29459  35.30355
          Condensed to atoms (all electrons):
               1          2          3          4
     1  N    6.898644   0.102149   0.237926   0.000013
     2  N    0.102149   6.898644   0.000013   0.237926
     3  H    0.237926   0.000013   0.523498  -0.000168
     4  H    0.000013   0.237926  -0.000168   0.523498
          Atomic-Atomic Spin Densities.
               1          2          3          4
     1  N   -0.000000  -0.000000  -0.000000   0.000000
     2  N   -0.000000   0.000000  -0.000000   0.000000
     3  H   -0.000000  -0.000000   0.000000   0.000000
     4  H    0.000000   0.000000   0.000000  -0.000000
 Mulliken charges and spin densities:
               1          2
     1  N   -0.238732  -0.000000
     2  N   -0.238732   0.000000
     3  H    0.238732   0.000000
     4  H    0.238732  -0.000000
 Sum of Mulliken charges =  -0.00000  -0.00000
 Mulliken charges and spin densities with hydrogens summed into heavy atoms:
               1          2
     1  N    0.000000  -0.000000
     2  N   -0.000000   0.000000
 Electronic spatial extent (au):  <R**2>=            177.1118
 Charge=             -0.0000 electrons
 Dipole moment (field-independent basis, Debye):
    X=             -0.0000    Y=             -0.0000    Z=              0.0000  Tot=              0.0000
 Quadrupole moment (field-independent basis, Debye-Ang):
   XX=            -14.5136   YY=            -11.2215   ZZ=            -14.2057
   XY=              5.2812   XZ=             -0.0000   YZ=             -0.0000
 Traceless Quadrupole moment (field-independent basis, Debye-Ang):
   XX=             -1.2000   YY=              2.0921   ZZ=             -0.8921
   XY=              5.2812   XZ=             -0.0000   YZ=             -0.0000
 Octapole moment (field-independent basis, Debye-Ang**2):
  XXX=              0.0000  YYY=             -0.0000  ZZZ=             -0.0000  XYY=             -0.0000
  XXY=              0.0000  XXZ=              0.0000  XZZ=             -0.0000  YZZ=              0.0000
  YYZ=              0.0000  XYZ=              0.0000
 Hexadecapole moment (field-independent basis, Debye-Ang**3):
 XXXX=           -223.0908 YYYY=            -17.3450 ZZZZ=            -17.3722 XXXY=              8.3406
 XXXZ=             -0.0000 YYYX=              1.3050 YYYZ=             -0.0000 ZZZX=             -0.0000
 ZZZY=             -0.0000 XXYY=            -34.8744 XXZZ=            -39.2923 YYZZ=             -6.4563
 XXYZ=             -0.0000 YYXZ=             -0.0000 ZZXY=             -0.8565
 N-N= 1.779765871841D+01 E-N=-2.935689717185D+02  KE= 1.096365927333D+02
                          Isotropic Fermi Contact Couplings
        Atom                 a.u.       MegaHertz       Gauss      10(-4) cm-1
     1  N(14)              0.00000       0.00000       0.00000       0.00000
     2  N(14)             -0.00000      -0.00000      -0.00000      -0.00000
     3  H(1)               0.00000       0.00000       0.00000       0.00000
     4  H(1)              -0.00000      -0.00000      -0.00000      -0.00000
 --------------------------------------------------------
       Center         ----  Spin Dipole Couplings  ----
                      3XX-RR        3YY-RR        3ZZ-RR
 --------------------------------------------------------
     1   Atom       -0.000000      0.000000      0.000000
     2   Atom        0.000000     -0.000000     -0.000000
     3   Atom       -0.000000     -0.000000      0.000000
     4   Atom        0.000000      0.000000     -0.000000
 --------------------------------------------------------
                        XY            XZ            YZ
 --------------------------------------------------------
     1   Atom       -0.000000     -0.000007     -0.000001
     2   Atom        0.000000     -0.000007     -0.000001
     3   Atom        0.000000     -0.000000     -0.000000
     4   Atom       -0.000000     -0.000000     -0.000000
 --------------------------------------------------------


 ---------------------------------------------------------------------------------
              Anisotropic Spin Dipole Couplings in Principal Axis System
 ---------------------------------------------------------------------------------

       Atom             a.u.   MegaHertz   Gauss  10(-4) cm-1        Axes

              Baa    -0.0000    -0.000    -0.000    -0.000  0.7068  0.1447  0.6924
     1 N(14)  Bbb     0.0000     0.000     0.000     0.000 -0.2002  0.9798 -0.0004
              Bcc     0.0000     0.000     0.000     0.000 -0.6785 -0.1383  0.7215
 
              Baa    -0.0000    -0.000    -0.000    -0.000  0.6785  0.1383  0.7215
     2 N(14)  Bbb    -0.0000    -0.000    -0.000    -0.000 -0.2002  0.9798  0.0004
              Bcc     0.0000     0.000     0.000     0.000  0.7068  0.1447 -0.6924
 
              Baa    -0.0000    -0.000    -0.000    -0.000  0.7052  0.1484  0.6933
     3 H(1)   Bbb    -0.0000    -0.000    -0.000    -0.000 -0.2070  0.9783  0.0012
              Bcc     0.0000     0.000     0.000     0.000 -0.6781 -0.1443  0.7207
 
              Baa    -0.0000    -0.000    -0.000    -0.000  0.6781  0.1443  0.7207
     4 H(1)   Bbb     0.0000     0.000     0.000     0.000 -0.2070  0.9783 -0.0012
              Bcc     0.0000     0.000     0.000     0.000  0.7052  0.1484 -0.6933
 

 ---------------------------------------------------------------------------------

 No NMR shielding tensors so no spin-rotation constants.
 Leave Link  601 at Thu May 15 15:40:27 2025, MaxMem=   536870912 cpu:               1.1 elap:               0.1
 (Enter /home/szhao/Apps/g16/l9999.exe)
 1\1\GINC-NODE01\FOpt\UM062X\6-311+G(d,p)\H2N2\SZHAO\15-May-2025\0\\#p 
 opt UM062X/6-311+G** nosymm int=superfine\\Title Card Required\\0,1\N,
 -1.59042801,0.,0.\N,1.59042801,0.,0.\H,-1.3783197997,-1.0170863352,0.0
 000000832\H,1.3783197954,1.0170863289,0.0000000832\\Version=ES64L-G16R
 evA.03\HF=-110.2021263\S2=0.\S2-1=0.\S2A=0.\RMSD=9.620e-09\RMSF=6.575e
 -06\Dipole=0.,0.,0.0000001\Quadrupole=-0.8921562,1.5554454,-0.6632892,
 3.9264728,-0.0000011,-0.0000002\PG=C02 [X(H2N2)]\\@


 SOME THINGS ARE EASY, THEY ARE ONLY HARD TO DO.
            -- A. EINSTEIN TO J. O. HIRSCHFELDER
 THE ONLY TROUBLE WITH A SURE THING IS THE UNCERTAINTY.
     -- FROM A TEABAG (BELONGING TO W.H.?)
 Job cpu time:       0 days  0 hours  2 minutes 25.6 seconds.
 Elapsed time:       0 days  0 hours  0 minutes 18.7 seconds.
 File lengths (MBytes):  RWF=      6 Int=      0 D2E=      0 Chk=      1 Scr=      1
 Normal termination of Gaussian 16 at Thu May 15 15:40:27 2025.
