Title Card Required                                                     
FOpt      UM062X                                                      6-311+G(d,p)        
Number of atoms                            I                4
Info1-9                                    I   N=           9
          13          13           0           0           0         110
           2          18        -502
Full Title                                 C   N=           2
Title Card Required     
Route                                      C   N=           4
#p opt UM062X/6-311+G** nosymm int=superfine    
Charge                                     I                0
Multiplicity                               I                1
Number of electrons                        I               14
Number of alpha electrons                  I                7
Number of beta electrons                   I                7
Number of basis functions                  I               56
Number of independent functions            I               56
Number of point charges in /Mol/           I                0
Number of translation vectors              I                0
Atomic numbers                             I   N=           4
           6           6           1           1
Nuclear charges                            R   N=           4
  6.00000000E+00  6.00000000E+00  1.00000000E+00  1.00000000E+00
Current cartesian coordinates              R   N=          12
 -1.76440739E+00  0.00000000E+00  0.00000000E+00  1.76440739E+00  0.00000000E+00
  0.00000000E+00 -3.80788854E+00 -9.70700882E-08 -6.17230280E-08  3.80778891E+00
  7.86827543E-08 -3.98211086E-08
Number of symbols in /Mol/                 I                0
Force Field                                I                0
Atom Types                                 C   N=           4
                                                
Int Atom Types                             I   N=           4
           0           0           0           0
MM charges                                 R   N=           4
  0.00000000E+00  0.00000000E+00  0.00000000E+00  0.00000000E+00
Integer atomic weights                     I   N=           4
          12          12           1           1
Real atomic weights                        R   N=           4
  1.20000000E+01  1.20000000E+01  1.00782504E+00  1.00782504E+00
Atom fragment info                         I   N=           4
           0           0           0           0
Atom residue num                           I   N=           4
           0           0           0           0
Nuclear spins                              I   N=           4
           0           0           1           1
Nuclear ZEff                               R   N=           4
 -3.60000000E+00 -3.60000000E+00 -1.00000000E+00 -1.00000000E+00
Nuclear ZNuc                               R   N=           4
  6.00000000E+00  6.00000000E+00  1.00000000E+00  1.00000000E+00
Nuclear QMom                               R   N=           4
  0.00000000E+00  0.00000000E+00  0.00000000E+00  0.00000000E+00
Nuclear GFac                               R   N=           4
  0.00000000E+00  0.00000000E+00  2.79284600E+00  2.79284600E+00
MicOpt                                     I   N=           4
          -2          -2          -1          -1
Number of residues                         I                0
Number of secondary structures             I                0
Redundant internal dimensions              I   N=           4
          12           8           4           0
Redundant internal coordinate indices      I   N=          48
           1          -1           0           0           1          -2
           0           0           1          -3           0           0
           2          -1           0           0           2          -2
           0           0           2          -3           0           0
           1           3           0           0           2           4
           0           0           2           1           3          -4
           1           2           4          -4           2           1
           3          -8           1           2           4          -8
Redundant internal coordinates             R   N=          12
 -1.76440739E+00  0.00000000E+00  0.00000000E+00  1.76440739E+00  0.00000000E+00
  0.00000000E+00  2.04348116E+00  2.04338152E+00  3.14159268E+00  3.14159264E+00
  3.14159261E+00  3.14159261E+00
ZRed-IntVec                                I   N=          12
          -1          -1          -1          -1          -1          -1
           0           0           0           0           0           0
ZRed-FPVec                                 R   N=          12
  0.00000000E+00  0.00000000E+00  0.00000000E+00  0.00000000E+00  0.00000000E+00
  0.00000000E+00  0.00000000E+00  0.00000000E+00  0.00000000E+00  0.00000000E+00
  0.00000000E+00  0.00000000E+00
ZRed-Constraint1                           R   N=          12
 -1.76440739E+00  0.00000000E+00  0.00000000E+00  1.76440739E+00  0.00000000E+00
  0.00000000E+00  3.13784873E+00  3.13780156E+00  3.14159265E+00  3.14159265E+00
  3.14159265E+00  3.14159265E+00
ZRed-Constraint2                           R   N=          12
 -1.76440739E+00  0.00000000E+00  0.00000000E+00  1.76440739E+00  0.00000000E+00
  0.00000000E+00  0.00000000E+00  0.00000000E+00  0.00000000E+00  0.00000000E+00
  0.00000000E+00  0.00000000E+00
Number of contracted shells                I               20
Number of primitive shells                 I               38
Pure/Cartesian d shells                    I                0
Pure/Cartesian f shells                    I                0
Highest angular momentum                   I                2
Largest degree of contraction              I                6
Shell types                                I   N=          20
           0          -1          -1          -1          -1          -2
           0          -1          -1          -1          -1          -2
           0           0           0           1           0           0
           0           1
Number of primitives per shell             I   N=          20
           6           3           1           1           1           1
           6           3           1           1           1           1
           3           1           1           1           3           1
           1           1
Shell to atom map                          I   N=          20
           1           1           1           1           1           1
           2           2           2           2           2           2
           3           3           3           3           4           4
           4           4
Primitive exponents                        R   N=          38
  4.56324000E+03  6.82024000E+02  1.54973000E+02  4.44553000E+01  1.30290000E+01
  1.82773000E+00  2.09642000E+01  4.80331000E+00  1.45933000E+00  4.83456000E-01
  1.45585000E-01  4.38000000E-02  6.26000000E-01  4.56324000E+03  6.82024000E+02
  1.54973000E+02  4.44553000E+01  1.30290000E+01  1.82773000E+00  2.09642000E+01
  4.80331000E+00  1.45933000E+00  4.83456000E-01  1.45585000E-01  4.38000000E-02
  6.26000000E-01  3.38650000E+01  5.09479000E+00  1.15879000E+00  3.25840000E-01
  1.02741000E-01  7.50000000E-01  3.38650000E+01  5.09479000E+00  1.15879000E+00
  3.25840000E-01  1.02741000E-01  7.50000000E-01
Contraction coefficients                   R   N=          38
  1.96665025E-03  1.52306019E-02  7.61269097E-02  2.60801033E-01  6.16462078E-01
  2.21006028E-01  1.14660081E-01  9.19999648E-01 -3.03068213E-03  1.00000000E+00
  1.00000000E+00  1.00000000E+00  1.00000000E+00  1.96665025E-03  1.52306019E-02
  7.61269097E-02  2.60801033E-01  6.16462078E-01  2.21006028E-01  1.14660081E-01
  9.19999648E-01 -3.03068213E-03  1.00000000E+00  1.00000000E+00  1.00000000E+00
  1.00000000E+00  2.54938145E-02  1.90373109E-01  8.52161486E-01  1.00000000E+00
  1.00000000E+00  1.00000000E+00  2.54938145E-02  1.90373109E-01  8.52161486E-01
  1.00000000E+00  1.00000000E+00  1.00000000E+00
P(S=P) Contraction coefficients            R   N=          38
  0.00000000E+00  0.00000000E+00  0.00000000E+00  0.00000000E+00  0.00000000E+00
  0.00000000E+00  4.02486927E-02  2.37593957E-01  8.15853851E-01  1.00000000E+00
  1.00000000E+00  1.00000000E+00  0.00000000E+00  0.00000000E+00  0.00000000E+00
  0.00000000E+00  0.00000000E+00  0.00000000E+00  0.00000000E+00  4.02486927E-02
  2.37593957E-01  8.15853851E-01  1.00000000E+00  1.00000000E+00  1.00000000E+00
  0.00000000E+00  0.00000000E+00  0.00000000E+00  0.00000000E+00  0.00000000E+00
  0.00000000E+00  0.00000000E+00  0.00000000E+00  0.00000000E+00  0.00000000E+00
  0.00000000E+00  0.00000000E+00  0.00000000E+00
Coordinates of each shell                  R   N=          60
 -1.76440739E+00  0.00000000E+00  0.00000000E+00 -1.76440739E+00  0.00000000E+00
  0.00000000E+00 -1.76440739E+00  0.00000000E+00  0.00000000E+00 -1.76440739E+00
  0.00000000E+00  0.00000000E+00 -1.76440739E+00  0.00000000E+00  0.00000000E+00
 -1.76440739E+00  0.00000000E+00  0.00000000E+00  1.76440739E+00  0.00000000E+00
  0.00000000E+00  1.76440739E+00  0.00000000E+00  0.00000000E+00  1.76440739E+00
  0.00000000E+00  0.00000000E+00  1.76440739E+00  0.00000000E+00  0.00000000E+00
  1.76440739E+00  0.00000000E+00  0.00000000E+00  1.76440739E+00  0.00000000E+00
  0.00000000E+00 -3.80788854E+00 -9.70700882E-08 -6.17230280E-08 -3.80788854E+00
 -9.70700882E-08 -6.17230280E-08 -3.80788854E+00 -9.70700882E-08 -6.17230280E-08
 -3.80788854E+00 -9.70700882E-08 -6.17230280E-08  3.80778891E+00  7.86827543E-08
 -3.98211086E-08  3.80778891E+00  7.86827543E-08 -3.98211086E-08  3.80778891E+00
  7.86827543E-08 -3.98211086E-08  3.80778891E+00  7.86827543E-08 -3.98211086E-08
Num ILSW                                   I              100
ILSW                                       I   N=         100
           1           0           0           1           2           0
           0           0           0           0        4336          -1
           7           0           0           0           2           0
           0           0           0           0           1           0
           1           1           0           0           0           0
           0           0      100000           0          -1           0
           0           0           0           0           0           0
           0           0           0           1           0           0
           0 -2000000000           1           0           0           0
           0           0           4          52           0           0
           0           0          55           0           0           0
           0           0           0           4           0           1
           0           0           0           0           0           0
           0           0           0           0           0           0
           0           0           0           0           0           0
           0           0           0           0           0           0
           0           0           0           0
Num RLSW                                   I               52
RLSW                                       R   N=          52
  1.00000000E+00  1.00000000E+00  1.00000000E+00  1.00000000E+00  5.40000000E-01
  0.00000000E+00  0.00000000E+00  1.00000000E+00  0.00000000E+00  0.00000000E+00
  0.00000000E+00  0.00000000E+00  1.00000000E+00  0.00000000E+00  0.00000000E+00
  0.00000000E+00  0.00000000E+00  1.00000000E+00  0.00000000E+00  0.00000000E+00
  0.00000000E+00  0.00000000E+00  1.00000000E+00  0.00000000E+00  0.00000000E+00
  0.00000000E+00  0.00000000E+00  1.00000000E+00  0.00000000E+00  0.00000000E+00
  0.00000000E+00  0.00000000E+00  1.00000000E+00  0.00000000E+00  0.00000000E+00
  0.00000000E+00  0.00000000E+00  0.00000000E+00  1.00000000E+00  1.00000000E+00
  0.00000000E+00  1.00000000E+00  0.00000000E+00  0.00000000E+00  0.00000000E+00
  0.00000000E+00  0.00000000E+00  0.00000000E+00  0.00000000E+00  0.00000000E+00
  0.00000000E+00  0.00000000E+00
MxBond                                     I                2
NBond                                      I   N=           4
           2           2           1           1
IBond                                      I   N=           8
           2           3           1           4           1           0
           2           0
RBond                                      R   N=           8
  1.00000000E-01  1.00000000E-01  1.00000000E-01  1.00000000E-01  1.00000000E-01
  0.00000000E+00  1.00000000E-01  0.00000000E+00
Virial Ratio                               R      2.016739232047970E+00
SCF Energy                                 R     -7.699349810274586E+01
Total Energy                               R     -7.699349810274586E+01
S**2                                       R     -2.309263891220326E-14
S**2 after annihilation                    R     -2.309263891220311E-14
RMS Force                                  R      7.793030613000583E-06
RMS Density                                R      3.703018081365464E-09
Job Status                                 I                1
Nuclear derivative order                   I                1
External E-field                           R   N=          35
  0.00000000E+00  0.00000000E+00  0.00000000E+00  0.00000000E+00  0.00000000E+00
  0.00000000E+00  0.00000000E+00  0.00000000E+00  0.00000000E+00  0.00000000E+00
  0.00000000E+00  0.00000000E+00  0.00000000E+00  0.00000000E+00  0.00000000E+00
  0.00000000E+00  0.00000000E+00  0.00000000E+00  0.00000000E+00  0.00000000E+00
  0.00000000E+00  0.00000000E+00  0.00000000E+00  0.00000000E+00  0.00000000E+00
  0.00000000E+00  0.00000000E+00  0.00000000E+00  0.00000000E+00  0.00000000E+00
  0.00000000E+00  0.00000000E+00  0.00000000E+00  0.00000000E+00  0.00000000E+00
IOpCl                                      I                1
IROHF                                      I                0
Alpha Orbital Energies                     R   N=          56
 -1.06787911E+01 -1.06785729E+01 -7.65726010E-01 -7.07143328E-01 -5.09398145E-01
 -2.91048650E-01 -2.91048650E-01 -7.05067852E-02 -7.05067852E-02 -4.54472552E-02
  2.26117804E-02  3.74676032E-02  8.60146125E-02  8.60146125E-02  9.74162062E-02
  1.07479601E-01  1.07479601E-01  1.72178352E-01  2.19013296E-01  2.53958878E-01
  4.68940633E-01  5.77047969E-01  5.77047969E-01  5.79805451E-01  6.02090962E-01
  6.02090962E-01  6.82973921E-01  7.56307584E-01  8.10168716E-01  9.67242951E-01
  1.02303881E+00  1.02303881E+00  1.28707550E+00  1.28707550E+00  1.30294277E+00
  1.30294293E+00  1.39408997E+00  1.39409014E+00  1.44386853E+00  1.75242089E+00
  1.75242089E+00  1.79846843E+00  2.04887716E+00  2.04887716E+00  2.27759227E+00
  2.51508482E+00  2.66486231E+00  2.70150037E+00  2.70150037E+00  2.74992964E+00
  2.74992964E+00  3.01563897E+00  3.30724827E+00  3.36385845E+00  2.35627746E+01
  2.36579578E+01
Beta Orbital Energies                      R   N=          56
 -1.06787911E+01 -1.06785729E+01 -7.65726010E-01 -7.07143328E-01 -5.09398145E-01
 -2.91048650E-01 -2.91048650E-01 -7.05067852E-02 -7.05067852E-02 -4.54472552E-02
  2.26117804E-02  3.74676032E-02  8.60146125E-02  8.60146125E-02  9.74162062E-02
  1.07479601E-01  1.07479601E-01  1.72178352E-01  2.19013296E-01  2.53958878E-01
  4.68940633E-01  5.77047969E-01  5.77047969E-01  5.79805451E-01  6.02090962E-01
  6.02090962E-01  6.82973921E-01  7.56307584E-01  8.10168716E-01  9.67242951E-01
  1.02303881E+00  1.02303881E+00  1.28707550E+00  1.28707550E+00  1.30294277E+00
  1.30294293E+00  1.39408997E+00  1.39409014E+00  1.44386853E+00  1.75242089E+00
  1.75242089E+00  1.79846843E+00  2.04887716E+00  2.04887716E+00  2.27759227E+00
  2.51508482E+00  2.66486231E+00  2.70150037E+00  2.70150037E+00  2.74992964E+00
  2.74992964E+00  3.01563897E+00  3.30724827E+00  3.36385845E+00  2.35627746E+01
  2.36579578E+01
Alpha MO coefficients                      R   N=        3136
  4.03124327E-01  3.31550756E-01  6.72359533E-04 -9.45243708E-11  1.27931168E-11
  7.40695679E-03 -2.27946645E-03 -6.52174754E-11 -7.22209221E-11 -3.44140871E-03
  5.59352932E-04  4.42003210E-12  1.39826647E-11 -4.04185267E-04  1.38724378E-03
  9.49664974E-11  2.69605725E-11 -5.01835327E-04  5.48470441E-11 -1.39006220E-15
  8.69204284E-04  8.52978804E-11  3.94942758E-01  3.24822577E-01 -6.62571438E-04
  1.01583965E-10  3.67424884E-11  7.25050699E-03  2.23389457E-03  4.03296743E-11
 -5.77602526E-11 -3.34573147E-03 -6.32651773E-04 -2.03955254E-13  1.38827806E-11
 -5.11140617E-04 -1.33915049E-03 -8.90901281E-11  3.87374586E-12 -4.88748513E-04
 -3.45943821E-11  1.36349928E-15  8.46537256E-04  6.72298276E-11  6.49704551E-05
 -2.90756309E-03  3.19243685E-03 -1.75317756E-03 -8.36862330E-11 -4.92850608E-11
  6.17633889E-05 -2.82187903E-03  3.17185035E-03  1.71224705E-03  6.72555603E-11
 -2.93615371E-11 -3.94969767E-01 -3.24804031E-01 -4.72617947E-04  8.99579325E-11
 -1.00797987E-11 -7.57983719E-03  2.22718045E-03  8.01639443E-11  6.78514986E-11
  4.62613846E-03  3.57951286E-03  4.52219043E-11  3.20736548E-11 -5.16928037E-03
 -2.31844763E-03 -1.45971173E-11 -8.33368146E-12  6.39580485E-04 -7.59583455E-11
  1.34489764E-15 -1.10778590E-03 -1.05059500E-10  4.03150762E-01  3.31532475E-01
 -4.86347026E-04  9.99765191E-11  3.43228791E-11  7.73062723E-03  2.27408604E-03
  5.95358081E-11 -5.19031992E-11 -4.69540703E-03  3.56735389E-03  3.54839443E-11
 -2.16548743E-11  5.15976176E-03 -2.34639769E-03 -1.40465351E-11  5.05416113E-12
 -6.49873974E-04 -5.33799949E-11  1.37108517E-15  1.12561474E-03  8.31957161E-11
 -1.48801800E-04  4.18743535E-03 -9.93987223E-04  1.99665870E-03  1.19572249E-10
  6.90555139E-11  1.49933760E-04 -4.24703205E-03  1.05943516E-03  2.03257038E-03
  1.00924279E-10 -4.23743944E-11 -8.06876014E-02 -1.30451312E-01 -1.98067775E-02
 -2.28998776E-09 -1.29663424E-09  3.61150832E-01 -2.12424173E-02 -3.98305669E-09
 -1.80066003E-09  2.56684692E-01 -1.11903377E-02 -1.39423949E-09 -7.05346937E-10
  3.08894651E-03 -1.23929404E-02 -6.61847626E-10 -1.91175802E-10 -9.00285120E-03
  5.24226923E-10 -3.93857073E-14  1.55933957E-02  6.40305234E-10 -8.07012823E-02
 -1.30473273E-01  1.98250099E-02  1.91623243E-09 -7.72853650E-10  3.61209996E-01
  2.12647297E-02  3.49965636E-09 -8.68644836E-10  2.56721784E-01  1.11973933E-02
  1.19826836E-09 -3.82329277E-10  3.08027074E-03  1.23964760E-02  6.21345890E-10
 -3.10747094E-11 -9.00426295E-03 -3.85260031E-10  3.93847173E-14  1.55958409E-02
  4.75803297E-10  9.09973188E-02  1.11767282E-01 -2.90690203E-03  1.28199026E-02
  4.86041903E-10  3.15993233E-10  9.10262434E-02  1.11799425E-01 -2.90466406E-03
 -1.28238738E-02 -3.91354301E-10  2.06576456E-10 -6.90604112E-02 -1.11614450E-01
 -7.90652934E-02 -3.62948137E-09 -1.86977080E-09  3.11545919E-01 -1.08451486E-01
 -5.60300661E-09 -2.48987849E-09  2.19756840E-01 -5.23675723E-02 -2.03194633E-09
 -1.05688615E-09 -8.64931110E-02 -3.69110076E-02 -1.96206620E-10 -2.80277360E-10
 -6.07541263E-03  6.93300431E-10 -3.47263390E-14  1.05229234E-02  1.06644115E-09
  6.90438079E-02  1.11587363E-01 -7.90722299E-02 -3.10421838E-09  1.03060484E-09
 -3.11468523E-01 -1.08459420E-01 -4.93998805E-09  1.17567211E-09 -2.19691860E-01
 -5.23682449E-02 -1.73313017E-09  5.87732840E-10  8.64945352E-02 -3.69069641E-02
 -1.01938505E-10  2.43084987E-10  6.07356023E-03  4.53400863E-10 -3.47434734E-14
 -1.05197149E-02 -8.58879534E-10  1.24088480E-01  1.58629922E-01  1.34481634E-02
  1.79530001E-02  8.42556813E-10  5.84454728E-10 -1.24081054E-01 -1.58614864E-01
 -1.34503489E-02  1.79516716E-02  6.65121293E-10 -3.96760610E-10 -2.15183690E-02
 -3.57587836E-02  1.67380645E-01  4.54756427E-09  2.94987089E-09  1.03976248E-01
  2.43326087E-01  5.39916161E-09  3.94567529E-09  1.18062174E-01  1.34012779E-01
  3.98231974E-09  2.31800962E-09  2.49768788E-03  1.55051067E-03  3.93678492E-10
  7.43218320E-11 -2.53487291E-03 -4.19470230E-10 -1.15165811E-14  4.39052867E-03
 -1.50318045E-09 -2.15212755E-02 -3.57637317E-02 -1.67379253E-01 -3.66485454E-09
  1.92643545E-09  1.03991481E-01 -2.43320656E-01 -4.18723901E-09  2.75097526E-09
  1.18081280E-01 -1.34007364E-01 -3.30739538E-09  1.40934940E-09  2.48747391E-03
 -1.54501609E-03 -3.84309626E-10 -2.25651283E-11 -2.53514354E-03  5.53788781E-11
  1.15400097E-14  4.39099742E-03 -1.41718156E-09 -1.12175066E-01 -1.68829661E-01
 -5.25435402E-02 -1.55599229E-02 -1.06857895E-09 -6.72518270E-10 -1.12171649E-01
 -1.68818887E-01 -5.25414115E-02  1.55593255E-02  8.68880254E-10 -4.31149471E-10
 -3.67357765E-09 -6.16072265E-09  2.84465867E-10  1.80832941E-01  2.21103762E-02
  1.86425907E-08 -1.70481837E-09  2.80994907E-01  3.43571424E-02  2.54440042E-08
 -6.99273646E-09  2.81441747E-01  3.44117773E-02 -3.55850012E-09 -3.36902381E-09
  4.10407527E-02  5.01803751E-03  7.99926448E-10  1.09940851E-03 -3.44913705E-10
  7.48546381E-10  8.99167304E-03  3.42753383E-09  5.75450016E-09  2.32996653E-09
  1.80833222E-01  2.21104105E-02 -1.74810819E-08  1.69894243E-09  2.80995695E-01
  3.43572387E-02 -2.33461417E-08 -4.43747395E-09  2.81442259E-01  3.44118399E-02
  3.87750558E-09 -2.88269438E-09  4.10399546E-02  5.01793993E-03 -7.74754570E-10
 -1.09941367E-03  1.87619784E-10 -7.73877094E-10 -8.99171527E-03 -4.96852153E-09
 -1.12038026E-08 -7.70892204E-09 -1.96211776E-09  1.76098071E-02  2.15314454E-03
  4.65699147E-09  1.08413618E-08  7.85534310E-09 -1.60565999E-09  1.76108299E-02
  2.15326960E-03 -4.04908537E-10 -6.68980894E-10 -3.29407625E-09 -2.21103762E-02
  1.80832941E-01  1.91759088E-09 -5.48766183E-09 -3.43571424E-02  2.80994907E-01
  3.43427214E-09 -4.13153071E-09 -3.44117773E-02  2.81441747E-01  5.03987407E-10
 -7.89854430E-10 -5.01803751E-03  4.10407527E-02 -2.72032295E-10  8.99167304E-03
 -1.06610216E-09 -2.19917227E-10 -1.09940851E-03 -3.88385277E-10 -6.41313854E-10
  3.30042090E-09 -2.21104105E-02  1.80833222E-01  1.83398391E-09  5.48761374E-09
 -3.43572387E-02  2.80995695E-01  3.31889003E-09  4.10543990E-09 -3.44118399E-02
  2.81442259E-01  5.23342582E-10  7.74618233E-10 -5.01793993E-03  4.10399546E-02
  1.90225998E-10 -8.99171527E-03  1.05713852E-09  4.50841667E-11  1.09941367E-03
 -5.13186320E-10 -6.10700769E-10  2.21882210E-10 -5.79550496E-10 -2.15314454E-03
  1.76098071E-02 -4.90896756E-10 -5.58740506E-10  2.58370324E-10  5.70910130E-10
 -2.15326960E-03  1.76108299E-02 -8.33463517E-09 -1.39162430E-08  4.63916141E-09
  1.42905725E-01  1.33656684E-01  4.09657420E-08  4.03212782E-09  2.15148960E-01
  2.01224245E-01  8.31263002E-08 -1.02443992E-08  2.69052754E-01  2.51639316E-01
  1.47651435E-07  5.32266058E-08  1.94292729E-01  1.81717856E-01  1.93520624E-09
 -1.53205918E-02 -1.00544191E-09 -2.02006136E-09 -1.63807766E-02  6.69071626E-09
  1.11686259E-08  1.51346704E-08 -1.42905339E-01 -1.33656323E-01 -3.39741458E-08
  2.18442524E-08 -2.15148591E-01 -2.01223900E-01 -5.91970202E-08  1.18039222E-08
 -2.69052286E-01 -2.51638879E-01 -1.33797567E-07  6.44254981E-08 -1.94291518E-01
 -1.81716724E-01 -1.09501239E-09 -1.53205328E-02 -7.72034495E-10  3.53115853E-09
 -1.63807135E-02 -1.40257751E-08 -3.70314928E-08 -4.23950063E-08 -1.24431631E-09
  1.92995188E-02  1.80504293E-02  9.57695555E-09  2.50812143E-08  2.94176178E-08
  7.48026883E-10 -1.92998697E-02 -1.80507575E-02 -4.99282291E-09 -8.33433007E-09
  1.11649563E-08 -1.33656684E-01  1.42905725E-01  2.53392574E-08  1.60913880E-08
 -2.01224245E-01  2.15148960E-01  4.42607010E-08  8.58343575E-09 -2.51639316E-01
  2.69052754E-01  9.96571720E-08  4.78294792E-08 -1.81717856E-01  1.94292729E-01
  4.65311851E-10 -1.63807766E-02 -6.65633978E-10 -2.81997228E-09  1.53205918E-02
  6.18601230E-09  1.03285811E-08  3.54657848E-09  1.33656323E-01 -1.42905339E-01
 -3.04132787E-08  3.16055237E-09  2.01223900E-01 -2.15148591E-01 -6.16350519E-08
 -7.42257517E-09  2.51638879E-01 -2.69052286E-01 -1.09719547E-07  3.96933335E-08
  1.81716724E-01 -1.94291518E-01 -1.68350696E-09 -1.63807135E-02 -8.16012270E-10
  1.37110790E-09  1.53205328E-02 -7.16571709E-09 -1.87682722E-08 -2.20045746E-08
  5.39129994E-10 -1.80504293E-02  1.92995188E-02  1.03950508E-08  2.74431215E-08
  3.14254211E-08 -9.08307449E-10  1.80507575E-02 -1.92998697E-02  6.66792585E-02
  1.11428058E-01 -1.05770931E-01  9.93835519E-09  2.56770056E-08 -3.33800416E-01
 -1.38060445E-01  1.71516747E-08  3.92108744E-08 -6.56801113E-01 -1.34617817E-01
  2.39709777E-08  5.35861878E-08 -2.17971321E+00 -9.95129889E-01  1.04695590E-08
  3.88357593E-08 -1.59938044E-02 -2.50378668E-09  4.27933983E-14  2.77020819E-02
  1.18322661E-09 -6.66765037E-02 -1.11423672E-01 -1.05783594E-01  8.80509599E-10
 -2.43282217E-08  3.33787625E-01 -1.38075822E-01  3.41277869E-09 -3.66472523E-08
  6.56782374E-01 -1.34640433E-01  5.21641552E-09 -4.99483779E-08  2.17974952E+00
 -9.95083555E-01 -3.43763633E-09 -3.79598659E-08  1.59931700E-02 -2.92116467E-09
  4.27092473E-14 -2.77009831E-02 -2.16578518E-09  9.63616178E-02  2.49411135E-01
  2.62736665E-01 -6.09638924E-03  1.84161119E-09  4.04992276E-09 -9.63565262E-02
 -2.49390852E-01 -2.62724784E-01 -6.09377740E-03  4.25611980E-10 -3.76729046E-09
  1.84553693E-02  3.19213696E-02  3.25173157E-02  8.01634831E-11  3.87057665E-10
 -1.09853858E-01  6.67307310E-02  1.99853388E-09  1.50723256E-09 -1.06514805E-01
  3.98880218E-02 -3.98531639E-09 -1.10249881E-09  1.10719765E+00 -9.68938307E-01
 -5.40461982E-08 -1.60312442E-08  7.25780599E-03 -6.65492362E-10  3.18926996E-15
 -1.25708887E-02 -9.09479933E-10  1.84590546E-02  3.19278587E-02 -3.25104350E-02
  5.93860125E-11  3.84571280E-10 -1.09877528E-01 -6.67282173E-02 -1.53242025E-09
  1.06762159E-09 -1.06533850E-01 -3.98440423E-02  3.76093620E-09 -1.37450812E-10
  1.10705713E+00  9.69051339E-01  5.06019956E-08 -2.99245036E-09  7.25784515E-03
  4.64369144E-10 -3.23795563E-15 -1.25709566E-02 -7.04959924E-10 -2.45458264E-02
  1.07123395E-01 -6.70339291E-01 -7.01469296E-03 -5.06113128E-10 -1.77575537E-10
 -2.45434281E-02  1.07137483E-01 -6.70393719E-01  7.01277110E-03  4.63456390E-10
 -5.65779409E-11 -1.37470806E-02 -2.18226513E-02  7.75106742E-02 -1.16755538E-09
 -2.46129946E-09  3.90765993E-02  1.28773497E-01 -1.83948464E-09 -3.40107611E-09
  4.05172192E-01 -7.09020208E-02 -1.02350820E-08 -1.08317581E-08 -4.42527304E+00
 -2.82546314E+00 -2.79776574E-08 -4.38092234E-08  9.82283158E-03 -1.30029812E-11
 -1.51491510E-14 -1.70136434E-02 -1.08179250E-09  1.37474299E-02  2.18232789E-02
  7.75100170E-02 -3.09614248E-10  2.27708842E-09 -3.90772883E-02  1.28771948E-01
 -6.64671783E-10  3.08885630E-09 -4.05205226E-01 -7.09176682E-02 -6.69530320E-09
  8.72211978E-09  4.42533761E+00 -2.82538094E+00 -1.30357830E-08  3.86982294E-08
 -9.82219978E-03  2.62241486E-10 -1.51040329E-14  1.70125491E-02  1.12683926E-09
 -6.11392230E-02 -7.06925518E-02 -9.19964459E-01 -1.36268936E-02 -1.21794414E-09
 -1.22743246E-09  6.11368335E-02  7.07027669E-02  9.19927847E-01 -1.36256705E-02
 -8.19409775E-10  9.73530658E-10 -2.14570593E-10 -3.47677505E-10  1.20167971E-09
 -8.04223506E-02 -9.33830688E-03  3.93741916E-10  2.10150960E-09 -7.11285257E-02
 -8.25914682E-03  1.46381356E-08 -1.62390196E-08 -3.53604622E-01 -4.10590894E-02
 -2.06879819E-07 -1.04381931E-07  6.76222227E-01  7.85200959E-02 -3.96588885E-10
 -2.38684031E-04  1.65665837E-10 -2.00441491E-10 -2.05556864E-03  2.96042310E-10
  4.89357150E-10  8.51641961E-10 -8.04190520E-02 -9.33792386E-03 -1.06255301E-09
  1.77661836E-09 -7.11252044E-02 -8.25876117E-03 -1.27538881E-08 -1.61648457E-08
 -3.53592529E-01 -4.10576851E-02  2.11841926E-07 -9.70104288E-08  6.76179730E-01
  7.85151613E-02  3.23945979E-10  2.38665645E-04 -4.91927451E-11  3.11411167E-10
  2.05541031E-03  3.77073583E-10 -9.31987067E-09 -2.62238003E-08 -8.27922648E-11
  3.07451788E-03  3.57000153E-04 -1.58249017E-10  8.32998897E-09  2.22895396E-08
 -6.27252271E-11  3.07371670E-03  3.56907123E-04  1.32265219E-10  2.30125046E-10
  5.85005892E-10  9.33830688E-03 -8.04223506E-02 -1.09668992E-09  5.51113522E-10
  8.25914682E-03 -7.11285257E-02  3.21814008E-09 -2.60186522E-10  4.10590894E-02
 -3.53604622E-01  6.41601452E-09 -1.29752488E-08 -7.85200959E-02  6.76222227E-01
  3.48632208E-11 -2.05556864E-03  4.43295228E-10  2.71493048E-10  2.38684031E-04
  1.36435201E-10  2.37110810E-10 -5.67988936E-10  9.33792386E-03 -8.04190520E-02
 -1.10892193E-09 -5.18444452E-10  8.25876117E-03 -7.11252044E-02  2.99106042E-09
 -1.08694033E-11  4.10576851E-02 -3.53592529E-01  9.92698972E-09  1.12873365E-08
 -7.85151612E-02  6.76179730E-01 -1.51661922E-10  2.05541031E-03 -4.36014175E-10
  1.65163536E-10 -2.38665645E-04  3.63035590E-10 -1.70566704E-09 -6.68188014E-09
 -3.34843139E-11 -3.57000153E-04  3.07451788E-03  3.58495599E-10 -1.55909549E-09
 -6.27681261E-09  3.26488418E-11 -3.56907123E-04  3.07371670E-03 -7.46593214E-03
 -1.18267975E-02  6.88775463E-02  2.76290118E-09  1.15506968E-09  2.15830201E-02
  4.72660541E-02  1.90174617E-09  7.31073496E-10  2.07337860E-01  3.38672623E-01
  1.51753017E-08  6.88149124E-09 -4.89149213E-01 -7.96523167E-01  9.52704594E-09
  1.75971770E-09 -1.46321388E-02  7.03750950E-10  8.34586421E-15  2.53436079E-02
  5.55377138E-10 -7.46338296E-03 -1.18227370E-02 -6.88662959E-02 -2.46221440E-09
  5.03862083E-10  2.15733564E-02 -4.72472528E-02 -1.71848965E-09  2.79811681E-10
  2.07293358E-01 -3.38643623E-01 -1.33254105E-08  3.32962463E-09 -4.89290008E-01
  7.96596992E-01 -9.31685563E-09 -5.86667876E-10 -1.46337533E-02 -5.94732662E-10
 -8.28851569E-15  2.53464042E-02  3.20439835E-10  2.64607754E-02  7.02026635E-02
  4.56156165E-01 -2.56736532E-02 -1.71089938E-10 -2.85709180E-10  2.64598656E-02
  7.02011890E-02  4.56152590E-01  2.56756114E-02  7.32040537E-11 -2.55299181E-10
  5.38187769E-11  7.09345078E-11 -1.70349194E-09  2.10345688E-02  9.30668753E-02
  3.28675239E-10 -1.13177597E-09  2.02023654E-02  8.93848139E-02 -6.07908403E-09
 -9.05547802E-09  9.44581903E-02  4.17927684E-01  1.26783916E-07  6.41592402E-08
 -3.67690700E-01 -1.62683746E+00 -7.84620852E-11 -1.56322418E-03 -5.76048536E-10