 Entering Gaussian System, Link 0=g16
 Initial command:
 /home/szhao/Apps/g16/l1.exe "/home/szhao/tmp/Gau-26800.inp" -scrdir="/home/szhao/tmp/"
 Default is to use a total of  16 processors:
                               16 via shared-memory
                                1 via Linda
 Entering Link 1 = /home/szhao/Apps/g16/l1.exe PID=     26802.
  
 Copyright (c) 1988,1990,1992,1993,1995,1998,2003,2009,2016,
            Gaussian, Inc.  All Rights Reserved.
  
 This is part of the Gaussian(R) 16 program.  It is based on
 the Gaussian(R) 09 system (copyright 2009, Gaussian, Inc.),
 the Gaussian(R) 03 system (copyright 2003, Gaussian, Inc.),
 the Gaussian(R) 98 system (copyright 1998, Gaussian, Inc.),
 the Gaussian(R) 94 system (copyright 1995, Gaussian, Inc.),
 the Gaussian 92(TM) system (copyright 1992, Gaussian, Inc.),
 the Gaussian 90(TM) system (copyright 1990, Gaussian, Inc.),
 the Gaussian 88(TM) system (copyright 1988, Gaussian, Inc.),
 the Gaussian 86(TM) system (copyright 1986, Carnegie Mellon
 University), and the Gaussian 82(TM) system (copyright 1983,
 Carnegie Mellon University). Gaussian is a federally registered
 trademark of Gaussian, Inc.
  
 This software contains proprietary and confidential information,
 including trade secrets, belonging to Gaussian, Inc.
  
 This software is provided under written license and may be
 used, copied, transmitted, or stored only in accord with that
 written license.
  
 The following legend is applicable only to US Government
 contracts under FAR:
  
                    RESTRICTED RIGHTS LEGEND
  
 Use, reproduction and disclosure by the US Government is
 subject to restrictions as set forth in subparagraphs (a)
 and (c) of the Commercial Computer Software - Restricted
 Rights clause in FAR 52.227-19.
  
 Gaussian, Inc.
 340 Quinnipiac St., Bldg. 40, Wallingford CT 06492
  
  
 ---------------------------------------------------------------
 Warning -- This program may not be used in any manner that
 competes with the business of Gaussian, Inc. or will provide
 assistance to any competitor of Gaussian, Inc.  The licensee
 of this program is prohibited from giving any competitor of
 Gaussian, Inc. access to this program.  By using this program,
 the user acknowledges that Gaussian, Inc. is engaged in the
 business of creating and licensing software in the field of
 computational chemistry and represents and warrants to the
 licensee that it is not a competitor of Gaussian, Inc. and that
 it will not use this program in any manner prohibited above.
 ---------------------------------------------------------------
  

 Cite this work as:
 Gaussian 16, Revision A.03,
 M. J. Frisch, G. W. Trucks, H. B. Schlegel, G. E. Scuseria, 
 M. A. Robb, J. R. Cheeseman, G. Scalmani, V. Barone, 
 G. A. Petersson, H. Nakatsuji, X. Li, M. Caricato, A. V. Marenich, 
 J. Bloino, B. G. Janesko, R. Gomperts, B. Mennucci, H. P. Hratchian, 
 J. V. Ortiz, A. F. Izmaylov, J. L. Sonnenberg, D. Williams-Young, 
 F. Ding, F. Lipparini, F. Egidi, J. Goings, B. Peng, A. Petrone, 
 T. Henderson, D. Ranasinghe, V. G. Zakrzewski, J. Gao, N. Rega, 
 G. Zheng, W. Liang, M. Hada, M. Ehara, K. Toyota, R. Fukuda, 
 J. Hasegawa, M. Ishida, T. Nakajima, Y. Honda, O. Kitao, H. Nakai, 
 T. Vreven, K. Throssell, J. A. Montgomery, Jr., J. E. Peralta, 
 F. Ogliaro, M. J. Bearpark, J. J. Heyd, E. N. Brothers, K. N. Kudin, 
 V. N. Staroverov, T. A. Keith, R. Kobayashi, J. Normand, 
 K. Raghavachari, A. P. Rendell, J. C. Burant, S. S. Iyengar, 
 J. Tomasi, M. Cossi, J. M. Millam, M. Klene, C. Adamo, R. Cammi, 
 J. W. Ochterski, R. L. Martin, K. Morokuma, O. Farkas, 
 J. B. Foresman, and D. J. Fox, Gaussian, Inc., Wallingford CT, 2016.
 
 ******************************************
 Gaussian 16:  ES64L-G16RevA.03 25-Dec-2016
                15-May-2025 
 ******************************************
 %chk=opt.chk
 %mem=4GB
 %nprocshared=8
 Will use up to    8 processors via shared memory.
 --------------------------------------------
 #p opt UM062X/6-311+G** nosymm int=superfine
 --------------------------------------------
 1/18=20,19=15,26=5,38=1/1,3;
 2/9=110,12=2,15=1,17=6,18=5,40=1/2;
 3/5=4,6=6,7=111,11=2,25=1,30=1,71=1,74=-55,75=-7,116=2/1,2,3;
 4//1;
 5/5=2,38=5/2;
 6/7=2,8=2,9=2,10=2,28=1/1;
 7/30=1/1,2,3,16;
 1/18=20,19=15,26=5/3(2);
 2/9=110,15=1/2;
 99//99;
 2/9=110,15=1/2;
 3/5=4,6=6,7=111,11=2,25=1,30=1,71=1,74=-55,75=-7,116=2/1,2,3;
 4/5=5,16=3,69=1/1;
 5/5=2,38=5/2;
 7/30=1/1,2,3,16;
 1/18=20,19=15,26=5/3(-5);
 2/9=110,15=1/2;
 6/7=2,8=2,9=2,10=2,19=2,28=1/1;
 99/9=1/99;
 Leave Link    1 at Thu May 15 13:08:52 2025, MaxMem=   536870912 cpu:               0.3 elap:               0.0
 (Enter /home/szhao/Apps/g16/l101.exe)
 -------------------
 Title Card Required
 -------------------
 Symbolic Z-matrix:
 Charge =  0 Multiplicity = 1
 O                    -1   -1.58939   0.        0. 
 S                    -1    1.58939   0.        0. 
 H                    0    -1.89108  -0.91347   0. 
 H                    0     1.76576   0.08294   1.33262 
 
 Add virtual bond connecting atoms S2         and O1         Dist= 6.01D+00.
 ITRead=  2  2  0  0
 MicOpt= -2 -2 -1 -1
 NAtoms=      4 NQM=        2 NQMF=       2 NMMI=      0 NMMIF=      0
                NMic=       0 NMicF=      0.
                    Isotopes and Nuclear Properties:
 (Nuclear quadrupole moments (NQMom) in fm**2, nuclear magnetic moments (NMagM)
  in nuclear magnetons)

  Atom         1           2           3           4
 IAtWgt=          16          32           1           1
 AtmWgt=  15.9949146  31.9720718   1.0078250   1.0078250
 NucSpn=           0           0           1           1
 AtZEff=  -0.0000000  -0.0000000  -0.0000000  -0.0000000
 NQMom=    0.0000000   0.0000000   0.0000000   0.0000000
 NMagM=    0.0000000   0.0000000   2.7928460   2.7928460
 AtZNuc=   8.0000000  16.0000000   1.0000000   1.0000000
 Leave Link  101 at Thu May 15 13:08:52 2025, MaxMem=   536870912 cpu:               2.2 elap:               0.3
 (Enter /home/szhao/Apps/g16/l103.exe)

 GradGradGradGradGradGradGradGradGradGradGradGradGradGradGradGradGradGrad
 Berny optimization.
 Initialization pass.
                           ----------------------------
                           !    Initial Parameters    !
                           ! (Angstroms and Degrees)  !
 --------------------------                            --------------------------
 ! Name  Definition              Value          Derivative Info.                !
 --------------------------------------------------------------------------------
 ! X1    R(1,-1)                -1.5894         Frozen                          !
 ! Y1    R(1,-2)                 0.0            Frozen                          !
 ! Z1    R(1,-3)                 0.0            Frozen                          !
 ! X2    R(2,-1)                 1.5894         Frozen                          !
 ! Y2    R(2,-2)                 0.0            Frozen                          !
 ! Z2    R(2,-3)                 0.0            Frozen                          !
 ! R1    R(1,3)                  0.962          estimate D2E/DX2                !
 ! R2    R(2,4)                  1.3468         estimate D2E/DX2                !
 ! A1    A(2,1,3)              108.2769         estimate D2E/DX2                !
 ! A2    A(1,2,4)               97.5247         estimate D2E/DX2                !
 ! D1    D(3,1,2,4)            -93.5613         estimate D2E/DX2                !
 --------------------------------------------------------------------------------
 Trust Radius=3.00D-01 FncErr=1.00D-07 GrdErr=1.00D-07 EigMax=2.50D+02 EigMin=1.00D-04
 Number of steps in this run=     21 maximum allowed number of steps=    100.
 GradGradGradGradGradGradGradGradGradGradGradGradGradGradGradGradGradGrad

 Leave Link  103 at Thu May 15 13:08:52 2025, MaxMem=   536870912 cpu:               0.0 elap:               0.0
 (Enter /home/szhao/Apps/g16/l202.exe)
                          Input orientation:                          
 ---------------------------------------------------------------------
 Center     Atomic      Atomic             Coordinates (Angstroms)
 Number     Number       Type             X           Y           Z
 ---------------------------------------------------------------------
      1          8           0       -1.589392    0.000000    0.000000
      2         16           0        1.589392    0.000000    0.000000
      3          1           0       -1.891084   -0.913468    0.000000
      4          1           0        1.765760    0.082939    1.332622
 ---------------------------------------------------------------------
                    Distance matrix (angstroms):
                    1          2          3          4
     1  O    0.000000
     2  S    3.178783   0.000000
     3  H    0.961999   3.598352   0.000000
     4  H    3.611066   1.346798   4.017613   0.000000
 Symmetry turned off by external request.
 Stoichiometry    H2OS
 Framework group  C1[X(H2OS)]
 Deg. of freedom     6
 Full point group                 C1      NOp   1
 Rotational constants (GHZ):         200.9052628           4.3569303           4.3210897
 Leave Link  202 at Thu May 15 13:08:52 2025, MaxMem=   536870912 cpu:               0.0 elap:               0.0
 (Enter /home/szhao/Apps/g16/l301.exe)
 Standard basis: 6-311+G(d,p) (5D, 7F)
 Ernie: Thresh=  0.10000D-02 Tol=  0.10000D-05 Strict=F.
    64 basis functions,   102 primitive gaussians,    66 cartesian basis functions
    13 alpha electrons       13 beta electrons
       nuclear repulsion energy        35.6526908681 Hartrees.
 IExCor= 4336 DFT=T Ex+Corr=M062X ExCW=0 ScaHFX=  0.540000
 ScaDFX=  1.000000  1.000000  1.000000  1.000000 ScalE2=  1.000000  1.000000
 IRadAn=      7 IRanWt=     -1 IRanGd=            0 ICorTp=0 IEmpDi=  4
 NAtoms=    4 NActive=    4 NUniq=    4 SFac= 1.00D+00 NAtFMM=   60 NAOKFM=F Big=F
 Integral buffers will be    131072 words long.
 Raffenetti 2 integral format.
 Two-electron integral symmetry is turned off.
 Leave Link  301 at Thu May 15 13:08:52 2025, MaxMem=   536870912 cpu:               0.2 elap:               0.0
 (Enter /home/szhao/Apps/g16/l302.exe)
 NPDir=0 NMtPBC=     1 NCelOv=     1 NCel=       1 NClECP=     1 NCelD=      1
         NCelK=      1 NCelE2=     1 NClLst=     1 CellRange=     0.0.
 One-electron integrals computed using PRISM.
 NBasis=    64 RedAO= T EigKep=  6.03D-03  NBF=    64
 NBsUse=    64 1.00D-06 EigRej= -1.00D+00 NBFU=    64
 Precomputing XC quadrature grid using
 IXCGrd= 4 IRadAn=           7 IRanWt=          -1 IRanGd=           0 AccXCQ= 0.00D+00.
 Generated NRdTot=       0 NPtTot=           0 NUsed=           0 NTot=          32
 NSgBfM=    65    65    65    65    65 MxSgAt=     4 MxSgA2=     4.
 Leave Link  302 at Thu May 15 13:08:52 2025, MaxMem=   536870912 cpu:               0.9 elap:               0.1
 (Enter /home/szhao/Apps/g16/l303.exe)
 DipDrv:  MaxL=1.
 Leave Link  303 at Thu May 15 13:08:53 2025, MaxMem=   536870912 cpu:               0.2 elap:               0.0
 (Enter /home/szhao/Apps/g16/l401.exe)
 ExpMin= 4.05D-02 ExpMax= 9.34D+04 ExpMxC= 3.17D+03 IAcc=3 IRadAn=         7 AccDes= 0.00D+00
 Harris functional with IExCor= 1009 and IRadAn=       7 diagonalized for initial guess.
 HarFok:  IExCor= 1009 AccDes= 0.00D+00 IRadAn=         7 IDoV= 1 UseB2=F ITyADJ=14
 ICtDFT=  3500011 ScaDFX=  1.000000  1.000000  1.000000  1.000000
 FoFCou: FMM=F IPFlag=           0 FMFlag=      100000 FMFlg1=           0
         NFxFlg=           0 DoJE=T BraDBF=F KetDBF=T FulRan=T
         wScrn=  0.000000 ICntrl=       500 IOpCl=  0 I1Cent=   200000004 NGrid=           0
         NMat0=    1 NMatS0=      1 NMatT0=    0 NMatD0=    1 NMtDS0=    0 NMtDT0=    0
 Symmetry not used in FoFCou.
 Harris En= -474.279375986549    
 JPrj=0 DoOrth=F DoCkMO=F.
 Initial guess <Sx>= 0.0000 <Sy>= 0.0000 <Sz>= 0.0000 <S**2>=-0.0000 S=-0.0000
 Leave Link  401 at Thu May 15 13:08:53 2025, MaxMem=   536870912 cpu:               1.6 elap:               0.2
 (Enter /home/szhao/Apps/g16/l502.exe)
 Keep R1 and R2 ints in memory in canonical form, NReq=11470672.
 FoFCou: FMM=F IPFlag=           0 FMFlag=           0 FMFlg1=           0
         NFxFlg=           0 DoJE=F BraDBF=F KetDBF=F FulRan=T
         wScrn=  0.000000 ICntrl=       600 IOpCl=  0 I1Cent=           0 NGrid=           0
         NMat0=    1 NMatS0=   2080 NMatT0=    0 NMatD0=    1 NMtDS0=    0 NMtDT0=    0
 Symmetry not used in FoFCou.
 Two-electron integral symmetry not used.
 UHF open shell SCF:
 Using DIIS extrapolation, IDIIS=  1040.
 NGot=   536870912 LenX=   532532582 LenY=   532527785
 Requested convergence on RMS density matrix=1.00D-08 within 128 cycles.
 Requested convergence on MAX density matrix=1.00D-06.
 Requested convergence on             energy=1.00D-06.
 No special actions if energy rises.

 Cycle   1  Pass 1  IDiag  1:
 E= -474.041834338073    
 DIIS: error= 5.31D-02 at cycle   1 NSaved=   1.
 NSaved= 1 IEnMin= 1 EnMin= -474.041834338073     IErMin= 1 ErrMin= 5.31D-02
 ErrMax= 5.31D-02  0.00D+00 EMaxC= 1.00D-01 BMatC= 1.30D+00 BMatP= 1.30D+00
 IDIUse=3 WtCom= 4.69D-01 WtEn= 5.31D-01
 Coeff-Com:  0.100D+01
 Coeff-En:   0.100D+01
 Coeff:      0.100D+01
 Gap=     0.182 Goal=   None    Shift=    0.000
 Gap=     0.182 Goal=   None    Shift=    0.000
 GapD=    0.182 DampG=1.000 DampE=0.500 DampFc=0.5000 IDamp=-1.
 Damping current iteration by 5.00D-01
 RMSDP=5.01D-02 MaxDP=9.84D-01              OVMax= 9.93D-01

 Cycle   2  Pass 1  IDiag  1:
 E= -473.268338251613     Delta-E=        0.773496086460 Rises=F Damp=T
 DIIS: error= 5.72D-02 at cycle   2 NSaved=   2.
 NSaved= 2 IEnMin= 1 EnMin= -474.041834338073     IErMin= 1 ErrMin= 5.31D-02
 ErrMax= 5.72D-02  0.00D+00 EMaxC= 1.00D-01 BMatC= 1.06D+00 BMatP= 1.30D+00
 IDIUse=3 WtCom= 4.28D-01 WtEn= 5.72D-01
 Coeff-Com:  0.470D+00 0.530D+00
 Coeff-En:   0.740D+00 0.260D+00
 Coeff:      0.624D+00 0.376D+00
 Gap=     0.028 Goal=   None    Shift=    0.000
 Gap=     0.028 Goal=   None    Shift=    0.000
 RMSDP=2.47D-02 MaxDP=4.95D-01 DE= 7.73D-01 OVMax= 9.99D-01

 Cycle   3  Pass 1  IDiag  1:
 E= -474.372321317497     Delta-E=       -1.103983065884 Rises=F Damp=F
 DIIS: error= 1.00D-02 at cycle   3 NSaved=   3.
 NSaved= 3 IEnMin= 3 EnMin= -474.372321317497     IErMin= 3 ErrMin= 1.00D-02
 ErrMax= 1.00D-02  0.00D+00 EMaxC= 1.00D-01 BMatC= 4.70D-02 BMatP= 1.06D+00
 IDIUse=3 WtCom= 9.00D-01 WtEn= 1.00D-01
 Coeff-Com:  0.152D+00 0.478D-01 0.800D+00
 Coeff-En:   0.000D+00 0.000D+00 0.100D+01
 Coeff:      0.137D+00 0.430D-01 0.821D+00
 Gap=     0.094 Goal=   None    Shift=    0.000
 Gap=     0.094 Goal=   None    Shift=    0.000
 RMSDP=3.86D-03 MaxDP=1.10D-01 DE=-1.10D+00 OVMax= 2.96D-01

 Cycle   4  Pass 1  IDiag  1:
 E= -474.319443040962     Delta-E=        0.052878276535 Rises=F Damp=F
 DIIS: error= 2.77D-02 at cycle   4 NSaved=   4.
 NSaved= 4 IEnMin= 3 EnMin= -474.372321317497     IErMin= 3 ErrMin= 1.00D-02
 ErrMax= 2.77D-02  0.00D+00 EMaxC= 1.00D-01 BMatC= 2.45D-01 BMatP= 4.70D-02
 IDIUse=2 WtCom= 0.00D+00 WtEn= 1.00D+00
 Coeff-En:   0.000D+00 0.000D+00 0.889D+00 0.111D+00
 Coeff:      0.000D+00 0.000D+00 0.889D+00 0.111D+00
 Gap=     0.155 Goal=   None    Shift=    0.000
 Gap=     0.155 Goal=   None    Shift=    0.000
 RMSDP=3.07D-03 MaxDP=8.88D-02 DE= 5.29D-02 OVMax= 2.36D-01

 Cycle   5  Pass 1  IDiag  1:
 E= -474.383113550149     Delta-E=       -0.063670509187 Rises=F Damp=F
 DIIS: error= 1.01D-02 at cycle   5 NSaved=   5.
 NSaved= 5 IEnMin= 5 EnMin= -474.383113550149     IErMin= 3 ErrMin= 1.00D-02
 ErrMax= 1.01D-02  0.00D+00 EMaxC= 1.00D-01 BMatC= 3.41D-02 BMatP= 4.70D-02
 IDIUse=3 WtCom= 8.99D-01 WtEn= 1.01D-01
 Coeff-Com:  0.891D-02-0.141D-01 0.310D+00 0.148D+00 0.548D+00
 Coeff-En:   0.000D+00 0.000D+00 0.000D+00 0.149D+00 0.851D+00
 Coeff:      0.801D-02-0.127D-01 0.278D+00 0.148D+00 0.579D+00
 Gap=     0.126 Goal=   None    Shift=    0.000
 Gap=     0.126 Goal=   None    Shift=    0.000
 RMSDP=1.58D-03 MaxDP=4.23D-02 DE=-6.37D-02 OVMax= 1.23D-01

 Cycle   6  Pass 1  IDiag  1:
 E= -474.379367173563     Delta-E=        0.003746376587 Rises=F Damp=F
 DIIS: error= 1.19D-02 at cycle   6 NSaved=   6.
 NSaved= 6 IEnMin= 5 EnMin= -474.383113550149     IErMin= 3 ErrMin= 1.00D-02
 ErrMax= 1.19D-02  0.00D+00 EMaxC= 1.00D-01 BMatC= 3.91D-02 BMatP= 3.41D-02
 IDIUse=2 WtCom= 0.00D+00 WtEn= 1.00D+00
 Coeff-En:   0.000D+00 0.000D+00 0.000D+00 0.000D+00 0.577D+00 0.423D+00
 Coeff:      0.000D+00 0.000D+00 0.000D+00 0.000D+00 0.577D+00 0.423D+00
 Gap=     0.133 Goal=   None    Shift=    0.000
 Gap=     0.133 Goal=   None    Shift=    0.000
 RMSDP=1.13D-03 MaxDP=3.13D-02 DE= 3.75D-03 OVMax= 8.32D-02

 Cycle   7  Pass 1  IDiag  1:
 E= -474.389438938008     Delta-E=       -0.010071764445 Rises=F Damp=F
 DIIS: error= 1.20D-03 at cycle   7 NSaved=   7.
 NSaved= 7 IEnMin= 7 EnMin= -474.389438938008     IErMin= 7 ErrMin= 1.20D-03
 ErrMax= 1.20D-03  0.00D+00 EMaxC= 1.00D-01 BMatC= 7.19D-04 BMatP= 3.41D-02
 IDIUse=3 WtCom= 9.88D-01 WtEn= 1.20D-02
 Coeff-Com: -0.724D-02-0.199D-02-0.610D-01 0.161D+00 0.588D-01-0.265D+00
 Coeff-Com:  0.112D+01
 Coeff-En:   0.000D+00 0.000D+00 0.000D+00 0.000D+00 0.000D+00 0.282D-01
 Coeff-En:   0.972D+00
 Coeff:     -0.716D-02-0.196D-02-0.603D-01 0.159D+00 0.581D-01-0.262D+00
 Coeff:      0.111D+01
 Gap=     0.134 Goal=   None    Shift=    0.000
 Gap=     0.134 Goal=   None    Shift=    0.000
 RMSDP=2.32D-04 MaxDP=5.26D-03 DE=-1.01D-02 OVMax= 1.41D-02

 Cycle   8  Pass 1  IDiag  1:
 E= -474.389753856358     Delta-E=       -0.000314918350 Rises=F Damp=F
 DIIS: error= 3.85D-04 at cycle   8 NSaved=   8.
 NSaved= 8 IEnMin= 8 EnMin= -474.389753856358     IErMin= 8 ErrMin= 3.85D-04
 ErrMax= 3.85D-04  0.00D+00 EMaxC= 1.00D-01 BMatC= 3.87D-05 BMatP= 7.19D-04
 IDIUse=3 WtCom= 9.96D-01 WtEn= 3.85D-03
 Coeff-Com:  0.461D-03 0.730D-03-0.546D-02-0.201D-01-0.140D-01 0.670D-01
 Coeff-Com:  0.302D-01 0.941D+00
 Coeff-En:   0.000D+00 0.000D+00 0.000D+00 0.000D+00 0.000D+00 0.000D+00
 Coeff-En:   0.000D+00 0.100D+01
 Coeff:      0.459D-03 0.727D-03-0.544D-02-0.200D-01-0.140D-01 0.668D-01
 Coeff:      0.301D-01 0.941D+00
 Gap=     0.135 Goal=   None    Shift=    0.000
 Gap=     0.135 Goal=   None    Shift=    0.000
 RMSDP=3.53D-05 MaxDP=4.90D-04 DE=-3.15D-04 OVMax= 9.32D-04

 Cycle   9  Pass 1  IDiag  1:
 E= -474.389760325253     Delta-E=       -0.000006468895 Rises=F Damp=F
 DIIS: error= 1.96D-04 at cycle   9 NSaved=   9.
 NSaved= 9 IEnMin= 9 EnMin= -474.389760325253     IErMin= 9 ErrMin= 1.96D-04
 ErrMax= 1.96D-04  0.00D+00 EMaxC= 1.00D-01 BMatC= 9.12D-06 BMatP= 3.87D-05
 IDIUse=3 WtCom= 9.98D-01 WtEn= 1.96D-03
 Coeff-Com:  0.303D-04 0.122D-03-0.583D-03-0.563D-02-0.462D-02 0.245D-01
 Coeff-Com: -0.266D-01 0.892D-01 0.924D+00
 Coeff-En:   0.000D+00 0.000D+00 0.000D+00 0.000D+00 0.000D+00 0.000D+00
 Coeff-En:   0.000D+00 0.000D+00 0.100D+01
 Coeff:      0.302D-04 0.122D-03-0.582D-03-0.562D-02-0.461D-02 0.244D-01
 Coeff:     -0.266D-01 0.891D-01 0.924D+00
 Gap=     0.135 Goal=   None    Shift=    0.000
 Gap=     0.135 Goal=   None    Shift=    0.000
 RMSDP=1.95D-05 MaxDP=4.77D-04 DE=-6.47D-06 OVMax= 1.43D-03

 Cycle  10  Pass 1  IDiag  1:
 E= -474.389763506583     Delta-E=       -0.000003181330 Rises=F Damp=F
 DIIS: error= 1.32D-05 at cycle  10 NSaved=  10.
 NSaved=10 IEnMin=10 EnMin= -474.389763506583     IErMin=10 ErrMin= 1.32D-05
 ErrMax= 1.32D-05  0.00D+00 EMaxC= 1.00D-01 BMatC= 6.90D-08 BMatP= 9.12D-06
 IDIUse=1 WtCom= 1.00D+00 WtEn= 0.00D+00
 Coeff-Com: -0.292D-04 0.153D-04-0.128D-03 0.101D-02 0.561D-03-0.478D-02
 Coeff-Com: -0.135D-02-0.583D-01-0.101D+00 0.116D+01
 Coeff:     -0.292D-04 0.153D-04-0.128D-03 0.101D-02 0.561D-03-0.478D-02
 Coeff:     -0.135D-02-0.583D-01-0.101D+00 0.116D+01
 Gap=     0.135 Goal=   None    Shift=    0.000
 Gap=     0.135 Goal=   None    Shift=    0.000
 RMSDP=9.50D-06 MaxDP=1.79D-04 DE=-3.18D-06 OVMax= 6.13D-04

 Cycle  11  Pass 1  IDiag  1:
 E= -474.389763706902     Delta-E=       -0.000000200319 Rises=F Damp=F
 DIIS: error= 1.51D-05 at cycle  11 NSaved=  11.
 NSaved=11 IEnMin=11 EnMin= -474.389763706902     IErMin=10 ErrMin= 1.32D-05
 ErrMax= 1.51D-05  0.00D+00 EMaxC= 1.00D-01 BMatC= 6.58D-08 BMatP= 6.90D-08
 IDIUse=1 WtCom= 1.00D+00 WtEn= 0.00D+00
 Coeff-Com:  0.805D-05-0.194D-04 0.198D-03 0.784D-04 0.346D-05 0.882D-03
 Coeff-Com:  0.115D-02 0.140D-01-0.529D-01-0.505D+00 0.154D+01
 Coeff:      0.805D-05-0.194D-04 0.198D-03 0.784D-04 0.346D-05 0.882D-03
 Coeff:      0.115D-02 0.140D-01-0.529D-01-0.505D+00 0.154D+01
 Gap=     0.135 Goal=   None    Shift=    0.000
 Gap=     0.135 Goal=   None    Shift=    0.000
 RMSDP=9.87D-06 MaxDP=1.96D-04 DE=-2.00D-07 OVMax= 6.55D-04

 Cycle  12  Pass 1  IDiag  1:
 E= -474.389763860841     Delta-E=       -0.000000153939 Rises=F Damp=F
 DIIS: error= 1.29D-05 at cycle  12 NSaved=  12.
 NSaved=12 IEnMin=12 EnMin= -474.389763860841     IErMin=12 ErrMin= 1.29D-05
 ErrMax= 1.29D-05  0.00D+00 EMaxC= 1.00D-01 BMatC= 2.61D-08 BMatP= 6.58D-08
 IDIUse=1 WtCom= 1.00D+00 WtEn= 0.00D+00
 Coeff-Com: -0.595D-05-0.114D-05-0.766D-04-0.396D-03 0.159D-03 0.376D-03
 Coeff-Com:  0.117D-02 0.710D-02 0.886D-01-0.121D+00-0.984D+00 0.201D+01
 Coeff:     -0.595D-05-0.114D-05-0.766D-04-0.396D-03 0.159D-03 0.376D-03
 Coeff:      0.117D-02 0.710D-02 0.886D-01-0.121D+00-0.984D+00 0.201D+01
 Gap=     0.135 Goal=   None    Shift=    0.000
 Gap=     0.135 Goal=   None    Shift=    0.000
 RMSDP=1.15D-05 MaxDP=2.36D-04 DE=-1.54D-07 OVMax= 8.27D-04

 Cycle  13  Pass 1  IDiag  1:
 E= -474.389763975347     Delta-E=       -0.000000114506 Rises=F Damp=F
 DIIS: error= 4.69D-06 at cycle  13 NSaved=  13.
 NSaved=13 IEnMin=13 EnMin= -474.389763975347     IErMin=13 ErrMin= 4.69D-06
 ErrMax= 4.69D-06  0.00D+00 EMaxC= 1.00D-01 BMatC= 3.93D-09 BMatP= 2.61D-08
 IDIUse=1 WtCom= 1.00D+00 WtEn= 0.00D+00
 Coeff-Com:  0.149D-04 0.190D-06-0.300D-04 0.202D-03-0.818D-04-0.143D-02
 Coeff-Com: -0.279D-03-0.487D-02-0.113D-01 0.288D+00-0.710D+00-0.217D+00
 Coeff-Com:  0.166D+01
 Coeff:      0.149D-04 0.190D-06-0.300D-04 0.202D-03-0.818D-04-0.143D-02
 Coeff:     -0.279D-03-0.487D-02-0.113D-01 0.288D+00-0.710D+00-0.217D+00
 Coeff:      0.166D+01
 Gap=     0.135 Goal=   None    Shift=    0.000
 Gap=     0.135 Goal=   None    Shift=    0.000
 RMSDP=1.02D-05 MaxDP=2.08D-04 DE=-1.15D-07 OVMax= 7.22D-04

 Cycle  14  Pass 1  IDiag  1:
 E= -474.389764016776     Delta-E=       -0.000000041429 Rises=F Damp=F
 DIIS: error= 2.25D-06 at cycle  14 NSaved=  14.
 NSaved=14 IEnMin=14 EnMin= -474.389764016776     IErMin=14 ErrMin= 2.25D-06
 ErrMax= 2.25D-06  0.00D+00 EMaxC= 1.00D-01 BMatC= 1.77D-09 BMatP= 3.93D-09
 IDIUse=1 WtCom= 1.00D+00 WtEn= 0.00D+00
 Coeff-Com:  0.738D-05 0.726D-05-0.526D-05-0.388D-04-0.235D-04-0.191D-03
 Coeff-Com: -0.644D-03-0.260D-02-0.175D-01 0.159D+00-0.380D-01-0.456D+00
 Coeff-Com:  0.323D+00 0.103D+01
 Coeff:      0.738D-05 0.726D-05-0.526D-05-0.388D-04-0.235D-04-0.191D-03
 Coeff:     -0.644D-03-0.260D-02-0.175D-01 0.159D+00-0.380D-01-0.456D+00
 Coeff:      0.323D+00 0.103D+01
 Gap=     0.135 Goal=   None    Shift=    0.000
 Gap=     0.135 Goal=   None    Shift=    0.000
 RMSDP=2.56D-06 MaxDP=5.17D-05 DE=-4.14D-08 OVMax= 1.84D-04

 Cycle  15  Pass 1  IDiag  1:
 E= -474.389764019280     Delta-E=       -0.000000002504 Rises=F Damp=F
 DIIS: error= 1.26D-06 at cycle  15 NSaved=  15.
 NSaved=15 IEnMin=15 EnMin= -474.389764019280     IErMin=15 ErrMin= 1.26D-06
 ErrMax= 1.26D-06  0.00D+00 EMaxC= 1.00D-01 BMatC= 4.99D-10 BMatP= 1.77D-09
 IDIUse=1 WtCom= 1.00D+00 WtEn= 0.00D+00
 Coeff-Com: -0.100D-05 0.176D-06-0.947D-05-0.908D-05-0.194D-04 0.135D-03
 Coeff-Com:  0.408D-04 0.527D-03-0.255D-02-0.216D-01 0.388D-01 0.446D-01
 Coeff-Com: -0.116D+00-0.652D-01 0.112D+01
 Coeff:     -0.100D-05 0.176D-06-0.947D-05-0.908D-05-0.194D-04 0.135D-03
 Coeff:      0.408D-04 0.527D-03-0.255D-02-0.216D-01 0.388D-01 0.446D-01
 Coeff:     -0.116D+00-0.652D-01 0.112D+01
 Gap=     0.135 Goal=   None    Shift=    0.000
 Gap=     0.135 Goal=   None    Shift=    0.000
 RMSDP=3.00D-07 MaxDP=5.32D-06 DE=-2.50D-09 OVMax= 1.68D-05

 Cycle  16  Pass 1  IDiag  1:
 E= -474.389764019477     Delta-E=       -0.000000000197 Rises=F Damp=F
 DIIS: error= 1.51D-07 at cycle  16 NSaved=  16.
 NSaved=16 IEnMin=16 EnMin= -474.389764019477     IErMin=16 ErrMin= 1.51D-07
 ErrMax= 1.51D-07  0.00D+00 EMaxC= 1.00D-01 BMatC= 1.06D-11 BMatP= 4.99D-10
 IDIUse=1 WtCom= 1.00D+00 WtEn= 0.00D+00
 Coeff-Com: -0.528D-06-0.434D-06-0.416D-06 0.531D-05-0.169D-06 0.147D-04
 Coeff-Com:  0.541D-04 0.186D-03 0.445D-03-0.860D-02 0.541D-04 0.374D-01
 Coeff-Com: -0.317D-01-0.824D-01 0.765D-01 0.101D+01
 Coeff:     -0.528D-06-0.434D-06-0.416D-06 0.531D-05-0.169D-06 0.147D-04
 Coeff:      0.541D-04 0.186D-03 0.445D-03-0.860D-02 0.541D-04 0.374D-01
 Coeff:     -0.317D-01-0.824D-01 0.765D-01 0.101D+01
 Gap=     0.135 Goal=   None    Shift=    0.000
 Gap=     0.135 Goal=   None    Shift=    0.000
 RMSDP=5.38D-08 MaxDP=6.51D-07 DE=-1.97D-10 OVMax= 2.54D-06

 Cycle  17  Pass 1  IDiag  1:
 E= -474.389764019484     Delta-E=       -0.000000000007 Rises=F Damp=F
 DIIS: error= 1.02D-07 at cycle  17 NSaved=  17.
 NSaved=17 IEnMin=17 EnMin= -474.389764019484     IErMin=17 ErrMin= 1.02D-07
 ErrMax= 1.02D-07  0.00D+00 EMaxC= 1.00D-01 BMatC= 2.62D-12 BMatP= 1.06D-11
 IDIUse=1 WtCom= 1.00D+00 WtEn= 0.00D+00
 Coeff-Com:  0.225D-06-0.153D-06 0.229D-05 0.433D-05 0.741D-05-0.425D-04
 Coeff-Com:  0.149D-04-0.163D-03 0.220D-03 0.469D-02-0.878D-02-0.685D-02
 Coeff-Com:  0.220D-01 0.126D-01-0.194D+00-0.991D-01 0.127D+01
 Coeff:      0.225D-06-0.153D-06 0.229D-05 0.433D-05 0.741D-05-0.425D-04
 Coeff:      0.149D-04-0.163D-03 0.220D-03 0.469D-02-0.878D-02-0.685D-02
 Coeff:      0.220D-01 0.126D-01-0.194D+00-0.991D-01 0.127D+01
 Gap=     0.135 Goal=   None    Shift=    0.000
 Gap=     0.135 Goal=   None    Shift=    0.000
 RMSDP=3.44D-08 MaxDP=5.51D-07 DE=-7.22D-12 OVMax= 2.74D-06

 Cycle  18  Pass 1  IDiag  1:
 E= -474.389764019488     Delta-E=       -0.000000000004 Rises=F Damp=F
 DIIS: error= 6.67D-08 at cycle  18 NSaved=  18.
 NSaved=18 IEnMin=18 EnMin= -474.389764019488     IErMin=18 ErrMin= 6.67D-08
 ErrMax= 6.67D-08  0.00D+00 EMaxC= 1.00D-01 BMatC= 1.47D-12 BMatP= 2.62D-12
 IDIUse=1 WtCom= 1.00D+00 WtEn= 0.00D+00
 Coeff-Com:  0.901D-08 0.935D-07-0.112D-05-0.294D-05-0.305D-05 0.151D-04
 Coeff-Com: -0.950D-05 0.436D-04-0.102D-03-0.134D-02 0.524D-02-0.297D-02
 Coeff-Com: -0.655D-02 0.705D-02 0.990D-01-0.128D+00-0.767D+00 0.179D+01
 Coeff:      0.901D-08 0.935D-07-0.112D-05-0.294D-05-0.305D-05 0.151D-04
 Coeff:     -0.950D-05 0.436D-04-0.102D-03-0.134D-02 0.524D-02-0.297D-02
 Coeff:     -0.655D-02 0.705D-02 0.990D-01-0.128D+00-0.767D+00 0.179D+01
 Gap=     0.135 Goal=   None    Shift=    0.000
 Gap=     0.135 Goal=   None    Shift=    0.000
 RMSDP=3.85D-08 MaxDP=6.37D-07 DE=-4.21D-12 OVMax= 3.15D-06

 Cycle  19  Pass 1  IDiag  1:
 E= -474.389764019492     Delta-E=       -0.000000000004 Rises=F Damp=F
 DIIS: error= 5.15D-08 at cycle  19 NSaved=  19.
 NSaved=19 IEnMin=19 EnMin= -474.389764019492     IErMin=19 ErrMin= 5.15D-08
 ErrMax= 5.15D-08  0.00D+00 EMaxC= 1.00D-01 BMatC= 3.73D-13 BMatP= 1.47D-12
 IDIUse=1 WtCom= 1.00D+00 WtEn= 0.00D+00
 Coeff-Com: -0.231D-06 0.125D-06-0.115D-05-0.172D-05-0.525D-05 0.297D-04
 Coeff-Com: -0.137D-04 0.126D-03-0.127D-03-0.323D-02 0.446D-02 0.705D-02
 Coeff-Com: -0.140D-01-0.124D-01 0.710D-01 0.177D+00-0.320D+00-0.192D+01
 Coeff-Com:  0.301D+01
 Coeff:     -0.231D-06 0.125D-06-0.115D-05-0.172D-05-0.525D-05 0.297D-04
 Coeff:     -0.137D-04 0.126D-03-0.127D-03-0.323D-02 0.446D-02 0.705D-02
 Coeff:     -0.140D-01-0.124D-01 0.710D-01 0.177D+00-0.320D+00-0.192D+01
 Coeff:      0.301D+01
 Gap=     0.135 Goal=   None    Shift=    0.000
 Gap=     0.135 Goal=   None    Shift=    0.000
 RMSDP=7.46D-08 MaxDP=1.27D-06 DE=-3.58D-12 OVMax= 6.28D-06

 Cycle  20  Pass 1  IDiag  1:
 E= -474.389764019495     Delta-E=       -0.000000000003 Rises=F Damp=F
 DIIS: error= 6.41D-08 at cycle  20 NSaved=  20.
 NSaved=20 IEnMin=20 EnMin= -474.389764019495     IErMin=19 ErrMin= 5.15D-08
 ErrMax= 6.41D-08  0.00D+00 EMaxC= 1.00D-01 BMatC= 9.86D-13 BMatP= 3.73D-13
 IDIUse=1 WtCom= 1.00D+00 WtEn= 0.00D+00
 Large coefficients: NSaved= 20 BigCof=    0.00 CofMax=   10.00 Det=-6.79D-15
 Inversion failed.  Reducing to 19 matrices.
 Large coefficients: NSaved= 19 BigCof=    0.00 CofMax=   10.00 Det=-6.96D-15
 Inversion failed.  Reducing to 18 matrices.
 Large coefficients: NSaved= 18 BigCof=    0.00 CofMax=   10.00 Det=-8.31D-15
 Inversion failed.  Reducing to 17 matrices.
 Large coefficients: NSaved= 17 BigCof=    0.00 CofMax=   10.00 Det=-8.42D-15
 Inversion failed.  Reducing to 16 matrices.
 Large coefficients: NSaved= 16 BigCof=    0.00 CofMax=   10.00 Det=-8.47D-15
 Inversion failed.  Reducing to 15 matrices.
 Coeff-Com: -0.181D-07-0.444D-05-0.992D-05 0.382D-04 0.983D-03-0.238D-02
 Coeff-Com: -0.350D-03 0.340D-02 0.314D-02-0.318D-01-0.105D-01 0.264D+00
 Coeff-Com: -0.379D+00-0.151D+00 0.130D+01
 Coeff:     -0.181D-07-0.444D-05-0.992D-05 0.382D-04 0.983D-03-0.238D-02
 Coeff:     -0.350D-03 0.340D-02 0.314D-02-0.318D-01-0.105D-01 0.264D+00
 Coeff:     -0.379D+00-0.151D+00 0.130D+01
 Gap=     0.135 Goal=   None    Shift=    0.000
 Gap=     0.135 Goal=   None    Shift=    0.000
 RMSDP=2.35D-08 MaxDP=3.97D-07 DE=-3.24D-12 OVMax= 1.95D-06

 Cycle  21  Pass 1  IDiag  1:
 E= -474.389764019495     Delta-E=        0.000000000001 Rises=F Damp=F
 DIIS: error= 8.25D-09 at cycle  21 NSaved=  16.
 NSaved=16 IEnMin=15 EnMin= -474.389764019495     IErMin=16 ErrMin= 8.25D-09
 ErrMax= 8.25D-09  0.00D+00 EMaxC= 1.00D-01 BMatC= 1.68D-14 BMatP= 3.73D-13
 IDIUse=1 WtCom= 1.00D+00 WtEn= 0.00D+00
 Large coefficients: NSaved= 16 BigCof=    0.00 CofMax=   10.00 Det=-2.83D-15
 Inversion failed.  Reducing to 15 matrices.
 Coeff-Com:  0.231D-07-0.149D-05-0.543D-05-0.199D-04 0.129D-03-0.212D-05
 Coeff-Com: -0.267D-03-0.289D-04 0.246D-02-0.399D-02-0.235D-01 0.886D-01
 Coeff-Com: -0.758D-01-0.109D+00 0.112D+01
 Coeff:      0.231D-07-0.149D-05-0.543D-05-0.199D-04 0.129D-03-0.212D-05
 Coeff:     -0.267D-03-0.289D-04 0.246D-02-0.399D-02-0.235D-01 0.886D-01
 Coeff:     -0.758D-01-0.109D+00 0.112D+01
 Gap=     0.135 Goal=   None    Shift=    0.000
 Gap=     0.135 Goal=   None    Shift=    0.000
 RMSDP=2.25D-09 MaxDP=3.69D-08 DE= 5.68D-13 OVMax= 1.82D-07

 SCF Done:  E(UM062X) =  -474.389764019     A.U. after   21 cycles
            NFock= 21  Conv=0.22D-08     -V/T= 2.0018
 <Sx>= 0.0000 <Sy>= 0.0000 <Sz>= 0.0000 <S**2>=-0.0000 S=-0.0000
 <L.S>=  0.00000000000    
 KE= 4.735593821566D+02 PE=-1.198629974492D+03 EE= 2.150281374482D+02
 Annihilation of the first spin contaminant:
 S**2 before annihilation    -0.0000,   after    -0.0000
 Leave Link  502 at Thu May 15 13:08:59 2025, MaxMem=   536870912 cpu:              48.8 elap:               6.2
 (Enter /home/szhao/Apps/g16/l601.exe)
 Copying SCF densities to generalized density rwf, IOpCl= 1 IROHF=0.

 **********************************************************************

            Population analysis using the SCF density.

 **********************************************************************

 Alpha  occ. eigenvalues --  -89.97759 -19.66752  -8.33868  -6.26076  -6.25713
 Alpha  occ. eigenvalues --   -6.25137  -1.08279  -0.83669  -0.52291  -0.49431
 Alpha  occ. eigenvalues --   -0.39358  -0.35489  -0.34617
 Alpha virt. eigenvalues --   -0.21127   0.01601   0.04612   0.04676   0.05704
 Alpha virt. eigenvalues --    0.07027   0.13331   0.19795   0.20087   0.22392
 Alpha virt. eigenvalues --    0.25666   0.31165   0.34232   0.35049   0.39618
 Alpha virt. eigenvalues --    0.54682   0.58836   0.70453   0.71692   0.79450
 Alpha virt. eigenvalues --    0.81192   0.97102   1.04703   1.08638   1.09372
 Alpha virt. eigenvalues --    1.38915   1.40344   1.40840   1.45755   1.46494
 Alpha virt. eigenvalues --    1.64621   1.66508   1.68143   2.07329   2.09121
 Alpha virt. eigenvalues --    2.48247   2.52714   2.88658   2.89253   3.17846
 Alpha virt. eigenvalues --    3.20011   3.85515   5.03698   5.05071   5.54053
 Alpha virt. eigenvalues --    7.81619  17.40782  17.42315  17.45411  49.88260
 Alpha virt. eigenvalues --  189.07484
  Beta  occ. eigenvalues --  -89.97759 -19.66752  -8.33868  -6.26076  -6.25713
  Beta  occ. eigenvalues --   -6.25137  -1.08279  -0.83669  -0.52291  -0.49431
  Beta  occ. eigenvalues --   -0.39358  -0.35489  -0.34617
  Beta virt. eigenvalues --   -0.21127   0.01601   0.04612   0.04676   0.05704
  Beta virt. eigenvalues --    0.07027   0.13331   0.19795   0.20087   0.22392
  Beta virt. eigenvalues --    0.25666   0.31165   0.34232   0.35049   0.39618
  Beta virt. eigenvalues --    0.54682   0.58836   0.70453   0.71692   0.79450
  Beta virt. eigenvalues --    0.81192   0.97102   1.04703   1.08638   1.09372
  Beta virt. eigenvalues --    1.38915   1.40344   1.40840   1.45755   1.46494
  Beta virt. eigenvalues --    1.64621   1.66508   1.68143   2.07329   2.09121
  Beta virt. eigenvalues --    2.48247   2.52714   2.88658   2.89253   3.17846
  Beta virt. eigenvalues --    3.20011   3.85515   5.03698   5.05071   5.54053
  Beta virt. eigenvalues --    7.81619  17.40782  17.42315  17.45411  49.88260
  Beta virt. eigenvalues --  189.07484
          Condensed to atoms (all electrons):
               1          2          3          4
     1  O    8.080218   0.087564   0.252026  -0.001797
     2  S    0.087564  15.585616  -0.000961   0.256075
     3  H    0.252026  -0.000961   0.497148   0.000050
     4  H   -0.001797   0.256075   0.000050   0.651104
          Atomic-Atomic Spin Densities.
               1          2          3          4
     1  O    0.000000  -0.000000   0.000000   0.000000
     2  S   -0.000000  -0.000000   0.000000  -0.000000
     3  H    0.000000   0.000000  -0.000000  -0.000000
     4  H    0.000000  -0.000000  -0.000000   0.000000
 Mulliken charges and spin densities:
               1          2
     1  O   -0.418011   0.000000
     2  S    0.071706  -0.000000
     3  H    0.251738  -0.000000
     4  H    0.094568   0.000000
 Sum of Mulliken charges =  -0.00000  -0.00000
 Mulliken charges and spin densities with hydrogens summed into heavy atoms:
               1          2
     1  O   -0.166273   0.000000
     2  S    0.166273  -0.000000
 Electronic spatial extent (au):  <R**2>=            290.2773
 Charge=             -0.0000 electrons
 Dipole moment (field-independent basis, Debye):
    X=              2.0229    Y=             -1.5178    Z=              1.1284  Tot=              2.7693
 Quadrupole moment (field-independent basis, Debye-Ang):
   XX=            -15.4054   YY=            -20.3815   ZZ=            -18.7133
   XY=              3.5851   XZ=              2.1727   YZ=              0.2491
 Traceless Quadrupole moment (field-independent basis, Debye-Ang):
   XX=              2.7613   YY=             -2.2148   ZZ=             -0.5465
   XY=              3.5851   XZ=              2.1727   YZ=              0.2491
 Octapole moment (field-independent basis, Debye-Ang**2):
  XXX=            -27.1115  YYY=             -0.1495  ZZZ=             -0.6115  XYY=            -17.1192
  XXY=             -5.1783  XXZ=              2.9701  XZZ=             -6.4175  YZZ=              0.5208
  YYZ=             -0.7900  XYZ=              0.4155
 Hexadecapole moment (field-independent basis, Debye-Ang**3):
 XXXX=           -286.7648 YYYY=            -29.1533 ZZZZ=            -26.4987 XXXY=             11.3242
 XXXZ=              3.2660 YYYX=              0.8679 YYYZ=              0.0076 ZZZX=             -0.6177
 ZZZY=              0.2435 XXYY=            -58.5959 XXZZ=            -55.0969 YYZZ=            -10.1826
 XXYZ=              0.6775 YYXZ=             -1.3088 ZZXY=             -0.4546
 N-N= 3.565269086814D+01 E-N=-1.198629974600D+03  KE= 4.735593821566D+02
                          Isotropic Fermi Contact Couplings
        Atom                 a.u.       MegaHertz       Gauss      10(-4) cm-1
     1  O(17)             -0.00000       0.00000       0.00000       0.00000
     2  S(33)              0.00000       0.00000       0.00000       0.00000
     3  H(1)              -0.00000      -0.00000      -0.00000      -0.00000
     4  H(1)               0.00000       0.00000       0.00000       0.00000
 --------------------------------------------------------
       Center         ----  Spin Dipole Couplings  ----
                      3XX-RR        3YY-RR        3ZZ-RR
 --------------------------------------------------------
     1   Atom        0.000000     -0.000000     -0.000000
     2   Atom       -0.000000      0.000000      0.000000
     3   Atom       -0.000000      0.000000     -0.000000
     4   Atom        0.000000      0.000000     -0.000000
 --------------------------------------------------------
                        XY            XZ            YZ
 --------------------------------------------------------
     1   Atom       -0.000000      0.000000     -0.000000
     2   Atom        0.000000      0.000000      0.000000
     3   Atom        0.000000      0.000000     -0.000000
     4   Atom       -0.000000     -0.000000     -0.000000
 --------------------------------------------------------


 ---------------------------------------------------------------------------------
              Anisotropic Spin Dipole Couplings in Principal Axis System
 ---------------------------------------------------------------------------------

       Atom             a.u.   MegaHertz   Gauss  10(-4) cm-1        Axes

              Baa    -0.0000     0.000     0.000     0.000  0.2974  0.9495  0.0999
     1 O(17)  Bbb    -0.0000     0.000     0.000     0.000 -0.0547 -0.0876  0.9947
              Bcc     0.0000    -0.000    -0.000    -0.000  0.9532 -0.3013  0.0259
 
              Baa    -0.0000    -0.000    -0.000    -0.000  0.9924 -0.0028 -0.1234
     2 S(33)  Bbb     0.0000     0.000     0.000     0.000 -0.0342  0.9543 -0.2970
              Bcc     0.0000     0.000     0.000     0.000  0.1185  0.2989  0.9469
 
              Baa    -0.0000    -0.000    -0.000    -0.000 -0.0256  0.0083  0.9996
     3 H(1)   Bbb    -0.0000    -0.000    -0.000    -0.000  0.9636 -0.2661  0.0269
              Bcc     0.0000     0.000     0.000     0.000  0.2663  0.9639 -0.0012
 
              Baa    -0.0000    -0.000    -0.000    -0.000  0.0197  0.0610  0.9979
     4 H(1)   Bbb     0.0000     0.000     0.000     0.000  0.9998  0.0047 -0.0200
              Bcc     0.0000     0.000     0.000     0.000 -0.0059  0.9981 -0.0609
 

 ---------------------------------------------------------------------------------

 No NMR shielding tensors so no spin-rotation constants.
 Leave Link  601 at Thu May 15 13:08:59 2025, MaxMem=   536870912 cpu:               1.0 elap:               0.1
 (Enter /home/szhao/Apps/g16/l701.exe)
 ... and contract with generalized density number  0.
 Compute integral first derivatives.
 Leave Link  701 at Thu May 15 13:08:59 2025, MaxMem=   536870912 cpu:               0.6 elap:               0.1
 (Enter /home/szhao/Apps/g16/l702.exe)
 L702 exits ... SP integral derivatives will be done elsewhere.
 Leave Link  702 at Thu May 15 13:08:59 2025, MaxMem=   536870912 cpu:               0.2 elap:               0.0
 (Enter /home/szhao/Apps/g16/l703.exe)
 Integral derivatives from FoFJK, PRISM(SPDF).
 Compute integral first derivatives, UseDBF=F ICtDFT=           0.
 Calling FoFJK, ICntrl=      2127 FMM=F ISym2X=0 I1Cent= 0 IOpClX= 1 NMat=1 NMatS=1 NMatT=0.
 FoFJK:  IHMeth= 1 ICntrl=    2127 DoSepK=F KAlg= 0 I1Cent=           0 FoldK=F
 IRaf=         0 NMat=       1 IRICut=       1 DoRegI=T DoRafI=F ISym2E= 0 IDoP0=0 IntGTp=1.
 FoFCou: FMM=F IPFlag=           0 FMFlag=      100000 FMFlg1=         800
         NFxFlg=           0 DoJE=F BraDBF=F KetDBF=F FulRan=T
         wScrn=  0.000000 ICntrl=      2127 IOpCl=  1 I1Cent=           0 NGrid=           0
         NMat0=    1 NMatS0=      1 NMatT0=    0 NMatD0=    1 NMtDS0=    0 NMtDT0=    0
 Symmetry not used in FoFCou.
 Leave Link  703 at Thu May 15 13:09:00 2025, MaxMem=   536870912 cpu:               4.2 elap:               0.5
 (Enter /home/szhao/Apps/g16/l716.exe)
 Dipole        = 7.95872130D-01-5.97165664D-01 4.43942626D-01
 -------------------------------------------------------------------
 Center     Atomic                   Forces (Hartrees/Bohr)
 Number     Number              X              Y              Z
 -------------------------------------------------------------------
      1        8          -0.000000000   -0.000000000   -0.000000000
      2       16          -0.000000000   -0.000000000   -0.000000000
      3        1           0.003764431   -0.009996736   -0.000043393
      4        1          -0.003700411    0.000120489    0.000971593
 -------------------------------------------------------------------
 Cartesian Forces:  Max     0.009996736 RMS     0.003275657
 Leave Link  716 at Thu May 15 13:09:00 2025, MaxMem=   536870912 cpu:               0.2 elap:               0.0
 (Enter /home/szhao/Apps/g16/l103.exe)

 GradGradGradGradGradGradGradGradGradGradGradGradGradGradGradGradGradGrad
 Berny optimization.
 FormGI is forming the generalized inverse of G from B-inverse, IUseBI=4.
 Internal  Forces:  Max     0.012197471 RMS     0.006748063
 Search for a local minimum.
 Step number   1 out of a maximum of   21
 All quantities printed in internal units (Hartrees-Bohrs-Radians)
 RMS Force = .78927D-02 SwitMx=.10000D-02 MixMth= 1
 Mixed Optimization -- RFO/linear search
 Second derivative matrix not updated -- first step.
 The second derivative matrix:
                          X1        Y1        Z1        X2        Y2
           X1           0.50000
           Y1           0.00000   0.50000
           Z1           0.00000   0.00000   0.50000
           X2           0.00000   0.00000   0.00000   0.50000
           Y2           0.00000   0.00000   0.00000   0.00000   0.50000
           Z2           0.00000   0.00000   0.00000   0.00000   0.00000
           R1           0.00000   0.00000   0.00000   0.00000   0.00000
           R2           0.00000   0.00000   0.00000   0.00000   0.00000
           A1           0.00000   0.00000   0.00000   0.00000   0.00000
           A2           0.00000   0.00000   0.00000   0.00000   0.00000
           D1           0.00000   0.00000   0.00000   0.00000   0.00000
                          Z2        R1        R2        A1        A2
           Z2           0.50000
           R1           0.00000   0.55046
           R2           0.00000   0.00000   0.25886
           A1           0.00000   0.00000   0.00000   0.16000
           A2           0.00000   0.00000   0.00000   0.00000   0.16000
           D1           0.00000   0.00000   0.00000   0.00000   0.00000
                          D1
           D1           0.00230
 ITU=  0
     Eigenvalues ---    0.00230   0.16000   0.16000   0.25886   0.55046
     Eigenvalues --- 1000.000001000.000001000.000001000.000001000.00000
     Eigenvalues --- 1000.00000
 RFO step:  Lambda=-1.62669590D-03 EMin= 2.30000000D-03
 Linear search not attempted -- first point.
 Iteration  1 RMS(Cart)=  0.06270878 RMS(Int)=  0.00213200
 Iteration  2 RMS(Cart)=  0.00224790 RMS(Int)=  0.00000127
 Iteration  3 RMS(Cart)=  0.00000219 RMS(Int)=  0.00000000
 Iteration  4 RMS(Cart)=  0.00000000 RMS(Int)=  0.00000000
 ITry= 1 IFail=0 DXMaxC= 1.51D-01 DCOld= 1.00D+10 DXMaxT= 3.00D-01 DXLimC= 3.00D+00 Rises=F
 Variable       Old X    -DE/DX   Delta X   Delta X   Delta X     New X
                                 (Linear)    (Quad)   (Total)
    X1       -3.00351   0.00376   0.00000   0.00000   0.00000  -3.00351
    Y1        0.00000  -0.01213   0.00000   0.00000   0.00000   0.00000
    Z1        0.00000  -0.00167   0.00000   0.00000   0.00000   0.00000
    X2        3.00351  -0.00370   0.00000   0.00000   0.00000   3.00351
    Y2        0.00000   0.00223   0.00000   0.00000   0.00000   0.00000
    Z2        0.00000   0.00258   0.00000   0.00000   0.00000   0.00000
    R1        1.81791   0.00831   0.00000   0.01506   0.01506   1.83297
    R2        2.54508   0.00048   0.00000   0.00186   0.00186   2.54694
    A1        1.88979  -0.01220   0.00000  -0.07547  -0.07547   1.81432
    A2        1.70213  -0.00966   0.00000  -0.05978  -0.05978   1.64234
    D1       -1.63295  -0.00010   0.00000  -0.02527  -0.02527  -1.65822
         Item               Value     Threshold  Converged?
 Maximum Force            0.012197     0.000450     NO 
 RMS     Force            0.007893     0.000300     NO 
 Maximum Displacement     0.151213     0.001800     NO 
 RMS     Displacement     0.063215     0.001200     NO 
 Predicted change in Energy=-8.215925D-04
 Lowest energy point so far.  Saving SCF results.
 GradGradGradGradGradGradGradGradGradGradGradGradGradGradGradGradGradGrad

 Leave Link  103 at Thu May 15 13:09:00 2025, MaxMem=   536870912 cpu:               0.2 elap:               0.0
 (Enter /home/szhao/Apps/g16/l202.exe)
                          Input orientation:                          
 ---------------------------------------------------------------------
 Center     Atomic      Atomic             Coordinates (Angstroms)
 Number     Number       Type             X           Y           Z
 ---------------------------------------------------------------------
      1          8           0       -1.589392    0.000000    0.000000
      2         16           0        1.589392    0.000000    0.000000
      3          1           0       -1.823275   -0.941281   -0.011022
      4          1           0        1.685741    0.101689    1.340482
 ---------------------------------------------------------------------
                    Distance matrix (angstroms):
                    1          2          3          4
     1  O    0.000000
     2  S    3.178783   0.000000
     3  H    0.969966   3.540117   0.000000
     4  H    3.540300   1.347782   3.902248   0.000000
 Symmetry turned off by external request.
 Stoichiometry    H2OS
 Framework group  C1[X(H2OS)]
 Deg. of freedom     6
 Full point group                 C1      NOp   1
 Rotational constants (GHZ):         194.8908501           4.3748969           4.3391755
 Leave Link  202 at Thu May 15 13:09:00 2025, MaxMem=   536870912 cpu:               0.0 elap:               0.0
 (Enter /home/szhao/Apps/g16/l301.exe)
 Standard basis: 6-311+G(d,p) (5D, 7F)
 Ernie: Thresh=  0.10000D-02 Tol=  0.10000D-05 Strict=F.
    64 basis functions,   102 primitive gaussians,    66 cartesian basis functions
    13 alpha electrons       13 beta electrons
       nuclear repulsion energy        35.6779910629 Hartrees.
 IExCor= 4336 DFT=T Ex+Corr=M062X ExCW=0 ScaHFX=  0.540000
 ScaDFX=  1.000000  1.000000  1.000000  1.000000 ScalE2=  1.000000  1.000000
 IRadAn=      7 IRanWt=     -1 IRanGd=            0 ICorTp=0 IEmpDi=  4
 NAtoms=    4 NActive=    4 NUniq=    4 SFac= 1.00D+00 NAtFMM=   60 NAOKFM=F Big=F
 Integral buffers will be    131072 words long.
 Raffenetti 2 integral format.
 Two-electron integral symmetry is turned off.
 Leave Link  301 at Thu May 15 13:09:00 2025, MaxMem=   536870912 cpu:               0.2 elap:               0.0
 (Enter /home/szhao/Apps/g16/l302.exe)
 NPDir=0 NMtPBC=     1 NCelOv=     1 NCel=       1 NClECP=     1 NCelD=      1
         NCelK=      1 NCelE2=     1 NClLst=     1 CellRange=     0.0.
 One-electron integrals computed using PRISM.
 NBasis=    64 RedAO= T EigKep=  6.13D-03  NBF=    64
 NBsUse=    64 1.00D-06 EigRej= -1.00D+00 NBFU=    64
 Precomputing XC quadrature grid using
 IXCGrd= 4 IRadAn=           7 IRanWt=          -1 IRanGd=           0 AccXCQ= 0.00D+00.
 Generated NRdTot=       0 NPtTot=           0 NUsed=           0 NTot=          32
 NSgBfM=    65    65    65    65    65 MxSgAt=     4 MxSgA2=     4.
 Leave Link  302 at Thu May 15 13:09:00 2025, MaxMem=   536870912 cpu:               0.8 elap:               0.1
 (Enter /home/szhao/Apps/g16/l303.exe)
 DipDrv:  MaxL=1.
 Leave Link  303 at Thu May 15 13:09:00 2025, MaxMem=   536870912 cpu:               0.3 elap:               0.0
 (Enter /home/szhao/Apps/g16/l401.exe)
 Initial guess from the checkpoint file:  "opt.chk"
 B after Tr=    -0.000783   -0.003482   -0.002897
         Rot=    0.999993    0.003232    0.001249   -0.001196 Ang=   0.42 deg.
 Guess basis will be translated and rotated to current coordinates.
 JPrj=2 DoOrth=T DoCkMO=T.
 Initial guess <Sx>= 0.0000 <Sy>= 0.0000 <Sz>= 0.0000 <S**2>= 0.0000 S= 0.0000
 Generating alternative initial guess.
 ExpMin= 4.05D-02 ExpMax= 9.34D+04 ExpMxC= 3.17D+03 IAcc=3 IRadAn=         5 AccDes= 0.00D+00
 Harris functional with IExCor= 1009 and IRadAn=       5 diagonalized for initial guess.
 HarFok:  IExCor= 1009 AccDes= 0.00D+00 IRadAn=         5 IDoV= 1 UseB2=F ITyADJ=14
 ICtDFT=  3500011 ScaDFX=  1.000000  1.000000  1.000000  1.000000
 FoFCou: FMM=F IPFlag=           0 FMFlag=      100000 FMFlg1=           0
         NFxFlg=           0 DoJE=T BraDBF=F KetDBF=T FulRan=T
         wScrn=  0.000000 ICntrl=       500 IOpCl=  0 I1Cent=   200000004 NGrid=           0
         NMat0=    1 NMatS0=      1 NMatT0=    0 NMatD0=    1 NMtDS0=    0 NMtDT0=    0
 Symmetry not used in FoFCou.
 Harris En= -474.278847195288    
 Leave Link  401 at Thu May 15 13:09:00 2025, MaxMem=   536870912 cpu:               1.3 elap:               0.2
 (Enter /home/szhao/Apps/g16/l502.exe)
 Keep R1 and R2 ints in memory in canonical form, NReq=11470672.
 FoFCou: FMM=F IPFlag=           0 FMFlag=           0 FMFlg1=           0
         NFxFlg=           0 DoJE=F BraDBF=F KetDBF=F FulRan=T
         wScrn=  0.000000 ICntrl=       600 IOpCl=  0 I1Cent=           0 NGrid=           0
         NMat0=    1 NMatS0=   2080 NMatT0=    0 NMatD0=    1 NMtDS0=    0 NMtDT0=    0
 Symmetry not used in FoFCou.
 Two-electron integral symmetry not used.
 UHF open shell SCF:
 Using DIIS extrapolation, IDIIS=  1040.
 NGot=   536870912 LenX=   532532582 LenY=   532527785
 Requested convergence on RMS density matrix=1.00D-08 within 128 cycles.
 Requested convergence on MAX density matrix=1.00D-06.
 Requested convergence on             energy=1.00D-06.
 No special actions if energy rises.

 Cycle   1  Pass 1  IDiag  1:
 E= -474.389880111425    
 DIIS: error= 2.97D-03 at cycle   1 NSaved=   1.
 NSaved= 1 IEnMin= 1 EnMin= -474.389880111425     IErMin= 1 ErrMin= 2.97D-03
 ErrMax= 2.97D-03  0.00D+00 EMaxC= 1.00D-01 BMatC= 2.53D-03 BMatP= 2.53D-03
 IDIUse=3 WtCom= 9.70D-01 WtEn= 2.97D-02
 Coeff-Com:  0.100D+01
 Coeff-En:   0.100D+01
 Coeff:      0.100D+01
 Gap=     0.541 Goal=   None    Shift=    0.000
 Gap=     0.541 Goal=   None    Shift=    0.000
 GapD=    0.541 DampG=2.000 DampE=1.000 DampFc=2.0000 IDamp=-1.
 RMSDP=4.76D-04 MaxDP=4.94D-03              OVMax= 1.49D-02

 Cycle   2  Pass 1  IDiag  1:
 E= -474.390978429515     Delta-E=       -0.001098318090 Rises=F Damp=F
 DIIS: error= 7.35D-04 at cycle   2 NSaved=   2.
 NSaved= 2 IEnMin= 2 EnMin= -474.390978429515     IErMin= 2 ErrMin= 7.35D-04
 ErrMax= 7.35D-04  0.00D+00 EMaxC= 1.00D-01 BMatC= 3.19D-04 BMatP= 2.53D-03
 IDIUse=3 WtCom= 9.93D-01 WtEn= 7.35D-03
 Coeff-Com: -0.137D-01 0.101D+01
 Coeff-En:   0.000D+00 0.100D+01
 Coeff:     -0.136D-01 0.101D+01
 Gap=     0.137 Goal=   None    Shift=    0.000
 Gap=     0.137 Goal=   None    Shift=    0.000
 RMSDP=3.95D-04 MaxDP=1.05D-02 DE=-1.10D-03 OVMax= 2.70D-02

 Cycle   3  Pass 1  IDiag  1:
 E= -474.390106493503     Delta-E=        0.000871936012 Rises=F Damp=F
 DIIS: error= 3.91D-03 at cycle   3 NSaved=   3.
 NSaved= 3 IEnMin= 2 EnMin= -474.390978429515     IErMin= 2 ErrMin= 7.35D-04
 ErrMax= 3.91D-03  0.00D+00 EMaxC= 1.00D-01 BMatC= 3.94D-03 BMatP= 3.19D-04
 IDIUse=3 WtCom= 1.38D-01 WtEn= 8.62D-01
 Coeff-Com: -0.134D+00 0.910D+00 0.225D+00
 Coeff-En:   0.000D+00 0.853D+00 0.147D+00
 Coeff:     -0.185D-01 0.861D+00 0.157D+00
 Gap=     0.137 Goal=   None    Shift=    0.000
 Gap=     0.137 Goal=   None    Shift=    0.000
 RMSDP=2.52D-04 MaxDP=7.08D-03 DE= 8.72D-04 OVMax= 1.94D-02

 Cycle   4  Pass 1  IDiag  1:
 E= -474.391121701125     Delta-E=       -0.001015207622 Rises=F Damp=F
 DIIS: error= 7.22D-04 at cycle   4 NSaved=   4.
 NSaved= 4 IEnMin= 4 EnMin= -474.391121701125     IErMin= 4 ErrMin= 7.22D-04
 ErrMax= 7.22D-04  0.00D+00 EMaxC= 1.00D-01 BMatC= 1.18D-04 BMatP= 3.19D-04
 IDIUse=3 WtCom= 9.93D-01 WtEn= 7.22D-03
 Coeff-Com:  0.152D-01-0.376D+00-0.374D+00 0.173D+01
 Coeff-En:   0.000D+00 0.000D+00 0.000D+00 0.100D+01
 Coeff:      0.151D-01-0.373D+00-0.371D+00 0.173D+01
 Gap=     0.137 Goal=   None    Shift=    0.000
 Gap=     0.137 Goal=   None    Shift=    0.000
 RMSDP=9.56D-05 MaxDP=1.15D-03 DE=-1.02D-03 OVMax= 4.53D-03

 Cycle   5  Pass 1  IDiag  1:
 E= -474.391171561110     Delta-E=       -0.000049859985 Rises=F Damp=F
 DIIS: error= 7.78D-05 at cycle   5 NSaved=   5.
 NSaved= 5 IEnMin= 5 EnMin= -474.391171561110     IErMin= 5 ErrMin= 7.78D-05
 ErrMax= 7.78D-05  0.00D+00 EMaxC= 1.00D-01 BMatC= 2.88D-06 BMatP= 1.18D-04
 IDIUse=1 WtCom= 1.00D+00 WtEn= 0.00D+00
 Coeff-Com:  0.208D-01-0.225D+00-0.141D+00 0.461D+00 0.884D+00
 Coeff:      0.208D-01-0.225D+00-0.141D+00 0.461D+00 0.884D+00
 Gap=     0.137 Goal=   None    Shift=    0.000
 Gap=     0.137 Goal=   None    Shift=    0.000
 RMSDP=2.98D-05 MaxDP=3.45D-04 DE=-4.99D-05 OVMax= 1.32D-03

 Cycle   6  Pass 1  IDiag  1:
 E= -474.391174752452     Delta-E=       -0.000003191342 Rises=F Damp=F
 DIIS: error= 4.56D-05 at cycle   6 NSaved=   6.
 NSaved= 6 IEnMin= 6 EnMin= -474.391174752452     IErMin= 6 ErrMin= 4.56D-05
 ErrMax= 4.56D-05  0.00D+00 EMaxC= 1.00D-01 BMatC= 3.73D-07 BMatP= 2.88D-06
 IDIUse=1 WtCom= 1.00D+00 WtEn= 0.00D+00
 Coeff-Com: -0.976D-03 0.394D-01 0.406D-01-0.204D+00-0.966D-03 0.113D+01
 Coeff:     -0.976D-03 0.394D-01 0.406D-01-0.204D+00-0.966D-03 0.113D+01
 Gap=     0.137 Goal=   None    Shift=    0.000
 Gap=     0.137 Goal=   None    Shift=    0.000
 RMSDP=2.24D-05 MaxDP=3.38D-04 DE=-3.19D-06 OVMax= 1.17D-03

 Cycle   7  Pass 1  IDiag  1:
 E= -474.391176141130     Delta-E=       -0.000001388678 Rises=F Damp=F
 DIIS: error= 2.77D-05 at cycle   7 NSaved=   7.
 NSaved= 7 IEnMin= 7 EnMin= -474.391176141130     IErMin= 7 ErrMin= 2.77D-05
 ErrMax= 2.77D-05  0.00D+00 EMaxC= 1.00D-01 BMatC= 2.11D-07 BMatP= 3.73D-07
 IDIUse=1 WtCom= 1.00D+00 WtEn= 0.00D+00
 Coeff-Com: -0.372D-02 0.366D-01 0.147D-01-0.406D-01-0.168D+00-0.141D+00
 Coeff-Com:  0.130D+01
 Coeff:     -0.372D-02 0.366D-01 0.147D-01-0.406D-01-0.168D+00-0.141D+00
 Coeff:      0.130D+01
 Gap=     0.137 Goal=   None    Shift=    0.000
 Gap=     0.137 Goal=   None    Shift=    0.000
 RMSDP=2.08D-05 MaxDP=3.22D-04 DE=-1.39D-06 OVMax= 1.14D-03

 Cycle   8  Pass 1  IDiag  1:
 E= -474.391177166103     Delta-E=       -0.000001024972 Rises=F Damp=F
 DIIS: error= 2.62D-05 at cycle   8 NSaved=   8.
 NSaved= 8 IEnMin= 8 EnMin= -474.391177166103     IErMin= 8 ErrMin= 2.62D-05
 ErrMax= 2.62D-05  0.00D+00 EMaxC= 1.00D-01 BMatC= 1.19D-07 BMatP= 2.11D-07
 IDIUse=1 WtCom= 1.00D+00 WtEn= 0.00D+00
 Coeff-Com:  0.349D-02-0.575D-01-0.347D-01 0.166D+00 0.115D+00-0.868D+00
 Coeff-Com: -0.884D+00 0.256D+01
 Coeff:      0.349D-02-0.575D-01-0.347D-01 0.166D+00 0.115D+00-0.868D+00
 Coeff:     -0.884D+00 0.256D+01
 Gap=     0.137 Goal=   None    Shift=    0.000
 Gap=     0.137 Goal=   None    Shift=    0.000
 RMSDP=4.57D-05 MaxDP=6.96D-04 DE=-1.02D-06 OVMax= 2.58D-03

 Cycle   9  Pass 1  IDiag  1:
 E= -474.391178512021     Delta-E=       -0.000001345919 Rises=F Damp=F
 DIIS: error= 1.16D-05 at cycle   9 NSaved=   9.
 NSaved= 9 IEnMin= 9 EnMin= -474.391178512021     IErMin= 9 ErrMin= 1.16D-05
 ErrMax= 1.16D-05  0.00D+00 EMaxC= 1.00D-01 BMatC= 2.15D-08 BMatP= 1.19D-07
 IDIUse=1 WtCom= 1.00D+00 WtEn= 0.00D+00
 Coeff-Com:  0.156D-02-0.198D-01-0.124D-01 0.473D-01 0.672D-01-0.544D-01
 Coeff-Com: -0.520D+00 0.180D+00 0.131D+01
 Coeff:      0.156D-02-0.198D-01-0.124D-01 0.473D-01 0.672D-01-0.544D-01
 Coeff:     -0.520D+00 0.180D+00 0.131D+01
 Gap=     0.137 Goal=   None    Shift=    0.000
 Gap=     0.137 Goal=   None    Shift=    0.000
 RMSDP=2.22D-05 MaxDP=3.18D-04 DE=-1.35D-06 OVMax= 1.33D-03

 Cycle  10  Pass 1  IDiag  1:
 E= -474.391178724575     Delta-E=       -0.000000212554 Rises=F Damp=F
 DIIS: error= 4.55D-06 at cycle  10 NSaved=  10.
 NSaved=10 IEnMin=10 EnMin= -474.391178724575     IErMin=10 ErrMin= 4.55D-06
 ErrMax= 4.55D-06  0.00D+00 EMaxC= 1.00D-01 BMatC= 3.90D-09 BMatP= 2.15D-08
 IDIUse=1 WtCom= 1.00D+00 WtEn= 0.00D+00
 Coeff-Com: -0.491D-03 0.885D-02 0.574D-02-0.268D-01-0.203D-01 0.156D+00
 Coeff-Com:  0.174D+00-0.482D+00 0.620D-01 0.112D+01
 Coeff:     -0.491D-03 0.885D-02 0.574D-02-0.268D-01-0.203D-01 0.156D+00
 Coeff:      0.174D+00-0.482D+00 0.620D-01 0.112D+01
 Gap=     0.137 Goal=   None    Shift=    0.000
 Gap=     0.137 Goal=   None    Shift=    0.000
 RMSDP=3.52D-06 MaxDP=5.54D-05 DE=-2.13D-07 OVMax= 2.73D-04

 Cycle  11  Pass 1  IDiag  1:
 E= -474.391178738219     Delta-E=       -0.000000013644 Rises=F Damp=F
 DIIS: error= 3.17D-06 at cycle  11 NSaved=  11.
 NSaved=11 IEnMin=11 EnMin= -474.391178738219     IErMin=11 ErrMin= 3.17D-06
 ErrMax= 3.17D-06  0.00D+00 EMaxC= 1.00D-01 BMatC= 1.17D-09 BMatP= 3.90D-09
 IDIUse=1 WtCom= 1.00D+00 WtEn= 0.00D+00
 Coeff-Com: -0.628D-04 0.372D-03 0.348D-03-0.205D-03-0.350D-02-0.286D-01
 Coeff-Com:  0.157D-01 0.964D-01-0.171D+00-0.292D+00 0.138D+01
 Coeff:     -0.628D-04 0.372D-03 0.348D-03-0.205D-03-0.350D-02-0.286D-01
 Coeff:      0.157D-01 0.964D-01-0.171D+00-0.292D+00 0.138D+01
 Gap=     0.137 Goal=   None    Shift=    0.000
 Gap=     0.137 Goal=   None    Shift=    0.000
 RMSDP=1.75D-06 MaxDP=2.36D-05 DE=-1.36D-08 OVMax= 1.17D-04

 Cycle  12  Pass 1  IDiag  1:
 E= -474.391178745900     Delta-E=       -0.000000007681 Rises=F Damp=F
 DIIS: error= 3.07D-06 at cycle  12 NSaved=  12.
 NSaved=12 IEnMin=12 EnMin= -474.391178745900     IErMin=12 ErrMin= 3.07D-06
 ErrMax= 3.07D-06  0.00D+00 EMaxC= 1.00D-01 BMatC= 1.19D-09 BMatP= 1.17D-09
 IDIUse=1 WtCom= 1.00D+00 WtEn= 0.00D+00
 Coeff-Com: -0.312D-04 0.315D-04 0.135D-03 0.493D-03-0.186D-02-0.253D-01
 Coeff-Com:  0.652D-02 0.860D-01-0.133D+00-0.249D+00 0.105D+01 0.270D+00
 Coeff:     -0.312D-04 0.315D-04 0.135D-03 0.493D-03-0.186D-02-0.253D-01
 Coeff:      0.652D-02 0.860D-01-0.133D+00-0.249D+00 0.105D+01 0.270D+00
 Gap=     0.137 Goal=   None    Shift=    0.000
 Gap=     0.137 Goal=   None    Shift=    0.000
 RMSDP=3.85D-07 MaxDP=8.32D-06 DE=-7.68D-09 OVMax= 2.55D-05

 Cycle  13  Pass 1  IDiag  1:
 E= -474.391178747912     Delta-E=       -0.000000002011 Rises=F Damp=F
 DIIS: error= 3.37D-06 at cycle  13 NSaved=  13.
 NSaved=13 IEnMin=13 EnMin= -474.391178747912     IErMin=12 ErrMin= 3.07D-06
 ErrMax= 3.37D-06  0.00D+00 EMaxC= 1.00D-01 BMatC= 1.54D-09 BMatP= 1.17D-09
 IDIUse=1 WtCom= 1.00D+00 WtEn= 0.00D+00
 Coeff-Com:  0.287D-03-0.446D-02-0.258D-02 0.121D-01 0.134D-01-0.572D-01
 Coeff-Com: -0.976D-01 0.197D+00 0.212D-01-0.434D+00-0.580D+00 0.656D+01
 Coeff-Com: -0.463D+01
 Coeff:      0.287D-03-0.446D-02-0.258D-02 0.121D-01 0.134D-01-0.572D-01
 Coeff:     -0.976D-01 0.197D+00 0.212D-01-0.434D+00-0.580D+00 0.656D+01
 Coeff:     -0.463D+01
 Gap=     0.137 Goal=   None    Shift=    0.000
 Gap=     0.137 Goal=   None    Shift=    0.000
 RMSDP=1.41D-06 MaxDP=2.51D-05 DE=-2.01D-09 OVMax= 7.75D-05

 Cycle  14  Pass 1  IDiag  1:
 E= -474.391178748393     Delta-E=       -0.000000000481 Rises=F Damp=F
 DIIS: error= 1.66D-06 at cycle  14 NSaved=  14.
 NSaved=14 IEnMin=14 EnMin= -474.391178748393     IErMin=14 ErrMin= 1.66D-06
 ErrMax= 1.66D-06  0.00D+00 EMaxC= 1.00D-01 BMatC= 4.47D-10 BMatP= 1.17D-09
 IDIUse=1 WtCom= 1.00D+00 WtEn= 0.00D+00
 Coeff-Com:  0.758D-04-0.867D-03-0.918D-03 0.241D-02 0.431D-02 0.122D-01
 Coeff-Com: -0.128D-01-0.638D-01 0.127D+00 0.317D+00-0.127D+01-0.363D+00
 Coeff-Com: -0.917D-02 0.226D+01
 Coeff:      0.758D-04-0.867D-03-0.918D-03 0.241D-02 0.431D-02 0.122D-01
 Coeff:     -0.128D-01-0.638D-01 0.127D+00 0.317D+00-0.127D+01-0.363D+00
 Coeff:     -0.917D-02 0.226D+01
 Gap=     0.137 Goal=   None    Shift=    0.000
 Gap=     0.137 Goal=   None    Shift=    0.000
 RMSDP=2.76D-06 MaxDP=4.47D-05 DE=-4.81D-10 OVMax= 1.55D-04

 Cycle  15  Pass 1  IDiag  1:
 E= -474.391178752426     Delta-E=       -0.000000004033 Rises=F Damp=F
 DIIS: error= 5.47D-07 at cycle  15 NSaved=  15.
 NSaved=15 IEnMin=15 EnMin= -474.391178752426     IErMin=15 ErrMin= 5.47D-07
 ErrMax= 5.47D-07  0.00D+00 EMaxC= 1.00D-01 BMatC= 5.29D-11 BMatP= 4.47D-10
 IDIUse=1 WtCom= 1.00D+00 WtEn= 0.00D+00
 Coeff-Com: -0.608D-04 0.890D-03 0.602D-03-0.242D-02-0.360D-02 0.995D-02
 Coeff-Com:  0.291D-01-0.427D-01-0.242D-01 0.124D+00 0.174D+00-0.155D+01
 Coeff-Com:  0.113D+01-0.229D+00 0.138D+01
 Coeff:     -0.608D-04 0.890D-03 0.602D-03-0.242D-02-0.360D-02 0.995D-02
 Coeff:      0.291D-01-0.427D-01-0.242D-01 0.124D+00 0.174D+00-0.155D+01
 Coeff:      0.113D+01-0.229D+00 0.138D+01
 Gap=     0.137 Goal=   None    Shift=    0.000
 Gap=     0.137 Goal=   None    Shift=    0.000
 RMSDP=1.05D-06 MaxDP=1.77D-05 DE=-4.03D-09 OVMax= 6.13D-05

 Cycle  16  Pass 1  IDiag  1:
 E= -474.391178752854     Delta-E=       -0.000000000429 Rises=F Damp=F
 DIIS: error= 9.38D-08 at cycle  16 NSaved=  16.
 NSaved=16 IEnMin=16 EnMin= -474.391178752854     IErMin=16 ErrMin= 9.38D-08
 ErrMax= 9.38D-08  0.00D+00 EMaxC= 1.00D-01 BMatC= 2.17D-12 BMatP= 5.29D-11
 IDIUse=1 WtCom= 1.00D+00 WtEn= 0.00D+00
 Coeff-Com: -0.551D-05 0.668D-04 0.417D-04-0.105D-03-0.655D-03 0.338D-03
 Coeff-Com:  0.353D-02-0.671D-03-0.102D-01-0.202D-02 0.642D-01-0.526D-01
 Coeff-Com:  0.634D-01-0.166D+00 0.118D+00 0.983D+00
 Coeff:     -0.551D-05 0.668D-04 0.417D-04-0.105D-03-0.655D-03 0.338D-03
 Coeff:      0.353D-02-0.671D-03-0.102D-01-0.202D-02 0.642D-01-0.526D-01
 Coeff:      0.634D-01-0.166D+00 0.118D+00 0.983D+00
 Gap=     0.137 Goal=   None    Shift=    0.000
 Gap=     0.137 Goal=   None    Shift=    0.000
 RMSDP=1.24D-07 MaxDP=1.96D-06 DE=-4.29D-10 OVMax= 6.66D-06

 Cycle  17  Pass 1  IDiag  1:
 E= -474.391178752859     Delta-E=       -0.000000000005 Rises=F Damp=F
 DIIS: error= 1.22D-08 at cycle  17 NSaved=  17.
 NSaved=17 IEnMin=17 EnMin= -474.391178752859     IErMin=17 ErrMin= 1.22D-08
 ErrMax= 1.22D-08  0.00D+00 EMaxC= 1.00D-01 BMatC= 6.35D-14 BMatP= 2.17D-12
 IDIUse=1 WtCom= 1.00D+00 WtEn= 0.00D+00
 Coeff-Com:  0.131D-05-0.221D-04-0.171D-04 0.689D-04 0.171D-04-0.393D-03
 Coeff-Com: -0.412D-03 0.124D-02-0.413D-04-0.347D-02-0.562D-02 0.638D-01
 Coeff-Com: -0.458D-01 0.425D-02-0.577D-01 0.303D-01 0.101D+01
 Coeff:      0.131D-05-0.221D-04-0.171D-04 0.689D-04 0.171D-04-0.393D-03
 Coeff:     -0.412D-03 0.124D-02-0.413D-04-0.347D-02-0.562D-02 0.638D-01
 Coeff:     -0.458D-01 0.425D-02-0.577D-01 0.303D-01 0.101D+01
 Gap=     0.137 Goal=   None    Shift=    0.000
 Gap=     0.137 Goal=   None    Shift=    0.000
 RMSDP=5.56D-09 MaxDP=5.30D-08 DE=-5.12D-12 OVMax= 2.49D-07

 SCF Done:  E(UM062X) =  -474.391178753     A.U. after   17 cycles
            NFock= 17  Conv=0.56D-08     -V/T= 2.0018
 <Sx>= 0.0000 <Sy>= 0.0000 <Sz>= 0.0000 <S**2>= 0.0000 S= 0.0000
 <L.S>=  0.00000000000    
 KE= 4.735403056822D+02 PE=-1.198655815094D+03 EE= 2.150463395958D+02
 Annihilation of the first spin contaminant:
 S**2 before annihilation     0.0000,   after     0.0000
 Leave Link  502 at Thu May 15 13:09:05 2025, MaxMem=   536870912 cpu:              38.2 elap:               4.9
 (Enter /home/szhao/Apps/g16/l701.exe)
 ... and contract with generalized density number  0.
 Compute integral first derivatives.
 Leave Link  701 at Thu May 15 13:09:05 2025, MaxMem=   536870912 cpu:               0.6 elap:               0.1
 (Enter /home/szhao/Apps/g16/l702.exe)
 L702 exits ... SP integral derivatives will be done elsewhere.
 Leave Link  702 at Thu May 15 13:09:05 2025, MaxMem=   536870912 cpu:               0.2 elap:               0.0
 (Enter /home/szhao/Apps/g16/l703.exe)
 Integral derivatives from FoFJK, PRISM(SPDF).
 Compute integral first derivatives, UseDBF=F ICtDFT=           0.
 Calling FoFJK, ICntrl=      2127 FMM=F ISym2X=0 I1Cent= 0 IOpClX= 1 NMat=1 NMatS=1 NMatT=0.
 FoFJK:  IHMeth= 1 ICntrl=    2127 DoSepK=F KAlg= 0 I1Cent=           0 FoldK=F
 IRaf=         0 NMat=       1 IRICut=       1 DoRegI=T DoRafI=F ISym2E= 0 IDoP0=0 IntGTp=1.
 FoFCou: FMM=F IPFlag=           0 FMFlag=      100000 FMFlg1=         800
         NFxFlg=           0 DoJE=F BraDBF=F KetDBF=F FulRan=T
         wScrn=  0.000000 ICntrl=      2127 IOpCl=  1 I1Cent=           0 NGrid=           0
         NMat0=    1 NMatS0=      1 NMatT0=    0 NMatD0=    1 NMtDS0=    0 NMtDT0=    0
 Symmetry not used in FoFCou.
 Leave Link  703 at Thu May 15 13:09:06 2025, MaxMem=   536870912 cpu:               3.8 elap:               0.5
 (Enter /home/szhao/Apps/g16/l716.exe)
 Dipole        = 8.07551766D-01-6.10841065D-01 4.42389525D-01
 -------------------------------------------------------------------
 Center     Atomic                   Forces (Hartrees/Bohr)
 Number     Number              X              Y              Z
 -------------------------------------------------------------------
      1        8          -0.000000000   -0.000000000   -0.000000000
      2       16          -0.000000000   -0.000000000   -0.000000000
      3        1           0.005127845   -0.001487208   -0.000227120
      4        1          -0.002962858    0.000107650    0.000015207
 -------------------------------------------------------------------
 Cartesian Forces:  Max     0.005127845 RMS     0.001764193
 Leave Link  716 at Thu May 15 13:09:06 2025, MaxMem=   536870912 cpu:               0.2 elap:               0.0
 (Enter /home/szhao/Apps/g16/l103.exe)

 GradGradGradGradGradGradGradGradGradGradGradGradGradGradGradGradGradGrad
 Berny optimization.
 Using GEDIIS/GDIIS optimizer.
 FormGI is forming the generalized inverse of G from B-inverse, IUseBI=4.
 Internal  Forces:  Max     0.009780293 RMS     0.004320554
 Search for a local minimum.
 Step number   2 out of a maximum of   21
 All quantities printed in internal units (Hartrees-Bohrs-Radians)
 RMS Force = .55239D-02 SwitMx=.10000D-02 MixMth= 1
 Mixed Optimization -- RFO/linear search
 Update second derivatives using D2CorX and points    1    2
 DE= -1.41D-03 DEPred=-8.22D-04 R= 1.72D+00
 TightC=F SS=  1.41D+00  RLast= 1.01D-01 DXNew= 5.0454D-01 3.0206D-01
 Trust test= 1.72D+00 RLast= 1.01D-01 DXMaxT set to 3.02D-01
 The second derivative matrix:
                          X1        Y1        Z1        X2        Y2
           X1           0.50435
           Y1           0.02847   0.68613
           Z1           0.00057   0.00370   0.50007
           X2           0.00235   0.01540   0.00031   0.50127
           Y2          -0.00118  -0.00775  -0.00015  -0.00064   0.50032
           Z2          -0.00411  -0.02688  -0.00053  -0.00222   0.00112
           R1          -0.02587  -0.16917  -0.00336  -0.01400   0.00704
           R2          -0.00215  -0.01405  -0.00028  -0.00116   0.00058
           A1           0.00772   0.05047   0.00100   0.00418  -0.00210
           A2           0.00681   0.04450   0.00088   0.00368  -0.00185
           D1          -0.00077  -0.00501  -0.00010  -0.00041   0.00021
                          Z2        R1        R2        A1        A2
           Z2           0.50388
           R1           0.02443   0.66155
           R2           0.00203   0.01029   0.25977
           A1          -0.00729   0.01628  -0.00020   0.08314
           A2          -0.00643   0.00879  -0.00050  -0.05966   0.11382
           D1           0.00072   0.00485   0.00040  -0.00179  -0.00154
                          D1
           D1           0.00243
 ITU=  1  0
 Use linear search instead of GDIIS.
     Eigenvalues ---    0.00221   0.03652   0.16006   0.25951   0.66240
     Eigenvalues --- 1000.000001000.000001000.000001000.000001000.00000
     Eigenvalues --- 1000.00000
 RFO step:  Lambda=-5.48503548D-04 EMin= 2.21411074D-03
 Quartic linear search produced a step of  2.00000.
 Iteration  1 RMS(Cart)=  0.15856908 RMS(Int)=  0.01384113
 Iteration  2 RMS(Cart)=  0.01484891 RMS(Int)=  0.00005380
 Iteration  3 RMS(Cart)=  0.00009592 RMS(Int)=  0.00000001
 Iteration  4 RMS(Cart)=  0.00000001 RMS(Int)=  0.00000000
 ITry= 1 IFail=0 DXMaxC= 3.90D-01 DCOld= 1.00D+10 DXMaxT= 3.02D-01 DXLimC= 3.00D+00 Rises=F
 Variable       Old X    -DE/DX   Delta X   Delta X   Delta X     New X
                                 (Linear)    (Quad)   (Total)
    X1       -3.00351   0.00513   0.00000   0.00000   0.00000  -3.00351
    Y1        0.00000  -0.00321   0.00000   0.00000   0.00000   0.00000
    Z1        0.00000  -0.00149   0.00000   0.00000   0.00000   0.00000
    X2        3.00351  -0.00296   0.00000   0.00000   0.00000   3.00351
    Y2        0.00000   0.00186   0.00000   0.00000   0.00000   0.00000
    Z2        0.00000   0.00130   0.00000   0.00000   0.00000   0.00000
    R1        1.83297   0.00021   0.03011  -0.02327   0.00684   1.83981
    R2        2.54694  -0.00019   0.00372  -0.00533  -0.00161   2.54533
    A1        1.81432  -0.00978  -0.15093  -0.04783  -0.19877   1.61555
    A2        1.64234  -0.00753  -0.11956  -0.03386  -0.15342   1.48892
    D1       -1.65822  -0.00034  -0.05053   0.00664  -0.04389  -1.70211
         Item               Value     Threshold  Converged?
 Maximum Force            0.009780     0.000450     NO 
 RMS     Force            0.005524     0.000300     NO 
 Maximum Displacement     0.390232     0.001800     NO 
 RMS     Displacement     0.162277     0.001200     NO 
 Predicted change in Energy=-1.994652D-03
 Lowest energy point so far.  Saving SCF results.
 GradGradGradGradGradGradGradGradGradGradGradGradGradGradGradGradGradGrad

 Leave Link  103 at Thu May 15 13:09:06 2025, MaxMem=   536870912 cpu:               0.3 elap:               0.1
 (Enter /home/szhao/Apps/g16/l202.exe)
                          Input orientation:                          
 ---------------------------------------------------------------------
 Center     Atomic      Atomic             Coordinates (Angstroms)
 Number     Number       Type             X           Y           Z
 ---------------------------------------------------------------------
      1          8           0       -1.589392    0.000000    0.000000
      2         16           0        1.589392    0.000000    0.000000
      3          1           0       -1.632953   -0.972020   -0.033826
      4          1           0        1.479239    0.129385    1.336168
 ---------------------------------------------------------------------
                    Distance matrix (angstroms):
                    1          2          3          4
     1  O    0.000000
     2  S    3.178783   0.000000
     3  H    0.973583   3.365928   0.000000
     4  H    3.349415   1.346929   3.574314   0.000000
 Symmetry turned off by external request.
 Stoichiometry    H2OS
 Framework group  C1[X(H2OS)]
 Deg. of freedom     6
 Full point group                 C1      NOp   1
 Rotational constants (GHZ):         190.0297417           4.4235914           4.3878547
 Leave Link  202 at Thu May 15 13:09:06 2025, MaxMem=   536870912 cpu:               0.0 elap:               0.0
 (Enter /home/szhao/Apps/g16/l301.exe)
 Standard basis: 6-311+G(d,p) (5D, 7F)
 Ernie: Thresh=  0.10000D-02 Tol=  0.10000D-05 Strict=F.
    64 basis functions,   102 primitive gaussians,    66 cartesian basis functions
    13 alpha electrons       13 beta electrons
       nuclear repulsion energy        35.8701096220 Hartrees.
 IExCor= 4336 DFT=T Ex+Corr=M062X ExCW=0 ScaHFX=  0.540000
 ScaDFX=  1.000000  1.000000  1.000000  1.000000 ScalE2=  1.000000  1.000000
 IRadAn=      7 IRanWt=     -1 IRanGd=            0 ICorTp=0 IEmpDi=  4
 NAtoms=    4 NActive=    4 NUniq=    4 SFac= 1.00D+00 NAtFMM=   60 NAOKFM=F Big=F
 Integral buffers will be    131072 words long.
 Raffenetti 2 integral format.
 Two-electron integral symmetry is turned off.
 Leave Link  301 at Thu May 15 13:09:06 2025, MaxMem=   536870912 cpu:               0.3 elap:               0.0
 (Enter /home/szhao/Apps/g16/l302.exe)
 NPDir=0 NMtPBC=     1 NCelOv=     1 NCel=       1 NClECP=     1 NCelD=      1
         NCelK=      1 NCelE2=     1 NClLst=     1 CellRange=     0.0.
 One-electron integrals computed using PRISM.
 NBasis=    64 RedAO= T EigKep=  6.04D-03  NBF=    64
 NBsUse=    64 1.00D-06 EigRej= -1.00D+00 NBFU=    64
 Precomputing XC quadrature grid using
 IXCGrd= 4 IRadAn=           7 IRanWt=          -1 IRanGd=           0 AccXCQ= 0.00D+00.
 Generated NRdTot=       0 NPtTot=           0 NUsed=           0 NTot=          32
 NSgBfM=    66    66    66    66    66 MxSgAt=     4 MxSgA2=     4.
 Leave Link  302 at Thu May 15 13:09:06 2025, MaxMem=   536870912 cpu:               0.9 elap:               0.1
 (Enter /home/szhao/Apps/g16/l303.exe)
 DipDrv:  MaxL=1.
 Leave Link  303 at Thu May 15 13:09:06 2025, MaxMem=   536870912 cpu:               0.3 elap:               0.1
 (Enter /home/szhao/Apps/g16/l401.exe)
 Initial guess from the checkpoint file:  "opt.chk"
 B after Tr=    -0.000901   -0.005439   -0.007567
         Rot=    0.999984    0.004325    0.002785   -0.002384 Ang=   0.65 deg.
 Guess basis will be translated and rotated to current coordinates.
 JPrj=2 DoOrth=T DoCkMO=T.
 Initial guess <Sx>= 0.0000 <Sy>= 0.0000 <Sz>= 0.0000 <S**2>= 0.0000 S= 0.0000
 Generating alternative initial guess.
 ExpMin= 4.05D-02 ExpMax= 9.34D+04 ExpMxC= 3.17D+03 IAcc=3 IRadAn=         5 AccDes= 0.00D+00
 Harris functional with IExCor= 1009 and IRadAn=       5 diagonalized for initial guess.
 HarFok:  IExCor= 1009 AccDes= 0.00D+00 IRadAn=         5 IDoV= 1 UseB2=F ITyADJ=14
 ICtDFT=  3500011 ScaDFX=  1.000000  1.000000  1.000000  1.000000
 FoFCou: FMM=F IPFlag=           0 FMFlag=      100000 FMFlg1=           0
         NFxFlg=           0 DoJE=T BraDBF=F KetDBF=T FulRan=T
         wScrn=  0.000000 ICntrl=       500 IOpCl=  0 I1Cent=   200000004 NGrid=           0
         NMat0=    1 NMatS0=      1 NMatT0=    0 NMatD0=    1 NMtDS0=    0 NMtDT0=    0
 Symmetry not used in FoFCou.
 Harris En= -474.278547283442    
 Leave Link  401 at Thu May 15 13:09:06 2025, MaxMem=   536870912 cpu:               1.4 elap:               0.2
 (Enter /home/szhao/Apps/g16/l502.exe)
 Keep R1 and R2 ints in memory in canonical form, NReq=11470672.
 FoFCou: FMM=F IPFlag=           0 FMFlag=           0 FMFlg1=           0
         NFxFlg=           0 DoJE=F BraDBF=F KetDBF=F FulRan=T
         wScrn=  0.000000 ICntrl=       600 IOpCl=  0 I1Cent=           0 NGrid=           0
         NMat0=    1 NMatS0=   2080 NMatT0=    0 NMatD0=    1 NMtDS0=    0 NMtDT0=    0
 Symmetry not used in FoFCou.
 Two-electron integral symmetry not used.
 UHF open shell SCF:
 Using DIIS extrapolation, IDIIS=  1040.
 NGot=   536870912 LenX=   532532582 LenY=   532527785
 Requested convergence on RMS density matrix=1.00D-08 within 128 cycles.
 Requested convergence on MAX density matrix=1.00D-06.
 Requested convergence on             energy=1.00D-06.
 No special actions if energy rises.

 Cycle   1  Pass 1  IDiag  1:
 E= -474.384555130352    
 DIIS: error= 6.79D-03 at cycle   1 NSaved=   1.
 NSaved= 1 IEnMin= 1 EnMin= -474.384555130352     IErMin= 1 ErrMin= 6.79D-03
 ErrMax= 6.79D-03  0.00D+00 EMaxC= 1.00D-01 BMatC= 1.64D-02 BMatP= 1.64D-02
 IDIUse=3 WtCom= 9.32D-01 WtEn= 6.79D-02
 Coeff-Com:  0.100D+01
 Coeff-En:   0.100D+01
 Coeff:      0.100D+01
 Gap=     0.535 Goal=   None    Shift=    0.000
 Gap=     0.535 Goal=   None    Shift=    0.000
 GapD=    0.535 DampG=2.000 DampE=1.000 DampFc=2.0000 IDamp=-1.
 RMSDP=1.23D-03 MaxDP=1.37D-02              OVMax= 3.99D-02

 Cycle   2  Pass 1  IDiag  1:
 E= -474.392045627438     Delta-E=       -0.007490497086 Rises=F Damp=F
 DIIS: error= 1.80D-03 at cycle   2 NSaved=   2.
 NSaved= 2 IEnMin= 2 EnMin= -474.392045627438     IErMin= 2 ErrMin= 1.80D-03
 ErrMax= 1.80D-03  0.00D+00 EMaxC= 1.00D-01 BMatC= 1.43D-03 BMatP= 1.64D-02
 IDIUse=3 WtCom= 9.82D-01 WtEn= 1.80D-02
 Coeff-Com: -0.741D-01 0.107D+01
 Coeff-En:   0.000D+00 0.100D+01
 Coeff:     -0.728D-01 0.107D+01
 Gap=     0.140 Goal=   None    Shift=    0.000
 Gap=     0.140 Goal=   None    Shift=    0.000
 RMSDP=7.45D-04 MaxDP=1.76D-02 DE=-7.49D-03 OVMax= 4.60D-02

 Cycle   3  Pass 1  IDiag  1:
 E= -474.389628548767     Delta-E=        0.002417078671 Rises=F Damp=F
 DIIS: error= 7.00D-03 at cycle   3 NSaved=   3.
 NSaved= 3 IEnMin= 2 EnMin= -474.392045627438     IErMin= 2 ErrMin= 1.80D-03
 ErrMax= 7.00D-03  0.00D+00 EMaxC= 1.00D-01 BMatC= 1.30D-02 BMatP= 1.43D-03
 IDIUse=3 WtCom= 1.07D-01 WtEn= 8.93D-01
 Coeff-Com: -0.131D+00 0.899D+00 0.233D+00
 Coeff-En:   0.000D+00 0.822D+00 0.178D+00
 Coeff:     -0.140D-01 0.830D+00 0.184D+00
 Gap=     0.143 Goal=   None    Shift=    0.000
 Gap=     0.143 Goal=   None    Shift=    0.000
 RMSDP=5.51D-04 MaxDP=1.53D-02 DE= 2.42D-03 OVMax= 4.23D-02

 Cycle   4  Pass 1  IDiag  1:
 E= -474.392983933187     Delta-E=       -0.003355384421 Rises=F Damp=F
 DIIS: error= 4.84D-04 at cycle   4 NSaved=   4.
 NSaved= 4 IEnMin= 4 EnMin= -474.392983933187     IErMin= 4 ErrMin= 4.84D-04
 ErrMax= 4.84D-04  0.00D+00 EMaxC= 1.00D-01 BMatC= 8.01D-05 BMatP= 1.43D-03
 IDIUse=3 WtCom= 9.95D-01 WtEn= 4.84D-03
 Coeff-Com: -0.292D-02-0.245D+00-0.288D-01 0.128D+01
 Coeff-En:   0.000D+00 0.000D+00 0.000D+00 0.100D+01
 Coeff:     -0.291D-02-0.244D+00-0.286D-01 0.128D+01
 Gap=     0.139 Goal=   None    Shift=    0.000
 Gap=     0.139 Goal=   None    Shift=    0.000
 RMSDP=2.00D-04 MaxDP=1.97D-03 DE=-3.36D-03 OVMax= 1.08D-02

 Cycle   5  Pass 1  IDiag  1:
 E= -474.393112091536     Delta-E=       -0.000128158349 Rises=F Damp=F
 DIIS: error= 3.31D-04 at cycle   5 NSaved=   5.
 NSaved= 5 IEnMin= 5 EnMin= -474.393112091536     IErMin= 5 ErrMin= 3.31D-04
 ErrMax= 3.31D-04  0.00D+00 EMaxC= 1.00D-01 BMatC= 3.86D-05 BMatP= 8.01D-05
 IDIUse=3 WtCom= 9.97D-01 WtEn= 3.31D-03
 Coeff-Com:  0.214D-01-0.241D+00-0.821D-01 0.416D+00 0.885D+00
 Coeff-En:   0.000D+00 0.000D+00 0.000D+00 0.000D+00 0.100D+01
 Coeff:      0.213D-01-0.240D+00-0.818D-01 0.415D+00 0.885D+00
 Gap=     0.139 Goal=   None    Shift=    0.000
 Gap=     0.139 Goal=   None    Shift=    0.000
 RMSDP=8.50D-05 MaxDP=9.47D-04 DE=-1.28D-04 OVMax= 3.88D-03

 Cycle   6  Pass 1  IDiag  1:
 E= -474.393141153713     Delta-E=       -0.000029062177 Rises=F Damp=F
 DIIS: error= 1.23D-04 at cycle   6 NSaved=   6.
 NSaved= 6 IEnMin= 6 EnMin= -474.393141153713     IErMin= 6 ErrMin= 1.23D-04
 ErrMax= 1.23D-04  0.00D+00 EMaxC= 1.00D-01 BMatC= 2.40D-06 BMatP= 3.86D-05
 IDIUse=3 WtCom= 9.99D-01 WtEn= 1.23D-03
 Coeff-Com:  0.214D-02 0.703D-02-0.406D-02-0.111D+00 0.214D-01 0.108D+01
 Coeff-En:   0.000D+00 0.000D+00 0.000D+00 0.000D+00 0.000D+00 0.100D+01
 Coeff:      0.214D-02 0.702D-02-0.405D-02-0.111D+00 0.214D-01 0.108D+01
 Gap=     0.139 Goal=   None    Shift=    0.000
 Gap=     0.139 Goal=   None    Shift=    0.000
 RMSDP=5.32D-05 MaxDP=8.17D-04 DE=-2.91D-05 OVMax= 2.79D-03

 Cycle   7  Pass 1  IDiag  1:
 E= -474.393148883266     Delta-E=       -0.000007729553 Rises=F Damp=F
 DIIS: error= 8.57D-05 at cycle   7 NSaved=   7.
 NSaved= 7 IEnMin= 7 EnMin= -474.393148883266     IErMin= 7 ErrMin= 8.57D-05
 ErrMax= 8.57D-05  0.00D+00 EMaxC= 1.00D-01 BMatC= 1.14D-06 BMatP= 2.40D-06
 IDIUse=1 WtCom= 1.00D+00 WtEn= 0.00D+00
 Coeff-Com: -0.400D-02 0.417D-01 0.116D-01-0.454D-01-0.159D+00-0.825D-01
 Coeff-Com:  0.124D+01
 Coeff:     -0.400D-02 0.417D-01 0.116D-01-0.454D-01-0.159D+00-0.825D-01
 Coeff:      0.124D+01
 Gap=     0.139 Goal=   None    Shift=    0.000
 Gap=     0.139 Goal=   None    Shift=    0.000
 RMSDP=4.65D-05 MaxDP=7.61D-04 DE=-7.73D-06 OVMax= 2.66D-03

 Cycle   8  Pass 1  IDiag  1:
 E= -474.393154192555     Delta-E=       -0.000005309289 Rises=F Damp=F
 DIIS: error= 7.23D-05 at cycle   8 NSaved=   8.
 NSaved= 8 IEnMin= 8 EnMin= -474.393154192555     IErMin= 8 ErrMin= 7.23D-05
 ErrMax= 7.23D-05  0.00D+00 EMaxC= 1.00D-01 BMatC= 6.08D-07 BMatP= 1.14D-06
 IDIUse=1 WtCom= 1.00D+00 WtEn= 0.00D+00
 Coeff-Com:  0.295D-02-0.461D-01-0.727D-02 0.919D-01 0.130D+00-0.529D+00
 Coeff-Com: -0.130D+01 0.266D+01
 Coeff:      0.295D-02-0.461D-01-0.727D-02 0.919D-01 0.130D+00-0.529D+00
 Coeff:     -0.130D+01 0.266D+01
 Gap=     0.139 Goal=   None    Shift=    0.000
[...]
 Coeff-Com:  0.131D+00 0.772D+00 0.204D+00
 Coeff:     -0.402D-05 0.788D-04-0.173D-03 0.103D-03-0.233D-02 0.532D-02
 Coeff:      0.227D-01-0.441D-01 0.153D-01-0.134D-01 0.237D+00-0.328D+00
 Coeff:      0.131D+00 0.772D+00 0.204D+00
 Gap=     0.139 Goal=   None    Shift=    0.000
 Gap=     0.139 Goal=   None    Shift=    0.000
 RMSDP=7.16D-09 MaxDP=1.28D-07 DE=-4.38D-12 OVMax= 4.99D-07

 SCF Done:  E(UM062X) =  -474.393644058     A.U. after   15 cycles
            NFock= 15  Conv=0.72D-08     -V/T= 2.0018
 <Sx>= 0.0000 <Sy>= 0.0000 <Sz>= 0.0000 <S**2>= 0.0000 S= 0.0000
 <L.S>=  0.00000000000    
 KE= 4.735386568721D+02 PE=-1.199173364295D+03 EE= 2.152801416545D+02
 Annihilation of the first spin contaminant:
 S**2 before annihilation     0.0000,   after     0.0000
 Leave Link  502 at Thu May 15 13:10:33 2025, MaxMem=   536870912 cpu:              35.5 elap:               4.6
 (Enter /home/szhao/Apps/g16/l701.exe)
 ... and contract with generalized density number  0.
 Compute integral first derivatives.
 Leave Link  701 at Thu May 15 13:10:33 2025, MaxMem=   536870912 cpu:               0.6 elap:               0.1
 (Enter /home/szhao/Apps/g16/l702.exe)
 L702 exits ... SP integral derivatives will be done elsewhere.
 Leave Link  702 at Thu May 15 13:10:33 2025, MaxMem=   536870912 cpu:               0.2 elap:               0.0
 (Enter /home/szhao/Apps/g16/l703.exe)
 Integral derivatives from FoFJK, PRISM(SPDF).
 Compute integral first derivatives, UseDBF=F ICtDFT=           0.
 Calling FoFJK, ICntrl=      2127 FMM=F ISym2X=0 I1Cent= 0 IOpClX= 1 NMat=1 NMatS=1 NMatT=0.
 FoFJK:  IHMeth= 1 ICntrl=    2127 DoSepK=F KAlg= 0 I1Cent=           0 FoldK=F
 IRaf=         0 NMat=       1 IRICut=       1 DoRegI=T DoRafI=F ISym2E= 0 IDoP0=0 IntGTp=1.
 FoFCou: FMM=F IPFlag=           0 FMFlag=      100000 FMFlg1=         800
         NFxFlg=           0 DoJE=F BraDBF=F KetDBF=F FulRan=T
         wScrn=  0.000000 ICntrl=      2127 IOpCl=  1 I1Cent=           0 NGrid=           0
         NMat0=    1 NMatS0=      1 NMatT0=    0 NMatD0=    1 NMtDS0=    0 NMtDT0=    0
 Symmetry not used in FoFCou.
 Leave Link  703 at Thu May 15 13:10:34 2025, MaxMem=   536870912 cpu:               4.7 elap:               0.6
 (Enter /home/szhao/Apps/g16/l716.exe)
 Dipole        = 8.58124438D-01-3.92693630D-01 1.29035881D-01
 -------------------------------------------------------------------
 Center     Atomic                   Forces (Hartrees/Bohr)
 Number     Number              X              Y              Z
 -------------------------------------------------------------------
      1        8          -0.000000000   -0.000000000   -0.000000000
      2       16          -0.000000000   -0.000000000   -0.000000000
      3        1           0.000007851    0.000068428    0.000048589
      4        1           0.000001101    0.000015120   -0.000022834
 -------------------------------------------------------------------
 Cartesian Forces:  Max     0.000068428 RMS     0.000025587
 Leave Link  716 at Thu May 15 13:10:34 2025, MaxMem=   536870912 cpu:               0.2 elap:               0.0
 (Enter /home/szhao/Apps/g16/l103.exe)

 GradGradGradGradGradGradGradGradGradGradGradGradGradGradGradGradGradGrad
 Berny optimization.
 Using GEDIIS/GDIIS optimizer.
 FormGI is forming the generalized inverse of G from B-inverse, IUseBI=4.
 Internal  Forces:  Max     0.000082056 RMS     0.000035166
 Search for a local minimum.
 Step number  15 out of a maximum of   21
 All quantities printed in internal units (Hartrees-Bohrs-Radians)
 RMS Force = .37902D-04 SwitMx=.10000D-02 MixMth= 2
 Mixed Optimization -- En-DIIS/RFO-DIIS
 Swapping is turned off.
 Update second derivatives using D2CorX and points    4    5    6    8    7
                                                     10   11   12   13   14
                                                     15
 DE= -1.31D-06 DEPred=-1.29D-06 R= 1.02D+00
 TightC=F SS=  1.41D+00  RLast= 4.21D-02 DXNew= 3.5921D-01 1.2636D-01
 Trust test= 1.02D+00 RLast= 4.21D-02 DXMaxT set to 2.14D-01
 The second derivative matrix:
                          X1        Y1        Z1        X2        Y2
           X1           0.55235
           Y1          -0.03885   0.78404
           Z1          -0.03267   0.16660   0.60376
           X2          -0.01124   0.01045   0.01042   0.50687
           Y2           0.00913  -0.01663  -0.01176  -0.00244   0.50205
           Z2           0.00843  -0.02761  -0.01788  -0.00404   0.00245
           R1           0.01702  -0.35884  -0.20568  -0.00513   0.01655
           R2           0.01604   0.00766  -0.01884  -0.00204   0.00473
           A1          -0.04346   0.00522   0.00827   0.00434  -0.00592
           A2          -0.02911  -0.00138   0.01028   0.01688  -0.00509
           D1          -0.00044  -0.00059   0.00086  -0.00030  -0.00015
                          Z2        R1        R2        A1        A2
           Z2           0.50463
           R1           0.03083   0.47808
           R2           0.00537  -0.00120   0.25933
           A1          -0.00235   0.02240  -0.00179   0.04497
           A2          -0.00761   0.02557  -0.00105   0.01536   0.04481
           D1           0.00099  -0.00014   0.00004   0.00070  -0.00057
                          D1
           D1           0.00149
 ITU=  1 -1  0  1  0  0 -1  0  1  1  1  1
     Eigenvalues ---    0.00146   0.02954   0.05751   0.25935   0.48084
     Eigenvalues --- 1000.000001000.000001000.000001000.000001000.00000
     Eigenvalues --- 1000.00000
 En-DIIS/RFO-DIIS/Sim-DIIS IScMMF=       -3 using points:    15   14   13   12   11   10
 RFO step:  Lambda=-1.55582941D-08.
 NNeg= 0 NGDIIS= 6 SimSw=  2.50D-03 Rises=F DC= -1.31D-06 SmlDif=  1.00D-05
 NRisDI= 0 DoIntr=F SqrtH=F CThrHd= 10.0 CDAdj=  3.0
 RMS Error=  0.2208981932D-03 NUsed= 6 OKEnD=F EnDIS=F
 InvSVX:  RCond= 6.72D-11 Info=           0 Equed=N FErr=  1.78D-09 BErr=  5.37D-17
 DIIS inversion failure, remove point   6.
 InvSVX:  RCond= 4.60D-10 Info=           0 Equed=N FErr=  3.63D-10 BErr=  7.73D-17
 DIIS inversion failure, remove point   5.
 InvSVX:  RCond= 4.32D-08 Info=           0 Equed=N FErr=  6.08D-13 BErr=  5.65D-17
 DIIS inversion failure, remove point   4.
 InvSVX:  RCond= 7.22D-06 Info=           0 Equed=N FErr=  4.86D-15 BErr=  4.47D-17
 RFO-DIIS uses    3 points instead of    6
 DidBck=F Rises=F RFO-DIIS coefs:    0.88776    0.04099    0.07125    0.00000    0.00000
                  RFO-DIIS coefs:    0.00000
 Iteration  1 RMS(Cart)=  0.00035123 RMS(Int)=  0.00000008
 Iteration  2 RMS(Cart)=  0.00000008 RMS(Int)=  0.00000000
 ITry= 1 IFail=0 DXMaxC= 6.50D-04 DCOld= 1.00D+10 DXMaxT= 2.14D-01 DXLimC= 3.00D+00 Rises=F
 Variable       Old X    -DE/DX   Delta X   Delta X   Delta X     New X
                                 (Linear)    (Quad)   (Total)
    X1       -3.00351   0.00001   0.00000   0.00000   0.00000  -3.00351
    Y1        0.00000   0.00007   0.00000   0.00000   0.00000   0.00000
    Z1        0.00000   0.00003   0.00000   0.00000   0.00000   0.00000
    X2        3.00351   0.00000   0.00000   0.00000   0.00000   3.00351
    Y2        0.00000  -0.00000   0.00000   0.00000   0.00000   0.00000
    Z2        0.00000  -0.00001   0.00000   0.00000   0.00000   0.00000
    R1        1.83355  -0.00008  -0.00001  -0.00015  -0.00016   1.83339
    R2        2.54490  -0.00001  -0.00001  -0.00004  -0.00005   2.54485
    A1        1.55232  -0.00002  -0.00026  -0.00009  -0.00036   1.55197
    A2        1.42084  -0.00000   0.00026  -0.00010   0.00016   1.42101
    D1       -2.51009  -0.00000  -0.00058   0.00000  -0.00058  -2.51067
         Item               Value     Threshold  Converged?
 Maximum Force            0.000082     0.000450     YES
 RMS     Force            0.000038     0.000300     YES
 Maximum Displacement     0.000650     0.001800     YES
 RMS     Displacement     0.000351     0.001200     YES
 Predicted change in Energy=-1.024292D-08
 Optimization completed.
    -- Stationary point found.
                           ----------------------------
                           !   Optimized Parameters   !
                           ! (Angstroms and Degrees)  !
 --------------------------                            --------------------------
 ! Name  Definition              Value          Derivative Info.                !
 --------------------------------------------------------------------------------
 ! X1    R(1,-1)                -1.5894         -DE/DX =    0.0                 !
 ! Y1    R(1,-2)                 0.0            -DE/DX =    0.0001              !
 ! Z1    R(1,-3)                 0.0            -DE/DX =    0.0                 !
 ! X2    R(2,-1)                 1.5894         -DE/DX =    0.0                 !
 ! Y2    R(2,-2)                 0.0            -DE/DX =    0.0                 !
 ! Z2    R(2,-3)                 0.0            -DE/DX =    0.0                 !
 ! R1    R(1,3)                  0.9703         -DE/DX =   -0.0001              !
 ! R2    R(2,4)                  1.3467         -DE/DX =    0.0                 !
 ! A1    A(2,1,3)               88.9415         -DE/DX =    0.0                 !
 ! A2    A(1,2,4)               81.4084         -DE/DX =    0.0                 !
 ! D1    D(3,1,2,4)           -143.8177         -DE/DX =    0.0                 !
 --------------------------------------------------------------------------------
 Lowest energy point so far.  Saving SCF results.
 Largest change from initial coordinates is atom    4       0.718 Angstoms.
 GradGradGradGradGradGradGradGradGradGradGradGradGradGradGradGradGradGrad

 Leave Link  103 at Thu May 15 13:10:34 2025, MaxMem=   536870912 cpu:               0.0 elap:               0.0
 (Enter /home/szhao/Apps/g16/l202.exe)
                          Input orientation:                          
 ---------------------------------------------------------------------
 Center     Atomic      Atomic             Coordinates (Angstroms)
 Number     Number       Type             X           Y           Z
 ---------------------------------------------------------------------
      1          8           0       -1.589392    0.000000    0.000000
      2         16           0        1.589392    0.000000    0.000000
      3          1           0       -1.571468   -0.887646   -0.391398
      4          1           0        1.388207    0.666261    1.152924
 ---------------------------------------------------------------------
                    Distance matrix (angstroms):
                    1          2          3          4
     1  O    0.000000
     2  S    3.178783   0.000000
     3  H    0.970272   3.306379   0.000000
     4  H    3.261783   1.346704   3.682286   0.000000
 Symmetry turned off by external request.
 Stoichiometry    H2OS
 Framework group  C1[X(H2OS)]
 Deg. of freedom     6
 Full point group                 C1      NOp   1
 Rotational constants (GHZ):         191.6076457           4.4645521           4.3798315
 Leave Link  202 at Thu May 15 13:10:34 2025, MaxMem=   536870912 cpu:               0.0 elap:               0.0
 (Enter /home/szhao/Apps/g16/l601.exe)
 Copying SCF densities to generalized density rwf, IOpCl= 1 IROHF=0.

 **********************************************************************

            Population analysis using the SCF density.

 **********************************************************************

 Alpha  occ. eigenvalues --  -89.97852 -19.67410  -8.33973  -6.26190  -6.25817
 Alpha  occ. eigenvalues --   -6.25253  -1.08526  -0.83713  -0.52600  -0.49568
 Alpha  occ. eigenvalues --   -0.39831  -0.35620  -0.35187
 Alpha virt. eigenvalues --   -0.21259   0.01623   0.03919   0.04673   0.05498
 Alpha virt. eigenvalues --    0.07062   0.13848   0.19335   0.19930   0.21221
 Alpha virt. eigenvalues --    0.25787   0.30909   0.33980   0.34781   0.39297
 Alpha virt. eigenvalues --    0.53478   0.59249   0.70344   0.71667   0.78882
 Alpha virt. eigenvalues --    0.81455   0.96897   1.04115   1.08249   1.09252
 Alpha virt. eigenvalues --    1.37602   1.39066   1.39862   1.46066   1.47979
 Alpha virt. eigenvalues --    1.64228   1.66328   1.67878   2.06018   2.09093
 Alpha virt. eigenvalues --    2.48141   2.53480   2.88412   2.88785   3.16540
 Alpha virt. eigenvalues --    3.18734   3.84315   5.03581   5.04527   5.51375
 Alpha virt. eigenvalues --    7.81864  17.40626  17.42254  17.45304  49.87249
 Alpha virt. eigenvalues --  189.07850
  Beta  occ. eigenvalues --  -89.97852 -19.67410  -8.33973  -6.26190  -6.25817
  Beta  occ. eigenvalues --   -6.25253  -1.08526  -0.83713  -0.52600  -0.49568
  Beta  occ. eigenvalues --   -0.39831  -0.35620  -0.35187
  Beta virt. eigenvalues --   -0.21259   0.01623   0.03919   0.04673   0.05498
  Beta virt. eigenvalues --    0.07062   0.13848   0.19335   0.19930   0.21221
  Beta virt. eigenvalues --    0.25787   0.30909   0.33980   0.34781   0.39297
  Beta virt. eigenvalues --    0.53478   0.59249   0.70344   0.71667   0.78882
  Beta virt. eigenvalues --    0.81455   0.96897   1.04115   1.08249   1.09252
  Beta virt. eigenvalues --    1.37602   1.39066   1.39862   1.46066   1.47979
  Beta virt. eigenvalues --    1.64228   1.66328   1.67878   2.06018   2.09093
  Beta virt. eigenvalues --    2.48141   2.53480   2.88412   2.88785   3.16540
  Beta virt. eigenvalues --    3.18734   3.84315   5.03581   5.04527   5.51375
  Beta virt. eigenvalues --    7.81864  17.40626  17.42254  17.45304  49.87249
  Beta virt. eigenvalues --  189.07850
          Condensed to atoms (all electrons):
               1          2          3          4
     1  O    8.061819   0.090896   0.254900  -0.002417
     2  S    0.090896  15.593709   0.001613   0.267386
     3  H    0.254900   0.001613   0.496300   0.000089
     4  H   -0.002417   0.267386   0.000089   0.623239
          Atomic-Atomic Spin Densities.
               1          2          3          4
     1  O   -0.000000  -0.000000   0.000000   0.000000
     2  S   -0.000000   0.000000  -0.000000   0.000000
     3  H    0.000000  -0.000000  -0.000000  -0.000000
     4  H    0.000000   0.000000  -0.000000  -0.000000
 Mulliken charges and spin densities:
               1          2
     1  O   -0.405197  -0.000000
     2  S    0.046396   0.000000
     3  H    0.247098  -0.000000
     4  H    0.111704   0.000000
 Sum of Mulliken charges =  -0.00000  -0.00000
 Mulliken charges and spin densities with hydrogens summed into heavy atoms:
               1          2
     1  O   -0.158100  -0.000000
     2  S    0.158100   0.000000
 Electronic spatial extent (au):  <R**2>=            284.3008
 Charge=             -0.0000 electrons
 Dipole moment (field-independent basis, Debye):
    X=              2.1811    Y=             -0.9981    Z=              0.3280  Tot=              2.4210
 Quadrupole moment (field-independent basis, Debye-Ang):
   XX=            -18.2598   YY=            -19.5721   ZZ=            -19.1988
   XY=              3.6121   XZ=              2.7908   YZ=              2.7136
 Traceless Quadrupole moment (field-independent basis, Debye-Ang):
   XX=              0.7504   YY=             -0.5618   ZZ=             -0.1886
   XY=              3.6121   XZ=              2.7908   YZ=              2.7136
 Octapole moment (field-independent basis, Debye-Ang**2):
  XXX=            -24.3954  YYY=             -0.9800  ZZZ=             -0.3022  XYY=            -14.7585
  XXY=             -2.9165  XXZ=              0.2704  XZZ=             -8.9133  YZZ=              0.5114
  YYZ=             -0.6509  XYZ=              1.2280
 Hexadecapole moment (field-independent basis, Debye-Ang**3):
 XXXX=           -297.3355 YYYY=            -29.1609 ZZZZ=            -27.8069 XXXY=              5.8360
 XXXZ=              3.9046 YYYX=             -0.5691 YYYZ=              0.8175 ZZZX=             -1.3851
 ZZZY=              1.1987 XXYY=            -57.2691 XXZZ=            -56.6000 YYZZ=             -9.1212
 XXYZ=              6.3461 YYXZ=              0.3656 ZZXY=              0.3405
 N-N= 3.596092171034D+01 E-N=-1.199173364373D+03  KE= 4.735386568721D+02
                          Isotropic Fermi Contact Couplings
        Atom                 a.u.       MegaHertz       Gauss      10(-4) cm-1
     1  O(17)             -0.00000       0.00004       0.00001       0.00001
     2  S(33)             -0.00000      -0.00004      -0.00002      -0.00001
     3  H(1)               0.00000       0.00001       0.00000       0.00000
     4  H(1)              -0.00000      -0.00000      -0.00000      -0.00000
 --------------------------------------------------------
       Center         ----  Spin Dipole Couplings  ----
                      3XX-RR        3YY-RR        3ZZ-RR
 --------------------------------------------------------
     1   Atom        0.000000     -0.000000      0.000000
     2   Atom        0.000009      0.000019     -0.000028
     3   Atom        0.000000     -0.000000      0.000000
     4   Atom        0.000000      0.000000     -0.000000
 --------------------------------------------------------
                        XY            XZ            YZ
 --------------------------------------------------------
     1   Atom       -0.000011      0.000016      0.000001
     2   Atom        0.000150     -0.000086      0.000018
     3   Atom       -0.000000      0.000000      0.000000
     4   Atom        0.000001     -0.000000      0.000000
 --------------------------------------------------------


 ---------------------------------------------------------------------------------
              Anisotropic Spin Dipole Couplings in Principal Axis System
 ---------------------------------------------------------------------------------

       Atom             a.u.   MegaHertz   Gauss  10(-4) cm-1        Axes

              Baa    -0.0000     0.001     0.001     0.000  0.6998  0.4042 -0.5889
     1 O(17)  Bbb     0.0000    -0.000    -0.000    -0.000 -0.0163  0.8333  0.5526
              Bcc     0.0000    -0.001    -0.001    -0.000  0.7141 -0.3771  0.5898
 
              Baa    -0.0002    -0.007    -0.003    -0.002  0.6801 -0.5665  0.4654
     2 S(33)  Bbb    -0.0000    -0.000    -0.000    -0.000 -0.1670  0.4983  0.8507
              Bcc     0.0002     0.007     0.003     0.002  0.7138  0.6563 -0.2443
 
              Baa    -0.0000    -0.000    -0.000    -0.000  0.7128  0.1140 -0.6920
     3 H(1)   Bbb    -0.0000    -0.000    -0.000    -0.000 -0.0612  0.9931  0.1005
              Bcc     0.0000     0.000     0.000     0.000  0.6987 -0.0293  0.7149
 
              Baa    -0.0000    -0.001    -0.000    -0.000  0.6550 -0.5160  0.5521
     4 H(1)   Bbb     0.0000     0.000     0.000     0.000 -0.3177  0.4749  0.8207
              Bcc     0.0000     0.001     0.000     0.000  0.6856  0.7129 -0.1471
 

 ---------------------------------------------------------------------------------

 No NMR shielding tensors so no spin-rotation constants.
 Leave Link  601 at Thu May 15 13:10:34 2025, MaxMem=   536870912 cpu:               1.1 elap:               0.1
 (Enter /home/szhao/Apps/g16/l9999.exe)
 1\1\GINC-NODE01\FOpt\UM062X\6-311+G(d,p)\H2O1S1\SZHAO\15-May-2025\0\\#
 p opt UM062X/6-311+G** nosymm int=superfine\\Title Card Required\\0,1\
 O,-1.58939168,0.,0.\S,1.58939168,0.,0.\H,-1.5714678333,-0.8876455801,-
 0.3913975817\H,1.3882069015,0.6662609648,1.1529236617\\Version=ES64L-G
 16RevA.03\HF=-474.3936441\S2=0.\S2-1=0.\S2A=0.\RMSD=7.157e-09\RMSF=2.5
 59e-05\Dipole=0.8581244,-0.3926936,0.1290359\Quadrupole=0.5579119,-0.4
 177061,-0.1402058,2.6855009,2.0749009,2.0175106\PG=C01 [X(H2O1S1)]\\@


 THERE IS NO CURE FOR BIRTH AND DEATH SAVE TO ENJOY THE INTERVAL.

                               -- GEORGE SANTAYANA
 Job cpu time:       0 days  0 hours 13 minutes  2.5 seconds.
 Elapsed time:       0 days  0 hours  1 minutes 40.5 seconds.
 File lengths (MBytes):  RWF=     10 Int=      0 D2E=      0 Chk=      2 Scr=      1
 Normal termination of Gaussian 16 at Thu May 15 13:10:34 2025.
