Title Card Required                                                     
Force     UM062X                                                      6-311+G(d,p)        
Number of atoms                            I                6
Info1-9                                    I   N=           9
          15          15           0           0           0         100
           5          18        -502
Full Title                                 C   N=           2
Title Card Required     
Route                                      C   N=           4
#p UM062X/6-311+G** force int=superfine         
Charge                                     I                1
Multiplicity                               I                2
Number of electrons                        I               15
Number of alpha electrons                  I                8
Number of beta electrons                   I                7
Number of basis functions                  I               68
Number of independent functions            I               68
Number of point charges in /Mol/           I                0
Number of translation vectors              I                0
Atomic numbers                             I   N=           6
           6           6           1           1           1           1
Nuclear charges                            R   N=           6
  6.00000000E+00  6.00000000E+00  1.00000000E+00  1.00000000E+00  1.00000000E+00
  1.00000000E+00
Current cartesian coordinates              R   N=          18
  1.07420751E-20  1.25568144E+00  0.00000000E+00 -1.53794529E-16 -1.25568144E+00
  0.00000000E+00  1.75272665E+00  2.33022884E+00 -4.93038066E-32 -1.75243185E+00
  2.33044994E+00 -4.93038066E-32 -1.75272665E+00 -2.33022884E+00  4.93038066E-32
  1.75243185E+00 -2.33044994E+00  4.93038066E-32
Number of symbols in /Mol/                 I                0
Force Field                                I                0
Atom Types                                 C   N=           6
                                                            
            
Int Atom Types                             I   N=           6
           0           0           0           0           0           0
MM charges                                 R   N=           6
  0.00000000E+00  0.00000000E+00  0.00000000E+00  0.00000000E+00  0.00000000E+00
  0.00000000E+00
Integer atomic weights                     I   N=           6
          12          12           1           1           1           1
Real atomic weights                        R   N=           6
  1.20000000E+01  1.20000000E+01  1.00782504E+00  1.00782504E+00  1.00782504E+00
  1.00782504E+00
Atom fragment info                         I   N=           6
           0           0           0           0           0           0
Atom residue num                           I   N=           6
           0           0           0           0           0           0
Nuclear spins                              I   N=           6
           0           0           1           1           1           1
Nuclear ZEff                               R   N=           6
 -3.60000000E+00 -3.60000000E+00 -1.00000000E+00 -1.00000000E+00 -1.00000000E+00
 -1.00000000E+00
Nuclear ZNuc                               R   N=           6
  6.00000000E+00  6.00000000E+00  1.00000000E+00  1.00000000E+00  1.00000000E+00
  1.00000000E+00
Nuclear QMom                               R   N=           6
  0.00000000E+00  0.00000000E+00  0.00000000E+00  0.00000000E+00  0.00000000E+00
  0.00000000E+00
Nuclear GFac                               R   N=           6
  0.00000000E+00  0.00000000E+00  2.79284600E+00  2.79284600E+00  2.79284600E+00
  2.79284600E+00
MicOpt                                     I   N=           6
          -1          -1          -1          -1          -1          -1
Number of residues                         I                0
Number of secondary structures             I                0
SymInf integers                            I   N=          26
           2           4           1           1           1          -1
          -1           1           1           1          -1          -1
          -1          -1           0           0           0           0
           0           0           0           0           0           0
           0           0
RotTr to input orientation                 R   N=          12
  1.12200667E-17 -1.00000000E+00 -2.58680036E-21 -1.00000000E+00 -1.12229183E-17
 -1.22464680E-16  1.22464680E-16  2.58680036E-21 -1.00000000E+00  2.77555756E-17
  0.00000000E+00  0.00000000E+00
Number of contracted shells                I               28
Number of primitive shells                 I               50
Pure/Cartesian d shells                    I                0
Pure/Cartesian f shells                    I                0
Highest angular momentum                   I                2
Largest degree of contraction              I                6
Shell types                                I   N=          28
           0          -1          -1          -1          -1          -2
           0          -1          -1          -1          -1          -2
           0           0           0           1           0           0
           0           1           0           0           0           1
           0           0           0           1
Number of primitives per shell             I   N=          28
           6           3           1           1           1           1
           6           3           1           1           1           1
           3           1           1           1           3           1
           1           1           3           1           1           1
           3           1           1           1
Shell to atom map                          I   N=          28
           1           1           1           1           1           1
           2           2           2           2           2           2
           3           3           3           3           4           4
           4           4           5           5           5           5
           6           6           6           6
Primitive exponents                        R   N=          50
  4.56324000E+03  6.82024000E+02  1.54973000E+02  4.44553000E+01  1.30290000E+01
  1.82773000E+00  2.09642000E+01  4.80331000E+00  1.45933000E+00  4.83456000E-01
  1.45585000E-01  4.38000000E-02  6.26000000E-01  4.56324000E+03  6.82024000E+02
  1.54973000E+02  4.44553000E+01  1.30290000E+01  1.82773000E+00  2.09642000E+01
  4.80331000E+00  1.45933000E+00  4.83456000E-01  1.45585000E-01  4.38000000E-02
  6.26000000E-01  3.38650000E+01  5.09479000E+00  1.15879000E+00  3.25840000E-01
  1.02741000E-01  7.50000000E-01  3.38650000E+01  5.09479000E+00  1.15879000E+00
  3.25840000E-01  1.02741000E-01  7.50000000E-01  3.38650000E+01  5.09479000E+00
  1.15879000E+00  3.25840000E-01  1.02741000E-01  7.50000000E-01  3.38650000E+01
  5.09479000E+00  1.15879000E+00  3.25840000E-01  1.02741000E-01  7.50000000E-01
Contraction coefficients                   R   N=          50
  1.96665025E-03  1.52306019E-02  7.61269097E-02  2.60801033E-01  6.16462078E-01
  2.21006028E-01  1.14660081E-01  9.19999648E-01 -3.03068213E-03  1.00000000E+00
  1.00000000E+00  1.00000000E+00  1.00000000E+00  1.96665025E-03  1.52306019E-02
  7.61269097E-02  2.60801033E-01  6.16462078E-01  2.21006028E-01  1.14660081E-01
  9.19999648E-01 -3.03068213E-03  1.00000000E+00  1.00000000E+00  1.00000000E+00
  1.00000000E+00  2.54938145E-02  1.90373109E-01  8.52161486E-01  1.00000000E+00
  1.00000000E+00  1.00000000E+00  2.54938145E-02  1.90373109E-01  8.52161486E-01
  1.00000000E+00  1.00000000E+00  1.00000000E+00  2.54938145E-02  1.90373109E-01
  8.52161486E-01  1.00000000E+00  1.00000000E+00  1.00000000E+00  2.54938145E-02
  1.90373109E-01  8.52161486E-01  1.00000000E+00  1.00000000E+00  1.00000000E+00
P(S=P) Contraction coefficients            R   N=          50
  0.00000000E+00  0.00000000E+00  0.00000000E+00  0.00000000E+00  0.00000000E+00
  0.00000000E+00  4.02486927E-02  2.37593957E-01  8.15853851E-01  1.00000000E+00
  1.00000000E+00  1.00000000E+00  0.00000000E+00  0.00000000E+00  0.00000000E+00
  0.00000000E+00  0.00000000E+00  0.00000000E+00  0.00000000E+00  4.02486927E-02
  2.37593957E-01  8.15853851E-01  1.00000000E+00  1.00000000E+00  1.00000000E+00
  0.00000000E+00  0.00000000E+00  0.00000000E+00  0.00000000E+00  0.00000000E+00
  0.00000000E+00  0.00000000E+00  0.00000000E+00  0.00000000E+00  0.00000000E+00
  0.00000000E+00  0.00000000E+00  0.00000000E+00  0.00000000E+00  0.00000000E+00
  0.00000000E+00  0.00000000E+00  0.00000000E+00  0.00000000E+00  0.00000000E+00
  0.00000000E+00  0.00000000E+00  0.00000000E+00  0.00000000E+00  0.00000000E+00
Coordinates of each shell                  R   N=          84
  7.16138339E-21  1.25568144E+00  0.00000000E+00  7.16138339E-21  1.25568144E+00
  0.00000000E+00  7.16138339E-21  1.25568144E+00  0.00000000E+00  7.16138339E-21
  1.25568144E+00  0.00000000E+00  7.16138339E-21  1.25568144E+00  0.00000000E+00
  7.16138339E-21  1.25568144E+00  0.00000000E+00 -1.53790948E-16 -1.25568144E+00
 -2.69381303E-57 -1.53790948E-16 -1.25568144E+00 -2.69381303E-57 -1.53790948E-16
 -1.25568144E+00 -2.69381303E-57 -1.53790948E-16 -1.25568144E+00 -2.69381303E-57
 -1.53790948E-16 -1.25568144E+00 -2.69381303E-57 -1.53790948E-16 -1.25568144E+00
 -2.69381303E-57  1.75272665E+00  2.33022884E+00 -6.59302488E-37  1.75272665E+00
  2.33022884E+00 -6.59302488E-37  1.75272665E+00  2.33022884E+00 -6.59302488E-37
  1.75272665E+00  2.33022884E+00 -6.59302488E-37 -1.75243185E+00  2.33044994E+00
  6.59191598E-37 -1.75243185E+00  2.33044994E+00  6.59191598E-37 -1.75243185E+00
  2.33044994E+00  6.59191598E-37 -1.75243185E+00  2.33044994E+00  6.59191598E-37
 -1.75272665E+00 -2.33022884E+00 -1.31860498E-36 -1.75272665E+00 -2.33022884E+00
 -1.31860498E-36 -1.75272665E+00 -2.33022884E+00 -1.31860498E-36 -1.75272665E+00
 -2.33022884E+00 -1.31860498E-36  1.75243185E+00 -2.33044994E+00  1.31838320E-36
  1.75243185E+00 -2.33044994E+00  1.31838320E-36  1.75243185E+00 -2.33044994E+00
  1.31838320E-36  1.75243185E+00 -2.33044994E+00  1.31838320E-36
Num ILSW                                   I              100
ILSW                                       I   N=         100
           1           0           0           0           2           0
           0           0           0           0        4336          -1
           7           0           0           0           2           0
           0           0           0           0           1           0
           1           0           0           0           0           0
           0           0      100000           0          -1           0
           0           0           0           0           0           0
           0           0           0           1           0           0
           0 -2000000000           1           0           0           0
           0           0           4          52           0           0
           0           0          55           0           0           0
           0           0           0           6           0           1
           0           0           0           0           0           0
           0           0           0           0           0           0
           0           0           0           0           0           0
           0           0           0           0           0           0
           0           0           0           0
Num RLSW                                   I               52
RLSW                                       R   N=          52
  1.00000000E+00  1.00000000E+00  1.00000000E+00  1.00000000E+00  5.40000000E-01
  0.00000000E+00  0.00000000E+00  1.00000000E+00  0.00000000E+00  0.00000000E+00
  0.00000000E+00  0.00000000E+00  1.00000000E+00  0.00000000E+00  0.00000000E+00
  0.00000000E+00  0.00000000E+00  1.00000000E+00  0.00000000E+00  0.00000000E+00
  0.00000000E+00  0.00000000E+00  1.00000000E+00  0.00000000E+00  0.00000000E+00
  0.00000000E+00  0.00000000E+00  1.00000000E+00  0.00000000E+00  0.00000000E+00
  0.00000000E+00  0.00000000E+00  1.00000000E+00  0.00000000E+00  0.00000000E+00
  0.00000000E+00  0.00000000E+00  0.00000000E+00  1.00000000E+00  1.00000000E+00
  0.00000000E+00  1.00000000E+00  0.00000000E+00  0.00000000E+00  0.00000000E+00
  0.00000000E+00  0.00000000E+00  0.00000000E+00  0.00000000E+00  0.00000000E+00
  0.00000000E+00  0.00000000E+00
MxBond                                     I                3
NBond                                      I   N=           6
           3           3           1           1           1           1
IBond                                      I   N=          18
           2           3           4           1           5           6
           1           0           0           1           0           0
           2           0           0           2           0           0
RBond                                      R   N=          18
  2.00000000E+00  1.00000000E+00  1.00000000E+00  2.00000000E+00  1.00000000E+00
  1.00000000E+00  1.00000000E+00  0.00000000E+00  0.00000000E+00  1.00000000E+00
  0.00000000E+00  0.00000000E+00  1.00000000E+00  0.00000000E+00  0.00000000E+00
  1.00000000E+00  0.00000000E+00  0.00000000E+00
Virial Ratio                               R      2.001224653243034E+00
SCF Energy                                 R     -7.817718494416474E+01
Total Energy                               R     -7.817718494416474E+01
S**2                                       R      7.525801071294129E-01
S**2 after annihilation                    R      7.500053431018135E-01
RMS Force                                  R      3.133933482099489E-02
RMS Density                                R      1.680670059337300E-09
Job Status                                 I                1
Nuclear derivative order                   I                1
External E-field                           R   N=          35
  0.00000000E+00  0.00000000E+00  0.00000000E+00  0.00000000E+00  0.00000000E+00
  0.00000000E+00  0.00000000E+00  0.00000000E+00  0.00000000E+00  0.00000000E+00
  0.00000000E+00  0.00000000E+00  0.00000000E+00  0.00000000E+00  0.00000000E+00
  0.00000000E+00  0.00000000E+00  0.00000000E+00  0.00000000E+00  0.00000000E+00
  0.00000000E+00  0.00000000E+00  0.00000000E+00  0.00000000E+00  0.00000000E+00
  0.00000000E+00  0.00000000E+00  0.00000000E+00  0.00000000E+00  0.00000000E+00
  0.00000000E+00  0.00000000E+00  0.00000000E+00  0.00000000E+00  0.00000000E+00
IOpCl                                      I                1
IROHF                                      I                0
Alpha Orbital Energies                     R   N=          68
 -1.08898411E+01 -1.08886282E+01 -1.21316200E+00 -9.73044286E-01 -8.58587935E-01
 -8.11626892E-01 -7.17123891E-01 -6.89945733E-01 -2.78580626E-01 -1.47572302E-01
 -1.29257460E-01 -1.25018553E-01 -1.00107304E-01 -7.88002219E-02 -6.75685394E-02
 -4.90055336E-02 -4.37609922E-02 -2.79028593E-02 -3.16386810E-03  2.61302101E-02
  1.07937678E-01  1.11916350E-01  2.09012065E-01  2.23906295E-01  2.70106409E-01
  3.05023353E-01  3.10013290E-01  3.81565099E-01  3.89643374E-01  4.61014855E-01
  4.75527933E-01  4.93442670E-01  5.67923746E-01  6.22985191E-01  7.32080756E-01
  8.18020646E-01  8.69744432E-01  1.10758683E+00  1.17357219E+00  1.20355920E+00
  1.33056834E+00  1.33911655E+00  1.37288476E+00  1.38240104E+00  1.51030046E+00
  1.52520373E+00  1.71310684E+00  1.78241336E+00  1.80147337E+00  1.87254611E+00
  1.89125579E+00  1.95470829E+00  2.10233827E+00  2.19685596E+00  2.29010643E+00
  2.32124053E+00  2.40569280E+00  2.43671851E+00  2.44568344E+00  2.53736268E+00
  2.59005196E+00  2.85626558E+00  3.14448021E+00  3.37583854E+00  3.55970589E+00
  3.81090531E+00  2.34764590E+01  2.39980212E+01
Beta Orbital Energies                      R   N=          68
 -1.08874528E+01 -1.08863900E+01 -1.17127427E+00 -9.54150136E-01 -8.46276647E-01
 -8.02467173E-01 -7.14132864E-01 -4.35515829E-01 -2.11404513E-01 -1.64826946E-01
 -1.29444883E-01 -1.24793467E-01 -1.05991468E-01 -8.78847779E-02 -6.81449825E-02
 -4.80503383E-02 -3.42604665E-02 -2.34383585E-02 -5.93650577E-03  2.73166532E-02
  1.16475651E-01  1.18539884E-01  2.01518019E-01  2.17886271E-01  2.84206406E-01
  2.87758809E-01  3.17621208E-01  3.76212593E-01  3.99992784E-01  4.70972839E-01
  4.92810827E-01  5.08433848E-01  5.36593644E-01  6.20149286E-01  7.67687594E-01
  8.54286945E-01  8.92520181E-01  1.14997468E+00  1.18911536E+00  1.21184408E+00
  1.36034622E+00  1.36593781E+00  1.38556443E+00  1.38975486E+00  1.52641229E+00
  1.54670424E+00  1.73595500E+00  1.79712151E+00  1.83267868E+00  1.89427226E+00
  1.90720753E+00  1.99616353E+00  2.13368935E+00  2.22500874E+00  2.29965552E+00
  2.32691505E+00  2.41395845E+00  2.46025085E+00  2.47513081E+00  2.56217861E+00
  2.63622496E+00  2.89319085E+00  3.17618450E+00  3.42190867E+00  3.60525905E+00
  3.86259672E+00  2.34878600E+01  2.40161005E+01
Alpha MO coefficients                      R   N=        4624
  3.98837440E-01  3.27941080E-01  2.91347937E-08 -9.01811229E-04  0.00000000E+00
  8.91182109E-03 -6.62796048E-07  1.82834298E-03  0.00000000E+00 -2.36084670E-03
 -5.35675532E-07  1.29158209E-04  0.00000000E+00 -6.32080486E-04  4.44003737E-07
 -7.24615537E-04  0.00000000E+00 -6.72325625E-04  0.00000000E+00  0.00000000E+00
  7.23261866E-04 -6.70634211E-07  3.98837440E-01  3.27941080E-01 -2.91347937E-08
  9.01811229E-04  0.00000000E+00  8.91182109E-03  6.62796048E-07 -1.82834298E-03
  0.00000000E+00 -2.36084670E-03  5.35675532E-07 -1.29158209E-04  0.00000000E+00
 -6.32080486E-04 -4.44003737E-07  7.24615537E-04  0.00000000E+00 -6.72325625E-04
  0.00000000E+00  0.00000000E+00  7.23261866E-04 -6.70634211E-07  1.76790815E-04
 -2.38144025E-03  1.62910986E-03  1.27427241E-03  7.01960002E-04  0.00000000E+00
  1.76614424E-04 -2.38338033E-03  1.62998717E-03 -1.27485234E-03  7.02578856E-04
  0.00000000E+00  1.76790815E-04 -2.38144025E-03  1.62910986E-03 -1.27427241E-03
 -7.01960002E-04  0.00000000E+00  1.76614424E-04 -2.38338033E-03  1.62998717E-03
  1.27485234E-03 -7.02578856E-04  0.00000000E+00  3.99001977E-01  3.27761455E-01
  3.48259861E-08  3.26712324E-04  0.00000000E+00  9.65905406E-03 -4.39457527E-07
 -3.73560756E-03  0.00000000E+00 -2.78948997E-03  5.58420383E-08  1.11000215E-03
  0.00000000E+00  3.29159308E-03  4.60314340E-08 -1.16668958E-03  0.00000000E+00
 -1.51250571E-03  0.00000000E+00  0.00000000E+00 -1.91595374E-03 -2.68936128E-07
 -3.99001977E-01 -3.27761455E-01  3.48259861E-08  3.26712324E-04  0.00000000E+00
 -9.65905406E-03 -4.39457527E-07 -3.73560756E-03  0.00000000E+00  2.78948997E-03
  5.58420383E-08  1.11000215E-03  0.00000000E+00 -3.29159308E-03  4.60314340E-08
 -1.16668958E-03  0.00000000E+00  1.51250571E-03  0.00000000E+00  0.00000000E+00
  1.91595374E-03  2.68936128E-07  4.05172702E-04 -1.02525756E-03  6.97464390E-04
  6.23968777E-04  2.04893323E-04  0.00000000E+00  4.05047048E-04 -1.02599268E-03
  6.97912658E-04 -6.24409620E-04  2.05099825E-04  0.00000000E+00 -4.05172702E-04
  1.02525756E-03 -6.97464390E-04  6.23968777E-04  2.04893323E-04  0.00000000E+00
 -4.05047048E-04  1.02599268E-03 -6.97912658E-04 -6.24409620E-04  2.05099825E-04
  0.00000000E+00 -8.73704476E-02 -1.41198186E-01 -1.72177980E-06 -6.32876532E-02
  0.00000000E+00  3.72619569E-01 -2.14411896E-06 -8.85193516E-02  0.00000000E+00
  1.85711898E-01 -1.28215896E-07 -2.17395305E-02  0.00000000E+00  2.25868261E-04
 -9.02128307E-07  1.12998505E-02  0.00000000E+00 -6.46469709E-03  0.00000000E+00
  0.00000000E+00 -1.27886276E-02 -1.47438255E-06 -8.73704476E-02 -1.41198186E-01
  1.72177980E-06  6.32876532E-02  0.00000000E+00  3.72619569E-01  2.14411896E-06
  8.85193516E-02  0.00000000E+00  1.85711898E-01  1.28215896E-07  2.17395305E-02
  0.00000000E+00  2.25868261E-04  9.02128307E-07 -1.12998505E-02  0.00000000E+00
 -6.46469709E-03  0.00000000E+00  0.00000000E+00 -1.27886276E-02 -1.47438255E-06
  4.51605930E-02  4.76787336E-02 -1.01001849E-02 -7.79530332E-03 -7.04393347E-03
  0.00000000E+00  4.51642813E-02  4.76813783E-02 -1.01023683E-02  7.79328261E-03
 -7.04518704E-03  0.00000000E+00  4.51605930E-02  4.76787336E-02 -1.01001849E-02
  7.79530332E-03  7.04393347E-03  0.00000000E+00  4.51642813E-02  4.76813783E-02
 -1.01023683E-02 -7.79328261E-03  7.04518704E-03  0.00000000E+00 -6.99713192E-02
 -1.15115487E-01 -1.54627543E-05  7.69266119E-02  0.00000000E+00  3.15540705E-01
 -1.99548653E-05  1.16761709E-01  0.00000000E+00  2.77377124E-01 -8.12672230E-06
  2.70242189E-02  0.00000000E+00 -9.62802411E-02 -2.62837356E-07  2.86390583E-02
  0.00000000E+00 -1.21642274E-04  0.00000000E+00  0.00000000E+00  1.21568074E-02
 -1.36076928E-06  6.99713192E-02  1.15115487E-01 -1.54627543E-05  7.69266119E-02
  0.00000000E+00 -3.15540705E-01 -1.99548653E-05  1.16761709E-01  0.00000000E+00
 -2.77377124E-01 -8.12672230E-06  2.70242189E-02  0.00000000E+00  9.62802411E-02
 -2.62837356E-07  2.86390583E-02  0.00000000E+00  1.21642274E-04  0.00000000E+00
  0.00000000E+00 -1.21568074E-02  1.36076928E-06  8.75668067E-02  1.04261704E-01
 -2.58665823E-03 -1.35959798E-02 -5.23913340E-03  0.00000000E+00  8.75967048E-02
  1.04293340E-01 -2.58928775E-03  1.35985413E-02 -5.24380258E-03  0.00000000E+00
 -8.75668067E-02 -1.04261704E-01  2.58665823E-03 -1.35959798E-02 -5.23913340E-03
  0.00000000E+00 -8.75967048E-02 -1.04293340E-01  2.58928775E-03  1.35985413E-02
 -5.24380258E-03  0.00000000E+00 -6.06913361E-06 -1.01972938E-05  1.61732791E-01
  2.36912041E-06  0.00000000E+00  2.87461183E-05  2.41921449E-01  9.38104231E-06
  0.00000000E+00  4.24793551E-05  1.36808963E-01 -3.64508753E-06  0.00000000E+00
  1.35862730E-05  4.42246415E-03 -3.32274520E-06  0.00000000E+00 -8.80136254E-08
  0.00000000E+00  0.00000000E+00  4.13994130E-06 -8.53035063E-03  6.06913361E-06
  1.01972938E-05  1.61732791E-01  2.36912041E-06  0.00000000E+00 -2.87461183E-05
  2.41921449E-01  9.38104231E-06  0.00000000E+00 -4.24793551E-05  1.36808963E-01
 -3.64508753E-06  0.00000000E+00 -1.35862730E-05  4.42246415E-03 -3.32274520E-06
  0.00000000E+00  8.80136254E-08  0.00000000E+00  0.00000000E+00 -4.13994130E-06
  8.53035063E-03  9.23169688E-02  1.15192510E-01 -5.25395211E-03 -9.55202635E-03
 -9.81267263E-03  0.00000000E+00 -9.22985810E-02 -1.15164401E-01  5.25588096E-03
 -9.54831053E-03  9.81415271E-03  0.00000000E+00 -9.23169688E-02 -1.15192510E-01
  5.25395211E-03 -9.55202635E-03 -9.81267263E-03  0.00000000E+00  9.22985810E-02
  1.15164401E-01 -5.25588096E-03 -9.54831053E-03  9.81415271E-03  0.00000000E+00
 -2.27605410E-03 -3.86487570E-03 -3.09887900E-05  1.97208039E-01  0.00000000E+00
  8.03157662E-03 -4.09196298E-05  2.84971512E-01  0.00000000E+00  7.33490292E-02
 -3.42733547E-05  1.28424183E-01  0.00000000E+00  2.92387325E-03 -9.28712705E-06
 -8.60110309E-03  0.00000000E+00  1.69486856E-03  0.00000000E+00  0.00000000E+00
  2.25031875E-02 -7.58563483E-06 -2.27605410E-03 -3.86487570E-03  3.09887900E-05
 -1.97208039E-01  0.00000000E+00  8.03157662E-03  4.09196298E-05 -2.84971512E-01
  0.00000000E+00  7.33490292E-02  3.42733547E-05 -1.28424183E-01  0.00000000E+00
  2.92387325E-03  9.28712705E-06  8.60110309E-03  0.00000000E+00  1.69486856E-03
  0.00000000E+00  0.00000000E+00  2.25031875E-02 -7.58563483E-06  7.86449700E-02
  1.06042957E-01  1.60930999E-02 -1.19096794E-02  1.64729477E-03  0.00000000E+00
  7.87053414E-02  1.06116621E-01  1.60865769E-02  1.19156666E-02  1.64029743E-03
  0.00000000E+00  7.86449700E-02  1.06042957E-01  1.60930999E-02  1.19096794E-02
 -1.64729477E-03  0.00000000E+00  7.87053414E-02  1.06116621E-01  1.60865769E-02
 -1.19156666E-02 -1.64029743E-03  0.00000000E+00  1.36641663E-06  2.17675494E-06
  1.55298326E-01  3.86170214E-05  0.00000000E+00 -8.18318017E-06  2.35603662E-01
  5.86656435E-05  0.00000000E+00  1.14649966E-05  1.93499849E-01  2.66242390E-05
  0.00000000E+00  1.75899398E-07  1.85695265E-02 -4.57099074E-06  0.00000000E+00
  8.47211094E-08  0.00000000E+00  0.00000000E+00  8.52591075E-06  3.33254284E-02
  1.36641663E-06  2.17675494E-06 -1.55298326E-01 -3.86170214E-05  0.00000000E+00
 -8.18318017E-06 -2.35603662E-01 -5.86656435E-05  0.00000000E+00  1.14649966E-05
 -1.93499849E-01 -2.66242390E-05  0.00000000E+00  1.75899398E-07 -1.85695265E-02
  4.57099074E-06  0.00000000E+00  8.47211094E-08  0.00000000E+00  0.00000000E+00
  8.52591075E-06  3.33254284E-02  1.15270413E-01  1.57598456E-01  2.23751014E-02
 -5.58163395E-03 -8.90788956E-03  0.00000000E+00 -1.15233280E-01 -1.57535796E-01
 -2.23527310E-02 -5.57297458E-03  8.91035902E-03  0.00000000E+00  1.15270413E-01
  1.57598456E-01  2.23751014E-02  5.58163395E-03  8.90788956E-03  0.00000000E+00
 -1.15233280E-01 -1.57535796E-01 -2.23527310E-02  5.57297458E-03 -8.91035902E-03
  0.00000000E+00  0.00000000E+00  0.00000000E+00  0.00000000E+00  0.00000000E+00
  1.89525280E-01  0.00000000E+00  0.00000000E+00  0.00000000E+00  3.17545478E-01
  0.00000000E+00  0.00000000E+00  0.00000000E+00  2.21488918E-01  0.00000000E+00
  0.00000000E+00  0.00000000E+00 -6.29232799E-03  0.00000000E+00 -1.83906939E-07
 -3.33569181E-02  0.00000000E+00  0.00000000E+00  0.00000000E+00  0.00000000E+00
  0.00000000E+00  0.00000000E+00  1.89525280E-01  0.00000000E+00  0.00000000E+00
  0.00000000E+00  3.17545478E-01  0.00000000E+00  0.00000000E+00  0.00000000E+00
  2.21488918E-01  0.00000000E+00  0.00000000E+00  0.00000000E+00 -6.29232799E-03
  0.00000000E+00  1.83906939E-07  3.33569181E-02  0.00000000E+00  0.00000000E+00
  0.00000000E+00  0.00000000E+00  0.00000000E+00  0.00000000E+00  0.00000000E+00
  9.38183419E-03  0.00000000E+00  0.00000000E+00  0.00000000E+00  0.00000000E+00
  0.00000000E+00  9.38276955E-03  0.00000000E+00  0.00000000E+00  0.00000000E+00
  0.00000000E+00  0.00000000E+00  9.38183419E-03  0.00000000E+00  0.00000000E+00
  0.00000000E+00  0.00000000E+00  0.00000000E+00  9.38276955E-03  0.00000000E+00
  0.00000000E+00  0.00000000E+00  0.00000000E+00  2.02903313E-01  0.00000000E+00
  0.00000000E+00  0.00000000E+00  3.40838775E-01  0.00000000E+00  0.00000000E+00
  0.00000000E+00  4.94224486E-01  0.00000000E+00  0.00000000E+00  0.00000000E+00
  1.74260166E-01  0.00000000E+00 -1.73394807E-07  2.67992377E-02  0.00000000E+00
  0.00000000E+00  0.00000000E+00  0.00000000E+00  0.00000000E+00  0.00000000E+00
 -2.02903313E-01  0.00000000E+00  0.00000000E+00  0.00000000E+00 -3.40838775E-01
  0.00000000E+00  0.00000000E+00  0.00000000E+00 -4.94224486E-01  0.00000000E+00
  0.00000000E+00  0.00000000E+00 -1.74260166E-01  0.00000000E+00 -1.73394807E-07
  2.67992377E-02  0.00000000E+00  0.00000000E+00  0.00000000E+00  0.00000000E+00
  0.00000000E+00  0.00000000E+00  0.00000000E+00  1.90484981E-02  0.00000000E+00
  0.00000000E+00  0.00000000E+00  0.00000000E+00  0.00000000E+00  1.90508488E-02
  0.00000000E+00  0.00000000E+00  0.00000000E+00  0.00000000E+00  0.00000000E+00
 -1.90484981E-02  0.00000000E+00  0.00000000E+00  0.00000000E+00  0.00000000E+00
  0.00000000E+00 -1.90508488E-02  2.94754442E-02  5.10918433E-02 -1.13116775E-05
 -4.74249659E-02  0.00000000E+00 -1.62495804E-01 -1.13529001E-05 -7.30125761E-02
  0.00000000E+00 -6.44746821E-01 -8.53371925E-05 -2.23732136E-01  0.00000000E+00
  8.46970130E-01 -1.01855983E-04  1.44452291E-01  0.00000000E+00  1.02492458E-02
  0.00000000E+00  0.00000000E+00  5.45706844E-03  2.82949113E-06  2.94754442E-02
  5.10918433E-02  1.13116775E-05  4.74249659E-02  0.00000000E+00 -1.62495804E-01
  1.13529001E-05  7.30125761E-02  0.00000000E+00 -6.44746821E-01  8.53371925E-05
  2.23732136E-01  0.00000000E+00  8.46970130E-01  1.01855983E-04 -1.44452291E-01
  0.00000000E+00  1.02492458E-02  0.00000000E+00  0.00000000E+00  5.45706844E-03
  2.82949113E-06 -4.03601878E-03  9.35035835E-02 -1.22494268E-02  8.77033165E-03
 -7.64625208E-04  0.00000000E+00 -4.04163637E-03  9.34996598E-02 -1.24039437E-02
 -8.76764982E-03 -7.65126427E-04  0.00000000E+00 -4.03601878E-03  9.35035835E-02
 -1.22494268E-02 -8.77033165E-03  7.64625208E-04  0.00000000E+00 -4.04163637E-03
  9.34996598E-02 -1.24039437E-02  8.76764982E-03  7.65126427E-04  0.00000000E+00
  9.45129146E-06  1.64573701E-05 -9.26268217E-02 -1.01631720E-05  0.00000000E+00
 -4.95721754E-05 -1.50171270E-01 -1.09674837E-05  0.00000000E+00 -1.78433449E-04
 -3.25557491E-01 -1.56281357E-05  0.00000000E+00 -4.81862021E-04  5.17212445E-01
  2.81093530E-04  0.00000000E+00 -1.60171733E-06  0.00000000E+00  0.00000000E+00
 -1.64596602E-07  2.75234483E-02 -9.45129146E-06 -1.64573701E-05 -9.26268217E-02
 -1.01631720E-05  0.00000000E+00  4.95721754E-05 -1.50171270E-01 -1.09674837E-05
  0.00000000E+00  1.78433449E-04 -3.25557491E-01 -1.56281357E-05  0.00000000E+00
  4.81862021E-04  5.17212445E-01  2.81093530E-04  0.00000000E+00  1.60171733E-06
  0.00000000E+00  0.00000000E+00  1.64596602E-07 -2.75234483E-02  1.55898815E-02
  1.28317162E-01  1.33058639E-01  1.12326920E-02  6.99844700E-03  0.00000000E+00
 -1.55762125E-02 -1.28246043E-01 -1.33001999E-01  1.12271054E-02 -6.99390062E-03
  0.00000000E+00 -1.55898815E-02 -1.28317162E-01 -1.33058639E-01  1.12326920E-02
  6.99844700E-03  0.00000000E+00  1.55762125E-02  1.28246043E-01  1.33001999E-01
  1.12271054E-02 -6.99390062E-03  0.00000000E+00 -3.26200116E-02 -5.68806701E-02
 -2.09364199E-05  1.99128580E-02  0.00000000E+00  1.77877007E-01 -3.71700304E-05
  2.16221025E-02  0.00000000E+00  6.21125629E-01 -7.04595280E-05  2.31754396E-02
  0.00000000E+00  4.94424442E+00  1.44075978E-04 -1.95751204E+00  0.00000000E+00
  6.73333895E-03  0.00000000E+00  0.00000000E+00  1.07068679E-02  5.06922677E-06
  3.26200116E-02  5.68806701E-02 -2.09364199E-05  1.99128580E-02  0.00000000E+00
 -1.77877007E-01 -3.71700304E-05  2.16221025E-02  0.00000000E+00 -6.21125629E-01
 -7.04595280E-05  2.31754396E-02  0.00000000E+00 -4.94424442E+00  1.44075978E-04
 -1.95751204E+00  0.00000000E+00 -6.73333895E-03  0.00000000E+00  0.00000000E+00