 vasp.6.3.1 04May22 (build Aug 04 2022 13:02:54) complex                        
  
 executed on             LinuxIFC date 2024.11.27  04:35:53
 running on   28 total cores
 distrk:  each k-point on   28 cores,    1 groups
 distr:  one band on NCORE=  14 cores,    2 groups


--------------------------------------------------------------------------------------------------------


 INCAR:
   ISTART = 1            (Read existing wavefunction
   ISPIN = 1            (Non-Spin polarised DFT)
   LREAL = .FALSE.       (Projection operators: automatic)
   ENCUT = 520        (Cut-off energy for plane wave basis set, in eV)
   PREC = A       (Precision level)
   LWAVE = .FALSE.        (Write WAVECAR or not)
   LCHARG = .FALSE.        (Write CHGCAR or not)
   ADDGRID = .TRUE.        (Increase grid
   KSPACING = 0.2000
   KGAMMA = .FALSE.
   IVDW = 12
   ISMEAR = 0            (Gaussian smearing
   SIGMA = 0.05         (Smearing value in eV
   NELM = 200           (Max electronic SCF steps)
   NELMIN = 6            (Min electronic SCF steps)
   EDIFF = 1E-08        (SCF energy convergence
   NSW = 0          (Max ionic steps)
   IBRION = -1            (Algorithm: 0-MD
   ISIF = 3           (Stress/relaxation: 2-Ions, 3-Shape/Ions/V, 4-Shape/Ions)
   EDIFFG = -1E-04        (Ionic convergence
   ISYM = 0
   SYMPREC = 1E-08
   NCORE = 14

 POTCAR:    PAW_PBE C 08Apr2002                   
 -----------------------------------------------------------------------------
|                                                                             |
|           W    W    AA    RRRRR   N    N  II  N    N   GGGG   !!!           |
|           W    W   A  A   R    R  NN   N  II  NN   N  G    G  !!!           |
|           W    W  A    A  R    R  N N  N  II  N N  N  G       !!!           |
|           W WW W  AAAAAA  RRRRR   N  N N  II  N  N N  G  GGG   !            |
|           WW  WW  A    A  R   R   N   NN  II  N   NN  G    G                |
|           W    W  A    A  R    R  N    N  II  N    N   GGGG   !!!           |
|                                                                             |
|     For optimal performance we recommend to set                             |
|       NCORE = 2 up to number-of-cores-per-socket                            |
|     NCORE specifies how many cores store one orbital (NPAR=cpu/NCORE).      |
|     This setting can greatly improve the performance of VASP for DFT.       |
|     The default, NCORE=1 might be grossly inefficient on modern             |
|     multi-core architectures or massively parallel machines. Do your        |
|     own testing! More info at https://www.vasp.at/wiki/index.php/NCORE      |
|     Unfortunately you need to use the default for GW and RPA                |
|     calculations (for HF NCORE is supported but not extensively tested      |
|     yet).                                                                   |
|                                                                             |
 -----------------------------------------------------------------------------

 POTCAR:    PAW_PBE C 08Apr2002                   
   VRHFIN =C: s2p2                                                                                  
   LEXCH  = PE                                                                                      
   EATOM  =   147.1560 eV,   10.8157 Ry                                                             
                                                                                                    
   TITEL  = PAW_PBE C 08Apr2002                                                                     
   LULTRA =        F    use ultrasoft PP ?                                                          
   IUNSCR =        1    unscreen: 0-lin 1-nonlin 2-no                                               
   RPACOR =    1.200    partial core radius                                                         
   POMASS =   12.011; ZVAL   =    4.000    mass and valenz                                          
   RCORE  =    1.500    outmost cutoff radius                                                       
   RWIGS  =    1.630; RWIGS  =    0.863    wigner-seitz radius (au A)                               
   ENMAX  =  400.000; ENMIN  =  300.000 eV                                                          
   ICORE  =        2    local potential                                                             
   LCOR   =        T    correct aug charges                                                         
   LPAW   =        T    paw PP                                                                      
   EAUG   =  644.873                                                                                
   DEXC   =    0.000                                                                                
   RMAX   =    1.529    core radius for proj-oper                                                   
   RAUG   =    1.300    factor for augmentation sphere                                              
   RDEP   =    1.501    radius for radial grids                                                     
   RDEPT  =    1.300    core radius for aug-charge                                                  
                                                                                                    
   Atomic configuration                                                                             
    4 entries                                                                                       
     n  l   j            E        occ.                                                              
     1  0  0.50      -273.3789   2.0000                                                             
     2  0  0.50       -13.7508   2.0000                                                             
     2  1  0.50        -5.2854   2.0000                                                             
     3  2  1.50        -5.4423   0.0000                                                             
   Description                                                                                      
     l       E           TYP  RCUT    TYP  RCUT                                                     
     0    -13.7508458     23  1.200                                                                 
     0     -8.2022199     23  1.200                                                                 
     1     -5.2854383     23  1.500                                                                 
     1     34.0145650     23  1.500                                                                 
     2     -5.4423304      7  1.500                                                                 
  local pseudopotential read in
  partial core-charges read in
  partial kinetic energy density read in
  atomic valenz-charges read in
  non local Contribution for L=           0  read in
    real space projection operators read in
  non local Contribution for L=           0  read in
    real space projection operators read in
  non local Contribution for L=           1  read in
    real space projection operators read in
  non local Contribution for L=           1  read in
    real space projection operators read in
    PAW grid and wavefunctions read in
 
   number of l-projection  operators is LMAX  =           4
   number of lm-projection operators is LMMAX =           8
 
  PAW_PBE C 08Apr2002                   :
 energy of atom  1       EATOM= -147.1560
 kinetic energy error for atom=    0.0071 (will be added to EATOM!!)
 
 
 POSCAR: Graphene
  positions in direct lattice
  No initial velocities read in
 exchange correlation table for  LEXCH =        8
   RHO(1)=    0.500       N(1)  =     2000
   RHO(2)=  100.500       N(2)  =     4000
 


--------------------------------------------------------------------------------------------------------


 ion  position               nearest neighbor table
   1  0.000  0.000  0.500-   2 1.28   2 1.28   2 1.28
   2  0.667  0.333  0.500-   1 1.28   1 1.28   1 1.28
 

IMPORTANT INFORMATION: All symmetrisations will be switched off!
NOSYMM: (Re-)initialisation of all symmetry stuff for point group C_1.


----------------------------------------------------------------------------------------

                                     Primitive cell                                     

  volume of cell :      64.0589

  direct lattice vectors                    reciprocal lattice vectors
     2.220637636  0.000000000  0.000000000     0.450321108  0.259985500  0.000000000
    -1.110292641  1.923138838  0.000000000     0.000000000  0.519983259  0.000000000
     0.000000000  0.000000000 15.000000000     0.000000000  0.000000000  0.066666667

  length of vectors
     2.220637636  2.220633410 15.000000000     0.519982269  0.519983259  0.066666667

  position of ions in fractional coordinates (direct lattice)
     0.000000000  0.000000000  0.500000000
     0.666668846  0.333334637  0.500000000

  ion indices of the primitive-cell ions
   primitive index   ion index
                 1           1
                 2           2

----------------------------------------------------------------------------------------

 
 
 KPOINTS: K-Spacing Value to Generate K-Mesh: 0.03

Automatic generation of k-mesh.
 Grid dimensions read from file:
 generate k-points for:   18   18    1

 Generating k-lattice:

  Cartesian coordinates                     Fractional coordinates (reciprocal lattice)
     0.025017839  0.014443639  0.000000000     0.055555556  0.000000000  0.000000000
     0.000000000  0.028887959  0.000000000     0.000000000  0.055555556  0.000000000
     0.000000000  0.000000000  0.066666667     0.000000000  0.000000000  1.000000000

  Length of vectors
     0.028887904  0.028887959  0.066666667

  Shift w.r.t. Gamma in fractional coordinates (k-lattice)
     0.000000000  0.000000000  0.000000000

 
 Subroutine IBZKPT returns following result:
 ===========================================
 
 Found    164 irreducible k-points:
 
 Following reciprocal coordinates:
            Coordinates               Weight
  0.000000  0.000000  0.000000      1.000000
  0.055556 -0.000000  0.000000      2.000000
  0.111111 -0.000000  0.000000      2.000000
  0.166667  0.000000  0.000000      2.000000
  0.222222  0.000000  0.000000      2.000000
  0.277778  0.000000  0.000000      2.000000
  0.333333 -0.000000  0.000000      2.000000
  0.388889  0.000000  0.000000      2.000000
  0.444444  0.000000  0.000000      2.000000
  0.500000  0.000000  0.000000      1.000000
  0.000000  0.055556  0.000000      2.000000
  0.055556  0.055556  0.000000      2.000000
  0.111111  0.055556  0.000000      2.000000
  0.166667  0.055556  0.000000      2.000000
  0.222222  0.055556  0.000000      2.000000
  0.277778  0.055556  0.000000      2.000000
  0.333333  0.055556  0.000000      2.000000
  0.388889  0.055556  0.000000      2.000000
  0.444444  0.055556  0.000000      2.000000
  0.500000  0.055556  0.000000      2.000000
 -0.444444  0.055556  0.000000      2.000000
 -0.388889  0.055556  0.000000      2.000000
 -0.333333  0.055556  0.000000      2.000000
 -0.277778  0.055556  0.000000      2.000000
 -0.222222  0.055556  0.000000      2.000000
 -0.166667  0.055556  0.000000      2.000000
 -0.111111  0.055556  0.000000      2.000000
 -0.055556  0.055556  0.000000      2.000000
  0.000000  0.111111  0.000000      2.000000
  0.055556  0.111111  0.000000      2.000000
  0.111111  0.111111  0.000000      2.000000
  0.166667  0.111111  0.000000      2.000000
  0.222222  0.111111  0.000000      2.000000
  0.277778  0.111111  0.000000      2.000000
  0.333333  0.111111  0.000000      2.000000
  0.388889  0.111111  0.000000      2.000000
  0.444444  0.111111  0.000000      2.000000
  0.500000  0.111111  0.000000      2.000000
 -0.444444  0.111111  0.000000      2.000000
 -0.388889  0.111111  0.000000      2.000000
 -0.333333  0.111111  0.000000      2.000000
 -0.277778  0.111111  0.000000      2.000000
 -0.222222  0.111111  0.000000      2.000000
 -0.166667  0.111111  0.000000      2.000000
 -0.111111  0.111111  0.000000      2.000000
 -0.055556  0.111111  0.000000      2.000000
  0.000000  0.166667  0.000000      2.000000
  0.055556  0.166667  0.000000      2.000000
  0.111111  0.166667  0.000000      2.000000
  0.166667  0.166667  0.000000      2.000000
  0.222222  0.166667  0.000000      2.000000
  0.277778  0.166667  0.000000      2.000000
  0.333333  0.166667  0.000000      2.000000
  0.388889  0.166667  0.000000      2.000000
  0.444444  0.166667  0.000000      2.000000
  0.500000  0.166667  0.000000      2.000000
 -0.444444  0.166667  0.000000      2.000000
 -0.388889  0.166667  0.000000      2.000000
 -0.333333  0.166667  0.000000      2.000000
 -0.277778  0.166667  0.000000      2.000000
 -0.222222  0.166667  0.000000      2.000000
 -0.166667  0.166667  0.000000      2.000000
 -0.111111  0.166667  0.000000      2.000000
 -0.055556  0.166667  0.000000      2.000000
  0.000000  0.222222  0.000000      2.000000
  0.055556  0.222222  0.000000      2.000000
  0.111111  0.222222  0.000000      2.000000
  0.166667  0.222222  0.000000      2.000000
  0.222222  0.222222  0.000000      2.000000
  0.277778  0.222222  0.000000      2.000000
  0.333333  0.222222  0.000000      2.000000
  0.388889  0.222222  0.000000      2.000000
  0.444444  0.222222  0.000000      2.000000
  0.500000  0.222222  0.000000      2.000000
 -0.444444  0.222222  0.000000      2.000000
 -0.388889  0.222222  0.000000      2.000000
 -0.333333  0.222222  0.000000      2.000000
 -0.277778  0.222222  0.000000      2.000000
 -0.222222  0.222222  0.000000      2.000000
 -0.166667  0.222222  0.000000      2.000000
 -0.111111  0.222222  0.000000      2.000000
 -0.055556  0.222222  0.000000      2.000000
  0.000000  0.277778  0.000000      2.000000
  0.055556  0.277778  0.000000      2.000000
  0.111111  0.277778  0.000000      2.000000
  0.166667  0.277778  0.000000      2.000000
  0.222222  0.277778  0.000000      2.000000
  0.277778  0.277778  0.000000      2.000000
  0.333333  0.277778  0.000000      2.000000
  0.388889  0.277778  0.000000      2.000000
  0.444444  0.277778  0.000000      2.000000
  0.500000  0.277778  0.000000      2.000000
 -0.444444  0.277778  0.000000      2.000000
 -0.388889  0.277778  0.000000      2.000000
 -0.333333  0.277778  0.000000      2.000000
 -0.277778  0.277778  0.000000      2.000000
 -0.222222  0.277778  0.000000      2.000000
 -0.166667  0.277778  0.000000      2.000000
 -0.111111  0.277778  0.000000      2.000000
 -0.055556  0.277778  0.000000      2.000000
  0.000000  0.333333  0.000000      2.000000
  0.055556  0.333333  0.000000      2.000000
  0.111111  0.333333  0.000000      2.000000
  0.166667  0.333333  0.000000      2.000000
  0.222222  0.333333  0.000000      2.000000
  0.277778  0.333333  0.000000      2.000000
  0.333333  0.333333  0.000000      2.000000
  0.388889  0.333333  0.000000      2.000000
  0.444444  0.333333  0.000000      2.000000
  0.500000  0.333333  0.000000      2.000000
 -0.444444  0.333333  0.000000      2.000000
 -0.388889  0.333333  0.000000      2.000000
 -0.333333  0.333333  0.000000      2.000000
 -0.277778  0.333333  0.000000      2.000000
 -0.222222  0.333333  0.000000      2.000000
 -0.166667  0.333333  0.000000      2.000000
 -0.111111  0.333333  0.000000      2.000000
 -0.055556  0.333333  0.000000      2.000000
  0.000000  0.388889  0.000000      2.000000
  0.055556  0.388889  0.000000      2.000000
  0.111111  0.388889  0.000000      2.000000
  0.166667  0.388889  0.000000      2.000000
  0.222222  0.388889  0.000000      2.000000
  0.277778  0.388889  0.000000      2.000000
  0.333333  0.388889  0.000000      2.000000
  0.388889  0.388889  0.000000      2.000000
  0.444444  0.388889  0.000000      2.000000
  0.500000  0.388889  0.000000      2.000000
 -0.444444  0.388889  0.000000      2.000000
 -0.388889  0.388889  0.000000      2.000000
 -0.333333  0.388889  0.000000      2.000000
 -0.277778  0.388889  0.000000      2.000000
 -0.222222  0.388889  0.000000      2.000000
 -0.166667  0.388889  0.000000      2.000000
 -0.111111  0.388889  0.000000      2.000000
 -0.055556  0.388889  0.000000      2.000000
  0.000000  0.444444  0.000000      2.000000
  0.055556  0.444444  0.000000      2.000000
  0.111111  0.444444  0.000000      2.000000
  0.166667  0.444444  0.000000      2.000000
  0.222222  0.444444  0.000000      2.000000
  0.277778  0.444444  0.000000      2.000000
  0.333333  0.444444  0.000000      2.000000
  0.388889  0.444444  0.000000      2.000000
  0.444444  0.444444  0.000000      2.000000
  0.500000  0.444444  0.000000      2.000000
 -0.444444  0.444444  0.000000      2.000000
 -0.388889  0.444444  0.000000      2.000000
 -0.333333  0.444444  0.000000      2.000000
 -0.277778  0.444444  0.000000      2.000000
 -0.222222  0.444444  0.000000      2.000000
 -0.166667  0.444444  0.000000      2.000000
 -0.111111  0.444444  0.000000      2.000000
 -0.055556  0.444444  0.000000      2.000000
  0.000000  0.500000  0.000000      1.000000
  0.055556  0.500000  0.000000      2.000000
  0.111111  0.500000  0.000000      2.000000
  0.166667  0.500000  0.000000      2.000000
  0.222222  0.500000  0.000000      2.000000
  0.277778  0.500000  0.000000      2.000000
  0.333333  0.500000  0.000000      2.000000
  0.388889  0.500000  0.000000      2.000000
  0.444444  0.500000  0.000000      2.000000
  0.500000  0.500000  0.000000      1.000000
 
 Following cartesian coordinates:
            Coordinates               Weight
  0.000000  0.000000  0.000000      1.000000
  0.025018  0.014444  0.000000      2.000000
  0.050036  0.028887  0.000000      2.000000
  0.075054  0.043331  0.000000      2.000000
  0.100071  0.057775  0.000000      2.000000
  0.125089  0.072218  0.000000      2.000000
  0.150107  0.086662  0.000000      2.000000
  0.175125  0.101105  0.000000      2.000000
  0.200143  0.115549  0.000000      2.000000
  0.225161  0.129993  0.000000      1.000000
  0.000000  0.028888  0.000000      2.000000
  0.025018  0.043332  0.000000      2.000000
  0.050036  0.057775  0.000000      2.000000
  0.075054  0.072219  0.000000      2.000000
  0.100071  0.086663  0.000000      2.000000
  0.125089  0.101106  0.000000      2.000000
  0.150107  0.115550  0.000000      2.000000
  0.175125  0.129993  0.000000      2.000000
  0.200143  0.144437  0.000000      2.000000
  0.225161  0.158881  0.000000      2.000000
 -0.200143 -0.086661  0.000000      2.000000
 -0.175125 -0.072218  0.000000      2.000000
 -0.150107 -0.057774  0.000000      2.000000
 -0.125089 -0.043330  0.000000      2.000000
 -0.100071 -0.028887  0.000000      2.000000
 -0.075054 -0.014443  0.000000      2.000000
 -0.050036  0.000001  0.000000      2.000000
 -0.025018  0.014444  0.000000      2.000000
  0.000000  0.057776  0.000000      2.000000
  0.025018  0.072220  0.000000      2.000000
  0.050036  0.086663  0.000000      2.000000
  0.075054  0.101107  0.000000      2.000000
  0.100071  0.115550  0.000000      2.000000
  0.125089  0.129994  0.000000      2.000000
  0.150107  0.144438  0.000000      2.000000
  0.175125  0.158881  0.000000      2.000000
  0.200143  0.173325  0.000000      2.000000
  0.225161  0.187769  0.000000      2.000000
 -0.200143 -0.057773  0.000000      2.000000
 -0.175125 -0.043330  0.000000      2.000000
 -0.150107 -0.028886  0.000000      2.000000
 -0.125089 -0.014442  0.000000      2.000000
 -0.100071  0.000001  0.000000      2.000000
 -0.075054  0.014445  0.000000      2.000000
 -0.050036  0.028889  0.000000      2.000000
 -0.025018  0.043332  0.000000      2.000000
  0.000000  0.086664  0.000000      2.000000
  0.025018  0.101108  0.000000      2.000000
  0.050036  0.115551  0.000000      2.000000
  0.075054  0.129995  0.000000      2.000000
  0.100071  0.144438  0.000000      2.000000
  0.125089  0.158882  0.000000      2.000000
  0.150107  0.173326  0.000000      2.000000
  0.175125  0.187769  0.000000      2.000000
  0.200143  0.202213  0.000000      2.000000
  0.225161  0.216657  0.000000      2.000000
 -0.200143 -0.028885  0.000000      2.000000
 -0.175125 -0.014442  0.000000      2.000000
 -0.150107  0.000002  0.000000      2.000000
 -0.125089  0.014446  0.000000      2.000000
 -0.100071  0.028889  0.000000      2.000000
 -0.075054  0.043333  0.000000      2.000000
 -0.050036  0.057777  0.000000      2.000000
 -0.025018  0.072220  0.000000      2.000000
  0.000000  0.115552  0.000000      2.000000
  0.025018  0.129995  0.000000      2.000000
  0.050036  0.144439  0.000000      2.000000
  0.075054  0.158883  0.000000      2.000000
  0.100071  0.173326  0.000000      2.000000
  0.125089  0.187770  0.000000      2.000000
  0.150107  0.202214  0.000000      2.000000
  0.175125  0.216657  0.000000      2.000000
  0.200143  0.231101  0.000000      2.000000
  0.225161  0.245545  0.000000      2.000000
 -0.200143  0.000003  0.000000      2.000000
 -0.175125  0.014446  0.000000      2.000000
 -0.150107  0.028890  0.000000      2.000000
 -0.125089  0.043334  0.000000      2.000000
 -0.100071  0.057777  0.000000      2.000000
 -0.075054  0.072221  0.000000      2.000000
 -0.050036  0.086665  0.000000      2.000000
 -0.025018  0.101108  0.000000      2.000000
  0.000000  0.144440  0.000000      2.000000
  0.025018  0.158883  0.000000      2.000000
  0.050036  0.173327  0.000000      2.000000
  0.075054  0.187771  0.000000      2.000000
  0.100071  0.202214  0.000000      2.000000
  0.125089  0.216658  0.000000      2.000000
  0.150107  0.231102  0.000000      2.000000
  0.175125  0.245545  0.000000      2.000000
  0.200143  0.259989  0.000000      2.000000
  0.225161  0.274433  0.000000      2.000000
 -0.200143  0.028891  0.000000      2.000000
 -0.175125  0.043334  0.000000      2.000000
 -0.150107  0.057778  0.000000      2.000000
 -0.125089  0.072222  0.000000      2.000000
 -0.100071  0.086665  0.000000      2.000000
 -0.075054  0.101109  0.000000      2.000000
 -0.050036  0.115553  0.000000      2.000000
 -0.025018  0.129996  0.000000      2.000000
  0.000000  0.173328  0.000000      2.000000
  0.025018  0.187771  0.000000      2.000000
  0.050036  0.202215  0.000000      2.000000
  0.075054  0.216659  0.000000      2.000000
  0.100071  0.231102  0.000000      2.000000
  0.125089  0.245546  0.000000      2.000000
  0.150107  0.259990  0.000000      2.000000
  0.175125  0.274433  0.000000      2.000000
  0.200143  0.288877  0.000000      2.000000
  0.225161  0.303321  0.000000      2.000000
 -0.200143  0.057779  0.000000      2.000000
 -0.175125  0.072222  0.000000      2.000000
 -0.150107  0.086666  0.000000      2.000000
 -0.125089  0.101110  0.000000      2.000000
 -0.100071  0.115553  0.000000      2.000000
 -0.075054  0.129997  0.000000      2.000000
 -0.050036  0.144440  0.000000      2.000000
 -0.025018  0.158884  0.000000      2.000000
  0.000000  0.202216  0.000000      2.000000
  0.025018  0.216659  0.000000      2.000000
  0.050036  0.231103  0.000000      2.000000
  0.075054  0.245547  0.000000      2.000000
  0.100071  0.259990  0.000000      2.000000
  0.125089  0.274434  0.000000      2.000000
  0.150107  0.288878  0.000000      2.000000
  0.175125  0.303321  0.000000      2.000000
  0.200143  0.317765  0.000000      2.000000
  0.225161  0.332208  0.000000      2.000000
 -0.200143  0.086667  0.000000      2.000000
 -0.175125  0.101110  0.000000      2.000000
 -0.150107  0.115554  0.000000      2.000000
 -0.125089  0.129998  0.000000      2.000000
 -0.100071  0.144441  0.000000      2.000000
 -0.075054  0.158885  0.000000      2.000000
 -0.050036  0.173328  0.000000      2.000000
 -0.025018  0.187772  0.000000      2.000000
  0.000000  0.231104  0.000000      2.000000
  0.025018  0.245547  0.000000      2.000000
  0.050036  0.259991  0.000000      2.000000
  0.075054  0.274435  0.000000      2.000000
  0.100071  0.288878  0.000000      2.000000
  0.125089  0.303322  0.000000      2.000000
  0.150107  0.317766  0.000000      2.000000
  0.175125  0.332209  0.000000      2.000000
  0.200143  0.346653  0.000000      2.000000
  0.225161  0.361096  0.000000      2.000000
 -0.200143  0.115555  0.000000      2.000000
 -0.175125  0.129998  0.000000      2.000000
 -0.150107  0.144442  0.000000      2.000000
 -0.125089  0.158885  0.000000      2.000000
 -0.100071  0.173329  0.000000      2.000000
 -0.075054  0.187773  0.000000      2.000000
 -0.050036  0.202216  0.000000      2.000000
 -0.025018  0.216660  0.000000      2.000000
  0.000000  0.259992  0.000000      1.000000
  0.025018  0.274435  0.000000      2.000000
  0.050036  0.288879  0.000000      2.000000
  0.075054  0.303323  0.000000      2.000000
  0.100071  0.317766  0.000000      2.000000
  0.125089  0.332210  0.000000      2.000000
  0.150107  0.346653  0.000000      2.000000
  0.175125  0.361097  0.000000      2.000000
  0.200143  0.375541  0.000000      2.000000
  0.225161  0.389984  0.000000      1.000000
 


--------------------------------------------------------------------------------------------------------




 Dimension of arrays:
   k-points           NKPTS =    164   k-points in BZ     NKDIM =    164   number of bands    NBANDS=      8
   number of dos      NEDOS =    301   number of ions     NIONS =      2
   non local maximal  LDIM  =      4   non local SUM 2l+1 LMDIM =      8
   total plane-waves  NPLWV =  36288
   max r-space proj   IRMAX =      1   max aug-charges    IRDMAX=  53673
   dimension x,y,z NGX =    18 NGY =   18 NGZ =  112
   dimension x,y,z NGXF=    36 NGYF=   36 NGZF=  224
   support grid    NGXF=    72 NGYF=   72 NGZF=  448
   ions per type =               2
   NGX,Y,Z   is equivalent  to a cutoff of  13.48, 13.48, 12.41 a.u.
   NGXF,Y,Z  is equivalent  to a cutoff of  26.95, 26.95, 24.83 a.u.

 SYSTEM =  unknown system                          
 POSCAR =  Graphene                                

 Startparameter for this run:
   NWRITE =      2    write-flag & timer
   PREC   = a         normal or accurate (medium, high low for compatibility)
   ISTART =      0    job   : 0-new  1-cont  2-samecut
   ICHARG =      2    charge: 1-file 2-atom 10-const
   ISPIN  =      1    spin polarized calculation?
   LNONCOLLINEAR =      F non collinear calculations
   LSORBIT =      F    spin-orbit coupling
   INIWAV =      1    electr: 0-lowe 1-rand  2-diag
   LASPH  =      F    aspherical Exc in radial PAW
 Electronic Relaxation 1
   ENCUT  =  520.0 eV  38.22 Ry    6.18 a.u.   4.13  4.13 27.89*2*pi/ulx,y,z
   ENINI  =  520.0     initial cutoff
   ENAUG  =  644.9 eV  augmentation charge cutoff
   NELM   =    200;   NELMIN=  6; NELMDL=  0     # of ELM steps 
   EDIFF  = 0.1E-07   stopping-criterion for ELM
   LREAL  =      F    real-space projection
   NLSPLINE    = F    spline interpolate recip. space projectors
   LCOMPAT=      F    compatible to vasp.4.4
   GGA_COMPAT  = T    GGA compatible to vasp.4.4-vasp.4.6
   LMAXPAW     = -100 max onsite density
   LMAXMIX     =    2 max onsite mixed and CHGCAR
   VOSKOWN=      0    Vosko Wilk Nusair interpolation
   ROPT   =    0.00000
 Ionic relaxation
   EDIFFG = -.1E-03   stopping-criterion for IOM
   NSW    =      0    number of steps for IOM
   NBLOCK =      1;   KBLOCK =      1    inner block; outer block 
   IBRION =     -1    ionic relax: 0-MD 1-quasi-New 2-CG
   NFREE  =      0    steps in history (QN), initial steepest desc. (CG)
   ISIF   =      3    stress and relaxation
   IWAVPR =     10    prediction:  0-non 1-charg 2-wave 3-comb
   ISYM   =      0    0-nonsym 1-usesym 2-fastsym
   LCORR  =      T    Harris-Foulkes like correction to forces

   POTIM  = 0.5000    time-step for ionic-motion
   TEIN   =    0.0    initial temperature
   TEBEG  =    0.0;   TEEND  =   0.0 temperature during run
   SMASS  =  -3.00    Nose mass-parameter (am)
   estimated Nose-frequenzy (Omega)   =  0.10E-29 period in steps = 0.13E+47 mass=  -0.113E-27a.u.
   SCALEE = 1.0000    scale energy and forces
   NPACO  =    256;   APACO  = 10.0  distance and # of slots for P.C.
   PSTRESS=    0.0 pullay stress

  Mass of Ions in am
   POMASS =  12.01
  Ionic Valenz
   ZVAL   =   4.00
  Atomic Wigner-Seitz radii
   RWIGS  =  -1.00
  virtual crystal weights 
   VCA    =   1.00
   NELECT =       8.0000    total number of electrons
   NUPDOWN=      -1.0000    fix difference up-down

 DOS related values:
   EMIN   =  10.00;   EMAX   =-10.00  energy-range for DOS
   EFERMI =   0.00
   ISMEAR =     0;   SIGMA  =   0.05  broadening in eV -4-tet -1-fermi 0-gaus

 Electronic relaxation 2 (details)
   IALGO  =     38    algorithm
   LDIAG  =      T    sub-space diagonalisation (order eigenvalues)
   LSUBROT=      F    optimize rotation matrix (better conditioning)
   TURBO    =      0    0=normal 1=particle mesh
   IRESTART =      0    0=no restart 2=restart with 2 vectors
   NREBOOT  =      0    no. of reboots
   NMIN     =      0    reboot dimension
   EREF     =   0.00    reference energy to select bands
   IMIX   =      4    mixing-type and parameters
     AMIX     =   0.40;   BMIX     =  1.00
     AMIX_MAG =   1.60;   BMIX_MAG =  1.00
     AMIN     =   0.10
     WC   =   100.;   INIMIX=   1;  MIXPRE=   1;  MAXMIX= -45

 Intra band minimization:
   WEIMIN = 0.0000     energy-eigenvalue tresh-hold
   EBREAK =  0.31E-09  absolut break condition
   DEPER  =   0.30     relativ break condition  

   TIME   =   0.40     timestep for ELM

  volume/ion in A,a.u.               =      32.03       216.15
  Fermi-wavevector in a.u.,A,eV,Ry     =   0.818298  1.546359  9.110625  0.669612
  Thomas-Fermi vector in A             =   1.928900
 
 Write flags
   LWAVE        =      F    write WAVECAR
   LDOWNSAMPLE  =      F    k-point downsampling of WAVECAR
   LCHARG       =      F    write CHGCAR
   LVTOT        =      F    write LOCPOT, total local potential
   LVHAR        =      F    write LOCPOT, Hartree potential only
   LELF         =      F    write electronic localiz. function (ELF)
   LORBIT       =      0    0 simple, 1 ext, 2 COOP (PROOUT), +10 PAW based schemes


 Dipole corrections
   LMONO  =      F    monopole corrections only (constant potential shift)
   LDIPOL =      F    correct potential (dipole corrections)
   IDIPOL =      0    1-x, 2-y, 3-z, 4-all directions 
   EPSILON=  1.0000000 bulk dielectric constant

 Exchange correlation treatment:
   GGA     =    --    GGA type
   LEXCH   =     8    internal setting for exchange type
   LIBXC   =     F    Libxc                    
   VOSKOWN =     0    Vosko Wilk Nusair interpolation
   LHFCALC =     F    Hartree Fock is set to
   LHFONE  =     F    Hartree Fock one center treatment
   AEXX    =    0.0000 exact exchange contribution

 Linear response parameters
   LEPSILON=     F    determine dielectric tensor
   LRPA    =     F    only Hartree local field effects (RPA)
   LNABLA  =     F    use nabla operator in PAW spheres
   LVEL    =     F    velocity operator in full k-point grid
   CSHIFT  =0.1000    complex shift for real part using Kramers Kronig
   OMEGAMAX=  -1.0    maximum frequency
   DEG_THRESHOLD= 0.2000000E-02 threshold for treating states as degnerate
   RTIME   =   -0.100 relaxation time in fs
  (WPLASMAI=    0.000 imaginary part of plasma frequency in eV, 0.658/RTIME)
   DFIELD  = 0.0000000 0.0000000 0.0000000 field for delta impulse in time
 
  Optional k-point grid parameters
   LKPOINTS_OPT  =     F    use optional k-point grid
   KPOINTS_OPT_MODE=     1    mode for optional k-point grid
 
 Orbital magnetization related:
   ORBITALMAG=     F  switch on orbital magnetization
   LCHIMAG   =     F  perturbation theory with respect to B field
   DQ        =  0.001000  dq finite difference perturbation B field
   LLRAUG    =     F  two centre corrections for induced B field



--------------------------------------------------------------------------------------------------------


 Static calculation
 charge density and potential will be updated during run
 non-spin polarized calculation
 Variant of blocked Davidson
 Davidson routine will perform the subspace rotation
 perform sub-space diagonalisation
    after iterative eigenvector-optimisation
 modified Broyden-mixing scheme, WC =      100.0
 initial mixing is a Kerker type mixing with AMIX =  0.4000 and BMIX =      1.0000
 Hartree-type preconditioning will be used
 using additional bands            4
 reciprocal scheme for non local part
 use partial core corrections
 calculate Harris-corrections to forces 
   (improved forces if not selfconsistent)
 use gradient corrections 
 use of overlap-Matrix (Vanderbilt PP)
 Gauss-broadening in eV      SIGMA  =   0.05


--------------------------------------------------------------------------------------------------------


  energy-cutoff  :      520.00
  volume of cell :       64.06
      direct lattice vectors                 reciprocal lattice vectors
     2.220637636  0.000000000  0.000000000     0.450321108  0.259985500  0.000000000
    -1.110292641  1.923138838  0.000000000     0.000000000  0.519983259  0.000000000
     0.000000000  0.000000000 15.000000000     0.000000000  0.000000000  0.066666667

  length of vectors
     2.220637636  2.220633410 15.000000000     0.519982269  0.519983259  0.066666667


 
 k-points in units of 2pi/SCALE and weight: K-Spacing Value to Generate K-Mesh: 0.03
   0.00000000  0.00000000  0.00000000       0.003
   0.02501784  0.01444364  0.00000000       0.006
   0.05003568  0.02888728  0.00000000       0.006
   0.07505352  0.04333092  0.00000000       0.006
   0.10007136  0.05777456  0.00000000       0.006
   0.12508920  0.07221819  0.00000000       0.006
   0.15010704  0.08666183  0.00000000       0.006
   0.17512488  0.10110547  0.00000000       0.006
   0.20014271  0.11554911  0.00000000       0.006
   0.22516055  0.12999275  0.00000000       0.003
   0.00000000  0.02888796  0.00000000       0.006
   0.02501784  0.04333160  0.00000000       0.006
   0.05003568  0.05777524  0.00000000       0.006
   0.07505352  0.07221888  0.00000000       0.006
   0.10007136  0.08666251  0.00000000       0.006
   0.12508920  0.10110615  0.00000000       0.006
   0.15010704  0.11554979  0.00000000       0.006
   0.17512488  0.12999343  0.00000000       0.006
   0.20014271  0.14443707  0.00000000       0.006
   0.22516055  0.15888071  0.00000000       0.006
  -0.20014271 -0.08666115  0.00000000       0.006
  -0.17512488 -0.07221751  0.00000000       0.006
  -0.15010704 -0.05777387  0.00000000       0.006
  -0.12508920 -0.04333024  0.00000000       0.006
  -0.10007136 -0.02888660  0.00000000       0.006
  -0.07505352 -0.01444296  0.00000000       0.006
  -0.05003568  0.00000068  0.00000000       0.006
  -0.02501784  0.01444432  0.00000000       0.006
   0.00000000  0.05777592  0.00000000       0.006
   0.02501784  0.07221956  0.00000000       0.006
   0.05003568  0.08666320  0.00000000       0.006
   0.07505352  0.10110683  0.00000000       0.006
   0.10007136  0.11555047  0.00000000       0.006
   0.12508920  0.12999411  0.00000000       0.006
   0.15010704  0.14443775  0.00000000       0.006
   0.17512488  0.15888139  0.00000000       0.006
   0.20014271  0.17332503  0.00000000       0.006
   0.22516055  0.18776867  0.00000000       0.006
  -0.20014271 -0.05777319  0.00000000       0.006
  -0.17512488 -0.04332955  0.00000000       0.006
  -0.15010704 -0.02888592  0.00000000       0.006
  -0.12508920 -0.01444228  0.00000000       0.006
  -0.10007136  0.00000136  0.00000000       0.006
  -0.07505352  0.01444500  0.00000000       0.006
  -0.05003568  0.02888864  0.00000000       0.006
  -0.02501784  0.04333228  0.00000000       0.006
   0.00000000  0.08666388  0.00000000       0.006
   0.02501784  0.10110752  0.00000000       0.006
   0.05003568  0.11555115  0.00000000       0.006
   0.07505352  0.12999479  0.00000000       0.006
   0.10007136  0.14443843  0.00000000       0.006
   0.12508920  0.15888207  0.00000000       0.006
   0.15010704  0.17332571  0.00000000       0.006
   0.17512488  0.18776935  0.00000000       0.006
   0.20014271  0.20221299  0.00000000       0.006
   0.22516055  0.21665663  0.00000000       0.006
  -0.20014271 -0.02888523  0.00000000       0.006
  -0.17512488 -0.01444160  0.00000000       0.006
  -0.15010704  0.00000204  0.00000000       0.006
  -0.12508920  0.01444568  0.00000000       0.006
  -0.10007136  0.02888932  0.00000000       0.006
  -0.07505352  0.04333296  0.00000000       0.006
  -0.05003568  0.05777660  0.00000000       0.006
  -0.02501784  0.07222024  0.00000000       0.006
   0.00000000  0.11555184  0.00000000       0.006
   0.02501784  0.12999547  0.00000000       0.006
   0.05003568  0.14443911  0.00000000       0.006
   0.07505352  0.15888275  0.00000000       0.006
   0.10007136  0.17332639  0.00000000       0.006
   0.12508920  0.18777003  0.00000000       0.006
   0.15010704  0.20221367  0.00000000       0.006
   0.17512488  0.21665731  0.00000000       0.006
   0.20014271  0.23110095  0.00000000       0.006
   0.22516055  0.24554459  0.00000000       0.006
  -0.20014271  0.00000272  0.00000000       0.006
  -0.17512488  0.01444636  0.00000000       0.006
  -0.15010704  0.02889000  0.00000000       0.006
  -0.12508920  0.04333364  0.00000000       0.006
  -0.10007136  0.05777728  0.00000000       0.006
  -0.07505352  0.07222092  0.00000000       0.006
  -0.05003568  0.08666456  0.00000000       0.006
  -0.02501784  0.10110820  0.00000000       0.006
   0.00000000  0.14443979  0.00000000       0.006
   0.02501784  0.15888343  0.00000000       0.006
   0.05003568  0.17332707  0.00000000       0.006
   0.07505352  0.18777071  0.00000000       0.006
   0.10007136  0.20221435  0.00000000       0.006
   0.12508920  0.21665799  0.00000000       0.006
   0.15010704  0.23110163  0.00000000       0.006
   0.17512488  0.24554527  0.00000000       0.006
   0.20014271  0.25998891  0.00000000       0.006
   0.22516055  0.27443254  0.00000000       0.006
  -0.20014271  0.02889068  0.00000000       0.006
  -0.17512488  0.04333432  0.00000000       0.006
  -0.15010704  0.05777796  0.00000000       0.006
  -0.12508920  0.07222160  0.00000000       0.006
  -0.10007136  0.08666524  0.00000000       0.006
  -0.07505352  0.10110888  0.00000000       0.006
  -0.05003568  0.11555252  0.00000000       0.006
  -0.02501784  0.12999616  0.00000000       0.006
   0.00000000  0.17332775  0.00000000       0.006
   0.02501784  0.18777139  0.00000000       0.006
   0.05003568  0.20221503  0.00000000       0.006
   0.07505352  0.21665867  0.00000000       0.006
   0.10007136  0.23110231  0.00000000       0.006
   0.12508920  0.24554595  0.00000000       0.006
   0.15010704  0.25998959  0.00000000       0.006
   0.17512488  0.27443322  0.00000000       0.006
   0.20014271  0.28887686  0.00000000       0.006
   0.22516055  0.30332050  0.00000000       0.006
  -0.20014271  0.05777864  0.00000000       0.006
  -0.17512488  0.07222228  0.00000000       0.006
  -0.15010704  0.08666592  0.00000000       0.006
  -0.12508920  0.10110956  0.00000000       0.006
  -0.10007136  0.11555320  0.00000000       0.006
  -0.07505352  0.12999684  0.00000000       0.006
  -0.05003568  0.14444048  0.00000000       0.006
  -0.02501784  0.15888411  0.00000000       0.006
   0.00000000  0.20221571  0.00000000       0.006
   0.02501784  0.21665935  0.00000000       0.006
   0.05003568  0.23110299  0.00000000       0.006
   0.07505352  0.24554663  0.00000000       0.006
   0.10007136  0.25999027  0.00000000       0.006
   0.12508920  0.27443391  0.00000000       0.006
   0.15010704  0.28887754  0.00000000       0.006
   0.17512488  0.30332118  0.00000000       0.006
   0.20014271  0.31776482  0.00000000       0.006
   0.22516055  0.33220846  0.00000000       0.006
  -0.20014271  0.08666660  0.00000000       0.006
  -0.17512488  0.10111024  0.00000000       0.006
  -0.15010704  0.11555388  0.00000000       0.006
  -0.12508920  0.12999752  0.00000000       0.006
  -0.10007136  0.14444116  0.00000000       0.006
  -0.07505352  0.15888480  0.00000000       0.006
  -0.05003568  0.17332843  0.00000000       0.006
  -0.02501784  0.18777207  0.00000000       0.006
   0.00000000  0.23110367  0.00000000       0.006
   0.02501784  0.24554731  0.00000000       0.006
   0.05003568  0.25999095  0.00000000       0.006
   0.07505352  0.27443459  0.00000000       0.006
   0.10007136  0.28887823  0.00000000       0.006
   0.12508920  0.30332186  0.00000000       0.006
   0.15010704  0.31776550  0.00000000       0.006
   0.17512488  0.33220914  0.00000000       0.006
   0.20014271  0.34665278  0.00000000       0.006
   0.22516055  0.36109642  0.00000000       0.006
  -0.20014271  0.11555456  0.00000000       0.006
  -0.17512488  0.12999820  0.00000000       0.006
  -0.15010704  0.14444184  0.00000000       0.006
  -0.12508920  0.15888548  0.00000000       0.006
  -0.10007136  0.17332912  0.00000000       0.006
  -0.07505352  0.18777275  0.00000000       0.006
  -0.05003568  0.20221639  0.00000000       0.006
  -0.02501784  0.21666003  0.00000000       0.006
   0.00000000  0.25999163  0.00000000       0.003
   0.02501784  0.27443527  0.00000000       0.006
   0.05003568  0.28887891  0.00000000       0.006
   0.07505352  0.30332255  0.00000000       0.006
   0.10007136  0.31776618  0.00000000       0.006
   0.12508920  0.33220982  0.00000000       0.006
   0.15010704  0.34665346  0.00000000       0.006
   0.17512488  0.36109710  0.00000000       0.006
   0.20014271  0.37554074  0.00000000       0.006
   0.22516055  0.38998438  0.00000000       0.003
 
 k-points in reciprocal lattice and weights: K-Spacing Value to Generate K-Mesh: 0.03
   0.00000000  0.00000000  0.00000000       0.003
   0.05555556 -0.00000000  0.00000000       0.006
   0.11111111 -0.00000000  0.00000000       0.006
   0.16666667  0.00000000  0.00000000       0.006
   0.22222222  0.00000000  0.00000000       0.006
   0.27777778  0.00000000  0.00000000       0.006
   0.33333333 -0.00000000  0.00000000       0.006
   0.38888889  0.00000000  0.00000000       0.006
   0.44444444  0.00000000  0.00000000       0.006
   0.50000000  0.00000000  0.00000000       0.003
   0.00000000  0.05555556  0.00000000       0.006
   0.05555556  0.05555556  0.00000000       0.006
   0.11111111  0.05555556  0.00000000       0.006
   0.16666667  0.05555556  0.00000000       0.006
   0.22222222  0.05555556  0.00000000       0.006
   0.27777778  0.05555556  0.00000000       0.006
   0.33333333  0.05555556  0.00000000       0.006
   0.38888889  0.05555556  0.00000000       0.006
   0.44444444  0.05555556  0.00000000       0.006
   0.50000000  0.05555556  0.00000000       0.006
  -0.44444444  0.05555556  0.00000000       0.006
  -0.38888889  0.05555556  0.00000000       0.006
  -0.33333333  0.05555556  0.00000000       0.006
  -0.27777778  0.05555556  0.00000000       0.006
  -0.22222222  0.05555556  0.00000000       0.006
  -0.16666667  0.05555556  0.00000000       0.006
  -0.11111111  0.05555556  0.00000000       0.006
  -0.05555556  0.05555556  0.00000000       0.006
   0.00000000  0.11111111  0.00000000       0.006
   0.05555556  0.11111111  0.00000000       0.006
   0.11111111  0.11111111  0.00000000       0.006
   0.16666667  0.11111111  0.00000000       0.006
   0.22222222  0.11111111  0.00000000       0.006
   0.27777778  0.11111111  0.00000000       0.006
   0.33333333  0.11111111  0.00000000       0.006
   0.38888889  0.11111111  0.00000000       0.006
   0.44444444  0.11111111  0.00000000       0.006
   0.50000000  0.11111111  0.00000000       0.006
  -0.44444444  0.11111111  0.00000000       0.006
  -0.38888889  0.11111111  0.00000000       0.006
  -0.33333333  0.11111111  0.00000000       0.006
  -0.27777778  0.11111111  0.00000000       0.006
  -0.22222222  0.11111111  0.00000000       0.006
  -0.16666667  0.11111111  0.00000000       0.006
  -0.11111111  0.11111111  0.00000000       0.006
  -0.05555556  0.11111111  0.00000000       0.006
   0.00000000  0.16666667  0.00000000       0.006
   0.05555556  0.16666667  0.00000000       0.006
   0.11111111  0.16666667  0.00000000       0.006
   0.16666667  0.16666667  0.00000000       0.006
   0.22222222  0.16666667  0.00000000       0.006
   0.27777778  0.16666667  0.00000000       0.006
   0.33333333  0.16666667  0.00000000       0.006
   0.38888889  0.16666667  0.00000000       0.006
   0.44444444  0.16666667  0.00000000       0.006
   0.50000000  0.16666667  0.00000000       0.006
  -0.44444444  0.16666667  0.00000000       0.006
  -0.38888889  0.16666667  0.00000000       0.006
  -0.33333333  0.16666667  0.00000000       0.006
  -0.27777778  0.16666667  0.00000000       0.006
  -0.22222222  0.16666667  0.00000000       0.006
  -0.16666667  0.16666667  0.00000000       0.006
  -0.11111111  0.16666667  0.00000000       0.006
  -0.05555556  0.16666667  0.00000000       0.006
   0.00000000  0.22222222  0.00000000       0.006
   0.05555556  0.22222222  0.00000000       0.006
   0.11111111  0.22222222  0.00000000       0.006
   0.16666667  0.22222222  0.00000000       0.006
   0.22222222  0.22222222  0.00000000       0.006
   0.27777778  0.22222222  0.00000000       0.006
   0.33333333  0.22222222  0.00000000       0.006
   0.38888889  0.22222222  0.00000000       0.006
   0.44444444  0.22222222  0.00000000       0.006
   0.50000000  0.22222222  0.00000000       0.006
  -0.44444444  0.22222222  0.00000000       0.006
  -0.38888889  0.22222222  0.00000000       0.006
  -0.33333333  0.22222222  0.00000000       0.006
  -0.27777778  0.22222222  0.00000000       0.006
  -0.22222222  0.22222222  0.00000000       0.006
  -0.16666667  0.22222222  0.00000000       0.006
  -0.11111111  0.22222222  0.00000000       0.006
  -0.05555556  0.22222222  0.00000000       0.006
   0.00000000  0.27777778  0.00000000       0.006
   0.05555556  0.27777778  0.00000000       0.006
   0.11111111  0.27777778  0.00000000       0.006
   0.16666667  0.27777778  0.00000000       0.006
   0.22222222  0.27777778  0.00000000       0.006
   0.27777778  0.27777778  0.00000000       0.006
   0.33333333  0.27777778  0.00000000       0.006
   0.38888889  0.27777778  0.00000000       0.006
   0.44444444  0.27777778  0.00000000       0.006
   0.50000000  0.27777778  0.00000000       0.006
  -0.44444444  0.27777778  0.00000000       0.006
  -0.38888889  0.27777778  0.00000000       0.006
  -0.33333333  0.27777778  0.00000000       0.006
  -0.27777778  0.27777778  0.00000000       0.006
  -0.22222222  0.27777778  0.00000000       0.006
  -0.16666667  0.27777778  0.00000000       0.006
  -0.11111111  0.27777778  0.00000000       0.006
  -0.05555556  0.27777778  0.00000000       0.006
   0.00000000  0.33333333  0.00000000       0.006
   0.05555556  0.33333333  0.00000000       0.006
   0.11111111  0.33333333  0.00000000       0.006
   0.16666667  0.33333333  0.00000000       0.006
   0.22222222  0.33333333  0.00000000       0.006
   0.27777778  0.33333333  0.00000000       0.006
   0.33333333  0.33333333  0.00000000       0.006
   0.38888889  0.33333333  0.00000000       0.006
   0.44444444  0.33333333  0.00000000       0.006
   0.50000000  0.33333333  0.00000000       0.006
  -0.44444444  0.33333333  0.00000000       0.006
  -0.38888889  0.33333333  0.00000000       0.006
  -0.33333333  0.33333333  0.00000000       0.006
  -0.27777778  0.33333333  0.00000000       0.006
  -0.22222222  0.33333333  0.00000000       0.006
  -0.16666667  0.33333333  0.00000000       0.006
  -0.11111111  0.33333333  0.00000000       0.006
  -0.05555556  0.33333333  0.00000000       0.006
   0.00000000  0.38888889  0.00000000       0.006
   0.05555556  0.38888889  0.00000000       0.006
   0.11111111  0.38888889  0.00000000       0.006
   0.16666667  0.38888889  0.00000000       0.006
   0.22222222  0.38888889  0.00000000       0.006
   0.27777778  0.38888889  0.00000000       0.006
   0.33333333  0.38888889  0.00000000       0.006
   0.38888889  0.38888889  0.00000000       0.006
   0.44444444  0.38888889  0.00000000       0.006
   0.50000000  0.38888889  0.00000000       0.006
  -0.44444444  0.38888889  0.00000000       0.006
  -0.38888889  0.38888889  0.00000000       0.006
  -0.33333333  0.38888889  0.00000000       0.006
  -0.27777778  0.38888889  0.00000000       0.006
  -0.22222222  0.38888889  0.00000000       0.006
  -0.16666667  0.38888889  0.00000000       0.006
  -0.11111111  0.38888889  0.00000000       0.006
  -0.05555556  0.38888889  0.00000000       0.006
   0.00000000  0.44444444  0.00000000       0.006
   0.05555556  0.44444444  0.00000000       0.006
   0.11111111  0.44444444  0.00000000       0.006
   0.16666667  0.44444444  0.00000000       0.006
   0.22222222  0.44444444  0.00000000       0.006
   0.27777778  0.44444444  0.00000000       0.006
   0.33333333  0.44444444  0.00000000       0.006
   0.38888889  0.44444444  0.00000000       0.006
   0.44444444  0.44444444  0.00000000       0.006
   0.50000000  0.44444444  0.00000000       0.006
  -0.44444444  0.44444444  0.00000000       0.006
  -0.38888889  0.44444444  0.00000000       0.006
  -0.33333333  0.44444444  0.00000000       0.006
  -0.27777778  0.44444444  0.00000000       0.006
  -0.22222222  0.44444444  0.00000000       0.006
  -0.16666667  0.44444444  0.00000000       0.006
  -0.11111111  0.44444444  0.00000000       0.006
  -0.05555556  0.44444444  0.00000000       0.006
   0.00000000  0.50000000  0.00000000       0.003
   0.05555556  0.50000000  0.00000000       0.006
   0.11111111  0.50000000  0.00000000       0.006
   0.16666667  0.50000000  0.00000000       0.006
   0.22222222  0.50000000  0.00000000       0.006
   0.27777778  0.50000000  0.00000000       0.006
   0.33333333  0.50000000  0.00000000       0.006
   0.38888889  0.50000000  0.00000000       0.006
   0.44444444  0.50000000  0.00000000       0.006
   0.50000000  0.50000000  0.00000000       0.003
 
 position of ions in fractional coordinates (direct lattice) 
   0.00000000  0.00000000  0.50000000
   0.66666885  0.33333464  0.50000000
 
 position of ions in cartesian coordinates  (Angst):
   0.00000000  0.00000000  7.50000000
   1.11033093  0.64104879  7.50000000
 


--------------------------------------------------------------------------------------------------------


 k-point   1 :   0.0000 0.0000 0.0000  plane waves:    1657
 k-point   2 :   0.0556-0.0000 0.0000  plane waves:    1677
 k-point   3 :   0.1111-0.0000 0.0000  plane waves:    1683
 k-point   4 :   0.1667 0.0000 0.0000  plane waves:    1703
 k-point   5 :   0.2222 0.0000 0.0000  plane waves:    1727
 k-point   6 :   0.2778 0.0000 0.0000  plane waves:    1747
 k-point   7 :   0.3333-0.0000 0.0000  plane waves:    1743
 k-point   8 :   0.3889 0.0000 0.0000  plane waves:    1735
 k-point   9 :   0.4444 0.0000 0.0000  plane waves:    1752
 k-point  10 :   0.5000 0.0000 0.0000  plane waves:    1752
 k-point  11 :   0.0000 0.0556 0.0000  plane waves:    1677
 k-point  12 :   0.0556 0.0556 0.0000  plane waves:    1701
 k-point  13 :   0.1111 0.0556 0.0000  plane waves:    1701
 k-point  14 :   0.1667 0.0556 0.0000  plane waves:    1716
 k-point  15 :   0.2222 0.0556 0.0000  plane waves:    1720
 k-point  16 :   0.2778 0.0556 0.0000  plane waves:    1726
 k-point  17 :   0.3333 0.0556 0.0000  plane waves:    1733
 k-point  18 :   0.3889 0.0556 0.0000  plane waves:    1733
 k-point  19 :   0.4444 0.0556 0.0000  plane waves:    1748
 k-point  20 :   0.5000 0.0556 0.0000  plane waves:    1748
 k-point  21 :  -0.4444 0.0556 0.0000  plane waves:    1733
 k-point  22 :  -0.3889 0.0556 0.0000  plane waves:    1733
 k-point  23 :  -0.3333 0.0556 0.0000  plane waves:    1726
 k-point  24 :  -0.2778 0.0556 0.0000  plane waves:    1720
 k-point  25 :  -0.2222 0.0556 0.0000  plane waves:    1716
 k-point  26 :  -0.1667 0.0556 0.0000  plane waves:    1701
 k-point  27 :  -0.1111 0.0556 0.0000  plane waves:    1701
 k-point  28 :  -0.0556 0.0556 0.0000  plane waves:    1677
 k-point  29 :   0.0000 0.1111 0.0000  plane waves:    1683
 k-point  30 :   0.0556 0.1111 0.0000  plane waves:    1701
 k-point  31 :   0.1111 0.1111 0.0000  plane waves:    1712
 k-point  32 :   0.1667 0.1111 0.0000  plane waves:    1718
 k-point  33 :   0.2222 0.1111 0.0000  plane waves:    1722
 k-point  34 :   0.2778 0.1111 0.0000  plane waves:    1721
 k-point  35 :   0.3333 0.1111 0.0000  plane waves:    1723
 k-point  36 :   0.3889 0.1111 0.0000  plane waves:    1728
 k-point  37 :   0.4444 0.1111 0.0000  plane waves:    1726
 k-point  38 :   0.5000 0.1111 0.0000  plane waves:    1728
 k-point  39 :  -0.4444 0.1111 0.0000  plane waves:    1723
 k-point  40 :  -0.3889 0.1111 0.0000  plane waves:    1721
 k-point  41 :  -0.3333 0.1111 0.0000  plane waves:    1722
 k-point  42 :  -0.2778 0.1111 0.0000  plane waves:    1718
 k-point  43 :  -0.2222 0.1111 0.0000  plane waves:    1712
 k-point  44 :  -0.1667 0.1111 0.0000  plane waves:    1701
 k-point  45 :  -0.1111 0.1111 0.0000  plane waves:    1683
 k-point  46 :  -0.0556 0.1111 0.0000  plane waves:    1701
 k-point  47 :   0.0000 0.1667 0.0000  plane waves:    1703
 k-point  48 :   0.0556 0.1667 0.0000  plane waves:    1716
 k-point  49 :   0.1111 0.1667 0.0000  plane waves:    1718
 k-point  50 :   0.1667 0.1667 0.0000  plane waves:    1720
 k-point  51 :   0.2222 0.1667 0.0000  plane waves:    1728
 k-point  52 :   0.2778 0.1667 0.0000  plane waves:    1721
 k-point  53 :   0.3333 0.1667 0.0000  plane waves:    1723
 k-point  54 :   0.3889 0.1667 0.0000  plane waves:    1734
 k-point  55 :   0.4444 0.1667 0.0000  plane waves:    1734
 k-point  56 :   0.5000 0.1667 0.0000  plane waves:    1723
 k-point  57 :  -0.4444 0.1667 0.0000  plane waves:    1721
 k-point  58 :  -0.3889 0.1667 0.0000  plane waves:    1728
 k-point  59 :  -0.3333 0.1667 0.0000  plane waves:    1720
 k-point  60 :  -0.2778 0.1667 0.0000  plane waves:    1718
 k-point  61 :  -0.2222 0.1667 0.0000  plane waves:    1716
 k-point  62 :  -0.1667 0.1667 0.0000  plane waves:    1703
 k-point  63 :  -0.1111 0.1667 0.0000  plane waves:    1701
 k-point  64 :  -0.0556 0.1667 0.0000  plane waves:    1701
 k-point  65 :   0.0000 0.2222 0.0000  plane waves:    1727
 k-point  66 :   0.0556 0.2222 0.0000  plane waves:    1720
 k-point  67 :   0.1111 0.2222 0.0000  plane waves:    1722
 k-point  68 :   0.1667 0.2222 0.0000  plane waves:    1728
 k-point  69 :   0.2222 0.2222 0.0000  plane waves:    1722
 k-point  70 :   0.2778 0.2222 0.0000  plane waves:    1724
 k-point  71 :   0.3333 0.2222 0.0000  plane waves:    1728
 k-point  72 :   0.3889 0.2222 0.0000  plane waves:    1734
 k-point  73 :   0.4444 0.2222 0.0000  plane waves:    1728
 k-point  74 :   0.5000 0.2222 0.0000  plane waves:    1724
 k-point  75 :  -0.4444 0.2222 0.0000  plane waves:    1722
 k-point  76 :  -0.3889 0.2222 0.0000  plane waves:    1728
 k-point  77 :  -0.3333 0.2222 0.0000  plane waves:    1722
 k-point  78 :  -0.2778 0.2222 0.0000  plane waves:    1720
 k-point  79 :  -0.2222 0.2222 0.0000  plane waves:    1727
 k-point  80 :  -0.1667 0.2222 0.0000  plane waves:    1716
 k-point  81 :  -0.1111 0.2222 0.0000  plane waves:    1712
 k-point  82 :  -0.0556 0.2222 0.0000  plane waves:    1716
 k-point  83 :   0.0000 0.2778 0.0000  plane waves:    1747
 k-point  84 :   0.0556 0.2778 0.0000  plane waves:    1726
 k-point  85 :   0.1111 0.2778 0.0000  plane waves:    1721
 k-point  86 :   0.1667 0.2778 0.0000  plane waves:    1721
 k-point  87 :   0.2222 0.2778 0.0000  plane waves:    1724
 k-point  88 :   0.2778 0.2778 0.0000  plane waves:    1732
 k-point  89 :   0.3333 0.2778 0.0000  plane waves:    1744
 k-point  90 :   0.3889 0.2778 0.0000  plane waves:    1744
 k-point  91 :   0.4444 0.2778 0.0000  plane waves:    1732
 k-point  92 :   0.5000 0.2778 0.0000  plane waves:    1724
 k-point  93 :  -0.4444 0.2778 0.0000  plane waves:    1721
 k-point  94 :  -0.3889 0.2778 0.0000  plane waves:    1721
 k-point  95 :  -0.3333 0.2778 0.0000  plane waves:    1726
 k-point  96 :  -0.2778 0.2778 0.0000  plane waves:    1747
 k-point  97 :  -0.2222 0.2778 0.0000  plane waves:    1720
 k-point  98 :  -0.1667 0.2778 0.0000  plane waves:    1718
 k-point  99 :  -0.1111 0.2778 0.0000  plane waves:    1718
 k-point 100 :  -0.0556 0.2778 0.0000  plane waves:    1720
 k-point 101 :   0.0000 0.3333 0.0000  plane waves:    1743
 k-point 102 :   0.0556 0.3333 0.0000  plane waves:    1733
 k-point 103 :   0.1111 0.3333 0.0000  plane waves:    1723
 k-point 104 :   0.1667 0.3333 0.0000  plane waves:    1723
 k-point 105 :   0.2222 0.3333 0.0000  plane waves:    1728
 k-point 106 :   0.2778 0.3333 0.0000  plane waves:    1744
 k-point 107 :   0.3333 0.3333 0.0000  plane waves:    1752
 k-point 108 :   0.3889 0.3333 0.0000  plane waves:    1744
 k-point 109 :   0.4444 0.3333 0.0000  plane waves:    1728
 k-point 110 :   0.5000 0.3333 0.0000  plane waves:    1723
 k-point 111 :  -0.4444 0.3333 0.0000  plane waves:    1723
 k-point 112 :  -0.3889 0.3333 0.0000  plane waves:    1733
 k-point 113 :  -0.3333 0.3333 0.0000  plane waves:    1743
 k-point 114 :  -0.2778 0.3333 0.0000  plane waves:    1726
 k-point 115 :  -0.2222 0.3333 0.0000  plane waves:    1722
 k-point 116 :  -0.1667 0.3333 0.0000  plane waves:    1720
 k-point 117 :  -0.1111 0.3333 0.0000  plane waves:    1722
 k-point 118 :  -0.0556 0.3333 0.0000  plane waves:    1726
 k-point 119 :   0.0000 0.3889 0.0000  plane waves:    1735
 k-point 120 :   0.0556 0.3889 0.0000  plane waves:    1733
 k-point 121 :   0.1111 0.3889 0.0000  plane waves:    1728
 k-point 122 :   0.1667 0.3889 0.0000  plane waves:    1734
 k-point 123 :   0.2222 0.3889 0.0000  plane waves:    1734
 k-point 124 :   0.2778 0.3889 0.0000  plane waves:    1744
 k-point 125 :   0.3333 0.3889 0.0000  plane waves:    1744
 k-point 126 :   0.3889 0.3889 0.0000  plane waves:    1734
 k-point 127 :   0.4444 0.3889 0.0000  plane waves:    1734
 k-point 128 :   0.5000 0.3889 0.0000  plane waves:    1728
 k-point 129 :  -0.4444 0.3889 0.0000  plane waves:    1733
 k-point 130 :  -0.3889 0.3889 0.0000  plane waves:    1735
 k-point 131 :  -0.3333 0.3889 0.0000  plane waves:    1733
 k-point 132 :  -0.2778 0.3889 0.0000  plane waves:    1721
 k-point 133 :  -0.2222 0.3889 0.0000  plane waves:    1728
 k-point 134 :  -0.1667 0.3889 0.0000  plane waves:    1728
 k-point 135 :  -0.1111 0.3889 0.0000  plane waves:    1721
 k-point 136 :  -0.0556 0.3889 0.0000  plane waves:    1733
 k-point 137 :   0.0000 0.4444 0.0000  plane waves:    1752
 k-point 138 :   0.0556 0.4444 0.0000  plane waves:    1748
 k-point 139 :   0.1111 0.4444 0.0000  plane waves:    1726
 k-point 140 :   0.1667 0.4444 0.0000  plane waves:    1734
 k-point 141 :   0.2222 0.4444 0.0000  plane waves:    1728
 k-point 142 :   0.2778 0.4444 0.0000  plane waves:    1732
 k-point 143 :   0.3333 0.4444 0.0000  plane waves:    1728
 k-point 144 :   0.3889 0.4444 0.0000  plane waves:    1734
 k-point 145 :   0.4444 0.4444 0.0000  plane waves:    1726
 k-point 146 :   0.5000 0.4444 0.0000  plane waves:    1748
 k-point 147 :  -0.4444 0.4444 0.0000  plane waves:    1752
 k-point 148 :  -0.3889 0.4444 0.0000  plane waves:    1733
 k-point 149 :  -0.3333 0.4444 0.0000  plane waves:    1723
 k-point 150 :  -0.2778 0.4444 0.0000  plane waves:    1721
 k-point 151 :  -0.2222 0.4444 0.0000  plane waves:    1722
 k-point 152 :  -0.1667 0.4444 0.0000  plane waves:    1721
 k-point 153 :  -0.1111 0.4444 0.0000  plane waves:    1723
 k-point 154 :  -0.0556 0.4444 0.0000  plane waves:    1733
 k-point 155 :   0.0000 0.5000 0.0000  plane waves:    1752
 k-point 156 :   0.0556 0.5000 0.0000  plane waves:    1748
 k-point 157 :   0.1111 0.5000 0.0000  plane waves:    1728
 k-point 158 :   0.1667 0.5000 0.0000  plane waves:    1723
 k-point 159 :   0.2222 0.5000 0.0000  plane waves:    1724
 k-point 160 :   0.2778 0.5000 0.0000  plane waves:    1724
 k-point 161 :   0.3333 0.5000 0.0000  plane waves:    1723
 k-point 162 :   0.3889 0.5000 0.0000  plane waves:    1728
 k-point 163 :   0.4444 0.5000 0.0000  plane waves:    1748
 k-point 164 :   0.5000 0.5000 0.0000  plane waves:    1752

 maximum and minimum number of plane-waves per node :       134      111

 maximum number of plane-waves:      1752
 maximum index in each direction: 
   IXMAX=    4   IYMAX=    4   IZMAX=   27
   IXMIN=   -4   IYMIN=   -4   IZMIN=  -27


 parallel 3D FFT for wavefunctions:
    minimum data exchange during FFTs selected (reduces bandwidth)
 parallel 3D FFT for charge:
    minimum data exchange during FFTs selected (reduces bandwidth)


 total amount of memory used by VASP MPI-rank0    35636. kBytes
=======================================================================

   base      :      30000. kBytes
   nonl-proj :       1368. kBytes
   fftplans  :       1877. kBytes
   grid      :        940. kBytes
   one-center:          3. kBytes
   wavefun   :       1448. kBytes
 
     INWAV:  cpu time      0.0000: real time      0.0001
 Broyden mixing: mesh for mixing (old mesh)
   NGX =  9   NGY =  9   NGZ = 55
  (NGX  = 36   NGY  = 36   NGZ  =224)
  gives a total of   4455 points

 initial charge density was supplied:
 charge density of overlapping atoms calculated
 number of electron       8.0000000 magnetization 
 keeping initial charge density in first step


--------------------------------------------------------------------------------------------------------


 Maximum index for augmentation-charges         2416 (set IRDMAX)


--------------------------------------------------------------------------------------------------------


 First call to EWALD:  gamma=   0.443
 Maximum number of real-space cells 5x 5x 1
 Maximum number of reciprocal cells 2x 2x 9

    FEWALD:  cpu time      0.0013: real time      0.0013


--------------------------------------- Iteration      1(   1)  ---------------------------------------


    POTLOK:  cpu time      0.0133: real time      0.0152
    SETDIJ:  cpu time      0.0050: real time      0.0050
     EDDAV:  cpu time      0.7362: real time      0.7384
       DOS:  cpu time      0.0029: real time      0.0029
    --------------------------------------------
      LOOP:  cpu time      0.7574: real time      0.7616

 eigenvalue-minimisations  :  2808
 total energy-change (2. order) : 0.5512972E+02  (-0.4071339E+03)
 number of electron       8.0000000 magnetization 
 augmentation part        8.0000000 magnetization 

 Free energy of the ion-electron system (eV)
  ---------------------------------------------------
  alpha Z        PSCENC =         5.12944767
  Ewald energy   TEWEN  =      1097.71427815
  -Hartree energ DENC   =     -1296.29529430
  -exchange      EXHF   =         0.00000000
  -V(xc)+E(xc)   XCENC  =        27.87608644
  PAW double counting   =       217.04409276     -218.18290438
  entropy T*S    EENTRO =        -0.00119647
  eigenvalues    EBANDS =       -72.45257784
  atomic energy  EATOM  =       294.29778662
  Solvation  Ediel_sol  =         0.00000000
  ---------------------------------------------------
  free energy    TOTEN  =        55.12971866 eV

  energy without entropy =       55.13091513  energy(sigma->0) =       55.13031690


--------------------------------------------------------------------------------------------------------




--------------------------------------- Iteration      1(   2)  ---------------------------------------


     EDDAV:  cpu time      0.8743: real time      0.8794
       DOS:  cpu time      0.0010: real time      0.0010
    --------------------------------------------
      LOOP:  cpu time      0.8753: real time      0.8804

 eigenvalue-minimisations  :  3536
 total energy-change (2. order) :-0.7159107E+02  (-0.6118151E+02)
 number of electron       8.0000000 magnetization 
 augmentation part        8.0000000 magnetization 

 Free energy of the ion-electron system (eV)
  ---------------------------------------------------
  alpha Z        PSCENC =         5.12944767
  Ewald energy   TEWEN  =      1097.71427815
  -Hartree energ DENC   =     -1296.29529430
  -exchange      EXHF   =         0.00000000
  -V(xc)+E(xc)   XCENC  =        27.87608644
  PAW double counting   =       217.04409276     -218.18290438
  entropy T*S    EENTRO =        -0.00000000
  eigenvalues    EBANDS =      -144.04484382
  atomic energy  EATOM  =       294.29778662
  Solvation  Ediel_sol  =         0.00000000
  ---------------------------------------------------
  free energy    TOTEN  =       -16.46135085 eV

  energy without entropy =      -16.46135085  energy(sigma->0) =      -16.46135085


--------------------------------------------------------------------------------------------------------




--------------------------------------- Iteration      1(   3)  ---------------------------------------


     EDDAV:  cpu time      0.9445: real time      0.9472
       DOS:  cpu time      0.0022: real time      0.0022
    --------------------------------------------
      LOOP:  cpu time      0.9467: real time      0.9494

 eigenvalue-minimisations  :  3976
 total energy-change (2. order) :-0.3186408E+01  (-0.3172179E+01)
 number of electron       8.0000000 magnetization 
 augmentation part        8.0000000 magnetization 

 Free energy of the ion-electron system (eV)
  ---------------------------------------------------
  alpha Z        PSCENC =         5.12944767
  Ewald energy   TEWEN  =      1097.71427815
  -Hartree energ DENC   =     -1296.29529430
  -exchange      EXHF   =         0.00000000
  -V(xc)+E(xc)   XCENC  =        27.87608644
  PAW double counting   =       217.04409276     -218.18290438
  entropy T*S    EENTRO =        -0.00034826
  eigenvalues    EBANDS =      -147.23090354
  atomic energy  EATOM  =       294.29778662
  Solvation  Ediel_sol  =         0.00000000
  ---------------------------------------------------
  free energy    TOTEN  =       -19.64775883 eV

  energy without entropy =      -19.64741057  energy(sigma->0) =      -19.64758470


--------------------------------------------------------------------------------------------------------




--------------------------------------- Iteration      1(   4)  ---------------------------------------


     EDDAV:  cpu time      0.9720: real time      0.9744
       DOS:  cpu time      0.0020: real time      0.0020
    --------------------------------------------
      LOOP:  cpu time      0.9740: real time      0.9764

 eigenvalue-minimisations  :  3992
 total energy-change (2. order) :-0.1788866E-01  (-0.1788866E-01)
 number of electron       8.0000000 magnetization 
 augmentation part        8.0000000 magnetization 

 Free energy of the ion-electron system (eV)
  ---------------------------------------------------
  alpha Z        PSCENC =         5.12944767
  Ewald energy   TEWEN  =      1097.71427815
  -Hartree energ DENC   =     -1296.29529430
  -exchange      EXHF   =         0.00000000
  -V(xc)+E(xc)   XCENC  =        27.87608644
  PAW double counting   =       217.04409276     -218.18290438
  entropy T*S    EENTRO =        -0.00034826
  eigenvalues    EBANDS =      -147.24879220
  atomic energy  EATOM  =       294.29778662
  Solvation  Ediel_sol  =         0.00000000
  ---------------------------------------------------
  free energy    TOTEN  =       -19.66564749 eV

  energy without entropy =      -19.66529923  energy(sigma->0) =      -19.66547336


--------------------------------------------------------------------------------------------------------




--------------------------------------- Iteration      1(   5)  ---------------------------------------


     EDDAV:  cpu time      0.9706: real time      0.9732
       DOS:  cpu time      0.0028: real time      0.0028
    CHARGE:  cpu time      0.0337: real time      0.0337
    MIXING:  cpu time      0.0029: real time      0.0032
    --------------------------------------------
      LOOP:  cpu time      1.0101: real time      1.0131

 eigenvalue-minimisations  :  4024
 total energy-change (2. order) :-0.2293495E-04  (-0.2293518E-04)
 number of electron       8.0000000 magnetization 
 augmentation part        0.2789036 magnetization 

 Broyden mixing:
  rms(total) = 0.92279E+00    rms(broyden)= 0.92273E+00
  rms(prec ) = 0.10357E+01
  weight for this iteration     100.00

 Free energy of the ion-electron system (eV)
  ---------------------------------------------------
  alpha Z        PSCENC =         5.12944767
  Ewald energy   TEWEN  =      1097.71427815
  -Hartree energ DENC   =     -1296.29529430
  -exchange      EXHF   =         0.00000000
  -V(xc)+E(xc)   XCENC  =        27.87608644
  PAW double counting   =       217.04409276     -218.18290438
  entropy T*S    EENTRO =        -0.00034826
  eigenvalues    EBANDS =      -147.24881513
  atomic energy  EATOM  =       294.29778662
  Solvation  Ediel_sol  =         0.00000000
  ---------------------------------------------------
  free energy    TOTEN  =       -19.66567043 eV

  energy without entropy =      -19.66532216  energy(sigma->0) =      -19.66549629


--------------------------------------------------------------------------------------------------------




--------------------------------------- Iteration      1(   6)  ---------------------------------------


    POTLOK:  cpu time      0.0110: real time      0.0133
    SETDIJ:  cpu time      0.0065: real time      0.0065
     EDDAV:  cpu time      0.9583: real time      0.9610
       DOS:  cpu time      0.0021: real time      0.0021
    CHARGE:  cpu time      0.0360: real time      0.0360
    MIXING:  cpu time      0.0014: real time      0.0014
    --------------------------------------------
      LOOP:  cpu time      1.0152: real time      1.0203

 eigenvalue-minimisations  :  3832
 total energy-change (2. order) : 0.2162374E+01  (-0.2098505E+00)
 number of electron       8.0000000 magnetization 
 augmentation part        0.2630047 magnetization 

 Broyden mixing:
  rms(total) = 0.55112E+00    rms(broyden)= 0.55111E+00
  rms(prec ) = 0.60609E+00
  weight for this iteration     100.00

 eigenvalues of (default mixing * dielectric matrix)
  average eigenvalue GAMMA=   2.1173
  2.1173

 Free energy of the ion-electron system (eV)
  ---------------------------------------------------
  alpha Z        PSCENC =         5.12944767
  Ewald energy   TEWEN  =      1097.71427815
  -Hartree energ DENC   =     -1314.10343319
  -exchange      EXHF   =         0.00000000
  -V(xc)+E(xc)   XCENC  =        28.55341146
  PAW double counting   =       511.59710208     -513.00670465
  entropy T*S    EENTRO =        -0.00034826
  eigenvalues    EBANDS =      -127.68483588
  atomic energy  EATOM  =       294.29778662
  Solvation  Ediel_sol  =         0.00000000
  ---------------------------------------------------
  free energy    TOTEN  =       -17.50329599 eV

  energy without entropy =      -17.50294773  energy(sigma->0) =      -17.50312186


--------------------------------------------------------------------------------------------------------




--------------------------------------- Iteration      1(   7)  ---------------------------------------


    POTLOK:  cpu time      0.0143: real time      0.0170
    SETDIJ:  cpu time      0.0067: real time      0.0067
     EDDAV:  cpu time      1.0291: real time      1.0314
       DOS:  cpu time      0.0033: real time      0.0033
    CHARGE:  cpu time      0.0327: real time      0.0328
    MIXING:  cpu time      0.0018: real time      0.0019
    --------------------------------------------
      LOOP:  cpu time      1.0879: real time      1.0933

 eigenvalue-minimisations  :  4288
 total energy-change (2. order) : 0.8165924E+00  (-0.2612947E+00)
 number of electron       8.0000000 magnetization 
 augmentation part        0.2454059 magnetization 

 Broyden mixing:
  rms(total) = 0.17075E+00    rms(broyden)= 0.17070E+00
  rms(prec ) = 0.17880E+00
  weight for this iteration     100.00

 eigenvalues of (default mixing * dielectric matrix)
  average eigenvalue GAMMA=   2.1707
  2.1707  2.1707

 Free energy of the ion-electron system (eV)
  ---------------------------------------------------
  alpha Z        PSCENC =         5.12944767
  Ewald energy   TEWEN  =      1097.71427815
  -Hartree energ DENC   =     -1337.70249049
  -exchange      EXHF   =         0.00000000
  -V(xc)+E(xc)   XCENC  =        29.45503748
  PAW double counting   =      1153.96337597    -1155.61390088
  entropy T*S    EENTRO =        -0.00034826
  eigenvalues    EBANDS =      -103.92988984
  atomic energy  EATOM  =       294.29778662
  Solvation  Ediel_sol  =         0.00000000
  ---------------------------------------------------
  free energy    TOTEN  =       -16.68670356 eV

  energy without entropy =      -16.68635530  energy(sigma->0) =      -16.68652943


--------------------------------------------------------------------------------------------------------




--------------------------------------- Iteration      1(   8)  ---------------------------------------


    POTLOK:  cpu time      0.0084: real time      0.0084
    SETDIJ:  cpu time      0.0064: real time      0.0064
     EDDAV:  cpu time      0.9707: real time      0.9732
       DOS:  cpu time      0.0031: real time      0.0031
    CHARGE:  cpu time      0.0276: real time      0.0277
    MIXING:  cpu time      0.0020: real time      0.0020
    --------------------------------------------
      LOOP:  cpu time      1.0182: real time      1.0208

 eigenvalue-minimisations  :  3984
 total energy-change (2. order) : 0.1838245E-01  (-0.2087343E-02)
 number of electron       8.0000000 magnetization 
 augmentation part        0.2452839 magnetization 

 Broyden mixing:
  rms(total) = 0.14388E-01    rms(broyden)= 0.14365E-01
  rms(prec ) = 0.34346E-01
  weight for this iteration     100.00

 eigenvalues of (default mixing * dielectric matrix)
  average eigenvalue GAMMA=   1.8542
  1.2143  2.1141  2.2342

 Free energy of the ion-electron system (eV)
  ---------------------------------------------------
  alpha Z        PSCENC =         5.12944767
  Ewald energy   TEWEN  =      1097.71427815
  -Hartree energ DENC   =     -1341.53852484
  -exchange      EXHF   =         0.00000000
  -V(xc)+E(xc)   XCENC  =        29.48425727
  PAW double counting   =      1369.71490085    -1371.28946414
  entropy T*S    EENTRO =        -0.00034826
  eigenvalues    EBANDS =      -100.18065443
  atomic energy  EATOM  =       294.29778662
  Solvation  Ediel_sol  =         0.00000000
  ---------------------------------------------------
  free energy    TOTEN  =       -16.66832111 eV

  energy without entropy =      -16.66797284  energy(sigma->0) =      -16.66814698


--------------------------------------------------------------------------------------------------------




--------------------------------------- Iteration      1(   9)  ---------------------------------------


    POTLOK:  cpu time      0.0138: real time      0.0139
    SETDIJ:  cpu time      0.0041: real time      0.0041
     EDDAV:  cpu time      0.8682: real time      0.8704
       DOS:  cpu time      0.0025: real time      0.0025
    CHARGE:  cpu time      0.0354: real time      0.0355
    MIXING:  cpu time      0.0017: real time      0.0017
    --------------------------------------------
      LOOP:  cpu time      0.9257: real time      0.9283

 eigenvalue-minimisations  :  3688
 total energy-change (2. order) : 0.4614928E-02  (-0.2508655E-03)
 number of electron       8.0000000 magnetization 
 augmentation part        0.2448838 magnetization 

 Broyden mixing:
  rms(total) = 0.11265E-01    rms(broyden)= 0.11262E-01
  rms(prec ) = 0.27333E-01
  weight for this iteration     100.00

 eigenvalues of (default mixing * dielectric matrix)
  average eigenvalue GAMMA=   2.2316
  3.5686  0.9497  2.3960  2.0120

 Free energy of the ion-electron system (eV)
  ---------------------------------------------------
  alpha Z        PSCENC =         5.12944767
  Ewald energy   TEWEN  =      1097.71427815
  -Hartree energ DENC   =     -1343.37310713
  -exchange      EXHF   =         0.00000000
  -V(xc)+E(xc)   XCENC  =        29.51579254
  PAW double counting   =      1381.47716167    -1383.05217804
  entropy T*S    EENTRO =        -0.00034826
  eigenvalues    EBANDS =       -98.37253941
  atomic energy  EATOM  =       294.29778662
  Solvation  Ediel_sol  =         0.00000000
  ---------------------------------------------------
  free energy    TOTEN  =       -16.66370618 eV

  energy without entropy =      -16.66335792  energy(sigma->0) =      -16.66353205


--------------------------------------------------------------------------------------------------------




--------------------------------------- Iteration      1(  10)  ---------------------------------------


    POTLOK:  cpu time      0.0137: real time      0.0157
    SETDIJ:  cpu time      0.0054: real time      0.0054
     EDDAV:  cpu time      0.8246: real time      0.8316
       DOS:  cpu time      0.0027: real time      0.0027
    CHARGE:  cpu time      0.0293: real time      0.0294
    MIXING:  cpu time      0.0027: real time      0.0027
    --------------------------------------------
      LOOP:  cpu time      0.8784: real time      0.8874

 eigenvalue-minimisations  :  3320
 total energy-change (2. order) : 0.7405057E-02  (-0.8089731E-03)
 number of electron       8.0000000 magnetization 
 augmentation part        0.2443838 magnetization 

 Broyden mixing:
  rms(total) = 0.57029E-02    rms(broyden)= 0.56997E-02
  rms(prec ) = 0.10863E-01
  weight for this iteration     100.00

 eigenvalues of (default mixing * dielectric matrix)
  average eigenvalue GAMMA=   2.3061
  3.6165  0.9996  2.0171  2.4486  2.4486

 Free energy of the ion-electron system (eV)
  ---------------------------------------------------
  alpha Z        PSCENC =         5.12944767
  Ewald energy   TEWEN  =      1097.71427815
  -Hartree energ DENC   =     -1348.70700566
  -exchange      EXHF   =         0.00000000
  -V(xc)+E(xc)   XCENC  =        29.57548001
  PAW double counting   =      1370.91483379    -1372.48273271
  entropy T*S    EENTRO =        -0.00034826
  eigenvalues    EBANDS =       -93.09804073
  atomic energy  EATOM  =       294.29778662
  Solvation  Ediel_sol  =         0.00000000
  ---------------------------------------------------
  free energy    TOTEN  =       -16.65630112 eV

  energy without entropy =      -16.65595286  energy(sigma->0) =      -16.65612699


--------------------------------------------------------------------------------------------------------




--------------------------------------- Iteration      1(  11)  ---------------------------------------


    POTLOK:  cpu time      0.0131: real time      0.0133
    SETDIJ:  cpu time      0.0040: real time      0.0040
     EDDAV:  cpu time      0.6983: real time      0.7014
       DOS:  cpu time      0.0021: real time      0.0022
    CHARGE:  cpu time      0.0340: real time      0.0341
    MIXING:  cpu time      0.0012: real time      0.0012
    --------------------------------------------
      LOOP:  cpu time      0.7527: real time      0.7561

 eigenvalue-minimisations  :  2752
 total energy-change (2. order) :-0.1034732E-02  (-0.3086982E-04)
 number of electron       8.0000000 magnetization 
 augmentation part        0.2443138 magnetization 

 Broyden mixing:
  rms(total) = 0.77343E-02    rms(broyden)= 0.77340E-02
  rms(prec ) = 0.89814E-02
  weight for this iteration     100.00

 eigenvalues of (default mixing * dielectric matrix)
  average eigenvalue GAMMA=   2.4221
  5.3340  2.9164  2.3907  2.0014  0.9834  0.9069

 Free energy of the ion-electron system (eV)
  ---------------------------------------------------
  alpha Z        PSCENC =         5.12944767
  Ewald energy   TEWEN  =      1097.71427815
  -Hartree energ DENC   =     -1350.08991575
  -exchange      EXHF   =         0.00000000
  -V(xc)+E(xc)   XCENC  =        29.57427317
  PAW double counting   =      1382.64399589    -1384.21204482
  entropy T*S    EENTRO =        -0.00034826
  eigenvalues    EBANDS =       -91.71480854
[...]
      6       7.1253      0.00000
      7       8.2126      0.00000
      8       8.7639      0.00000

 k-point   131 :      -0.3333    0.3889    0.0000
  band No.  band energies     occupation 
      1     -19.4730      2.00000
      2     -12.3188      2.00000
      3      -7.9258      2.00000
      4      -6.3908      2.00000
      5       4.1944      0.00000
      6       6.4052      0.00000
      7       7.4741      0.00000
      8       8.0241      0.00000

 k-point   132 :      -0.2778    0.3889    0.0000
  band No.  band energies     occupation 
      1     -19.8105      2.00000
      2     -11.3604      2.00000
      3      -8.4284      2.00000
      4      -6.7741      2.00000
      5       5.0911      0.00000
      6       5.9259      0.00000
      7       6.9657      0.00000
      8       7.5294      0.00000

 k-point   133 :      -0.2222    0.3889    0.0000
  band No.  band energies     occupation 
      1     -19.9800      2.00000
      2     -10.4363      2.00000
      3      -9.1616      2.00000
      4      -6.9687      2.00000
      5       5.6862      0.00000
      6       5.6931      0.00000
      7       6.6836      0.00000
      8       7.2818      0.00000

 k-point   134 :      -0.1667    0.3889    0.0000
  band No.  band energies     occupation 
      1     -19.9800      2.00000
      2     -10.4365      2.00000
      3      -9.1614      2.00000
      4      -6.9687      2.00000
      5       5.6861      0.00000
      6       5.6930      0.00000
      7       6.6836      0.00000
      8       7.2817      0.00000

 k-point   135 :      -0.1111    0.3889    0.0000
  band No.  band energies     occupation 
      1     -19.8105      2.00000
      2     -11.3606      2.00000
      3      -8.4281      2.00000
      4      -6.7742      2.00000
      5       5.0910      0.00000
      6       5.9258      0.00000
      7       6.9657      0.00000
      8       7.5294      0.00000

 k-point   136 :      -0.0556    0.3889    0.0000
  band No.  band energies     occupation 
      1     -19.4730      2.00000
      2     -12.3190      2.00000
      3      -7.9255      2.00000
      4      -6.3909      2.00000
      5       4.1943      0.00000
      6       6.4051      0.00000
      7       7.4740      0.00000
      8       8.0240      0.00000

 k-point   137 :       0.0000    0.4444    0.0000
  band No.  band energies     occupation 
      1     -17.7283      2.00000
      2     -14.8268      2.00000
      3      -8.1368      2.00000
      4      -4.6277      2.00000
      5       1.5380      0.00000
      6       8.9056      0.00000
      7       9.8690      0.00000
      8      10.6597      0.00000

 k-point   138 :       0.0556    0.4444    0.0000
  band No.  band energies     occupation 
      1     -16.9960      2.00000
      2     -15.5420      2.00000
      3      -8.4788      2.00000
      4      -4.1111      2.00000
      5       0.9831      0.00000
      6       9.9137      0.00000
      7      10.2965      0.00000
      8      11.1128      0.00000

 k-point   139 :       0.1111    0.4444    0.0000
  band No.  band energies     occupation 
      1     -16.1660      2.00000
      2     -16.0629      2.00000
      3      -9.2508      2.00000
      4      -3.6865      2.00000
      5       0.7588      0.00000
      6      11.1057      0.00000
      7      11.2638      0.00000
      8      11.4794      0.00000

 k-point   140 :       0.1667    0.4444    0.0000
  band No.  band energies     occupation 
      1     -16.5268      2.00000
      2     -15.1067      2.00000
      3     -10.3067      2.00000
      4      -3.4433      2.00000
      5       0.8814      0.00000
      6      10.7165      0.00000
      7      11.3710      0.00000
      8      12.4822      0.00000

 k-point   141 :       0.2222    0.4444    0.0000
  band No.  band energies     occupation 
      1     -16.7755      2.00000
      2     -13.9973      2.00000
      3     -11.4968      2.00000
      4      -3.3576      2.00000
      5       1.1699      0.00000
      6      10.3590      0.00000
      7      10.6727      0.00000
      8      12.1272      0.00000

 k-point   142 :       0.2778    0.4444    0.0000
  band No.  band energies     occupation 
      1     -16.8589      2.00000
      2     -13.0264      2.00000
      3     -12.5029      2.00000
      4      -3.3426      2.00000
      5       1.3192      0.00000
      6      10.2391      0.00000
      7      10.3783      0.00000
      8      12.0032      0.00000

 k-point   143 :       0.3333    0.4444    0.0000
  band No.  band energies     occupation 
      1     -16.7755      2.00000
      2     -13.9971      2.00000
      3     -11.4971      2.00000
      4      -3.3575      2.00000
      5       1.1699      0.00000
      6      10.3591      0.00000
      7      10.6727      0.00000
      8      12.1272      0.00000

 k-point   144 :       0.3889    0.4444    0.0000
  band No.  band energies     occupation 
      1     -16.5268      2.00000
      2     -15.1066      2.00000
      3     -10.3070      2.00000
      4      -3.4431      2.00000
      5       0.8814      0.00000
      6      10.7166      0.00000
      7      11.3710      0.00000
      8      12.4823      0.00000

 k-point   145 :       0.4444    0.4444    0.0000
  band No.  band energies     occupation 
      1     -16.1660      2.00000
      2     -16.0627      2.00000
      3      -9.2511      2.00000
      4      -3.6863      2.00000
      5       0.7588      0.00000
      6      11.1053      0.00000
      7      11.2641      0.00000
      8      11.4794      0.00000

 k-point   146 :       0.5000    0.4444    0.0000
  band No.  band energies     occupation 
      1     -16.9959      2.00000
      2     -15.5418      2.00000
      3      -8.4791      2.00000
      4      -4.1109      2.00000
      5       0.9831      0.00000
      6       9.9137      0.00000
      7      10.2962      0.00000
      8      11.1130      0.00000

 k-point   147 :      -0.4444    0.4444    0.0000
  band No.  band energies     occupation 
      1     -17.7282      2.00000
      2     -14.8267      2.00000
      3      -8.1371      2.00000
      4      -4.6275      2.00000
      5       1.5380      0.00000
      6       8.9058      0.00000
      7       9.8685      0.00000
      8      10.6598      0.00000

 k-point   148 :      -0.3889    0.4444    0.0000
  band No.  band energies     occupation 
      1     -18.3065      2.00000
      2     -13.9785      2.00000
      3      -8.2928      2.00000
      4      -5.1217      2.00000
      5       2.3137      0.00000
      6       8.0893      0.00000
      7       9.1776      0.00000
      8       9.7468      0.00000

 k-point   149 :      -0.3333    0.4444    0.0000
  band No.  band energies     occupation 
      1     -18.7239      2.00000
      2     -13.0217      2.00000
      3      -8.8823      2.00000
      4      -5.5155      2.00000
      5       3.1658      0.00000
      6       7.4965      0.00000
      7       8.5374      0.00000
      8       9.1456      0.00000

 k-point   150 :      -0.2778    0.4444    0.0000
  band No.  band energies     occupation 
      1     -18.9759      2.00000
      2     -12.0022      2.00000
      3      -9.7474      2.00000
      4      -5.7655      2.00000
      5       3.8854      0.00000
      6       7.1384      0.00000
      7       8.1290      0.00000
      8       8.7751      0.00000

 k-point   151 :      -0.2222    0.4444    0.0000
  band No.  band energies     occupation 
      1     -19.0601      2.00000
      2     -11.2279      2.00000
      3     -10.4823      2.00000
      4      -5.8510      2.00000
      5       4.1827      0.00000
      6       7.0187      0.00000
      7       7.9826      0.00000
      8       8.6512      0.00000

 k-point   152 :      -0.1667    0.4444    0.0000
  band No.  band energies     occupation 
      1     -18.9759      2.00000
      2     -12.0024      2.00000
      3      -9.7471      2.00000
      4      -5.7656      2.00000
      5       3.8854      0.00000
      6       7.1383      0.00000
      7       8.1290      0.00000
      8       8.7751      0.00000

 k-point   153 :      -0.1111    0.4444    0.0000
  band No.  band energies     occupation 
      1     -18.7239      2.00000
      2     -13.0219      2.00000
      3      -8.8820      2.00000
      4      -5.5156      2.00000
      5       3.1657      0.00000
      6       7.4965      0.00000
      7       8.5373      0.00000
      8       9.1455      0.00000

 k-point   154 :      -0.0556    0.4444    0.0000
  band No.  band energies     occupation 
      1     -18.3066      2.00000
      2     -13.9787      2.00000
      3      -8.2924      2.00000
      4      -5.1219      2.00000
      5       2.3137      0.00000
      6       8.0892      0.00000
      7       9.1775      0.00000
      8       9.7468      0.00000

 k-point   155 :       0.0000    0.5000    0.0000
  band No.  band energies     occupation 
      1     -16.4179      2.00000
      2     -16.2657      2.00000
      3      -8.2308      2.00000
      4      -4.0278      2.00000
      5       0.7726      0.00000
      6       9.7801      0.00000
      7      10.9338      0.00000
      8      11.0771      0.00000

 k-point   156 :       0.0556    0.5000    0.0000
  band No.  band energies     occupation 
      1     -16.9960      2.00000
      2     -15.5420      2.00000
      3      -8.4788      2.00000
      4      -4.1111      2.00000
      5       0.9831      0.00000
      6       9.9138      0.00000
      7      10.2965      0.00000
      8      11.1129      0.00000

 k-point   157 :       0.1111    0.5000    0.0000
  band No.  band energies     occupation 
      1     -17.4888      2.00000
      2     -14.6175      2.00000
      3      -9.1581      2.00000
      4      -4.3017      2.00000
      5       1.5217      0.00000
      6       9.2934      0.00000
      7      10.3334      0.00000
      8      10.9826      0.00000

 k-point   158 :       0.1667    0.5000    0.0000
  band No.  band energies     occupation 
      1     -17.8212      2.00000
      2     -13.5859      2.00000
      3     -10.1212      2.00000
      4      -4.4916      2.00000
      5       2.1660      0.00000
      6       8.8202      0.00000
      7       9.7652      0.00000
      8      10.5147      0.00000

 k-point   159 :       0.2222    0.5000    0.0000
  band No.  band energies     occupation 
      1     -17.9884      2.00000
      2     -12.5142      2.00000
      3     -11.1890      2.00000
      4      -4.6038      2.00000
      5       2.6221      0.00000
      6       8.5811      0.00000
      7       9.4411      0.00000
      8      10.2673      0.00000

 k-point   160 :       0.2778    0.5000    0.0000
  band No.  band energies     occupation 
      1     -17.9884      2.00000
      2     -12.5140      2.00000
      3     -11.1892      2.00000
      4      -4.6037      2.00000
      5       2.6221      0.00000
      6       8.5811      0.00000
      7       9.4411      0.00000
      8      10.2673      0.00000

 k-point   161 :       0.3333    0.5000    0.0000
  band No.  band energies     occupation 
      1     -17.8212      2.00000
      2     -13.5857      2.00000
      3     -10.1214      2.00000
      4      -4.4915      2.00000
      5       2.1660      0.00000
      6       8.8202      0.00000
      7       9.7653      0.00000
      8      10.5148      0.00000

 k-point   162 :       0.3889    0.5000    0.0000
  band No.  band energies     occupation 
      1     -17.4888      2.00000
      2     -14.6173      2.00000
      3      -9.1584      2.00000
      4      -4.3016      2.00000
      5       1.5217      0.00000
      6       9.2935      0.00000
      7      10.3335      0.00000
      8      10.9826      0.00000

 k-point   163 :       0.4444    0.5000    0.0000
  band No.  band energies     occupation 
      1     -16.9959      2.00000
      2     -15.5418      2.00000
      3      -8.4791      2.00000
      4      -4.1109      2.00000
      5       0.9831      0.00000
      6       9.9137      0.00000
      7      10.2962      0.00000
      8      11.1130      0.00000

 k-point   164 :       0.5000    0.5000    0.0000
  band No.  band energies     occupation 
      1     -16.4178      2.00000
      2     -16.2654      2.00000
      3      -8.2311      2.00000
      4      -4.0276      2.00000
      5       0.7727      0.00000
      6       9.7795      0.00000
      7      10.9340      0.00000
      8      11.0772      0.00000


--------------------------------------------------------------------------------------------------------


 soft charge-density along one line, spin component           1
         0         1         2         3         4         5         6         7         8         9
 total charge-density along one line
 
 pseudopotential strength for first ion, spin component:           1
 10.119  13.454  -0.000  -0.000  -0.000  -0.000   0.000   0.000
 13.454  17.886  -0.000  -0.000  -0.000  -0.000   0.000   0.000
 -0.000  -0.000  -4.227  -0.000   0.000   8.244   0.000  -0.000
 -0.000  -0.000  -0.000  -4.207  -0.000   0.000   8.214   0.000
 -0.000  -0.000   0.000  -0.000  -4.227  -0.000   0.000   8.244
 -0.000  -0.000   8.244   0.000  -0.000 -18.203  -0.000   0.000
  0.000   0.000   0.000   8.214   0.000  -0.000 -18.163  -0.000
  0.000   0.000  -0.000   0.000   8.244   0.000  -0.000 -18.203
 total augmentation occupancy for first ion, spin component:           1
 11.749  -5.704   0.000  -0.000  -0.000   0.000  -0.000  -0.000
 -5.704   2.835  -0.000   0.000   0.000  -0.000   0.000   0.000
  0.000  -0.000   2.289   0.000  -0.000   0.226   0.000  -0.000
 -0.000   0.000   0.000   1.350   0.000  -0.000   0.100   0.000
 -0.000   0.000  -0.000   0.000   2.289  -0.000   0.000   0.226
  0.000  -0.000   0.226  -0.000  -0.000   0.025   0.000  -0.000
 -0.000   0.000   0.000   0.100   0.000   0.000   0.008   0.000
 -0.000   0.000  -0.000   0.000   0.226  -0.000   0.000   0.025


------------------------ aborting loop because EDIFF is reached ----------------------------------------


    CHARGE:  cpu time      0.0362: real time      0.0363
    FORLOC:  cpu time      0.0017: real time      0.0017
    FORNL :  cpu time      0.0759: real time      0.0760
    STRESS:  cpu time      0.2310: real time      0.2316
    FORCOR:  cpu time      0.0152: real time      0.0153
    FORHAR:  cpu time      0.0030: real time      0.0030
    MIXING:  cpu time      0.0009: real time      0.0009
    OFIELD:  cpu time      0.0001: real time      0.0001

 ---------------------------------------------------------------------------------------------

         DFTD3 V3.0 Rev 1        
 IVDW         = 12
 DF pbe       
 parameters
 VDW_S6       =    1.0000
 VDW_S8       =    0.7875
 VDW_A1       =    0.4289
 VDW_A2       =    4.4407
 k1-k3        =   16.0000    1.3333   -4.0000
 VDW_RADIUS   =   50.2022 A
 VDW_CNRADIUS =   21.1671 A
 Edisp (eV)   -0.16627

 E6    (eV) :    -0.1143
 E8    (eV) :    -0.0519
 % E8        : 31.24
    FORVDW:  cpu time      0.0107: real time      0.0108

  FORCE on cell =-STRESS in cart. coord.  units (eV):
  Direction    XX          YY          ZZ          XY          YZ          ZX
  --------------------------------------------------------------------------------------
  Alpha Z     5.12945     5.12945     5.12945
  Ewald    1396.29418  1396.29475 -1694.87466    -0.00193     0.00000    -0.00000
  Hartree  1341.70766  1341.70765 -1332.45390    -0.00031     0.00000    -0.00000
  E(xc)     -31.76603   -31.76602   -32.93857    -0.00000    -0.00000    -0.00000
  Local   -2819.06981 -2819.07019  2917.56141     0.00176    -0.00000     0.00000
  n-local    -9.92206    -9.92195    -7.97656     0.00012    -0.00000    -0.00000
  augment    -1.20305    -1.20304    -0.96512     0.00001    -0.00000    -0.00000
  Kinetic   137.03532   137.03463   146.49993    -0.00046     0.00000     0.00000
  Fock        0.00000     0.00000     0.00000     0.00000     0.00000     0.00000
  vdW        -0.15147    -0.15147    -0.00138    -0.00000     0.00000    -0.00000
  -------------------------------------------------------------------------------------
  Total      18.05420    18.05379    -0.01941    -0.00081    -0.00000    -0.00000
  in kB     451.55349   451.54326    -0.48540    -0.02036    -0.00000    -0.00000
  external pressure =      300.87 kB  Pullay stress =        0.00 kB


 VOLUME and BASIS-vectors are now :
 -----------------------------------------------------------------------------
  energy-cutoff  :      520.00
  volume of cell :       64.06
      direct lattice vectors                 reciprocal lattice vectors
     2.220637636  0.000000000  0.000000000     0.450321108  0.259985500  0.000000000
    -1.110292641  1.923138838  0.000000000     0.000000000  0.519983259  0.000000000
     0.000000000  0.000000000 15.000000000     0.000000000  0.000000000  0.066666667

  length of vectors
     2.220637636  2.220633410 15.000000000     0.519982269  0.519983259  0.066666667


 FORCES acting on ions
    electron-ion (+dipol)            ewald-force                    non-local-force                 convergence-correction
 -----------------------------------------------------------------------------------------------
   -.390E-02 0.828E-03 -.198E-05   0.451E-02 -.829E-03 0.392E-20   0.110E-03 0.765E-04 0.723E-08   -.295E-06 -.497E-06 0.182E-05
   0.390E-02 -.828E-03 -.225E-05   -.451E-02 0.829E-03 -.400E-20   -.110E-03 -.765E-04 0.103E-06   0.446E-06 0.243E-06 0.199E-05
 -----------------------------------------------------------------------------------------------
   -.205E-06 0.355E-06 -.422E-05   0.724E-14 0.260E-14 -.795E-22   -.121E-07 -.567E-07 0.110E-06   0.151E-06 -.254E-06 0.381E-05
 
 
 POSITION                                       TOTAL-FORCE (eV/Angst)
 -----------------------------------------------------------------------------------
      0.00000      0.00000      7.50000         0.000718      0.000075      0.000000
      1.11033      0.64105      7.50000        -0.000718     -0.000075     -0.000000
 -----------------------------------------------------------------------------------
    total drift:                               -0.000000      0.000000     -0.000000


--------------------------------------------------------------------------------------------------------



  FREE ENERGIE OF THE ION-ELECTRON SYSTEM (eV)
  ---------------------------------------------------
  free  energy   TOTEN  =       -16.82541527 eV

  energy  without entropy=      -16.82506701  energy(sigma->0) =      -16.82524114
 


--------------------------------------------------------------------------------------------------------


    POTLOK:  cpu time      0.0229: real time      0.0230


--------------------------------------------------------------------------------------------------------


     LOOP+:  cpu time     18.4875: real time     18.5686
    4ORBIT:  cpu time      0.0000: real time      0.0000

 total amount of memory used by VASP MPI-rank0    35636. kBytes
=======================================================================

   base      :      30000. kBytes
   nonl-proj :       1368. kBytes
   fftplans  :       1877. kBytes
   grid      :        940. kBytes
   one-center:          3. kBytes
   wavefun   :       1448. kBytes
 
  
  
 General timing and accounting informations for this job:
 ========================================================
  
                  Total CPU time used (sec):       20.098
                            User time (sec):       19.664
                          System time (sec):        0.434
                         Elapsed time (sec):       21.747
  
                   Maximum memory used (kb):       59812.
                   Average memory used (kb):          N/A
  
                          Minor page faults:        31005
                          Major page faults:            0
                 Voluntary context switches:         1876
