 Entering Gaussian System, Link 0=g16
 Initial command:
 /home/szhao/Apps/g16/l1.exe "/home/szhao/tmp/Gau-58692.inp" -scrdir="/home/szhao/tmp/"
 Default is to use a total of  16 processors:
                               16 via shared-memory
                                1 via Linda
 Entering Link 1 = /home/szhao/Apps/g16/l1.exe PID=     58708.
  
 Copyright (c) 1988,1990,1992,1993,1995,1998,2003,2009,2016,
            Gaussian, Inc.  All Rights Reserved.
  
 This is part of the Gaussian(R) 16 program.  It is based on
 the Gaussian(R) 09 system (copyright 2009, Gaussian, Inc.),
 the Gaussian(R) 03 system (copyright 2003, Gaussian, Inc.),
 the Gaussian(R) 98 system (copyright 1998, Gaussian, Inc.),
 the Gaussian(R) 94 system (copyright 1995, Gaussian, Inc.),
 the Gaussian 92(TM) system (copyright 1992, Gaussian, Inc.),
 the Gaussian 90(TM) system (copyright 1990, Gaussian, Inc.),
 the Gaussian 88(TM) system (copyright 1988, Gaussian, Inc.),
 the Gaussian 86(TM) system (copyright 1986, Carnegie Mellon
 University), and the Gaussian 82(TM) system (copyright 1983,
 Carnegie Mellon University). Gaussian is a federally registered
 trademark of Gaussian, Inc.
  
 This software contains proprietary and confidential information,
 including trade secrets, belonging to Gaussian, Inc.
  
 This software is provided under written license and may be
 used, copied, transmitted, or stored only in accord with that
 written license.
  
 The following legend is applicable only to US Government
 contracts under FAR:
  
                    RESTRICTED RIGHTS LEGEND
  
 Use, reproduction and disclosure by the US Government is
 subject to restrictions as set forth in subparagraphs (a)
 and (c) of the Commercial Computer Software - Restricted
 Rights clause in FAR 52.227-19.
  
 Gaussian, Inc.
 340 Quinnipiac St., Bldg. 40, Wallingford CT 06492
  
  
 ---------------------------------------------------------------
 Warning -- This program may not be used in any manner that
 competes with the business of Gaussian, Inc. or will provide
 assistance to any competitor of Gaussian, Inc.  The licensee
 of this program is prohibited from giving any competitor of
 Gaussian, Inc. access to this program.  By using this program,
 the user acknowledges that Gaussian, Inc. is engaged in the
 business of creating and licensing software in the field of
 computational chemistry and represents and warrants to the
 licensee that it is not a competitor of Gaussian, Inc. and that
 it will not use this program in any manner prohibited above.
 ---------------------------------------------------------------
  

 Cite this work as:
 Gaussian 16, Revision A.03,
 M. J. Frisch, G. W. Trucks, H. B. Schlegel, G. E. Scuseria, 
 M. A. Robb, J. R. Cheeseman, G. Scalmani, V. Barone, 
 G. A. Petersson, H. Nakatsuji, X. Li, M. Caricato, A. V. Marenich, 
 J. Bloino, B. G. Janesko, R. Gomperts, B. Mennucci, H. P. Hratchian, 
 J. V. Ortiz, A. F. Izmaylov, J. L. Sonnenberg, D. Williams-Young, 
 F. Ding, F. Lipparini, F. Egidi, J. Goings, B. Peng, A. Petrone, 
 T. Henderson, D. Ranasinghe, V. G. Zakrzewski, J. Gao, N. Rega, 
 G. Zheng, W. Liang, M. Hada, M. Ehara, K. Toyota, R. Fukuda, 
 J. Hasegawa, M. Ishida, T. Nakajima, Y. Honda, O. Kitao, H. Nakai, 
 T. Vreven, K. Throssell, J. A. Montgomery, Jr., J. E. Peralta, 
 F. Ogliaro, M. J. Bearpark, J. J. Heyd, E. N. Brothers, K. N. Kudin, 
 V. N. Staroverov, T. A. Keith, R. Kobayashi, J. Normand, 
 K. Raghavachari, A. P. Rendell, J. C. Burant, S. S. Iyengar, 
 J. Tomasi, M. Cossi, J. M. Millam, M. Klene, C. Adamo, R. Cammi, 
 J. W. Ochterski, R. L. Martin, K. Morokuma, O. Farkas, 
 J. B. Foresman, and D. J. Fox, Gaussian, Inc., Wallingford CT, 2016.
 
 ******************************************
 Gaussian 16:  ES64L-G16RevA.03 25-Dec-2016
                21-Apr-2025 
 ******************************************
 %chk=opt.chk
 %mem=4GB
 %nprocshared=8
 Will use up to    8 processors via shared memory.
 --------------------------------------------
 #p opt UM062X/6-311+G** nosymm int=superfine
 --------------------------------------------
 1/18=20,19=15,26=5,38=1/1,3;
 2/9=110,12=2,15=1,17=6,18=5,40=1/2;
 3/5=4,6=6,7=111,11=2,25=1,30=1,71=1,74=-55,75=-7,116=2/1,2,3;
 4//1;
 5/5=2,38=5/2;
 6/7=2,8=2,9=2,10=2,28=1/1;
 7/30=1/1,2,3,16;
 1/18=20,19=15,26=5/3(2);
 2/9=110,15=1/2;
 99//99;
 2/9=110,15=1/2;
 3/5=4,6=6,7=111,11=2,25=1,30=1,71=1,74=-55,75=-7,116=2/1,2,3;
 4/5=5,16=3,69=1/1;
 5/5=2,38=5/2;
 7/30=1/1,2,3,16;
 1/18=20,19=15,26=5/3(-5);
 2/9=110,15=1/2;
 6/7=2,8=2,9=2,10=2,19=2,28=1/1;
 99/9=1/99;
 Leave Link    1 at Mon Apr 21 21:15:42 2025, MaxMem=   536870912 cpu:               3.0 elap:               0.4
 (Enter /home/szhao/Apps/g16/l101.exe)
 -------------------
 Title Card Required
 -------------------
 Symbolic Z-matrix:
 Charge =  0 Multiplicity = 1
 S                    -1   -2.01819   0.        0. 
 S                    -1    2.01819   0.        0. 
 H                    0    -2.20183  -1.33225   0. 
 H                    0     2.20183   0.02841   1.33195 
 
 Add virtual bond connecting atoms S2         and S1         Dist= 7.63D+00.
 ITRead=  2  2  0  0
 MicOpt= -2 -2 -1 -1
 NAtoms=      4 NQM=        2 NQMF=       2 NMMI=      0 NMMIF=      0
                NMic=       0 NMicF=      0.
                    Isotopes and Nuclear Properties:
 (Nuclear quadrupole moments (NQMom) in fm**2, nuclear magnetic moments (NMagM)
  in nuclear magnetons)

  Atom         1           2           3           4
 IAtWgt=          32          32           1           1
 AtmWgt=  31.9720718  31.9720718   1.0078250   1.0078250
 NucSpn=           0           0           1           1
 AtZEff=  -0.0000000  -0.0000000  -0.0000000  -0.0000000
 NQMom=    0.0000000   0.0000000   0.0000000   0.0000000
 NMagM=    0.0000000   0.0000000   2.7928460   2.7928460
 AtZNuc=  16.0000000  16.0000000   1.0000000   1.0000000
 Leave Link  101 at Mon Apr 21 21:15:43 2025, MaxMem=   536870912 cpu:               3.1 elap:               0.4
 (Enter /home/szhao/Apps/g16/l103.exe)

 GradGradGradGradGradGradGradGradGradGradGradGradGradGradGradGradGradGrad
 Berny optimization.
 Initialization pass.
                           ----------------------------
                           !    Initial Parameters    !
                           ! (Angstroms and Degrees)  !
 --------------------------                            --------------------------
 ! Name  Definition              Value          Derivative Info.                !
 --------------------------------------------------------------------------------
 ! X1    R(1,-1)                -2.0182         Frozen                          !
 ! Y1    R(1,-2)                 0.0            Frozen                          !
 ! Z1    R(1,-3)                 0.0            Frozen                          !
 ! X2    R(2,-1)                 2.0182         Frozen                          !
 ! Y2    R(2,-2)                 0.0            Frozen                          !
 ! Z2    R(2,-3)                 0.0            Frozen                          !
 ! R1    R(1,3)                  1.3448         estimate D2E/DX2                !
 ! R2    R(2,4)                  1.3448         estimate D2E/DX2                !
 ! A1    A(2,1,3)               97.8484         estimate D2E/DX2                !
 ! A2    A(1,2,4)               97.8484         estimate D2E/DX2                !
 ! D1    D(3,1,2,4)            -91.2217         estimate D2E/DX2                !
 --------------------------------------------------------------------------------
 Trust Radius=3.00D-01 FncErr=1.00D-07 GrdErr=1.00D-07 EigMax=2.50D+02 EigMin=1.00D-04
 Number of steps in this run=     21 maximum allowed number of steps=    100.
 GradGradGradGradGradGradGradGradGradGradGradGradGradGradGradGradGradGrad

 Leave Link  103 at Mon Apr 21 21:15:43 2025, MaxMem=   536870912 cpu:               0.3 elap:               0.2
 (Enter /home/szhao/Apps/g16/l202.exe)
                          Input orientation:                          
 ---------------------------------------------------------------------
 Center     Atomic      Atomic             Coordinates (Angstroms)
 Number     Number       Type             X           Y           Z
 ---------------------------------------------------------------------
      1         16           0       -2.018191    0.000000    0.000000
      2         16           0        2.018191    0.000000    0.000000
      3          1           0       -2.201833   -1.332250    0.000000
      4          1           0        2.201833    0.028406    1.331947
 ---------------------------------------------------------------------
                    Distance matrix (angstroms):
                    1          2          3          4
     1  S    0.000000
     2  S    4.036383   0.000000
     3  H    1.344848   4.425325   0.000000
     4  H    4.425325   1.344848   4.797681   0.000000
 Symmetry turned off by external request.
 Stoichiometry    H2S2
 Framework group  C2[X(H2S2)]
 Deg. of freedom     4
 Full point group                 C2      NOp   2
 Rotational constants (GHZ):         146.1663366           1.8581047           1.8576725
 Leave Link  202 at Mon Apr 21 21:15:44 2025, MaxMem=   536870912 cpu:               0.1 elap:               0.1
 (Enter /home/szhao/Apps/g16/l301.exe)
 Standard basis: 6-311+G(d,p) (5D, 7F)
 Ernie: Thresh=  0.10000D-02 Tol=  0.10000D-05 Strict=F.
    72 basis functions,   116 primitive gaussians,    74 cartesian basis functions
    17 alpha electrons       17 beta electrons
       nuclear repulsion energy        50.0904262981 Hartrees.
 IExCor= 4336 DFT=T Ex+Corr=M062X ExCW=0 ScaHFX=  0.540000
 ScaDFX=  1.000000  1.000000  1.000000  1.000000 ScalE2=  1.000000  1.000000
 IRadAn=      7 IRanWt=     -1 IRanGd=            0 ICorTp=0 IEmpDi=  4
 NAtoms=    4 NActive=    4 NUniq=    4 SFac= 1.00D+00 NAtFMM=   60 NAOKFM=F Big=F
 Integral buffers will be    131072 words long.
 Raffenetti 2 integral format.
 Two-electron integral symmetry is turned off.
 Leave Link  301 at Mon Apr 21 21:15:44 2025, MaxMem=   536870912 cpu:               1.7 elap:               0.3
 (Enter /home/szhao/Apps/g16/l302.exe)
 NPDir=0 NMtPBC=     1 NCelOv=     1 NCel=       1 NClECP=     1 NCelD=      1
         NCelK=      1 NCelE2=     1 NClLst=     1 CellRange=     0.0.
 One-electron integrals computed using PRISM.
 NBasis=    72 RedAO= T EigKep=  1.39D-02  NBF=    72
 NBsUse=    72 1.00D-06 EigRej= -1.00D+00 NBFU=    72
 Precomputing XC quadrature grid using
 IXCGrd= 4 IRadAn=           7 IRanWt=          -1 IRanGd=           0 AccXCQ= 0.00D+00.
 Generated NRdTot=       0 NPtTot=           0 NUsed=           0 NTot=          32
 NSgBfM=    67    67    67    67    67 MxSgAt=     4 MxSgA2=     4.
 Leave Link  302 at Mon Apr 21 21:15:45 2025, MaxMem=   536870912 cpu:               1.9 elap:               0.3
 (Enter /home/szhao/Apps/g16/l303.exe)
 DipDrv:  MaxL=1.
 Leave Link  303 at Mon Apr 21 21:15:45 2025, MaxMem=   536870912 cpu:               0.6 elap:               0.2
 (Enter /home/szhao/Apps/g16/l401.exe)
 ExpMin= 4.05D-02 ExpMax= 9.34D+04 ExpMxC= 3.17D+03 IAcc=3 IRadAn=         7 AccDes= 0.00D+00
 Harris functional with IExCor= 1009 and IRadAn=       7 diagonalized for initial guess.
 HarFok:  IExCor= 1009 AccDes= 0.00D+00 IRadAn=         7 IDoV= 1 UseB2=F ITyADJ=14
 ICtDFT=  3500011 ScaDFX=  1.000000  1.000000  1.000000  1.000000
 FoFCou: FMM=F IPFlag=           0 FMFlag=      100000 FMFlg1=           0
         NFxFlg=           0 DoJE=T BraDBF=F KetDBF=T FulRan=T
         wScrn=  0.000000 ICntrl=       500 IOpCl=  0 I1Cent=   200000004 NGrid=           0
         NMat0=    1 NMatS0=      1 NMatT0=    0 NMatD0=    1 NMtDS0=    0 NMtDT0=    0
 Symmetry not used in FoFCou.
 Harris En= -797.058152597923    
 JPrj=0 DoOrth=F DoCkMO=F.
 Initial guess <Sx>= 0.0000 <Sy>= 0.0000 <Sz>= 0.0000 <S**2>=-0.0000 S=-0.0000
 Leave Link  401 at Mon Apr 21 21:15:46 2025, MaxMem=   536870912 cpu:               2.9 elap:               0.4
 (Enter /home/szhao/Apps/g16/l502.exe)
 Keep R1 and R2 ints in memory in canonical form, NReq=14118010.
 FoFCou: FMM=F IPFlag=           0 FMFlag=           0 FMFlg1=           0
         NFxFlg=           0 DoJE=F BraDBF=F KetDBF=F FulRan=T
         wScrn=  0.000000 ICntrl=       600 IOpCl=  0 I1Cent=           0 NGrid=           0
         NMat0=    1 NMatS0=   2628 NMatT0=    0 NMatD0=    1 NMtDS0=    0 NMtDT0=    0
 Symmetry not used in FoFCou.
 Two-electron integral symmetry not used.
 UHF open shell SCF:
 Using DIIS extrapolation, IDIIS=  1040.
 NGot=   536870912 LenX=   529949706 LenY=   529943789
 Requested convergence on RMS density matrix=1.00D-08 within 128 cycles.
 Requested convergence on MAX density matrix=1.00D-06.
 Requested convergence on             energy=1.00D-06.
 No special actions if energy rises.

 Cycle   1  Pass 1  IDiag  1:
 E= -797.389592348176    
 DIIS: error= 2.18D-02 at cycle   1 NSaved=   1.
 NSaved= 1 IEnMin= 1 EnMin= -797.389592348176     IErMin= 1 ErrMin= 2.18D-02
 ErrMax= 2.18D-02  0.00D+00 EMaxC= 1.00D-01 BMatC= 2.59D-01 BMatP= 2.59D-01
 IDIUse=3 WtCom= 7.82D-01 WtEn= 2.18D-01
 Coeff-Com:  0.100D+01
 Coeff-En:   0.100D+01
 Coeff:      0.100D+01
 Gap=     0.117 Goal=   None    Shift=    0.000
 Gap=     0.117 Goal=   None    Shift=    0.000
 GapD=    0.117 DampG=1.000 DampE=0.500 DampFc=0.5000 IDamp=-1.
 Damping current iteration by 5.00D-01
 RMSDP=1.73D-03 MaxDP=2.87D-02              OVMax= 1.97D-02

 Cycle   2  Pass 1  IDiag  1:
 E= -797.395139353826     Delta-E=       -0.005547005650 Rises=F Damp=T
 DIIS: error= 9.58D-03 at cycle   2 NSaved=   2.
 NSaved= 2 IEnMin= 2 EnMin= -797.395139353826     IErMin= 2 ErrMin= 9.58D-03
 ErrMax= 9.58D-03  0.00D+00 EMaxC= 1.00D-01 BMatC= 4.16D-02 BMatP= 2.59D-01
 IDIUse=3 WtCom= 9.04D-01 WtEn= 9.58D-02
 Coeff-Com: -0.612D+00 0.161D+01
 Coeff-En:   0.000D+00 0.100D+01
 Coeff:     -0.554D+00 0.155D+01
 Gap=     0.098 Goal=   None    Shift=    0.000
 Gap=     0.098 Goal=   None    Shift=    0.000
 RMSDP=8.54D-04 MaxDP=1.01D-02 DE=-5.55D-03 OVMax= 8.30D-03

 Cycle   3  Pass 1  IDiag  1:
 E= -797.400355211049     Delta-E=       -0.005215857224 Rises=F Damp=F
 DIIS: error= 4.11D-04 at cycle   3 NSaved=   3.
 NSaved= 3 IEnMin= 3 EnMin= -797.400355211049     IErMin= 3 ErrMin= 4.11D-04
 ErrMax= 4.11D-04  0.00D+00 EMaxC= 1.00D-01 BMatC= 1.25D-04 BMatP= 4.16D-02
 IDIUse=3 WtCom= 9.96D-01 WtEn= 4.11D-03
 Coeff-Com: -0.472D-01 0.938D-01 0.953D+00
 Coeff-En:   0.000D+00 0.000D+00 0.100D+01
 Coeff:     -0.470D-01 0.934D-01 0.954D+00
 Gap=     0.098 Goal=   None    Shift=    0.000
 Gap=     0.098 Goal=   None    Shift=    0.000
 RMSDP=1.43D-04 MaxDP=3.38D-03 DE=-5.22D-03 OVMax= 3.07D-03

 Cycle   4  Pass 1  IDiag  1:
 E= -797.400387170209     Delta-E=       -0.000031959159 Rises=F Damp=F
 DIIS: error= 2.71D-04 at cycle   4 NSaved=   4.
 NSaved= 4 IEnMin= 4 EnMin= -797.400387170209     IErMin= 4 ErrMin= 2.71D-04
 ErrMax= 2.71D-04  0.00D+00 EMaxC= 1.00D-01 BMatC= 2.42D-05 BMatP= 1.25D-04
 IDIUse=3 WtCom= 9.97D-01 WtEn= 2.71D-03
 Coeff-Com:  0.709D-02-0.192D-01 0.283D+00 0.729D+00
 Coeff-En:   0.000D+00 0.000D+00 0.000D+00 0.100D+01
 Coeff:      0.707D-02-0.192D-01 0.282D+00 0.730D+00
 Gap=     0.098 Goal=   None    Shift=    0.000
 Gap=     0.098 Goal=   None    Shift=    0.000
 RMSDP=4.26D-05 MaxDP=8.85D-04 DE=-3.20D-05 OVMax= 1.06D-03

 Cycle   5  Pass 1  IDiag  1:
 E= -797.400394396714     Delta-E=       -0.000007226505 Rises=F Damp=F
 DIIS: error= 4.09D-05 at cycle   5 NSaved=   5.
 NSaved= 5 IEnMin= 5 EnMin= -797.400394396714     IErMin= 5 ErrMin= 4.09D-05
 ErrMax= 4.09D-05  0.00D+00 EMaxC= 1.00D-01 BMatC= 4.49D-07 BMatP= 2.42D-05
 IDIUse=1 WtCom= 1.00D+00 WtEn= 0.00D+00
 Coeff-Com: -0.932D-03 0.277D-02-0.951D-01-0.134D+00 0.123D+01
 Coeff:     -0.932D-03 0.277D-02-0.951D-01-0.134D+00 0.123D+01
 Gap=     0.098 Goal=   None    Shift=    0.000
 Gap=     0.098 Goal=   None    Shift=    0.000
 RMSDP=2.12D-05 MaxDP=2.51D-04 DE=-7.23D-06 OVMax= 1.32D-03

 Cycle   6  Pass 1  IDiag  1:
 E= -797.400395406111     Delta-E=       -0.000001009397 Rises=F Damp=F
 DIIS: error= 2.97D-05 at cycle   6 NSaved=   6.
 NSaved= 6 IEnMin= 6 EnMin= -797.400395406111     IErMin= 6 ErrMin= 2.97D-05
 ErrMax= 2.97D-05  0.00D+00 EMaxC= 1.00D-01 BMatC= 1.84D-07 BMatP= 4.49D-07
 IDIUse=1 WtCom= 1.00D+00 WtEn= 0.00D+00
 Coeff-Com: -0.541D-03 0.160D-02-0.486D-01-0.761D-01 0.543D+00 0.580D+00
 Coeff:     -0.541D-03 0.160D-02-0.486D-01-0.761D-01 0.543D+00 0.580D+00
 Gap=     0.098 Goal=   None    Shift=    0.000
 Gap=     0.098 Goal=   None    Shift=    0.000
 RMSDP=1.04D-05 MaxDP=2.19D-04 DE=-1.01D-06 OVMax= 5.84D-04

 Cycle   7  Pass 1  IDiag  1:
 E= -797.400395534230     Delta-E=       -0.000000128119 Rises=F Damp=F
 DIIS: error= 4.13D-05 at cycle   7 NSaved=   7.
 NSaved= 7 IEnMin= 7 EnMin= -797.400395534230     IErMin= 6 ErrMin= 2.97D-05
 ErrMax= 4.13D-05  0.00D+00 EMaxC= 1.00D-01 BMatC= 4.82D-07 BMatP= 1.84D-07
 IDIUse=1 WtCom= 1.00D+00 WtEn= 0.00D+00
 Coeff-Com:  0.266D-04-0.534D-04 0.811D-02 0.148D-02-0.212D+00 0.789D+00
 Coeff-Com:  0.413D+00
 Coeff:      0.266D-04-0.534D-04 0.811D-02 0.148D-02-0.212D+00 0.789D+00
 Coeff:      0.413D+00
 Gap=     0.098 Goal=   None    Shift=    0.000
 Gap=     0.098 Goal=   None    Shift=    0.000
 RMSDP=1.15D-05 MaxDP=1.62D-04 DE=-1.28D-07 OVMax= 8.01D-04

 Cycle   8  Pass 1  IDiag  1:
 E= -797.400396055762     Delta-E=       -0.000000521533 Rises=F Damp=F
 DIIS: error= 2.28D-05 at cycle   8 NSaved=   8.
 NSaved= 8 IEnMin= 8 EnMin= -797.400396055762     IErMin= 8 ErrMin= 2.28D-05
 ErrMax= 2.28D-05  0.00D+00 EMaxC= 1.00D-01 BMatC= 5.87D-08 BMatP= 1.84D-07
 IDIUse=1 WtCom= 1.00D+00 WtEn= 0.00D+00
 Coeff-Com:  0.399D-03-0.112D-02 0.320D-01 0.496D-01-0.366D+00-0.346D+00
 Coeff-Com: -0.202D-01 0.165D+01
 Coeff:      0.399D-03-0.112D-02 0.320D-01 0.496D-01-0.366D+00-0.346D+00
 Coeff:     -0.202D-01 0.165D+01
 Gap=     0.098 Goal=   None    Shift=    0.000
 Gap=     0.098 Goal=   None    Shift=    0.000
 RMSDP=2.29D-05 MaxDP=3.35D-04 DE=-5.22D-07 OVMax= 1.81D-03

 Cycle   9  Pass 1  IDiag  1:
 E= -797.400396667422     Delta-E=       -0.000000611659 Rises=F Damp=F
 DIIS: error= 1.58D-05 at cycle   9 NSaved=   9.
 NSaved= 9 IEnMin= 9 EnMin= -797.400396667422     IErMin= 9 ErrMin= 1.58D-05
 ErrMax= 1.58D-05  0.00D+00 EMaxC= 1.00D-01 BMatC= 3.10D-08 BMatP= 5.87D-08
 IDIUse=1 WtCom= 1.00D+00 WtEn= 0.00D+00
 Coeff-Com: -0.410D-03 0.101D-02-0.268D-01-0.275D-01 0.467D+00-0.666D+00
 Coeff-Com: -0.434D+00-0.829D+00 0.252D+01
 Coeff:     -0.410D-03 0.101D-02-0.268D-01-0.275D-01 0.467D+00-0.666D+00
 Coeff:     -0.434D+00-0.829D+00 0.252D+01
 Gap=     0.098 Goal=   None    Shift=    0.000
 Gap=     0.098 Goal=   None    Shift=    0.000
 RMSDP=4.03D-05 MaxDP=5.92D-04 DE=-6.12D-07 OVMax= 3.20D-03

 Cycle  10  Pass 1  IDiag  1:
 E= -797.400397294478     Delta-E=       -0.000000627057 Rises=F Damp=F
 DIIS: error= 5.36D-06 at cycle  10 NSaved=  10.
 NSaved=10 IEnMin=10 EnMin= -797.400397294478     IErMin=10 ErrMin= 5.36D-06
 ErrMax= 5.36D-06  0.00D+00 EMaxC= 1.00D-01 BMatC= 4.70D-09 BMatP= 3.10D-08
 IDIUse=1 WtCom= 1.00D+00 WtEn= 0.00D+00
 Coeff-Com: -0.469D-04 0.173D-03-0.730D-02-0.125D-01 0.623D-01 0.893D-01
 Coeff-Com:  0.195D-01-0.293D+00-0.376D+00 0.152D+01
 Coeff:     -0.469D-04 0.173D-03-0.730D-02-0.125D-01 0.623D-01 0.893D-01
 Coeff:      0.195D-01-0.293D+00-0.376D+00 0.152D+01
 Gap=     0.098 Goal=   None    Shift=    0.000
 Gap=     0.098 Goal=   None    Shift=    0.000
 RMSDP=2.15D-05 MaxDP=3.16D-04 DE=-6.27D-07 OVMax= 1.71D-03

 Cycle  11  Pass 1  IDiag  1:
 E= -797.400397394058     Delta-E=       -0.000000099580 Rises=F Damp=F
 DIIS: error= 1.12D-06 at cycle  11 NSaved=  11.
 NSaved=11 IEnMin=11 EnMin= -797.400397394058     IErMin=11 ErrMin= 1.12D-06
 ErrMax= 1.12D-06  0.00D+00 EMaxC= 1.00D-01 BMatC= 3.33D-10 BMatP= 4.70D-09
 IDIUse=1 WtCom= 1.00D+00 WtEn= 0.00D+00
 Coeff-Com:  0.381D-04-0.708D-04 0.226D-03-0.560D-03-0.130D-01 0.848D-01
 Coeff-Com:  0.429D-01-0.164D-01-0.336D+00 0.419D+00 0.819D+00
 Coeff:      0.381D-04-0.708D-04 0.226D-03-0.560D-03-0.130D-01 0.848D-01
 Coeff:      0.429D-01-0.164D-01-0.336D+00 0.419D+00 0.819D+00
 Gap=     0.098 Goal=   None    Shift=    0.000
 Gap=     0.098 Goal=   None    Shift=    0.000
 RMSDP=2.05D-06 MaxDP=2.99D-05 DE=-9.96D-08 OVMax= 1.61D-04

 Cycle  12  Pass 1  IDiag  1:
 E= -797.400397395026     Delta-E=       -0.000000000968 Rises=F Damp=F
 DIIS: error= 7.92D-08 at cycle  12 NSaved=  12.
 NSaved=12 IEnMin=12 EnMin= -797.400397395026     IErMin=12 ErrMin= 7.92D-08
 ErrMax= 7.92D-08  0.00D+00 EMaxC= 1.00D-01 BMatC= 2.41D-12 BMatP= 3.33D-10
 IDIUse=1 WtCom= 1.00D+00 WtEn= 0.00D+00
 Coeff-Com: -0.127D-05 0.236D-06 0.209D-03 0.298D-03-0.220D-02-0.433D-02
 Coeff-Com: -0.163D-02 0.514D-02 0.329D-01-0.746D-01-0.500D-01 0.109D+01
 Coeff:     -0.127D-05 0.236D-06 0.209D-03 0.298D-03-0.220D-02-0.433D-02
 Coeff:     -0.163D-02 0.514D-02 0.329D-01-0.746D-01-0.500D-01 0.109D+01
 Gap=     0.098 Goal=   None    Shift=    0.000
 Gap=     0.098 Goal=   None    Shift=    0.000
 RMSDP=1.19D-07 MaxDP=1.67D-06 DE=-9.68D-10 OVMax= 8.92D-06

 Cycle  13  Pass 1  IDiag  1:
 E= -797.400397395031     Delta-E=       -0.000000000005 Rises=F Damp=F
 DIIS: error= 1.19D-08 at cycle  13 NSaved=  13.
 NSaved=13 IEnMin=13 EnMin= -797.400397395031     IErMin=13 ErrMin= 1.19D-08
 ErrMax= 1.19D-08  0.00D+00 EMaxC= 1.00D-01 BMatC= 4.55D-14 BMatP= 2.41D-12
 IDIUse=1 WtCom= 1.00D+00 WtEn= 0.00D+00
 Coeff-Com: -0.104D-05 0.189D-05 0.469D-05 0.169D-04 0.158D-03-0.168D-02
 Coeff-Com: -0.814D-03 0.436D-03 0.814D-02-0.122D-01-0.160D-01 0.782D-01
 Coeff-Com:  0.944D+00
 Coeff:     -0.104D-05 0.189D-05 0.469D-05 0.169D-04 0.158D-03-0.168D-02
 Coeff:     -0.814D-03 0.436D-03 0.814D-02-0.122D-01-0.160D-01 0.782D-01
 Coeff:      0.944D+00
 Gap=     0.098 Goal=   None    Shift=    0.000
 Gap=     0.098 Goal=   None    Shift=    0.000
 RMSDP=1.25D-08 MaxDP=1.78D-07 DE=-5.00D-12 OVMax= 9.48D-07

 Cycle  14  Pass 1  IDiag  1:
 E= -797.400397395030     Delta-E=        0.000000000001 Rises=F Damp=F
 DIIS: error= 2.25D-09 at cycle  14 NSaved=  14.
 NSaved=14 IEnMin=13 EnMin= -797.400397395031     IErMin=14 ErrMin= 2.25D-09
 ErrMax= 2.25D-09  0.00D+00 EMaxC= 1.00D-01 BMatC= 1.96D-15 BMatP= 4.55D-14
 IDIUse=1 WtCom= 1.00D+00 WtEn= 0.00D+00
 Coeff-Com: -0.229D-07 0.118D-06-0.785D-05-0.104D-04 0.899D-04 0.546D-04
 Coeff-Com:  0.128D-04-0.188D-03-0.684D-03 0.193D-02 0.935D-03-0.366D-01
 Coeff-Com:  0.616D-01 0.973D+00
 Coeff:     -0.229D-07 0.118D-06-0.785D-05-0.104D-04 0.899D-04 0.546D-04
 Coeff:      0.128D-04-0.188D-03-0.684D-03 0.193D-02 0.935D-03-0.366D-01
 Coeff:      0.616D-01 0.973D+00
 Gap=     0.098 Goal=   None    Shift=    0.000
 Gap=     0.098 Goal=   None    Shift=    0.000
 RMSDP=1.73D-09 MaxDP=2.84D-08 DE= 1.25D-12 OVMax= 1.14D-07

 SCF Done:  E(UM062X) =  -797.400397395     A.U. after   14 cycles
            NFock= 14  Conv=0.17D-08     -V/T= 2.0013
 <Sx>= 0.0000 <Sy>= 0.0000 <Sz>= 0.0000 <S**2>=-0.0000 S=-0.0000
 <L.S>=  0.00000000000    
 KE= 7.963512637014D+02 PE=-1.996659665817D+03 EE= 3.528175784226D+02
 Annihilation of the first spin contaminant:
 S**2 before annihilation    -0.0000,   after    -0.0000
 Leave Link  502 at Mon Apr 21 21:15:54 2025, MaxMem=   536870912 cpu:              62.5 elap:               8.3
 (Enter /home/szhao/Apps/g16/l601.exe)
 Copying SCF densities to generalized density rwf, IOpCl= 1 IROHF=0.

 **********************************************************************

            Population analysis using the SCF density.

 **********************************************************************

 Alpha  occ. eigenvalues --  -89.94444 -89.94443  -8.30671  -8.30670  -6.22817
 Alpha  occ. eigenvalues --   -6.22816  -6.22566  -6.22565  -6.21997  -6.21997
 Alpha  occ. eigenvalues --   -0.81468  -0.81062  -0.47383  -0.47189  -0.33287
 Alpha  occ. eigenvalues --   -0.33277  -0.31104
 Alpha virt. eigenvalues --   -0.21264   0.01948   0.02973   0.04738   0.04796
 Alpha virt. eigenvalues --    0.06751   0.06805   0.07091   0.07830   0.09431
 Alpha virt. eigenvalues --    0.13238   0.31421   0.31561   0.31798   0.35551
 Alpha virt. eigenvalues --    0.36175   0.36704   0.41374   0.41670   0.58939
 Alpha virt. eigenvalues --    0.64127   0.72426   0.72594   0.73997   0.73998
 Alpha virt. eigenvalues --    0.81094   0.81484   0.81505   0.82303   0.99581
 Alpha virt. eigenvalues --    0.99592   1.46184   1.47670   1.47718   1.48471
 Alpha virt. eigenvalues --    1.66074   1.66514   1.67765   1.68871   1.68939
 Alpha virt. eigenvalues --    1.71511   2.10680   2.11072   2.54789   2.55196
 Alpha virt. eigenvalues --    7.83470   7.86316  17.43871  17.43875  17.44463
 Alpha virt. eigenvalues --   17.45726  17.48766  17.48809 189.09493 189.12749
  Beta  occ. eigenvalues --  -89.94444 -89.94443  -8.30671  -8.30670  -6.22817
  Beta  occ. eigenvalues --   -6.22816  -6.22566  -6.22565  -6.21997  -6.21997
  Beta  occ. eigenvalues --   -0.81468  -0.81062  -0.47383  -0.47189  -0.33287
  Beta  occ. eigenvalues --   -0.33277  -0.31104
  Beta virt. eigenvalues --   -0.21264   0.01948   0.02973   0.04738   0.04796
  Beta virt. eigenvalues --    0.06751   0.06805   0.07091   0.07830   0.09431
  Beta virt. eigenvalues --    0.13238   0.31421   0.31561   0.31798   0.35551
  Beta virt. eigenvalues --    0.36175   0.36704   0.41374   0.41670   0.58939
  Beta virt. eigenvalues --    0.64127   0.72426   0.72594   0.73997   0.73998
  Beta virt. eigenvalues --    0.81094   0.81484   0.81505   0.82303   0.99581
  Beta virt. eigenvalues --    0.99592   1.46184   1.47670   1.47718   1.48471
  Beta virt. eigenvalues --    1.66074   1.66514   1.67765   1.68871   1.68939
  Beta virt. eigenvalues --    1.71511   2.10680   2.11072   2.54789   2.55196
  Beta virt. eigenvalues --    7.83470   7.86316  17.43871  17.43875  17.44463
  Beta virt. eigenvalues --   17.45726  17.48766  17.48809 189.09493 189.12749
          Condensed to atoms (all electrons):
               1          2          3          4
     1  S   15.744200   0.081502   0.252943   0.000579
     2  S    0.081502  15.744198   0.000579   0.252941
     3  H    0.252943   0.000579   0.667259  -0.000001
     4  H    0.000579   0.252941  -0.000001   0.667258
          Atomic-Atomic Spin Densities.
               1          2          3          4
     1  S    0.000000   0.000000   0.000000   0.000000
     2  S    0.000000   0.000000   0.000000   0.000000
     3  H    0.000000   0.000000   0.000000   0.000000
     4  H    0.000000   0.000000   0.000000   0.000000
 Mulliken charges and spin densities:
               1          2
     1  S   -0.079224   0.000000
     2  S   -0.079220   0.000000
     3  H    0.079220   0.000000
     4  H    0.079223   0.000000
 Sum of Mulliken charges =  -0.00000   0.00000
 Mulliken charges and spin densities with hydrogens summed into heavy atoms:
               1          2
     1  S   -0.000003   0.000000
     2  S    0.000003   0.000000
 Electronic spatial extent (au):  <R**2>=            572.0244
 Charge=             -0.0000 electrons
 Dipole moment (field-independent basis, Debye):
    X=              0.0001    Y=             -1.0355    Z=              1.0577  Tot=              1.4802
 Quadrupole moment (field-independent basis, Debye-Ang):
   XX=            -23.4123   YY=            -28.1541   ZZ=            -28.1578
   XY=              2.6470   XZ=              2.5919   YZ=              0.0856
 Traceless Quadrupole moment (field-independent basis, Debye-Ang):
   XX=              3.1624   YY=             -1.5794   ZZ=             -1.5830
   XY=              2.6470   XZ=              2.5919   YZ=              0.0856
 Octapole moment (field-independent basis, Debye-Ang**2):
  XXX=              0.0009  YYY=              0.8513  ZZZ=             -0.9043  XYY=             -8.2873
  XXY=             -4.4991  XXZ=              4.5931  XZZ=              8.2876  YZZ=              0.8323
  YYZ=             -0.8160  XYZ=              0.1768
 Hexadecapole moment (field-independent basis, Debye-Ang**3):
 XXXX=           -660.1513 YYYY=            -46.1020 ZZZZ=            -46.1066 XXXY=              8.5974
 XXXZ=              8.4258 YYYX=             -1.3022 YYYZ=              0.0125 ZZZX=             -1.1982
 ZZZY=              0.0894 XXYY=           -127.0152 XXZZ=           -127.0308 YYZZ=            -16.5711
 XXYZ=              0.3643 YYXZ=             -1.6266 ZZXY=             -1.5852
 N-N= 5.009042629809D+01 E-N=-1.996659665885D+03  KE= 7.963512637014D+02
                          Isotropic Fermi Contact Couplings
        Atom                 a.u.       MegaHertz       Gauss      10(-4) cm-1
     1  S(33)              0.00000       0.00000       0.00000       0.00000
     2  S(33)              0.00000       0.00000       0.00000       0.00000
     3  H(1)               0.00000       0.00000       0.00000       0.00000
     4  H(1)               0.00000       0.00000       0.00000       0.00000
 --------------------------------------------------------
       Center         ----  Spin Dipole Couplings  ----
                      3XX-RR        3YY-RR        3ZZ-RR
 --------------------------------------------------------
     1   Atom        0.000000      0.000000      0.000000
     2   Atom        0.000000      0.000000      0.000000
     3   Atom        0.000000      0.000000      0.000000
     4   Atom        0.000000      0.000000      0.000000
 --------------------------------------------------------
                        XY            XZ            YZ
 --------------------------------------------------------
     1   Atom        0.000000      0.000000      0.000000
     2   Atom        0.000000      0.000000      0.000000
     3   Atom        0.000000      0.000000      0.000000
     4   Atom        0.000000      0.000000      0.000000
 --------------------------------------------------------


 ---------------------------------------------------------------------------------
              Anisotropic Spin Dipole Couplings in Principal Axis System
 ---------------------------------------------------------------------------------

       Atom             a.u.   MegaHertz   Gauss  10(-4) cm-1        Axes

              Baa     0.0000     0.000     0.000     0.000  1.0000  0.0000  0.0000
     1 S(33)  Bbb     0.0000     0.000     0.000     0.000 -0.0000  1.0000  0.0000
              Bcc     0.0000     0.000     0.000     0.000  0.0000  0.0000  1.0000
 
              Baa     0.0000     0.000     0.000     0.000  1.0000  0.0000  0.0000
     2 S(33)  Bbb     0.0000     0.000     0.000     0.000 -0.0000  1.0000  0.0000
              Bcc     0.0000     0.000     0.000     0.000  0.0000  0.0000  1.0000
 
              Baa     0.0000     0.000     0.000     0.000  1.0000  0.0000  0.0000
     3 H(1)   Bbb     0.0000     0.000     0.000     0.000 -0.0000  1.0000  0.0000
              Bcc     0.0000     0.000     0.000     0.000  0.0000  0.0000  1.0000
 
              Baa     0.0000     0.000     0.000     0.000  1.0000  0.0000  0.0000
     4 H(1)   Bbb     0.0000     0.000     0.000     0.000 -0.0000  1.0000  0.0000
              Bcc     0.0000     0.000     0.000     0.000  0.0000  0.0000  1.0000
 

 ---------------------------------------------------------------------------------

 No NMR shielding tensors so no spin-rotation constants.
 Leave Link  601 at Mon Apr 21 21:15:55 2025, MaxMem=   536870912 cpu:               1.4 elap:               0.2
 (Enter /home/szhao/Apps/g16/l701.exe)
 ... and contract with generalized density number  0.
 Compute integral first derivatives.
 Leave Link  701 at Mon Apr 21 21:15:56 2025, MaxMem=   536870912 cpu:               1.0 elap:               0.2
 (Enter /home/szhao/Apps/g16/l702.exe)
 L702 exits ... SP integral derivatives will be done elsewhere.
 Leave Link  702 at Mon Apr 21 21:15:56 2025, MaxMem=   536870912 cpu:               0.5 elap:               0.1
 (Enter /home/szhao/Apps/g16/l703.exe)
 Integral derivatives from FoFJK, PRISM(SPDF).
 Compute integral first derivatives, UseDBF=F ICtDFT=           0.
 Calling FoFJK, ICntrl=      2127 FMM=F ISym2X=0 I1Cent= 0 IOpClX= 1 NMat=1 NMatS=1 NMatT=0.
 FoFJK:  IHMeth= 1 ICntrl=    2127 DoSepK=F KAlg= 0 I1Cent=           0 FoldK=F
 IRaf=         0 NMat=       1 IRICut=       1 DoRegI=T DoRafI=F ISym2E= 0 IDoP0=0 IntGTp=1.
 FoFCou: FMM=F IPFlag=           0 FMFlag=      100000 FMFlg1=         800
         NFxFlg=           0 DoJE=F BraDBF=F KetDBF=F FulRan=T
         wScrn=  0.000000 ICntrl=      2127 IOpCl=  1 I1Cent=           0 NGrid=           0
         NMat0=    1 NMatS0=      1 NMatT0=    0 NMatD0=    1 NMtDS0=    0 NMtDT0=    0
 Symmetry not used in FoFCou.
 Leave Link  703 at Mon Apr 21 21:15:57 2025, MaxMem=   536870912 cpu:               6.4 elap:               0.8
 (Enter /home/szhao/Apps/g16/l716.exe)
 Dipole        = 3.50706830D-05-4.07388321D-01 4.16132702D-01
 -------------------------------------------------------------------
 Center     Atomic                   Forces (Hartrees/Bohr)
 Number     Number              X              Y              Z
 -------------------------------------------------------------------
      1       16          -0.000000000   -0.000000000   -0.000000000
      2       16          -0.000000000   -0.000000000   -0.000000000
      3        1           0.001925515   -0.001150039   -0.000025297
      4        1          -0.001935732   -0.000009276    0.001180950
 -------------------------------------------------------------------
 Cartesian Forces:  Max     0.001935732 RMS     0.000920716
 Leave Link  716 at Mon Apr 21 21:15:58 2025, MaxMem=   536870912 cpu:               0.6 elap:               0.4
 (Enter /home/szhao/Apps/g16/l103.exe)

 GradGradGradGradGradGradGradGradGradGradGradGradGradGradGradGradGradGrad
 Berny optimization.
 FormGI is forming the generalized inverse of G from B-inverse, IUseBI=4.
 Internal  Forces:  Max     0.005283042 RMS     0.002565765
 Search for a local minimum.
 Step number   1 out of a maximum of   21
 All quantities printed in internal units (Hartrees-Bohrs-Radians)
 RMS Force = .33772D-02 SwitMx=.10000D-02 MixMth= 1
 Mixed Optimization -- RFO/linear search
 Second derivative matrix not updated -- first step.
 The second derivative matrix:
                          X1        Y1        Z1        X2        Y2
           X1           0.50000
           Y1           0.00000   0.50000
           Z1           0.00000   0.00000   0.50000
           X2           0.00000   0.00000   0.00000   0.50000
           Y2           0.00000   0.00000   0.00000   0.00000   0.50000
           Z2           0.00000   0.00000   0.00000   0.00000   0.00000
           R1           0.00000   0.00000   0.00000   0.00000   0.00000
           R2           0.00000   0.00000   0.00000   0.00000   0.00000
           A1           0.00000   0.00000   0.00000   0.00000   0.00000
           A2           0.00000   0.00000   0.00000   0.00000   0.00000
           D1           0.00000   0.00000   0.00000   0.00000   0.00000
                          Z2        R1        R2        A1        A2
           Z2           0.50000
           R1           0.00000   0.26038
           R2           0.00000   0.00000   0.26038
           A1           0.00000   0.00000   0.00000   0.16000
           A2           0.00000   0.00000   0.00000   0.00000   0.16000
           D1           0.00000   0.00000   0.00000   0.00000   0.00000
                          D1
           D1           0.00230
 ITU=  0
     Eigenvalues ---    0.00230   0.16000   0.16000   0.26038   0.26038
     Eigenvalues --- 1000.000001000.000001000.000001000.000001000.00000
     Eigenvalues --- 1000.00000
 RFO step:  Lambda=-3.51868834D-04 EMin= 2.30000000D-03
 Linear search not attempted -- first point.
 Iteration  1 RMS(Cart)=  0.03553652 RMS(Int)=  0.00058070
 Iteration  2 RMS(Cart)=  0.00061348 RMS(Int)=  0.00000005
 Iteration  3 RMS(Cart)=  0.00000011 RMS(Int)=  0.00000000
 ITry= 1 IFail=0 DXMaxC= 8.28D-02 DCOld= 1.00D+10 DXMaxT= 3.00D-01 DXLimC= 3.00D+00 Rises=F
 Variable       Old X    -DE/DX   Delta X   Delta X   Delta X     New X
                                 (Linear)    (Quad)   (Total)
    X1       -3.81383   0.00193   0.00000   0.00000   0.00000  -3.81383
    Y1        0.00000  -0.00185   0.00000   0.00000   0.00000   0.00000
    Z1        0.00000  -0.00069   0.00000   0.00000   0.00000   0.00000
    X2        3.81383  -0.00194   0.00000   0.00000   0.00000   3.81383
    Y2        0.00000   0.00072   0.00000   0.00000   0.00000   0.00000
    Z2        0.00000   0.00187   0.00000   0.00000   0.00000   0.00000
    R1        2.54139   0.00088   0.00000   0.00336   0.00336   2.54475
    R2        2.54139   0.00091   0.00000   0.00347   0.00347   2.54486
    A1        1.70778  -0.00525   0.00000  -0.03272  -0.03272   1.67506
    A2        1.70778  -0.00528   0.00000  -0.03295  -0.03295   1.67483
    D1       -1.59212   0.00001   0.00000   0.00435   0.00435  -1.58777
         Item               Value     Threshold  Converged?
 Maximum Force            0.005283     0.000450     NO 
 RMS     Force            0.003377     0.000300     NO 
 Maximum Displacement     0.082759     0.001800     NO 
 RMS     Displacement     0.035711     0.001200     NO 
 Predicted change in Energy=-1.763220D-04
 Lowest energy point so far.  Saving SCF results.
 GradGradGradGradGradGradGradGradGradGradGradGradGradGradGradGradGradGrad

 Leave Link  103 at Mon Apr 21 21:15:58 2025, MaxMem=   536870912 cpu:               0.6 elap:               0.2
 (Enter /home/szhao/Apps/g16/l202.exe)
                          Input orientation:                          
 ---------------------------------------------------------------------
 Center     Atomic      Atomic             Coordinates (Angstroms)
 Number     Number       Type             X           Y           Z
 ---------------------------------------------------------------------
      1         16           0       -2.018191    0.000000    0.000000
      2         16           0        2.018191    0.000000    0.000000
      3          1           0       -2.158336   -1.339310    0.003314
      4          1           0        2.158039    0.026052    1.339150
 ---------------------------------------------------------------------
                    Distance matrix (angstroms):
                    1          2          3          4
     1  S    0.000000
     2  S    4.036383   0.000000
     3  H    1.346626   4.386017   0.000000
     4  H    4.385761   1.346684   4.720145   0.000000
 Symmetry turned off by external request.
 Stoichiometry    H2S2
 Framework group  C1[X(H2S2)]
 Deg. of freedom     6
 Full point group                 C1      NOp   1
 Rotational constants (GHZ):         144.5123543           1.8605666           1.8602153
 Leave Link  202 at Mon Apr 21 21:15:59 2025, MaxMem=   536870912 cpu:               0.6 elap:               0.4
 (Enter /home/szhao/Apps/g16/l301.exe)
 Standard basis: 6-311+G(d,p) (5D, 7F)
 Ernie: Thresh=  0.10000D-02 Tol=  0.10000D-05 Strict=F.
    72 basis functions,   116 primitive gaussians,    74 cartesian basis functions
    17 alpha electrons       17 beta electrons
       nuclear repulsion energy        50.1097411848 Hartrees.
 IExCor= 4336 DFT=T Ex+Corr=M062X ExCW=0 ScaHFX=  0.540000
 ScaDFX=  1.000000  1.000000  1.000000  1.000000 ScalE2=  1.000000  1.000000
 IRadAn=      7 IRanWt=     -1 IRanGd=            0 ICorTp=0 IEmpDi=  4
 NAtoms=    4 NActive=    4 NUniq=    4 SFac= 1.00D+00 NAtFMM=   60 NAOKFM=F Big=F
 Integral buffers will be    131072 words long.
 Raffenetti 2 integral format.
 Two-electron integral symmetry is turned off.
 Leave Link  301 at Mon Apr 21 21:16:00 2025, MaxMem=   536870912 cpu:               0.8 elap:               0.4
 (Enter /home/szhao/Apps/g16/l302.exe)
 NPDir=0 NMtPBC=     1 NCelOv=     1 NCel=       1 NClECP=     1 NCelD=      1
         NCelK=      1 NCelE2=     1 NClLst=     1 CellRange=     0.0.
 One-electron integrals computed using PRISM.
 NBasis=    72 RedAO= T EigKep=  1.39D-02  NBF=    72
 NBsUse=    72 1.00D-06 EigRej= -1.00D+00 NBFU=    72
 Precomputing XC quadrature grid using
 IXCGrd= 4 IRadAn=           7 IRanWt=          -1 IRanGd=           0 AccXCQ= 0.00D+00.
 Generated NRdTot=       0 NPtTot=           0 NUsed=           0 NTot=          32
 NSgBfM=    67    67    67    67    67 MxSgAt=     4 MxSgA2=     4.
 Leave Link  302 at Mon Apr 21 21:16:01 2025, MaxMem=   536870912 cpu:               2.2 elap:               0.5
 (Enter /home/szhao/Apps/g16/l303.exe)
 DipDrv:  MaxL=1.
 Leave Link  303 at Mon Apr 21 21:16:01 2025, MaxMem=   536870912 cpu:               0.8 elap:               0.2
 (Enter /home/szhao/Apps/g16/l401.exe)
 Initial guess from the checkpoint file:  "opt.chk"
 B after Tr=    -0.000016   -0.000546    0.000563
         Rot=    1.000000    0.000152    0.000239   -0.000242 Ang=   0.04 deg.
 Guess basis will be translated and rotated to current coordinates.
 JPrj=2 DoOrth=T DoCkMO=T.
 Initial guess <Sx>= 0.0000 <Sy>= 0.0000 <Sz>= 0.0000 <S**2>=-0.0000 S=-0.0000
 Generating alternative initial guess.
 ExpMin= 4.05D-02 ExpMax= 9.34D+04 ExpMxC= 3.17D+03 IAcc=3 IRadAn=         5 AccDes= 0.00D+00
 Harris functional with IExCor= 1009 and IRadAn=       5 diagonalized for initial guess.
 HarFok:  IExCor= 1009 AccDes= 0.00D+00 IRadAn=         5 IDoV= 1 UseB2=F ITyADJ=14
 ICtDFT=  3500011 ScaDFX=  1.000000  1.000000  1.000000  1.000000
 FoFCou: FMM=F IPFlag=           0 FMFlag=      100000 FMFlg1=           0
         NFxFlg=           0 DoJE=T BraDBF=F KetDBF=T FulRan=T
         wScrn=  0.000000 ICntrl=       500 IOpCl=  0 I1Cent=   200000004 NGrid=           0
         NMat0=    1 NMatS0=      1 NMatT0=    0 NMatD0=    1 NMtDS0=    0 NMtDT0=    0
 Symmetry not used in FoFCou.
 Harris En= -797.057897582303    
 Leave Link  401 at Mon Apr 21 21:16:03 2025, MaxMem=   536870912 cpu:               4.2 elap:               0.7
 (Enter /home/szhao/Apps/g16/l502.exe)
 Keep R1 and R2 ints in memory in canonical form, NReq=14118010.
 FoFCou: FMM=F IPFlag=           0 FMFlag=           0 FMFlg1=           0
         NFxFlg=           0 DoJE=F BraDBF=F KetDBF=F FulRan=T
         wScrn=  0.000000 ICntrl=       600 IOpCl=  0 I1Cent=           0 NGrid=           0
         NMat0=    1 NMatS0=   2628 NMatT0=    0 NMatD0=    1 NMtDS0=    0 NMtDT0=    0
 Symmetry not used in FoFCou.
 Two-electron integral symmetry not used.
 UHF open shell SCF:
 Using DIIS extrapolation, IDIIS=  1040.
 NGot=   536870912 LenX=   529949706 LenY=   529943789
 Requested convergence on RMS density matrix=1.00D-08 within 128 cycles.
 Requested convergence on MAX density matrix=1.00D-06.
 Requested convergence on             energy=1.00D-06.
 No special actions if energy rises.

 Cycle   1  Pass 1  IDiag  1:
 E= -797.400437547550    
 DIIS: error= 1.42D-03 at cycle   1 NSaved=   1.
 NSaved= 1 IEnMin= 1 EnMin= -797.400437547550     IErMin= 1 ErrMin= 1.42D-03
 ErrMax= 1.42D-03  0.00D+00 EMaxC= 1.00D-01 BMatC= 3.96D-04 BMatP= 3.96D-04
 IDIUse=3 WtCom= 9.86D-01 WtEn= 1.42D-02
 Coeff-Com:  0.100D+01
 Coeff-En:   0.100D+01
 Coeff:      0.100D+01
 Gap=     0.460 Goal=   None    Shift=    0.000
 Gap=     0.460 Goal=   None    Shift=    0.000
 GapD=    0.460 DampG=2.000 DampE=1.000 DampFc=2.0000 IDamp=-1.
 RMSDP=2.28D-04 MaxDP=3.03D-03              OVMax= 1.05D-02

 Cycle   2  Pass 1  IDiag  1:
 E= -797.400692192978     Delta-E=       -0.000254645428 Rises=F Damp=F
 DIIS: error= 3.40D-04 at cycle   2 NSaved=   2.
 NSaved= 2 IEnMin= 2 EnMin= -797.400692192978     IErMin= 2 ErrMin= 3.40D-04
 ErrMax= 3.40D-04  0.00D+00 EMaxC= 1.00D-01 BMatC= 2.14D-05 BMatP= 3.96D-04
 IDIUse=3 WtCom= 9.97D-01 WtEn= 3.40D-03
 Coeff-Com: -0.157D+00 0.116D+01
 Coeff-En:   0.000D+00 0.100D+01
 Coeff:     -0.156D+00 0.116D+01
 Gap=     0.099 Goal=   None    Shift=    0.000
 Gap=     0.099 Goal=   None    Shift=    0.000
 RMSDP=8.25D-05 MaxDP=1.14D-03 DE=-2.55D-04 OVMax= 5.08D-03

 Cycle   3  Pass 1  IDiag  1:
 E= -797.400719137237     Delta-E=       -0.000026944259 Rises=F Damp=F
 DIIS: error= 7.16D-05 at cycle   3 NSaved=   3.
 NSaved= 3 IEnMin= 3 EnMin= -797.400719137237     IErMin= 3 ErrMin= 7.16D-05
 ErrMax= 7.16D-05  0.00D+00 EMaxC= 1.00D-01 BMatC= 1.50D-06 BMatP= 2.14D-05
 IDIUse=1 WtCom= 1.00D+00 WtEn= 0.00D+00
 Coeff-Com: -0.251D-01 0.140D-01 0.101D+01
 Coeff:     -0.251D-01 0.140D-01 0.101D+01
 Gap=     0.099 Goal=   None    Shift=    0.000
 Gap=     0.099 Goal=   None    Shift=    0.000
 RMSDP=2.90D-05 MaxDP=3.29D-04 DE=-2.69D-05 OVMax= 1.87D-03

 Cycle   4  Pass 1  IDiag  1:
 E= -797.400721759164     Delta-E=       -0.000002621926 Rises=F Damp=F
 DIIS: error= 5.15D-05 at cycle   4 NSaved=   4.
 NSaved= 4 IEnMin= 4 EnMin= -797.400721759164     IErMin= 4 ErrMin= 5.15D-05
 ErrMax= 5.15D-05  0.00D+00 EMaxC= 1.00D-01 BMatC= 5.60D-07 BMatP= 1.50D-06
 IDIUse=1 WtCom= 1.00D+00 WtEn= 0.00D+00
 Coeff-Com:  0.189D-01-0.200D+00 0.219D+00 0.962D+00
 Coeff:      0.189D-01-0.200D+00 0.219D+00 0.962D+00
 Gap=     0.099 Goal=   None    Shift=    0.000
 Gap=     0.099 Goal=   None    Shift=    0.000
 RMSDP=1.31D-05 MaxDP=1.15D-04 DE=-2.62D-06 OVMax= 8.22D-04

 Cycle   5  Pass 1  IDiag  1:
 E= -797.400722291137     Delta-E=       -0.000000531973 Rises=F Damp=F
 DIIS: error= 1.39D-05 at cycle   5 NSaved=   5.
 NSaved= 5 IEnMin= 5 EnMin= -797.400722291137     IErMin= 5 ErrMin= 1.39D-05
 ErrMax= 1.39D-05  0.00D+00 EMaxC= 1.00D-01 BMatC= 4.79D-08 BMatP= 5.60D-07
 IDIUse=1 WtCom= 1.00D+00 WtEn= 0.00D+00
 Coeff-Com:  0.549D-02-0.490D-01 0.285D-01 0.220D+00 0.794D+00
 Coeff:      0.549D-02-0.490D-01 0.285D-01 0.220D+00 0.794D+00
 Gap=     0.099 Goal=   None    Shift=    0.000
 Gap=     0.099 Goal=   None    Shift=    0.000
 RMSDP=7.07D-06 MaxDP=1.57D-04 DE=-5.32D-07 OVMax= 4.23D-04

 Cycle   6  Pass 1  IDiag  1:
 E= -797.400722258337     Delta-E=        0.000000032800 Rises=F Damp=F
 DIIS: error= 3.40D-05 at cycle   6 NSaved=   6.
 NSaved= 6 IEnMin= 5 EnMin= -797.400722291137     IErMin= 5 ErrMin= 1.39D-05
 ErrMax= 3.40D-05  0.00D+00 EMaxC= 1.00D-01 BMatC= 2.89D-07 BMatP= 4.79D-08
 IDIUse=1 WtCom= 1.00D+00 WtEn= 0.00D+00
 Coeff-Com: -0.259D-02 0.378D-01-0.678D-01-0.199D+00 0.924D+00 0.308D+00
 Coeff:     -0.259D-02 0.378D-01-0.678D-01-0.199D+00 0.924D+00 0.308D+00
 Gap=     0.099 Goal=   None    Shift=    0.000
 Gap=     0.099 Goal=   None    Shift=    0.000
 RMSDP=5.55D-06 MaxDP=1.23D-04 DE= 3.28D-08 OVMax= 3.31D-04

 Cycle   7  Pass 1  IDiag  1:
 E= -797.400722437193     Delta-E=       -0.000000178856 Rises=F Damp=F
 DIIS: error= 1.03D-05 at cycle   7 NSaved=   7.
 NSaved= 7 IEnMin= 7 EnMin= -797.400722437193     IErMin= 7 ErrMin= 1.03D-05
 ErrMax= 1.03D-05  0.00D+00 EMaxC= 1.00D-01 BMatC= 1.17D-08 BMatP= 4.79D-08
 IDIUse=1 WtCom= 1.00D+00 WtEn= 0.00D+00
 Coeff-Com: -0.442D-03-0.170D-03 0.839D-02 0.115D-01-0.455D+00-0.101D+00
 Coeff-Com:  0.154D+01
 Coeff:     -0.442D-03-0.170D-03 0.839D-02 0.115D-01-0.455D+00-0.101D+00
 Coeff:      0.154D+01
 Gap=     0.099 Goal=   None    Shift=    0.000
 Gap=     0.099 Goal=   None    Shift=    0.000
 RMSDP=7.79D-06 MaxDP=1.15D-04 DE=-1.79D-07 OVMax= 6.15D-04

 Cycle   8  Pass 1  IDiag  1:
 E= -797.400722535724     Delta-E=       -0.000000098531 Rises=F Damp=F
 DIIS: error= 8.10D-06 at cycle   8 NSaved=   8.
 NSaved= 8 IEnMin= 8 EnMin= -797.400722535724     IErMin= 8 ErrMin= 8.10D-06
 ErrMax= 8.10D-06  0.00D+00 EMaxC= 1.00D-01 BMatC= 7.43D-09 BMatP= 1.17D-08
 IDIUse=1 WtCom= 1.00D+00 WtEn= 0.00D+00
 Coeff-Com:  0.338D-02-0.490D-01 0.898D-01 0.267D+00-0.111D+01-0.391D+00
 Coeff-Com: -0.556D+00 0.275D+01
 Coeff:      0.338D-02-0.490D-01 0.898D-01 0.267D+00-0.111D+01-0.391D+00
 Coeff:     -0.556D+00 0.275D+01
 Gap=     0.099 Goal=   None    Shift=    0.000
 Gap=     0.099 Goal=   None    Shift=    0.000
 RMSDP=2.07D-05 MaxDP=3.06D-04 DE=-9.85D-08 OVMax= 1.64D-03

 Cycle   9  Pass 1  IDiag  1:
 E= -797.400722692658     Delta-E=       -0.000000156934 Rises=F Damp=F
 DIIS: error= 2.72D-06 at cycle   9 NSaved=   9.
 NSaved= 9 IEnMin= 9 EnMin= -797.400722692658     IErMin= 9 ErrMin= 2.72D-06
 ErrMax= 2.72D-06  0.00D+00 EMaxC= 1.00D-01 BMatC= 1.02D-09 BMatP= 7.43D-09
 IDIUse=1 WtCom= 1.00D+00 WtEn= 0.00D+00
 Coeff-Com:  0.672D-04 0.155D-02-0.463D-02-0.207D-01 0.250D+00 0.657D-01
 Coeff-Com: -0.518D+00-0.269D+00 0.150D+01
 Coeff:      0.672D-04 0.155D-02-0.463D-02-0.207D-01 0.250D+00 0.657D-01
 Coeff:     -0.518D+00-0.269D+00 0.150D+01
 Gap=     0.099 Goal=   None    Shift=    0.000
 Gap=     0.099 Goal=   None    Shift=    0.000
 RMSDP=1.02D-05 MaxDP=1.51D-04 DE=-1.57D-07 OVMax= 8.11D-04

 Cycle  10  Pass 1  IDiag  1:
 E= -797.400722713849     Delta-E=       -0.000000021191 Rises=F Damp=F
 DIIS: error= 1.90D-07 at cycle  10 NSaved=  10.
 NSaved=10 IEnMin=10 EnMin= -797.400722713849     IErMin=10 ErrMin= 1.90D-07
 ErrMax= 1.90D-07  0.00D+00 EMaxC= 1.00D-01 BMatC= 2.34D-11 BMatP= 1.02D-09
 IDIUse=1 WtCom= 1.00D+00 WtEn= 0.00D+00
 Coeff-Com: -0.904D-04 0.188D-02-0.399D-02-0.132D-01 0.899D-01 0.265D-01
 Coeff-Com: -0.109D+00-0.122D+00 0.286D+00 0.844D+00
 Coeff:     -0.904D-04 0.188D-02-0.399D-02-0.132D-01 0.899D-01 0.265D-01
 Coeff:     -0.109D+00-0.122D+00 0.286D+00 0.844D+00
 Gap=     0.099 Goal=   None    Shift=    0.000
 Gap=     0.099 Goal=   None    Shift=    0.000
 RMSDP=5.77D-07 MaxDP=8.43D-06 DE=-2.12D-08 OVMax= 4.52D-05

 Cycle  11  Pass 1  IDiag  1:
 E= -797.400722713926     Delta-E=       -0.000000000077 Rises=F Damp=F
 DIIS: error= 6.42D-08 at cycle  11 NSaved=  11.
 NSaved=11 IEnMin=11 EnMin= -797.400722713926     IErMin=11 ErrMin= 6.42D-08
 ErrMax= 6.42D-08  0.00D+00 EMaxC= 1.00D-01 BMatC= 2.08D-12 BMatP= 2.34D-11
 IDIUse=1 WtCom= 1.00D+00 WtEn= 0.00D+00
 Coeff-Com: -0.290D-04 0.318D-03-0.609D-03-0.154D-02-0.687D-03 0.448D-03
 Coeff-Com:  0.163D-01-0.183D-02-0.600D-01 0.204D+00 0.844D+00
 Coeff:     -0.290D-04 0.318D-03-0.609D-03-0.154D-02-0.687D-03 0.448D-03
 Coeff:      0.163D-01-0.183D-02-0.600D-01 0.204D+00 0.844D+00
 Gap=     0.099 Goal=   None    Shift=    0.000
 Gap=     0.099 Goal=   None    Shift=    0.000
 RMSDP=6.54D-08 MaxDP=9.25D-07 DE=-7.71D-11 OVMax= 4.92D-06

 Cycle  12  Pass 1  IDiag  1:
 E= -797.400722713927     Delta-E=       -0.000000000001 Rises=F Damp=F
 DIIS: error= 6.14D-09 at cycle  12 NSaved=  12.
 NSaved=12 IEnMin=12 EnMin= -797.400722713927     IErMin=12 ErrMin= 6.14D-09
 ErrMax= 6.14D-09  0.00D+00 EMaxC= 1.00D-01 BMatC= 1.52D-14 BMatP= 2.08D-12
 IDIUse=1 WtCom= 1.00D+00 WtEn= 0.00D+00
 Coeff-Com:  0.175D-05-0.399D-04 0.817D-04 0.229D-03-0.208D-02-0.558D-03
 Coeff-Com:  0.312D-02 0.189D-02-0.589D-02-0.105D-01-0.106D-01 0.102D+01
 Coeff:      0.175D-05-0.399D-04 0.817D-04 0.229D-03-0.208D-02-0.558D-03
 Coeff:      0.312D-02 0.189D-02-0.589D-02-0.105D-01-0.106D-01 0.102D+01
 Gap=     0.099 Goal=   None    Shift=    0.000
 Gap=     0.099 Goal=   None    Shift=    0.000
 RMSDP=4.55D-09 MaxDP=5.22D-08 DE=-9.09D-13 OVMax= 2.87D-07

 SCF Done:  E(UM062X) =  -797.400722714     A.U. after   12 cycles
            NFock= 12  Conv=0.45D-08     -V/T= 2.0013
 <Sx>= 0.0000 <Sy>= 0.0000 <Sz>= 0.0000 <S**2>=-0.0000 S=-0.0000
 <L.S>=  0.00000000000    
 KE= 7.963455588652D+02 PE=-1.996687419332D+03 EE= 3.528313965685D+02
 Annihilation of the first spin contaminant:
 S**2 before annihilation    -0.0000,   after     0.0000
 Leave Link  502 at Mon Apr 21 21:16:10 2025, MaxMem=   536870912 cpu:              55.2 elap:               7.3
 (Enter /home/szhao/Apps/g16/l701.exe)
 ... and contract with generalized density number  0.
 Compute integral first derivatives.
 Leave Link  701 at Mon Apr 21 21:16:11 2025, MaxMem=   536870912 cpu:               1.4 elap:               0.3
 (Enter /home/szhao/Apps/g16/l702.exe)
 L702 exits ... SP integral derivatives will be done elsewhere.
 Leave Link  702 at Mon Apr 21 21:16:11 2025, MaxMem=   536870912 cpu:               0.7 elap:               0.1
 (Enter /home/szhao/Apps/g16/l703.exe)
 Integral derivatives from FoFJK, PRISM(SPDF).
 Compute integral first derivatives, UseDBF=F ICtDFT=           0.
 Calling FoFJK, ICntrl=      2127 FMM=F ISym2X=0 I1Cent= 0 IOpClX= 1 NMat=1 NMatS=1 NMatT=0.
 FoFJK:  IHMeth= 1 ICntrl=    2127 DoSepK=F KAlg= 0 I1Cent=           0 FoldK=F
 IRaf=         0 NMat=       1 IRICut=       1 DoRegI=T DoRafI=F ISym2E= 0 IDoP0=0 IntGTp=1.
 FoFCou: FMM=F IPFlag=           0 FMFlag=      100000 FMFlg1=         800
         NFxFlg=           0 DoJE=F BraDBF=F KetDBF=F FulRan=T
         wScrn=  0.000000 ICntrl=      2127 IOpCl=  1 I1Cent=           0 NGrid=           0
         NMat0=    1 NMatS0=      1 NMatT0=    0 NMatD0=    1 NMtDS0=    0 NMtDT0=    0
 Symmetry not used in FoFCou.
 Leave Link  703 at Mon Apr 21 21:16:12 2025, MaxMem=   536870912 cpu:               7.0 elap:               1.0
 (Enter /home/szhao/Apps/g16/l716.exe)
 Dipole        = 1.77935102D-05-4.11657578D-01 4.20787242D-01
 -------------------------------------------------------------------
 Center     Atomic                   Forces (Hartrees/Bohr)
 Number     Number              X              Y              Z
 -------------------------------------------------------------------
      1       16          -0.000000000   -0.000000000   -0.000000000
      2       16          -0.000000000   -0.000000000   -0.000000000
      3        1           0.001785362   -0.000113476   -0.000056470
      4        1          -0.001794634    0.000039360    0.000116790
 -------------------------------------------------------------------
 Cartesian Forces:  Max     0.001794634 RMS     0.000732546
 Leave Link  716 at Mon Apr 21 21:16:13 2025, MaxMem=   536870912 cpu:               1.0 elap:               0.2
 (Enter /home/szhao/Apps/g16/l103.exe)

 GradGradGradGradGradGradGradGradGradGradGradGradGradGradGradGradGradGrad
 Berny optimization.
 Using GEDIIS/GDIIS optimizer.
 FormGI is forming the generalized inverse of G from B-inverse, IUseBI=4.
 Internal  Forces:  Max     0.004573469 RMS     0.002130446
 Search for a local minimum.
 Step number   2 out of a maximum of   21
 All quantities printed in internal units (Hartrees-Bohrs-Radians)
 RMS Force = .28855D-02 SwitMx=.10000D-02 MixMth= 1
 Mixed Optimization -- RFO/linear search
 Update second derivatives using D2CorX and points    1    2
 DE= -3.25D-04 DEPred=-1.76D-04 R= 1.85D+00
 TightC=F SS=  1.41D+00  RLast= 4.69D-02 DXNew= 5.0454D-01 1.4066D-01
 Trust test= 1.85D+00 RLast= 4.69D-02 DXMaxT set to 3.00D-01
 The second derivative matrix:
                          X1        Y1        Z1        X2        Y2
           X1           0.50037
           Y1          -0.00297   0.52390
           Z1          -0.00011   0.00088   0.50003
           X2          -0.00037   0.00299   0.00011   0.50037
           Y2           0.00017  -0.00136  -0.00005  -0.00017   0.50008
           Z2           0.00304  -0.02447  -0.00090  -0.00306   0.00139
           R1           0.00249  -0.02009  -0.00074  -0.00251   0.00114
           R2           0.00256  -0.02063  -0.00076  -0.00258   0.00117
           A1          -0.00183   0.01478   0.00054   0.00185  -0.00084
           A2          -0.00186   0.01502   0.00055   0.00188  -0.00085
           D1           0.00034  -0.00276  -0.00010  -0.00034   0.00016
                          Z2        R1        R2        A1        A2
           Z2           0.52506
           R1           0.02057   0.27509
           R2           0.02112   0.01509   0.27585
           A1          -0.01513   0.00063   0.00073   0.09107
           A2          -0.01538   0.00051   0.00061  -0.06932   0.09029
           D1           0.00282   0.00229   0.00235  -0.00156  -0.00158
                          D1
           D1           0.00262
 ITU=  1  0
 Use linear search instead of GDIIS.
     Eigenvalues ---    0.00232   0.02161   0.16000   0.26038   0.29061
     Eigenvalues --- 1000.000001000.000001000.000001000.000001000.00000
     Eigenvalues --- 1000.00000
 RFO step:  Lambda=-2.65717911D-04 EMin= 2.31840266D-03
 Quartic linear search produced a step of  2.00000.
 Iteration  1 RMS(Cart)=  0.15113942 RMS(Int)=  0.02851328
 Iteration  2 RMS(Cart)=  0.04936195 RMS(Int)=  0.00109818
 Iteration  3 RMS(Cart)=  0.00115482 RMS(Int)=  0.00000025
 Iteration  4 RMS(Cart)=  0.00000043 RMS(Int)=  0.00000000
 ITry= 1 IFail=0 DXMaxC= 3.60D-01 DCOld= 1.00D+10 DXMaxT= 3.00D-01 DXLimC= 3.00D+00 Rises=F
 Variable       Old X    -DE/DX   Delta X   Delta X   Delta X     New X
                                 (Linear)    (Quad)   (Total)
    X1       -3.81383   0.00179   0.00000   0.00000   0.00000  -3.81383
    Y1        0.00000  -0.00072   0.00000   0.00000   0.00000   0.00000
    Z1        0.00000  -0.00065   0.00000   0.00000   0.00000   0.00000
    X2        3.81383  -0.00179   0.00000   0.00000   0.00000   3.81383
    Y2        0.00000   0.00066   0.00000   0.00000   0.00000   0.00000
    Z2        0.00000   0.00072   0.00000   0.00000   0.00000   0.00000
    R1        2.54475  -0.00007   0.00672  -0.00536   0.00136   2.54612
    R2        2.54486  -0.00007   0.00694  -0.00546   0.00148   2.54634
    A1        1.67506  -0.00455  -0.06544  -0.03414  -0.09958   1.57547
    A2        1.67483  -0.00457  -0.06589  -0.03425  -0.10015   1.57468
    D1       -1.58777  -0.00012   0.00869  -0.29154  -0.28285  -1.87062
         Item               Value     Threshold  Converged?
 Maximum Force            0.004573     0.000450     NO 
 RMS     Force            0.002886     0.000300     NO 
 Maximum Displacement     0.360218     0.001800     NO 
 RMS     Displacement     0.187447     0.001200     NO 
 Predicted change in Energy=-7.169070D-04
 Lowest energy point so far.  Saving SCF results.
 GradGradGradGradGradGradGradGradGradGradGradGradGradGradGradGradGradGrad

 Leave Link  103 at Mon Apr 21 21:16:13 2025, MaxMem=   536870912 cpu:               0.3 elap:               0.1
 (Enter /home/szhao/Apps/g16/l202.exe)
                          Input orientation:                          
 ---------------------------------------------------------------------
 Center     Atomic      Atomic             Coordinates (Angstroms)
 Number     Number       Type             X           Y           Z
 ---------------------------------------------------------------------
      1         16           0       -2.018191    0.000000    0.000000
      2         16           0        2.018191    0.000000    0.000000
      3          1           0       -2.024494   -1.334251   -0.187305
      4          1           0        2.023428    0.215142    1.330171
 ---------------------------------------------------------------------
                    Distance matrix (angstroms):
                    1          2          3          4
     1  S    0.000000
     2  S    4.036383   0.000000
     3  H    1.347348   4.261292   0.000000
     4  H    4.260320   1.347467   4.592279   0.000000
 Symmetry turned off by external request.
 Stoichiometry    H2S2
 Framework group  C1[X(H2S2)]
 Deg. of freedom     6
 Full point group                 C1      NOp   1
 Rotational constants (GHZ):         142.5005876           1.8715597           1.8643329
 Leave Link  202 at Mon Apr 21 21:16:14 2025, MaxMem=   536870912 cpu:               0.1 elap:               0.1
 (Enter /home/szhao/Apps/g16/l301.exe)
 Standard basis: 6-311+G(d,p) (5D, 7F)
 Ernie: Thresh=  0.10000D-02 Tol=  0.10000D-05 Strict=F.
    72 basis functions,   116 primitive gaussians,    74 cartesian basis functions
    17 alpha electrons       17 beta electrons
       nuclear repulsion energy        50.2191854082 Hartrees.
 IExCor= 4336 DFT=T Ex+Corr=M062X ExCW=0 ScaHFX=  0.540000
 ScaDFX=  1.000000  1.000000  1.000000  1.000000 ScalE2=  1.000000  1.000000
 IRadAn=      7 IRanWt=     -1 IRanGd=            0 ICorTp=0 IEmpDi=  4
 NAtoms=    4 NActive=    4 NUniq=    4 SFac= 1.00D+00 NAtFMM=   60 NAOKFM=F Big=F
 Integral buffers will be    131072 words long.
 Raffenetti 2 integral format.
 Two-electron integral symmetry is turned off.
 Leave Link  301 at Mon Apr 21 21:16:14 2025, MaxMem=   536870912 cpu:               0.4 elap:               0.1
 (Enter /home/szhao/Apps/g16/l302.exe)
 NPDir=0 NMtPBC=     1 NCelOv=     1 NCel=       1 NClECP=     1 NCelD=      1
         NCelK=      1 NCelE2=     1 NClLst=     1 CellRange=     0.0.
 One-electron integrals computed using PRISM.
 NBasis=    72 RedAO= T EigKep=  1.40D-02  NBF=    72
 NBsUse=    72 1.00D-06 EigRej= -1.00D+00 NBFU=    72
 Precomputing XC quadrature grid using
 IXCGrd= 4 IRadAn=           7 IRanWt=          -1 IRanGd=           0 AccXCQ= 0.00D+00.
 Generated NRdTot=       0 NPtTot=           0 NUsed=           0 NTot=          32
 NSgBfM=    67    67    67    67    67 MxSgAt=     4 MxSgA2=     4.
 Leave Link  302 at Mon Apr 21 21:16:14 2025, MaxMem=   536870912 cpu:               1.7 elap:               0.3
 (Enter /home/szhao/Apps/g16/l303.exe)
 DipDrv:  MaxL=1.
 Leave Link  303 at Mon Apr 21 21:16:15 2025, MaxMem=   536870912 cpu:               0.5 elap:               0.2
 (Enter /home/szhao/Apps/g16/l401.exe)
 Initial guess from the checkpoint file:  "opt.chk"
 B after Tr=    -0.000042    0.010829   -0.011057
         Rot=    0.999996   -0.000252    0.002020   -0.002060 Ang=  -0.33 deg.
 Guess basis will be translated and rotated to current coordinates.
 JPrj=2 DoOrth=T DoCkMO=T.
 Initial guess <Sx>= 0.0000 <Sy>= 0.0000 <Sz>= 0.0000 <S**2>= 0.0000 S= 0.0000
 Generating alternative initial guess.
 ExpMin= 4.05D-02 ExpMax= 9.34D+04 ExpMxC= 3.17D+03 IAcc=3 IRadAn=         5 AccDes= 0.00D+00
 Harris functional with IExCor= 1009 and IRadAn=       5 diagonalized for initial guess.
 HarFok:  IExCor= 1009 AccDes= 0.00D+00 IRadAn=         5 IDoV= 1 UseB2=F ITyADJ=14
 ICtDFT=  3500011 ScaDFX=  1.000000  1.000000  1.000000  1.000000
 FoFCou: FMM=F IPFlag=           0 FMFlag=      100000 FMFlg1=           0
         NFxFlg=           0 DoJE=T BraDBF=F KetDBF=T FulRan=T
         wScrn=  0.000000 ICntrl=       500 IOpCl=  0 I1Cent=   200000004 NGrid=           0
         NMat0=    1 NMatS0=      1 NMatT0=    0 NMatD0=    1 NMtDS0=    0 NMtDT0=    0
 Symmetry not used in FoFCou.
 Harris En= -797.058353277717    
 Leave Link  401 at Mon Apr 21 21:16:16 2025, MaxMem=   536870912 cpu:               3.1 elap:               0.5
 (Enter /home/szhao/Apps/g16/l502.exe)
 Keep R1 and R2 ints in memory in canonical form, NReq=14118010.
 FoFCou: FMM=F IPFlag=           0 FMFlag=           0 FMFlg1=           0
         NFxFlg=           0 DoJE=F BraDBF=F KetDBF=F FulRan=T
         wScrn=  0.000000 ICntrl=       600 IOpCl=  0 I1Cent=           0 NGrid=           0
         NMat0=    1 NMatS0=   2628 NMatT0=    0 NMatD0=    1 NMtDS0=    0 NMtDT0=    0
 Symmetry not used in FoFCou.
 Two-electron integral symmetry not used.
 UHF open shell SCF:
 Using DIIS extrapolation, IDIIS=  1040.
 NGot=   536870912 LenX=   529949706 LenY=   529943789
 Requested convergence on RMS density matrix=1.00D-08 within 128 cycles.
 Requested convergence on MAX density matrix=1.00D-06.
 Requested convergence on             energy=1.00D-06.
 No special actions if energy rises.

 Cycle   1  Pass 1  IDiag  1:
 E= -797.393001500035    
 DIIS: error= 7.81D-03 at cycle   1 NSaved=   1.
 NSaved= 1 IEnMin= 1 EnMin= -797.393001500035     IErMin= 1 ErrMin= 7.81D-03
 ErrMax= 7.81D-03  0.00D+00 EMaxC= 1.00D-01 BMatC= 1.46D-02 BMatP= 1.46D-02
 IDIUse=3 WtCom= 9.22D-01 WtEn= 7.81D-02
 Coeff-Com:  0.100D+01
 Coeff-En:   0.100D+01
 Coeff:      0.100D+01
 Gap=     0.458 Goal=   None    Shift=    0.000
 Gap=     0.458 Goal=   None    Shift=    0.000
 GapD=    0.458 DampG=2.000 DampE=1.000 DampFc=2.0000 IDamp=-1.
 RMSDP=1.38D-03 MaxDP=1.82D-02              OVMax= 3.60D-02

 Cycle   2  Pass 1  IDiag  1:
 E= -797.400784714260     Delta-E=       -0.007783214226 Rises=F Damp=F
 DIIS: error= 1.45D-03 at cycle   2 NSaved=   2.
 NSaved= 2 IEnMin= 2 EnMin= -797.400784714260     IErMin= 2 ErrMin= 1.45D-03
 ErrMax= 1.45D-03  0.00D+00 EMaxC= 1.00D-01 BMatC= 6.92D-04 BMatP= 1.46D-02
 IDIUse=3 WtCom= 9.86D-01 WtEn= 1.45D-02
 Coeff-Com: -0.132D+00 0.113D+01
 Coeff-En:   0.000D+00 0.100D+01
 Coeff:     -0.130D+00 0.113D+01
 Gap=     0.099 Goal=   None    Shift=    0.000
 Gap=     0.099 Goal=   None    Shift=    0.000
 RMSDP=4.74D-04 MaxDP=5.81D-03 DE=-7.78D-03 OVMax= 1.44D-02

 Cycle   3  Pass 1  IDiag  1:
 E= -797.401407630583     Delta-E=       -0.000622916322 Rises=F Damp=F
 DIIS: error= 4.09D-04 at cycle   3 NSaved=   3.
 NSaved= 3 IEnMin= 3 EnMin= -797.401407630583     IErMin= 3 ErrMin= 4.09D-04
 ErrMax= 4.09D-04  0.00D+00 EMaxC= 1.00D-01 BMatC= 3.93D-05 BMatP= 6.92D-04
 IDIUse=3 WtCom= 9.96D-01 WtEn= 4.09D-03
 Coeff-Com: -0.235D-01 0.243D-01 0.999D+00
 Coeff-En:   0.000D+00 0.000D+00 0.100D+01
 Coeff:     -0.234D-01 0.242D-01 0.999D+00
 Gap=     0.099 Goal=   None    Shift=    0.000
 Gap=     0.099 Goal=   None    Shift=    0.000
 RMSDP=1.71D-04 MaxDP=2.30D-03 DE=-6.23D-04 OVMax= 5.44D-03

 Cycle   4  Pass 1  IDiag  1:
 E= -797.401457390727     Delta-E=       -0.000049760145 Rises=F Damp=F
 DIIS: error= 1.70D-04 at cycle   4 NSaved=   4.
 NSaved= 4 IEnMin= 4 EnMin= -797.401457390727     IErMin= 4 ErrMin= 1.70D-04
 ErrMax= 1.70D-04  0.00D+00 EMaxC= 1.00D-01 BMatC= 1.06D-05 BMatP= 3.93D-05
 IDIUse=3 WtCom= 9.98D-01 WtEn= 1.70D-03
 Coeff-Com:  0.102D-01-0.130D+00 0.200D+00 0.920D+00
 Coeff-En:   0.000D+00 0.000D+00 0.000D+00 0.100D+01
 Coeff:      0.102D-01-0.130D+00 0.199D+00 0.920D+00
 Gap=     0.100 Goal=   None    Shift=    0.000
 Gap=     0.100 Goal=   None    Shift=    0.000
 RMSDP=6.19D-05 MaxDP=7.95D-04 DE=-4.98D-05 OVMax= 2.35D-03

 Cycle   5  Pass 1  IDiag  1:
 E= -797.401464907595     Delta-E=       -0.000007516868 Rises=F Damp=F
 DIIS: error= 8.37D-05 at cycle   5 NSaved=   5.
 NSaved= 5 IEnMin= 5 EnMin= -797.401464907595     IErMin= 5 ErrMin= 8.37D-05
 ErrMax= 8.37D-05  0.00D+00 EMaxC= 1.00D-01 BMatC= 2.10D-06 BMatP= 1.06D-05
 IDIUse=1 WtCom= 1.00D+00 WtEn= 0.00D+00
 Coeff-Com:  0.614D-02-0.682D-01 0.698D-01 0.439D+00 0.553D+00
 Coeff:      0.614D-02-0.682D-01 0.698D-01 0.439D+00 0.553D+00
 Gap=     0.100 Goal=   None    Shift=    0.000
 Gap=     0.100 Goal=   None    Shift=    0.000
 RMSDP=3.11D-05 MaxDP=8.08D-04 DE=-7.52D-06 OVMax= 2.20D-03

 Cycle   6  Pass 1  IDiag  1:
 E= -797.401464161796     Delta-E=        0.000000745799 Rises=F Damp=F
 DIIS: error= 1.59D-04 at cycle   6 NSaved=   6.
 NSaved= 6 IEnMin= 5 EnMin= -797.401464907595     IErMin= 5 ErrMin= 8.37D-05
 ErrMax= 1.59D-04  0.00D+00 EMaxC= 1.00D-01 BMatC= 5.85D-06 BMatP= 2.10D-06
 IDIUse=1 WtCom= 1.00D+00 WtEn= 0.00D+00
 Coeff-Com:  0.167D-02-0.982D-02-0.225D-01 0.680D-02 0.663D+00 0.361D+00
 Coeff:      0.167D-02-0.982D-02-0.225D-01 0.680D-02 0.663D+00 0.361D+00
 Gap=     0.100 Goal=   None    Shift=    0.000
 Gap=     0.100 Goal=   None    Shift=    0.000
 RMSDP=2.45D-05 MaxDP=5.62D-04 DE= 7.46D-07 OVMax= 1.53D-03

 Cycle   7  Pass 1  IDiag  1:
 E= -797.401467632648     Delta-E=       -0.000003470852 Rises=F Damp=F
 DIIS: error= 4.61D-05 at cycle   7 NSaved=   7.
 NSaved= 7 IEnMin= 7 EnMin= -797.401467632648     IErMin= 7 ErrMin= 4.61D-05
 ErrMax= 4.61D-05  0.00D+00 EMaxC= 1.00D-01 BMatC= 2.39D-07 BMatP= 2.10D-06
 IDIUse=1 WtCom= 1.00D+00 WtEn= 0.00D+00
 Coeff-Com: -0.135D-02 0.164D-01-0.162D-01-0.126D+00-0.309D-01 0.643D-01
 Coeff-Com:  0.109D+01
 Coeff:     -0.135D-02 0.164D-01-0.162D-01-0.126D+00-0.309D-01 0.643D-01
 Coeff:      0.109D+01
 Gap=     0.100 Goal=   None    Shift=    0.000
 Gap=     0.100 Goal=   None    Shift=    0.000
 RMSDP=2.45D-05 MaxDP=3.50D-04 DE=-3.47D-06 OVMax= 1.92D-03

 Cycle   8  Pass 1  IDiag  1:
 E= -797.401468969488     Delta-E=       -0.000001336840 Rises=F Damp=F
 DIIS: error= 3.75D-05 at cycle   8 NSaved=   8.
 NSaved= 8 IEnMin= 8 EnMin= -797.401468969488     IErMin= 8 ErrMin= 3.75D-05
 ErrMax= 3.75D-05  0.00D+00 EMaxC= 1.00D-01 BMatC= 1.43D-07 BMatP= 2.39D-07
 IDIUse=1 WtCom= 1.00D+00 WtEn= 0.00D+00
 Coeff-Com:  0.143D-02-0.242D-01 0.482D-01 0.206D+00-0.369D+00-0.334D+00
 Coeff-Com: -0.181D+01 0.329D+01
 Coeff:      0.143D-02-0.242D-01 0.482D-01 0.206D+00-0.369D+00-0.334D+00
 Coeff:     -0.181D+01 0.329D+01
 Gap=     0.100 Goal=   None    Shift=    0.000
 Gap=     0.100 Goal=   None    Shift=    0.000
 RMSDP=6.78D-05 MaxDP=9.85D-04 DE=-1.34D-06 OVMax= 5.34D-03

 Cycle   9  Pass 1  IDiag  1:
 E= -797.401471530267     Delta-E=       -0.000002560779 Rises=F Damp=F
 DIIS: error= 1.89D-05 at cycle   9 NSaved=   9.
 NSaved= 9 IEnMin= 9 EnMin= -797.401471530267     IErMin= 9 ErrMin= 1.89D-05
 ErrMax= 1.89D-05  0.00D+00 EMaxC= 1.00D-01 BMatC= 4.71D-08 BMatP= 1.43D-07
 IDIUse=1 WtCom= 1.00D+00 WtEn= 0.00D+00
 Coeff-Com:  0.106D-02-0.134D-01 0.186D-01 0.968D-01-0.483D-01-0.686D-01
 Coeff-Com: -0.515D+00-0.488D-01 0.158D+01
 Coeff:      0.106D-02-0.134D-01 0.186D-01 0.968D-01-0.483D-01-0.686D-01
 Coeff:     -0.515D+00-0.488D-01 0.158D+01
 Gap=     0.100 Goal=   None    Shift=    0.000
 Gap=     0.100 Goal=   None    Shift=    0.000
 RMSDP=5.19D-05 MaxDP=7.58D-04 DE=-2.56D-06 OVMax= 4.10D-03

 Cycle  10  Pass 1  IDiag  1:
 E= -797.401472422954     Delta-E=       -0.000000892687 Rises=F Damp=F
 DIIS: error= 5.74D-06 at cycle  10 NSaved=  10.
 NSaved=10 IEnMin=10 EnMin= -797.401472422954     IErMin=10 ErrMin= 5.74D-06
 ErrMax= 5.74D-06  0.00D+00 EMaxC= 1.00D-01 BMatC= 6.40D-09 BMatP= 4.71D-08
 IDIUse=1 WtCom= 1.00D+00 WtEn= 0.00D+00
 Coeff-Com: -0.155D-03 0.380D-02-0.885D-02-0.388D-01 0.646D-01 0.679D-01
 Coeff-Com:  0.460D+00-0.899D+00 0.131D+00 0.122D+01
 Coeff:     -0.155D-03 0.380D-02-0.885D-02-0.388D-01 0.646D-01 0.679D-01
 Coeff:      0.460D+00-0.899D+00 0.131D+00 0.122D+01
 Gap=     0.100 Goal=   None    Shift=    0.000
 Gap=     0.100 Goal=   None    Shift=    0.000
 RMSDP=2.16D-05 MaxDP=3.16D-04 DE=-8.93D-07 OVMax= 1.71D-03

 Cycle  11  Pass 1  IDiag  1:
 E= -797.401472519677     Delta-E=       -0.000000096724 Rises=F Damp=F
 DIIS: error= 7.68D-07 at cycle  11 NSaved=  11.
 NSaved=11 IEnMin=11 EnMin= -797.401472519677     IErMin=11 ErrMin= 7.68D-07
 ErrMax= 7.68D-07  0.00D+00 EMaxC= 1.00D-01 BMatC= 2.09D-10 BMatP= 6.40D-09
 IDIUse=1 WtCom= 1.00D+00 WtEn= 0.00D+00
 Coeff-Com: -0.156D-04 0.132D-03 0.448D-05 0.864D-03-0.662D-02-0.462D-02
 Coeff-Com: -0.162D-01 0.101D+00-0.137D+00-0.562D-01 0.112D+01
 Coeff:     -0.156D-04 0.132D-03 0.448D-05 0.864D-03-0.662D-02-0.462D-02
 Coeff:     -0.162D-01 0.101D+00-0.137D+00-0.562D-01 0.112D+01
 Gap=     0.100 Goal=   None    Shift=    0.000
 Gap=     0.100 Goal=   None    Shift=    0.000
 RMSDP=1.65D-06 MaxDP=2.39D-05 DE=-9.67D-08 OVMax= 1.29D-04

 Cycle  12  Pass 1  IDiag  1:
 E= -797.401472520358     Delta-E=       -0.000000000681 Rises=F Damp=F
 DIIS: error= 2.25D-07 at cycle  12 NSaved=  12.
 NSaved=12 IEnMin=12 EnMin= -797.401472520358     IErMin=12 ErrMin= 2.25D-07
 ErrMax= 2.25D-07  0.00D+00 EMaxC= 1.00D-01 BMatC= 1.32D-11 BMatP= 2.09D-10
 IDIUse=1 WtCom= 1.00D+00 WtEn= 0.00D+00
 Coeff-Com:  0.646D-06-0.954D-04 0.264D-03 0.159D-02-0.507D-02-0.396D-02
 Coeff-Com: -0.174D-01 0.539D-01-0.357D-01-0.568D-01 0.259D+00 0.805D+00
 Coeff:      0.646D-06-0.954D-04 0.264D-03 0.159D-02-0.507D-02-0.396D-02
 Coeff:     -0.174D-01 0.539D-01-0.357D-01-0.568D-01 0.259D+00 0.805D+00
 Gap=     0.100 Goal=   None    Shift=    0.000
 Gap=     0.100 Goal=   None    Shift=    0.000
 RMSDP=1.17D-07 MaxDP=1.59D-06 DE=-6.81D-10 OVMax= 8.53D-06

 Cycle  13  Pass 1  IDiag  1:
 E= -797.401472520366     Delta-E=       -0.000000000008 Rises=F Damp=F
 DIIS: error= 4.03D-08 at cycle  13 NSaved=  13.
 NSaved=13 IEnMin=13 EnMin= -797.401472520366     IErMin=13 ErrMin= 4.03D-08
 ErrMax= 4.03D-08  0.00D+00 EMaxC= 1.00D-01 BMatC= 5.57D-13 BMatP= 1.32D-11
 IDIUse=1 WtCom= 1.00D+00 WtEn= 0.00D+00
 Coeff-Com:  0.106D-05-0.119D-04 0.307D-04 0.137D-05 0.111D-03 0.160D-03
 Coeff-Com:  0.157D-02-0.564D-02 0.640D-02 0.582D-02-0.761D-01-0.128D-01
 Coeff-Com:  0.108D+01
 Coeff:      0.106D-05-0.119D-04 0.307D-04 0.137D-05 0.111D-03 0.160D-03
 Coeff:      0.157D-02-0.564D-02 0.640D-02 0.582D-02-0.761D-01-0.128D-01
 Coeff:      0.108D+01
 Gap=     0.100 Goal=   None    Shift=    0.000
 Gap=     0.100 Goal=   None    Shift=    0.000
 RMSDP=1.70D-08 MaxDP=1.90D-07 DE=-8.19D-12 OVMax= 5.62D-07

 Cycle  14  Pass 1  IDiag  1:
 E= -797.401472520368     Delta-E=       -0.000000000002 Rises=F Damp=F
 DIIS: error= 8.56D-09 at cycle  14 NSaved=  14.
 NSaved=14 IEnMin=14 EnMin= -797.401472520368     IErMin=14 ErrMin= 8.56D-09
 ErrMax= 8.56D-09  0.00D+00 EMaxC= 1.00D-01 BMatC= 1.77D-14 BMatP= 5.57D-13
 IDIUse=1 WtCom= 1.00D+00 WtEn= 0.00D+00
 Coeff-Com:  0.605D-08 0.244D-05-0.546D-05-0.547D-04 0.141D-03 0.118D-03
 Coeff-Com:  0.566D-03-0.153D-02 0.773D-03 0.210D-02-0.109D-01-0.185D-01
 Coeff-Com:  0.312D-01 0.996D+00
 Coeff:      0.605D-08 0.244D-05-0.546D-05-0.547D-04 0.141D-03 0.118D-03
 Coeff:      0.566D-03-0.153D-02 0.773D-03 0.210D-02-0.109D-01-0.185D-01
 Coeff:      0.312D-01 0.996D+00
 Gap=     0.100 Goal=   None    Shift=    0.000
 Gap=     0.100 Goal=   None    Shift=    0.000
 RMSDP=4.56D-09 MaxDP=7.25D-08 DE=-1.82D-12 OVMax= 3.23D-07

 SCF Done:  E(UM062X) =  -797.401472520     A.U. after   14 cycles
            NFock= 14  Conv=0.46D-08     -V/T= 2.0013
 <Sx>= 0.0000 <Sy>= 0.0000 <Sz>= 0.0000 <S**2>=-0.0000 S=-0.0000
 <L.S>=  0.00000000000    
 KE= 7.963416525059D+02 PE=-1.996887776486D+03 EE= 3.529254660515D+02
 Annihilation of the first spin contaminant:
 S**2 before annihilation    -0.0000,   after     0.0000
 Leave Link  502 at Mon Apr 21 21:16:24 2025, MaxMem=   536870912 cpu:              61.3 elap:               8.1
 (Enter /home/szhao/Apps/g16/l701.exe)
 ... and contract with generalized density number  0.
 Compute integral first derivatives.
 Leave Link  701 at Mon Apr 21 21:16:25 2025, MaxMem=   536870912 cpu:               1.0 elap:               0.2
 (Enter /home/szhao/Apps/g16/l702.exe)
 L702 exits ... SP integral derivatives will be done elsewhere.
 Leave Link  702 at Mon Apr 21 21:16:25 2025, MaxMem=   536870912 cpu:               0.8 elap:               0.1
 (Enter /home/szhao/Apps/g16/l703.exe)
 Integral derivatives from FoFJK, PRISM(SPDF).
 Compute integral first derivatives, UseDBF=F ICtDFT=           0.
 Calling FoFJK, ICntrl=      2127 FMM=F ISym2X=0 I1Cent= 0 IOpClX= 1 NMat=1 NMatS=1 NMatT=0.
 FoFJK:  IHMeth= 1 ICntrl=    2127 DoSepK=F KAlg= 0 I1Cent=           0 FoldK=F
 IRaf=         0 NMat=       1 IRICut=       1 DoRegI=T DoRafI=F ISym2E= 0 IDoP0=0 IntGTp=1.
 FoFCou: FMM=F IPFlag=           0 FMFlag=      100000 FMFlg1=         800
         NFxFlg=           0 DoJE=F BraDBF=F KetDBF=F FulRan=T
         wScrn=  0.000000 ICntrl=      2127 IOpCl=  1 I1Cent=           0 NGrid=           0
         NMat0=    1 NMatS0=      1 NMatT0=    0 NMatD0=    1 NMtDS0=    0 NMtDT0=    0
 Symmetry not used in FoFCou.
 Leave Link  703 at Mon Apr 21 21:16:26 2025, MaxMem=   536870912 cpu:               5.9 elap:               0.8
 (Enter /home/szhao/Apps/g16/l716.exe)
 Dipole        =-1.80275968D-04-3.56526560D-01 3.64104261D-01
 -------------------------------------------------------------------
 Center     Atomic                   Forces (Hartrees/Bohr)
 Number     Number              X              Y              Z
 -------------------------------------------------------------------
      1       16          -0.000000000   -0.000000000   -0.000000000
      2       16          -0.000000000   -0.000000000   -0.000000000
      3        1           0.001012914    0.000420112    0.000002830
      4        1          -0.001004355   -0.000115854   -0.000487034
 -------------------------------------------------------------------
 Cartesian Forces:  Max     0.001012914 RMS     0.000452939
 Leave Link  716 at Mon Apr 21 21:16:27 2025, MaxMem=   536870912 cpu:               1.6 elap:               0.8
 (Enter /home/szhao/Apps/g16/l103.exe)

 GradGradGradGradGradGradGradGradGradGradGradGradGradGradGradGradGradGrad
 Berny optimization.
 Using GEDIIS/GDIIS optimizer.
 FormGI is forming the generalized inverse of G from B-inverse, IUseBI=4.
 Internal  Forces:  Max     0.002574011 RMS     0.001199610
 Search for a local minimum.
 Step number   3 out of a maximum of   21
 All quantities printed in internal units (Hartrees-Bohrs-Radians)
 RMS Force = .16475D-02 SwitMx=.10000D-02 MixMth= 1
 Mixed Optimization -- RFO/linear search
 Update second derivatives using D2CorX and points    1    2    3
 DE= -7.50D-04 DEPred=-7.17D-04 R= 1.05D+00
 TightC=F SS=  1.41D+00  RLast= 3.16D-01 DXNew= 5.0454D-01 9.4845D-01
 Trust test= 1.05D+00 RLast= 3.16D-01 DXMaxT set to 5.05D-01
 The second derivative matrix:
                          X1        Y1        Z1        X2        Y2
           X1           0.50172
           Y1          -0.00319   0.51177
           Z1          -0.00068   0.00117   0.50027
           X2          -0.00176   0.00325   0.00070   0.50179
           Y2           0.00076  -0.00143  -0.00030  -0.00078   0.50034
           Z2           0.00340  -0.01222  -0.00125  -0.00346   0.00152
           R1           0.00421  -0.02100  -0.00146  -0.00427   0.00190
           R2           0.00447  -0.02173  -0.00155  -0.00453   0.00202
           A1          -0.00465   0.00960   0.00183   0.00475  -0.00207
           A2          -0.00478   0.00991   0.00188   0.00487  -0.00212
           D1           0.00064  -0.00446  -0.00020  -0.00065   0.00029
                          Z2        R1        R2        A1        A2
           Z2           0.51270
           R1           0.02166   0.27719
           R2           0.02243   0.01742   0.27844
           A1          -0.01017  -0.00325  -0.00362   0.09432
           A2          -0.01050  -0.00348  -0.00387  -0.06585   0.09399
           D1           0.00457   0.00257   0.00265  -0.00295  -0.00299
                          D1
           D1           0.00246
 ITU=  1  1  0
 Use linear search instead of GDIIS.
     Eigenvalues ---    0.00177   0.02875   0.16000   0.26039   0.29549
     Eigenvalues --- 1000.000001000.000001000.000001000.000001000.00000
     Eigenvalues --- 1000.00000
 RFO step:  Lambda=-1.35278336D-04 EMin= 1.76940120D-03
 Quartic linear search produced a step of  0.79206.
 Iteration  1 RMS(Cart)=  0.09412281 RMS(Int)=  0.00409694
 Iteration  2 RMS(Cart)=  0.00415537 RMS(Int)=  0.00000112
 Iteration  3 RMS(Cart)=  0.00000278 RMS(Int)=  0.00000000
 Iteration  4 RMS(Cart)=  0.00000000 RMS(Int)=  0.00000000
 ITry= 1 IFail=0 DXMaxC= 2.21D-01 DCOld= 1.00D+10 DXMaxT= 5.05D-01 DXLimC= 3.00D+00 Rises=F
 Variable       Old X    -DE/DX   Delta X   Delta X   Delta X     New X
                                 (Linear)    (Quad)   (Total)
    X1       -3.81383   0.00101   0.00000   0.00000   0.00000  -3.81383
    Y1        0.00000   0.00003   0.00000   0.00000   0.00000   0.00000
    Z1        0.00000  -0.00033   0.00000   0.00000   0.00000   0.00000
    X2        3.81383  -0.00100   0.00000   0.00000   0.00000   3.81383
    Y2        0.00000   0.00032   0.00000   0.00000   0.00000   0.00000
    Z2        0.00000  -0.00012   0.00000   0.00000   0.00000   0.00000
    R1        2.54612  -0.00042   0.00108  -0.00432  -0.00324   2.54288
    R2        2.54634  -0.00050   0.00117  -0.00496  -0.00379   2.54256
    A1        1.57547  -0.00257  -0.07888  -0.00795  -0.08682   1.48865
    A2        1.57468  -0.00255  -0.07932  -0.00755  -0.08688   1.48781
    D1       -1.87062  -0.00002  -0.22403   0.20711  -0.01693  -1.88754
         Item               Value     Threshold  Converged?
 Maximum Force            0.002574     0.000450     NO 
 RMS     Force            0.001648     0.000300     NO 
 Maximum Displacement     0.220659     0.001800     NO 
 RMS     Displacement     0.094657     0.001200     NO 
 Predicted change in Energy=-2.441575D-04
 Lowest energy point so far.  Saving SCF results.
 GradGradGradGradGradGradGradGradGradGradGradGradGradGradGradGradGradGrad

 Leave Link  103 at Mon Apr 21 21:16:28 2025, MaxMem=   536870912 cpu:               1.0 elap:               0.2
 (Enter /home/szhao/Apps/g16/l202.exe)
                          Input orientation:                          
[...]
 Coeff-Com: -0.129D-01 0.696D-01-0.532D-01-0.631D-01 0.223D+00 0.848D+00
 Coeff:      0.739D-06-0.942D-04 0.316D-03 0.154D-02 0.416D-03-0.141D-01
 Coeff:     -0.129D-01 0.696D-01-0.532D-01-0.631D-01 0.223D+00 0.848D+00
 Gap=     0.100 Goal=   None    Shift=    0.000
 Gap=     0.100 Goal=   None    Shift=    0.000
 RMSDP=1.87D-09 MaxDP=2.56D-08 DE=-4.55D-13 OVMax= 1.31D-07

 SCF Done:  E(UM062X) =  -797.401756480     A.U. after   12 cycles
            NFock= 12  Conv=0.19D-08     -V/T= 2.0013
 <Sx>= 0.0000 <Sy>= 0.0000 <Sz>= 0.0000 <S**2>=-0.0000 S=-0.0000
 <L.S>=  0.00000000000    
 KE= 7.963438487536D+02 PE=-1.997180838841D+03 EE= 3.530612541748D+02
 Annihilation of the first spin contaminant:
 S**2 before annihilation    -0.0000,   after    -0.0000
 Leave Link  502 at Mon Apr 21 21:17:30 2025, MaxMem=   536870912 cpu:              55.2 elap:               7.2
 (Enter /home/szhao/Apps/g16/l701.exe)
 ... and contract with generalized density number  0.
 Compute integral first derivatives.
 Leave Link  701 at Mon Apr 21 21:17:31 2025, MaxMem=   536870912 cpu:               1.6 elap:               0.2
 (Enter /home/szhao/Apps/g16/l702.exe)
 L702 exits ... SP integral derivatives will be done elsewhere.
 Leave Link  702 at Mon Apr 21 21:17:32 2025, MaxMem=   536870912 cpu:               0.5 elap:               0.3
 (Enter /home/szhao/Apps/g16/l703.exe)
 Integral derivatives from FoFJK, PRISM(SPDF).
 Compute integral first derivatives, UseDBF=F ICtDFT=           0.
 Calling FoFJK, ICntrl=      2127 FMM=F ISym2X=0 I1Cent= 0 IOpClX= 1 NMat=1 NMatS=1 NMatT=0.
 FoFJK:  IHMeth= 1 ICntrl=    2127 DoSepK=F KAlg= 0 I1Cent=           0 FoldK=F
 IRaf=         0 NMat=       1 IRICut=       1 DoRegI=T DoRafI=F ISym2E= 0 IDoP0=0 IntGTp=1.
 FoFCou: FMM=F IPFlag=           0 FMFlag=      100000 FMFlg1=         800
         NFxFlg=           0 DoJE=F BraDBF=F KetDBF=F FulRan=T
         wScrn=  0.000000 ICntrl=      2127 IOpCl=  1 I1Cent=           0 NGrid=           0
         NMat0=    1 NMatS0=      1 NMatT0=    0 NMatD0=    1 NMtDS0=    0 NMtDT0=    0
 Symmetry not used in FoFCou.
 Leave Link  703 at Mon Apr 21 21:17:33 2025, MaxMem=   536870912 cpu:               5.8 elap:               0.7
 (Enter /home/szhao/Apps/g16/l716.exe)
 Dipole        =-1.75807476D-04-3.31745646D-01 3.37508258D-01
 -------------------------------------------------------------------
 Center     Atomic                   Forces (Hartrees/Bohr)
 Number     Number              X              Y              Z
 -------------------------------------------------------------------
      1       16          -0.000000000   -0.000000000   -0.000000000
      2       16          -0.000000000   -0.000000000   -0.000000000
      3        1           0.000002215    0.000005814   -0.000021662
      4        1           0.000001068   -0.000024546    0.000005435
 -------------------------------------------------------------------
 Cartesian Forces:  Max     0.000024546 RMS     0.000009751
 Leave Link  716 at Mon Apr 21 21:17:33 2025, MaxMem=   536870912 cpu:               0.8 elap:               0.4
 (Enter /home/szhao/Apps/g16/l103.exe)

 GradGradGradGradGradGradGradGradGradGradGradGradGradGradGradGradGradGrad
 Berny optimization.
 Using GEDIIS/GDIIS optimizer.
 FormGI is forming the generalized inverse of G from B-inverse, IUseBI=4.
 Internal  Forces:  Max     0.000005956 RMS     0.000002442
 Search for a local minimum.
 Step number   8 out of a maximum of   21
 All quantities printed in internal units (Hartrees-Bohrs-Radians)
 RMS Force = .33458D-05 SwitMx=.10000D-02 MixMth= 2
 Mixed Optimization -- En-DIIS/RFO-DIIS
 Swapping is turned off.
 Update second derivatives using D2CorX and points    1    2    3    4    5
                                                      6    7    8
 DE= -1.82D-07 DEPred=-1.58D-07 R= 1.15D+00
 Trust test= 1.15D+00 RLast= 9.11D-03 DXMaxT set to 2.52D-01
 The second derivative matrix:
                          X1        Y1        Z1        X2        Y2
           X1           0.50327
           Y1          -0.00806   0.55226
           Z1          -0.00148   0.00734   0.50158
           X2          -0.00301   0.00636   0.00141   0.50287
           Y2           0.00193  -0.00888  -0.00188  -0.00183   0.50226
           Z2           0.00898  -0.05320  -0.00808  -0.00742   0.00978
           R1           0.01030  -0.07622  -0.01295  -0.00851   0.01500
           R2           0.01081  -0.08151  -0.01302  -0.00903   0.01575
           A1          -0.00671   0.00796   0.00199   0.00641  -0.00290
           A2          -0.00602   0.00343   0.00180   0.00608  -0.00241
           D1           0.00127  -0.00522   0.00048  -0.00064  -0.00042
                          Z2        R1        R2        A1        A2
           Z2           0.55494
           R1           0.07794   0.25361
           R2           0.08568  -0.00019   0.26697
           A1          -0.01053  -0.00582  -0.00658   0.09585
           A2          -0.00557  -0.00337  -0.00410  -0.06463   0.09550
           D1           0.00422   0.00130   0.00219  -0.00201  -0.00078
                          D1
           D1           0.00404
 ITU=  0  1 -1  1  1  1  1  0
     Eigenvalues ---    0.00388   0.03074   0.16025   0.25384   0.26726
     Eigenvalues --- 1000.000001000.000001000.000001000.000001000.00000
     Eigenvalues --- 1000.00000
 En-DIIS/RFO-DIIS/Sim-DIIS IScMMF=       -3 using points:     8    7    6    5    4
 RFO step:  Lambda=-4.87796229D-10.
 NNeg= 0 NGDIIS= 5 SimSw=  2.50D-03 Rises=F DC= -1.82D-07 SmlDif=  1.00D-05
 NRisDI= 0 DoIntr=F SqrtH=F CThrHd= 10.0 CDAdj=  3.0
 RMS Error=  0.2565004140D-03 NUsed= 5 OKEnD=F EnDIS=F
 InvSVX:  RCond= 2.98D-10 Info=           0 Equed=N FErr=  3.22D-11 BErr=  1.07D-16
 DIIS inversion failure, remove point   5.
 InvSVX:  RCond= 1.16D-08 Info=           0 Equed=N FErr=  1.09D-12 BErr=  9.94D-17
 DIIS inversion failure, remove point   4.
 InvSVX:  RCond= 4.16D-08 Info=           0 Equed=N FErr=  6.91D-14 BErr=  9.38D-17
 DIIS inversion failure, remove point   3.
 InvSVX:  RCond= 9.33D-05 Info=           0 Equed=N FErr=  9.85D-16 BErr=  9.67D-17
 RFO-DIIS uses    2 points instead of    5
 DidBck=F Rises=F RFO-DIIS coefs:    0.90905    0.09095    0.00000    0.00000    0.00000
 Iteration  1 RMS(Cart)=  0.00045953 RMS(Int)=  0.00000010
 Iteration  2 RMS(Cart)=  0.00000010 RMS(Int)=  0.00000000
 ITry= 1 IFail=0 DXMaxC= 1.09D-03 DCOld= 1.00D+10 DXMaxT= 2.52D-01 DXLimC= 3.00D+00 Rises=F
 Variable       Old X    -DE/DX   Delta X   Delta X   Delta X     New X
                                 (Linear)    (Quad)   (Total)
    X1       -3.81383   0.00000   0.00000   0.00000   0.00000  -3.81383
    Y1        0.00000   0.00000   0.00000   0.00000   0.00000   0.00000
    Z1        0.00000   0.00000   0.00000   0.00000   0.00000   0.00000
    X2        3.81383   0.00000   0.00000   0.00000   0.00000   3.81383
    Y2        0.00000  -0.00000   0.00000   0.00000   0.00000   0.00000
    Z2        0.00000   0.00000   0.00000   0.00000   0.00000   0.00000
    R1        2.54412  -0.00000   0.00003  -0.00003  -0.00001   2.54411
    R2        2.54415  -0.00000   0.00002  -0.00003  -0.00001   2.54414
    A1        1.46495  -0.00001   0.00011  -0.00015  -0.00004   1.46491
    A2        1.46390   0.00000   0.00011  -0.00011   0.00001   1.46391
    D1       -1.99517   0.00000   0.00081   0.00004   0.00085  -1.99432
         Item               Value     Threshold  Converged?
 Maximum Force            0.000006     0.000450     YES
 RMS     Force            0.000003     0.000300     YES
 Maximum Displacement     0.001086     0.001800     YES
 RMS     Displacement     0.000460     0.001200     YES
 Predicted change in Energy=-1.615862D-09
 Optimization completed.
    -- Stationary point found.
                           ----------------------------
                           !   Optimized Parameters   !
                           ! (Angstroms and Degrees)  !
 --------------------------                            --------------------------
 ! Name  Definition              Value          Derivative Info.                !
 --------------------------------------------------------------------------------
 ! X1    R(1,-1)                -2.0182         -DE/DX =    0.0                 !
 ! Y1    R(1,-2)                 0.0            -DE/DX =    0.0                 !
 ! Z1    R(1,-3)                 0.0            -DE/DX =    0.0                 !
 ! X2    R(2,-1)                 2.0182         -DE/DX =    0.0                 !
 ! Y2    R(2,-2)                 0.0            -DE/DX =    0.0                 !
 ! Z2    R(2,-3)                 0.0            -DE/DX =    0.0                 !
 ! R1    R(1,3)                  1.3463         -DE/DX =    0.0                 !
 ! R2    R(2,4)                  1.3463         -DE/DX =    0.0                 !
 ! A1    A(2,1,3)               83.9355         -DE/DX =    0.0                 !
 ! A2    A(1,2,4)               83.8753         -DE/DX =    0.0                 !
 ! D1    D(3,1,2,4)           -114.3148         -DE/DX =    0.0                 !
 --------------------------------------------------------------------------------
 Lowest energy point so far.  Saving SCF results.
 Largest change from initial coordinates is atom    3       0.422 Angstoms.
 GradGradGradGradGradGradGradGradGradGradGradGradGradGradGradGradGradGrad

 Leave Link  103 at Mon Apr 21 21:17:35 2025, MaxMem=   536870912 cpu:               1.2 elap:               0.6
 (Enter /home/szhao/Apps/g16/l202.exe)
                          Input orientation:                          
 ---------------------------------------------------------------------
 Center     Atomic      Atomic             Coordinates (Angstroms)
 Number     Number       Type             X           Y           Z
 ---------------------------------------------------------------------
      1         16           0       -2.018191    0.000000    0.000000
      2         16           0        2.018191    0.000000    0.000000
      3          1           0       -1.875958   -1.311095   -0.270739
      4          1           0        1.874551    0.293089    1.306140
 ---------------------------------------------------------------------
                    Distance matrix (angstroms):
                    1          2          3          4
     1  S    0.000000
     2  S    4.036383   0.000000
     3  H    1.346291   4.117848   0.000000
     4  H    4.116472   1.346304   4.373359   0.000000
 Symmetry turned off by external request.
 Stoichiometry    H2S2
 Framework group  C1[X(H2S2)]
 Deg. of freedom     6
 Full point group                 C1      NOp   1
 Rotational constants (GHZ):         143.9185140           1.8812711           1.8711600
 Leave Link  202 at Mon Apr 21 21:17:36 2025, MaxMem=   536870912 cpu:               1.1 elap:               0.6
 (Enter /home/szhao/Apps/g16/l601.exe)
 Copying SCF densities to generalized density rwf, IOpCl= 1 IROHF=0.

 **********************************************************************

            Population analysis using the SCF density.

 **********************************************************************

 Alpha  occ. eigenvalues --  -89.94579 -89.94578  -8.30804  -8.30803  -6.22953
 Alpha  occ. eigenvalues --   -6.22952  -6.22698  -6.22697  -6.22131  -6.22131
 Alpha  occ. eigenvalues --   -0.81556  -0.81101  -0.47404  -0.47346  -0.33496
 Alpha  occ. eigenvalues --   -0.33306  -0.31305
 Alpha virt. eigenvalues --   -0.21335   0.01903   0.03075   0.04441   0.04883
 Alpha virt. eigenvalues --    0.06576   0.06876   0.07294   0.07430   0.09447
 Alpha virt. eigenvalues --    0.12996   0.30794   0.30928   0.32468   0.35581
 Alpha virt. eigenvalues --    0.35835   0.36660   0.41557   0.41997   0.58579
 Alpha virt. eigenvalues --    0.63848   0.72337   0.72354   0.73905   0.73906
 Alpha virt. eigenvalues --    0.80981   0.81296   0.81336   0.82230   0.99279
 Alpha virt. eigenvalues --    0.99743   1.46553   1.47528   1.47772   1.48079
 Alpha virt. eigenvalues --    1.65407   1.66631   1.68115   1.68429   1.69106
 Alpha virt. eigenvalues --    1.71005   2.10193   2.11042   2.54007   2.56257
 Alpha virt. eigenvalues --    7.83005   7.86415  17.43466  17.44107  17.44419
 Alpha virt. eigenvalues --   17.45551  17.48284  17.48873 189.08921 189.12886
  Beta  occ. eigenvalues --  -89.94579 -89.94578  -8.30804  -8.30803  -6.22953
  Beta  occ. eigenvalues --   -6.22952  -6.22698  -6.22697  -6.22131  -6.22131
  Beta  occ. eigenvalues --   -0.81556  -0.81101  -0.47404  -0.47346  -0.33496
  Beta  occ. eigenvalues --   -0.33306  -0.31305
  Beta virt. eigenvalues --   -0.21335   0.01903   0.03075   0.04441   0.04883
  Beta virt. eigenvalues --    0.06576   0.06876   0.07294   0.07430   0.09447
  Beta virt. eigenvalues --    0.12996   0.30794   0.30928   0.32468   0.35581
  Beta virt. eigenvalues --    0.35835   0.36660   0.41557   0.41997   0.58579
  Beta virt. eigenvalues --    0.63848   0.72337   0.72354   0.73905   0.73906
  Beta virt. eigenvalues --    0.80981   0.81296   0.81336   0.82230   0.99279
  Beta virt. eigenvalues --    0.99743   1.46553   1.47528   1.47772   1.48079
  Beta virt. eigenvalues --    1.65407   1.66631   1.68115   1.68429   1.69106
  Beta virt. eigenvalues --    1.71005   2.10193   2.11042   2.54007   2.56257
  Beta virt. eigenvalues --    7.83005   7.86415  17.43466  17.44107  17.44419
  Beta virt. eigenvalues --   17.45551  17.48284  17.48873 189.08921 189.12886
          Condensed to atoms (all electrons):
               1          2          3          4
     1  S   15.744613   0.084115   0.254644   0.000169
     2  S    0.084115  15.744501   0.000170   0.254652
     3  H    0.254644   0.000170   0.661683   0.000020
     4  H    0.000169   0.254652   0.000020   0.661664
          Atomic-Atomic Spin Densities.
               1          2          3          4
     1  S    0.000000   0.000000   0.000000   0.000000
     2  S    0.000000   0.000000   0.000000   0.000000
     3  H    0.000000   0.000000   0.000000   0.000000
     4  H    0.000000   0.000000   0.000000   0.000000
 Mulliken charges and spin densities:
               1          2
     1  S   -0.083541   0.000000
     2  S   -0.083438   0.000000
     3  H    0.083483   0.000000
     4  H    0.083496   0.000000
 Sum of Mulliken charges =  -0.00000   0.00000
 Mulliken charges and spin densities with hydrogens summed into heavy atoms:
               1          2
     1  S   -0.000059   0.000000
     2  S    0.000059   0.000000
 Electronic spatial extent (au):  <R**2>=            564.0416
 Charge=             -0.0000 electrons
 Dipole moment (field-independent basis, Debye):
    X=             -0.0004    Y=             -0.8432    Z=              0.8579  Tot=              1.2029
 Quadrupole moment (field-independent basis, Debye-Ang):
   XX=            -25.4134   YY=            -28.0712   ZZ=            -28.1282
   XY=              2.6204   XZ=              2.5739   YZ=              1.6614
 Traceless Quadrupole moment (field-independent basis, Debye-Ang):
   XX=              1.7909   YY=             -0.8669   ZZ=             -0.9239
   XY=              2.6204   XZ=              2.5739   YZ=              1.6614
 Octapole moment (field-independent basis, Debye-Ang**2):
  XXX=             -0.0044  YYY=              0.2768  ZZZ=             -0.3202  XYY=             -7.3200
  XXY=             -2.9494  XXZ=              2.9957  XZZ=              7.3207  YZZ=              0.8697
  YYZ=             -0.8453  XYZ=              0.1249
 Hexadecapole moment (field-independent basis, Debye-Ang**3):
 XXXX=           -668.5340 YYYY=            -46.2343 ZZZZ=            -46.2854 XXXY=              4.6305
 XXXZ=              4.5299 YYYX=             -2.1689 YYYZ=              0.7237 ZZZX=             -2.1224
 ZZZY=              0.7659 XXYY=           -126.6102 XXZZ=           -126.8364 YYZZ=            -16.2487
 XXYZ=              6.4382 YYXZ=             -0.9345 ZZXY=             -0.9406
 N-N= 5.037397943275D+01 E-N=-1.997180838405D+03  KE= 7.963438487536D+02
                          Isotropic Fermi Contact Couplings
        Atom                 a.u.       MegaHertz       Gauss      10(-4) cm-1
     1  S(33)              0.00000       0.00000       0.00000       0.00000
     2  S(33)              0.00000       0.00000       0.00000       0.00000
     3  H(1)               0.00000       0.00000       0.00000       0.00000
     4  H(1)               0.00000       0.00000       0.00000       0.00000
 --------------------------------------------------------
       Center         ----  Spin Dipole Couplings  ----
                      3XX-RR        3YY-RR        3ZZ-RR
 --------------------------------------------------------
     1   Atom        0.000000      0.000000      0.000000
     2   Atom        0.000000      0.000000      0.000000
     3   Atom        0.000000      0.000000      0.000000
     4   Atom        0.000000      0.000000      0.000000
 --------------------------------------------------------
                        XY            XZ            YZ
 --------------------------------------------------------
     1   Atom        0.000000      0.000000      0.000000
     2   Atom        0.000000      0.000000      0.000000
     3   Atom        0.000000      0.000000      0.000000
     4   Atom        0.000000      0.000000      0.000000
 --------------------------------------------------------


 ---------------------------------------------------------------------------------
              Anisotropic Spin Dipole Couplings in Principal Axis System
 ---------------------------------------------------------------------------------

       Atom             a.u.   MegaHertz   Gauss  10(-4) cm-1        Axes

              Baa     0.0000     0.000     0.000     0.000  1.0000  0.0000  0.0000
     1 S(33)  Bbb     0.0000     0.000     0.000     0.000 -0.0000  1.0000  0.0000
              Bcc     0.0000     0.000     0.000     0.000  0.0000  0.0000  1.0000
 
              Baa     0.0000     0.000     0.000     0.000  1.0000  0.0000  0.0000
     2 S(33)  Bbb     0.0000     0.000     0.000     0.000 -0.0000  1.0000  0.0000
              Bcc     0.0000     0.000     0.000     0.000  0.0000  0.0000  1.0000
 
              Baa     0.0000     0.000     0.000     0.000  1.0000  0.0000  0.0000
     3 H(1)   Bbb     0.0000     0.000     0.000     0.000 -0.0000  1.0000  0.0000
              Bcc     0.0000     0.000     0.000     0.000  0.0000  0.0000  1.0000
 
              Baa     0.0000     0.000     0.000     0.000  1.0000  0.0000  0.0000
     4 H(1)   Bbb     0.0000     0.000     0.000     0.000 -0.0000  1.0000  0.0000
              Bcc     0.0000     0.000     0.000     0.000  0.0000  0.0000  1.0000
 

 ---------------------------------------------------------------------------------

 No NMR shielding tensors so no spin-rotation constants.
 Leave Link  601 at Mon Apr 21 21:17:36 2025, MaxMem=   536870912 cpu:               2.4 elap:               0.5
 (Enter /home/szhao/Apps/g16/l9999.exe)
 1\1\GINC-NODE06\FOpt\UM062X\6-311+G(d,p)\H2S2\SZHAO\21-Apr-2025\0\\#p 
 opt UM062X/6-311+G** nosymm int=superfine\\Title Card Required\\0,1\S,
 -2.01819129,0.,0.\S,2.01819129,0.,0.\H,-1.8759581124,-1.311094509,-0.2
 707393302\H,1.8745507557,0.2930894212,1.3061395819\\Version=ES64L-G16R
 evA.03\HF=-797.4017565\S2=0.\S2-1=0.\S2A=0.\RMSD=1.868e-09\RMSF=9.751e
 -06\Dipole=-0.0001758,-0.3317456,0.3375083\Quadrupole=1.3314825,-0.644
 5538,-0.6869287,1.9482212,1.9136191,1.2352155\PG=C01 [X(H2S2)]\\@


 ERROR IS THE FORCE THAT WELDS MEN TOGETHER....
 TRUTH IS COMMUNICATED TO MEN ONLY BY DEEDS OF TRUTH.
           TOLSTOI,MY RELIGION
 Job cpu time:       0 days  0 hours 10 minutes 15.7 seconds.
 Elapsed time:       0 days  0 hours  1 minutes 31.1 seconds.
 File lengths (MBytes):  RWF=     22 Int=      0 D2E=      0 Chk=      2 Scr=      2
 Normal termination of Gaussian 16 at Mon Apr 21 21:17:38 2025.
