Title Card Required                                                     
FOpt      UM062X                                                      6-311+G(d,p)        
Number of atoms                            I                4
Info1-9                                    I   N=           9
          13          13           0           0           0         110
           2          18        -502
Full Title                                 C   N=           2
Title Card Required     
Route                                      C   N=           4
#p opt UM062X/6-311+G** nosymm int=superfine    
Charge                                     I                0
Multiplicity                               I                1
Number of electrons                        I               26
Number of alpha electrons                  I               13
Number of beta electrons                   I               13
Number of basis functions                  I               64
Number of independent functions            I               64
Number of point charges in /Mol/           I                0
Number of translation vectors              I                0
Atomic numbers                             I   N=           4
           8          16           1           1
Nuclear charges                            R   N=           4
  8.00000000E+00  1.60000000E+01  1.00000000E+00  1.00000000E+00
Current cartesian coordinates              R   N=          12
 -2.14674022E+00 -2.64561657E-05  9.44863062E-06  2.14674211E+00  2.64561657E-05
 -7.55890450E-06 -2.30587840E+00 -7.76443578E-02  1.82011436E+00  2.06076778E+00
 -2.33003336E+00 -1.00580600E+00
Number of symbols in /Mol/                 I                0
Force Field                                I                0
Atom Types                                 C   N=           4
                                                
Int Atom Types                             I   N=           4
           0           0           0           0
MM charges                                 R   N=           4
  0.00000000E+00  0.00000000E+00  0.00000000E+00  0.00000000E+00
Integer atomic weights                     I   N=           4
          16          32           1           1
Real atomic weights                        R   N=           4
  1.59949146E+01  3.19720718E+01  1.00782504E+00  1.00782504E+00
Atom fragment info                         I   N=           4
           0           0           0           0
Atom residue num                           I   N=           4
           0           0           0           0
Nuclear spins                              I   N=           4
           0           0           1           1
Nuclear ZEff                               R   N=           4
 -5.60000000E+00 -1.36000000E+01 -1.00000000E+00 -1.00000000E+00
Nuclear ZNuc                               R   N=           4
  8.00000000E+00  1.60000000E+01  1.00000000E+00  1.00000000E+00
Nuclear QMom                               R   N=           4
  0.00000000E+00  0.00000000E+00  0.00000000E+00  0.00000000E+00
Nuclear GFac                               R   N=           4
  0.00000000E+00  0.00000000E+00  2.79284600E+00  2.79284600E+00
MicOpt                                     I   N=           4
          -2          -2          -1          -1
Number of residues                         I                0
Number of secondary structures             I                0
Redundant internal dimensions              I   N=           4
          11           8           2           1
Redundant internal coordinate indices      I   N=          44
           1          -1           0           0           1          -2
           0           0           1          -3           0           0
           2          -1           0           0           2          -2
           0           0           2          -3           0           0
           1           3           0           0           2           4
           0           0           2           1           3           0
           1           2           4           0           3           1
           2           4
Redundant internal coordinates             R   N=          11
 -2.14674022E+00 -2.64561657E-05  9.44863062E-06  2.14674211E+00  2.64561657E-05
 -7.55890450E-06  1.82869663E+00  2.53933079E+00  1.65793376E+00  1.53692303E+00
  1.93567868E+00
ZRed-IntVec                                I   N=          11
          -1          -1          -1          -1          -1          -1
           0           0           0           0           0
ZRed-FPVec                                 R   N=          11
  0.00000000E+00  0.00000000E+00  0.00000000E+00  0.00000000E+00  0.00000000E+00
  0.00000000E+00  0.00000000E+00  0.00000000E+00  0.00000000E+00  0.00000000E+00
  0.00000000E+00
ZRed-Constraint1                           R   N=          11
 -2.14674022E+00 -2.64561657E-05  9.44863062E-06  2.14674211E+00  2.64561657E-05
 -7.55890450E-06  1.83205284E+00  2.53702903E+00  1.65214971E+00  1.54652811E+00
  1.76291659E+00
ZRed-Constraint2                           R   N=          11
 -2.14674022E+00 -2.64561657E-05  9.44863062E-06  2.14674211E+00  2.64561657E-05
 -7.55890450E-06  0.00000000E+00  0.00000000E+00  0.00000000E+00  0.00000000E+00
  0.00000000E+00
Number of contracted shells                I               27
Number of primitive shells                 I               49
Pure/Cartesian d shells                    I                0
Pure/Cartesian f shells                    I                0
Highest angular momentum                   I                2
Largest degree of contraction              I                6
Shell types                                I   N=          27
           0          -1          -1          -1          -1          -2
           0           0           0           0           0           0
          -1           1           1           1           1           1
          -2           0           0           0           1           0
           0           0           1
Number of primitives per shell             I   N=          27
           6           3           1           1           1           1
           6           3           1           1           1           1
           1           4           2           1           1           1
           1           3           1           1           1           3
           1           1           1
Shell to atom map                          I   N=          27
           1           1           1           1           1           1
           2           2           2           2           2           2
           2           2           2           2           2           2
           2           3           3           3           3           4
           4           4           4
Primitive exponents                        R   N=          49
  8.58850000E+03  1.29723000E+03  2.99296000E+02  8.73771000E+01  2.56789000E+01
  3.74004000E+00  4.21175000E+01  9.62837000E+00  2.85332000E+00  9.05661000E-01
  2.55611000E-01  8.45000000E-02  1.29200000E+00  9.34134000E+04  1.39617000E+04
  3.16991000E+03  9.02456000E+02  2.97158000E+02  1.08702000E+02  1.08702000E+02
  4.31553000E+01  1.81079000E+01  5.56009000E+00  2.13183000E+00  4.20403000E-01
  1.36045000E-01  4.05000000E-02  4.95040000E+02  1.17221000E+02  3.77749000E+01
  1.40584000E+01  5.56574000E+00  2.26297000E+00  8.07994000E-01  2.77460000E-01
  7.71410000E-02  6.50000000E-01  3.38650000E+01  5.09479000E+00  1.15879000E+00
  3.25840000E-01  1.02741000E-01  7.50000000E-01  3.38650000E+01  5.09479000E+00
  1.15879000E+00  3.25840000E-01  1.02741000E-01  7.50000000E-01
Contraction coefficients                   R   N=          49
  1.89515008E-03  1.43859006E-02  7.07320031E-02  2.40001011E-01  5.94797026E-01
  2.80802012E-01  1.13889012E-01  9.20811101E-01 -3.27447036E-03  1.00000000E+00
  1.00000000E+00  1.00000000E+00  1.00000000E+00  7.42999957E-04  5.79299966E-03
  2.99539983E-02  1.19027993E-01  3.68431979E-01  5.77298966E-01  1.43186060E-01
  6.24465262E-01  2.83366119E-01  1.00000000E+00  1.00000000E+00  1.00000000E+00
  1.00000000E+00  1.00000000E+00  8.30900251E-03  6.40240194E-02  2.77614084E-01
  7.45076225E-01  6.13711672E-01  4.43817763E-01  1.00000000E+00  1.00000000E+00
  1.00000000E+00  1.00000000E+00  2.54938145E-02  1.90373109E-01  8.52161486E-01
  1.00000000E+00  1.00000000E+00  1.00000000E+00  2.54938145E-02  1.90373109E-01
  8.52161486E-01  1.00000000E+00  1.00000000E+00  1.00000000E+00
P(S=P) Contraction coefficients            R   N=          49
  0.00000000E+00  0.00000000E+00  0.00000000E+00  0.00000000E+00  0.00000000E+00
  0.00000000E+00  3.65113974E-02  2.37152983E-01  8.19701941E-01  1.00000000E+00
  1.00000000E+00  1.00000000E+00  0.00000000E+00  0.00000000E+00  0.00000000E+00
  0.00000000E+00  0.00000000E+00  0.00000000E+00  0.00000000E+00  0.00000000E+00
  0.00000000E+00  0.00000000E+00  0.00000000E+00  0.00000000E+00  0.00000000E+00
  0.00000000E+00  1.00000000E+00  0.00000000E+00  0.00000000E+00  0.00000000E+00
  0.00000000E+00  0.00000000E+00  0.00000000E+00  0.00000000E+00  0.00000000E+00
  0.00000000E+00  0.00000000E+00  0.00000000E+00  0.00000000E+00  0.00000000E+00
  0.00000000E+00  0.00000000E+00  0.00000000E+00  0.00000000E+00  0.00000000E+00
  0.00000000E+00  0.00000000E+00  0.00000000E+00  0.00000000E+00
Coordinates of each shell                  R   N=          81
 -2.14674022E+00 -2.64561657E-05  9.44863062E-06 -2.14674022E+00 -2.64561657E-05
  9.44863062E-06 -2.14674022E+00 -2.64561657E-05  9.44863062E-06 -2.14674022E+00
 -2.64561657E-05  9.44863062E-06 -2.14674022E+00 -2.64561657E-05  9.44863062E-06
 -2.14674022E+00 -2.64561657E-05  9.44863062E-06  2.14674211E+00  2.64561657E-05
 -7.55890450E-06  2.14674211E+00  2.64561657E-05 -7.55890450E-06  2.14674211E+00
  2.64561657E-05 -7.55890450E-06  2.14674211E+00  2.64561657E-05 -7.55890450E-06
  2.14674211E+00  2.64561657E-05 -7.55890450E-06  2.14674211E+00  2.64561657E-05
 -7.55890450E-06  2.14674211E+00  2.64561657E-05 -7.55890450E-06  2.14674211E+00
  2.64561657E-05 -7.55890450E-06  2.14674211E+00  2.64561657E-05 -7.55890450E-06
  2.14674211E+00  2.64561657E-05 -7.55890450E-06  2.14674211E+00  2.64561657E-05
 -7.55890450E-06  2.14674211E+00  2.64561657E-05 -7.55890450E-06  2.14674211E+00
  2.64561657E-05 -7.55890450E-06 -2.30587840E+00 -7.76443578E-02  1.82011436E+00
 -2.30587840E+00 -7.76443578E-02  1.82011436E+00 -2.30587840E+00 -7.76443578E-02
  1.82011436E+00 -2.30587840E+00 -7.76443578E-02  1.82011436E+00  2.06076778E+00
 -2.33003336E+00 -1.00580600E+00  2.06076778E+00 -2.33003336E+00 -1.00580600E+00
  2.06076778E+00 -2.33003336E+00 -1.00580600E+00  2.06076778E+00 -2.33003336E+00
 -1.00580600E+00
Num ILSW                                   I              100
ILSW                                       I   N=         100
           1           0           0           1           2           0
           0           0           0           0        4336          -1
           7           0           0           0           2           0
           0           0           0           0           1           0
           1           1           0           0           0           0
           0           0      100000           0          -1           0
           0           0           0           0           0           0
           0           0           0           1           0           0
           0 -2000000000           1           0           0           0
           0           0           4          52           0           0
           0           0          55           0           0           0
           0           0           0           4           0           1
           0           0           0           0           0           0
           0           0           0           0           0           0
           0           0           0           0           0           0
           0           0           0           0           0           0
           0           0           0           0
Num RLSW                                   I               52
RLSW                                       R   N=          52
  1.00000000E+00  1.00000000E+00  1.00000000E+00  1.00000000E+00  5.40000000E-01
  0.00000000E+00  0.00000000E+00  1.00000000E+00  0.00000000E+00  0.00000000E+00
  0.00000000E+00  0.00000000E+00  1.00000000E+00  0.00000000E+00  0.00000000E+00
  0.00000000E+00  0.00000000E+00  1.00000000E+00  0.00000000E+00  0.00000000E+00
  0.00000000E+00  0.00000000E+00  1.00000000E+00  0.00000000E+00  0.00000000E+00
  0.00000000E+00  0.00000000E+00  1.00000000E+00  0.00000000E+00  0.00000000E+00
  0.00000000E+00  0.00000000E+00  1.00000000E+00  0.00000000E+00  0.00000000E+00
  0.00000000E+00  0.00000000E+00  0.00000000E+00  1.00000000E+00  1.00000000E+00
  0.00000000E+00  1.00000000E+00  0.00000000E+00  0.00000000E+00  0.00000000E+00
  0.00000000E+00  0.00000000E+00  0.00000000E+00  0.00000000E+00  0.00000000E+00
  0.00000000E+00  0.00000000E+00
MxBond                                     I                2
NBond                                      I   N=           4
           2           2           1           1
IBond                                      I   N=           8
           2           3           1           4           1           0
           2           0
RBond                                      R   N=           8
  1.00000000E-01  1.00000000E+00  1.00000000E-01  1.00000000E+00  1.00000000E+00
  0.00000000E+00  1.00000000E+00  0.00000000E+00
Virial Ratio                               R      2.002072139760760E+00
SCF Energy                                 R     -4.744965349205654E+02
Total Energy                               R     -4.744965349205654E+02
S**2                                       R     -1.953992523340276E-14
S**2 after annihilation                    R      1.271871497010530E-12
RMS Force                                  R      6.767448723917082E-06
RMS Density                                R      4.522722653809474E-09
Job Status                                 I                1
Nuclear derivative order                   I                1
External E-field                           R   N=          35
  0.00000000E+00  0.00000000E+00  0.00000000E+00  0.00000000E+00  0.00000000E+00
  0.00000000E+00  0.00000000E+00  0.00000000E+00  0.00000000E+00  0.00000000E+00
  0.00000000E+00  0.00000000E+00  0.00000000E+00  0.00000000E+00  0.00000000E+00
  0.00000000E+00  0.00000000E+00  0.00000000E+00  0.00000000E+00  0.00000000E+00
  0.00000000E+00  0.00000000E+00  0.00000000E+00  0.00000000E+00  0.00000000E+00
  0.00000000E+00  0.00000000E+00  0.00000000E+00  0.00000000E+00  0.00000000E+00
  0.00000000E+00  0.00000000E+00  0.00000000E+00  0.00000000E+00  0.00000000E+00
IOpCl                                      I                1
IROHF                                      I                0
Alpha Orbital Energies                     R   N=          64
 -8.99687035E+01 -1.96722719E+01 -8.32899155E+00 -6.25117283E+00 -6.24752142E+00
 -6.24214325E+00 -1.09609371E+00 -8.27815791E-01 -5.34199081E-01 -4.92560750E-01
 -4.15187874E-01 -3.98430714E-01 -3.43541444E-01 -1.24138121E-01  1.52356831E-02
  4.14865235E-02  4.88484091E-02  5.81646077E-02  7.71044792E-02  1.54767769E-01
  1.94585963E-01  2.00058257E-01  2.17872415E-01  2.73901428E-01  3.16123964E-01
  3.38754831E-01  3.51232510E-01  4.06461242E-01  5.52022312E-01  6.17070036E-01
  7.18021272E-01  7.30036396E-01  7.97528473E-01  8.03769036E-01  9.78424922E-01
  1.05486860E+00  1.09461339E+00  1.16434822E+00  1.38569393E+00  1.39716699E+00
  1.43247350E+00  1.47623123E+00  1.50861653E+00  1.65534670E+00  1.67071066E+00
  1.79751830E+00  2.07410657E+00  2.10562754E+00  2.48271962E+00  2.57272565E+00
  2.89355284E+00  2.95534938E+00  3.17461936E+00  3.18812784E+00  3.85749799E+00
  5.05744289E+00  5.08701082E+00  5.53771500E+00  7.86753931E+00  1.74172827E+01
  1.74642602E+01  1.74762692E+01  4.98956645E+01  1.89132340E+02
Beta Orbital Energies                      R   N=          64
 -8.99687035E+01 -1.96722719E+01 -8.32899155E+00 -6.25117283E+00 -6.24752142E+00
 -6.24214325E+00 -1.09609371E+00 -8.27815791E-01 -5.34199081E-01 -4.92560750E-01
 -4.15187874E-01 -3.98430714E-01 -3.43541444E-01 -1.24138121E-01  1.52356831E-02
  4.14865235E-02  4.88484091E-02  5.81646077E-02  7.71044792E-02  1.54767769E-01
  1.94585963E-01  2.00058257E-01  2.17872415E-01  2.73901428E-01  3.16123964E-01
  3.38754831E-01  3.51232510E-01  4.06461242E-01  5.52022312E-01  6.17070036E-01
  7.18021272E-01  7.30036396E-01  7.97528473E-01  8.03769036E-01  9.78424922E-01
  1.05486860E+00  1.09461339E+00  1.16434822E+00  1.38569393E+00  1.39716699E+00
  1.43247350E+00  1.47623123E+00  1.50861653E+00  1.65534670E+00  1.67071066E+00
  1.79751830E+00  2.07410657E+00  2.10562754E+00  2.48271962E+00  2.57272565E+00
  2.89355284E+00  2.95534938E+00  3.17461936E+00  3.18812784E+00  3.85749799E+00
  5.05744289E+00  5.08701082E+00  5.53771500E+00  7.86753931E+00  1.74172827E+01
  1.74642602E+01  1.74762692E+01  4.98956645E+01  1.89132340E+02
Alpha MO coefficients                      R   N=        4096
 -1.26520823E-08 -7.08858558E-07 -1.01679851E-05 -1.83342296E-07  2.69209530E-06
  1.53542782E-06  2.70971456E-05  3.71626169E-07 -1.31752610E-05 -4.14693906E-05
 -1.06688697E-05  1.34439663E-06 -1.26569614E-05  2.90255104E-04  1.68534773E-04
 -7.56590555E-06  5.12791623E-05 -1.04256548E-05 -1.60116650E-06  5.48449702E-07
  9.63653943E-06  7.10870350E-07  4.10787539E-01  6.54410014E-01  1.53571856E-02
 -4.36493585E-03  1.66636114E-03 -1.04479946E-03  5.61504014E-05 -7.27605664E-05
 -2.23518357E-05 -8.05242288E-06 -5.81870563E-05 -7.08155325E-05 -2.64286659E-05
  1.46070010E-05  2.41161294E-05  9.30818028E-06 -2.67738345E-06  2.23420362E-06
  1.45804483E-06 -2.47978140E-05 -1.49862442E-04 -6.43138208E-05  2.31300052E-04
  1.75388605E-04  6.99732862E-05 -1.88308633E-05  1.45323118E-06  5.20748151E-05
 -6.47756897E-05  2.65531971E-06 -7.43191566E-06  3.84713752E-05 -1.10929708E-04
  1.19360963E-05 -1.49703565E-06 -2.14047105E-05  1.93879788E-05 -1.80106503E-04
  2.59461785E-04 -7.04903235E-06 -1.54144823E-04 -6.69518953E-05  5.52864434E-01
  4.69667604E-01  6.34775285E-04 -6.88257218E-05  1.25579451E-03  8.13604479E-03
 -1.91295440E-04  6.83171563E-06 -1.47162589E-04 -3.38454105E-03 -1.46786241E-04
  1.27015177E-06  2.25677735E-04  3.12175057E-03  5.31503946E-04 -2.32120745E-05
  2.79731571E-04  1.40857222E-04 -2.43263858E-05 -9.70876798E-06 -1.74054909E-05
  9.72096048E-07  1.66727166E-07 -7.16336804E-07  7.06618443E-06 -1.37408787E-05
 -6.19603833E-05 -2.87488245E-05 -8.50975707E-04  4.33427933E-04  2.18148012E-05
  5.25274485E-05  8.77851103E-06  5.89391025E-08 -2.20753546E-07 -1.50443986E-05
 -2.16356160E-06  1.04789391E-06  9.65361136E-05  1.53135674E-05 -4.24294012E-08
 -1.69211202E-04 -7.11368361E-05 -1.98661654E-05  2.15570311E-04  1.77113477E-05
 -3.22969382E-05 -5.32189229E-05  8.72839982E-06  2.29928359E-05  5.61705988E-05
  1.59392377E-05  8.35902436E-05 -8.24332269E-05 -8.77908228E-04 -2.01913212E-05
 -1.98499540E-05  4.31582086E-04  3.59829275E-05 -1.79452162E-04  1.28371211E-04
  6.71874966E-05 -3.39428891E-05 -1.80976420E-05 -9.75256747E-06 -3.03851701E-05
 -9.65372952E-05 -1.12560525E-06  3.56444188E-05  1.83871763E-04  5.46816962E-04
  7.67905595E-06 -1.98404853E-04 -8.71784158E-04 -4.25473517E-04  2.16969682E-05
 -3.80793930E-04  3.99443379E-03  2.37015589E-03 -1.05764688E-04  8.23322917E-04
 -1.68844872E-04 -2.60125125E-05  1.00209347E-05  9.57080611E-05  5.72645600E-06
 -1.19759969E-01 -3.20483354E-01  5.16073235E-01  5.98795221E-01  4.35232628E-02
 -1.66198449E-02  1.30352465E-03 -9.87908562E-04 -2.47412593E-04 -7.63645880E-05
 -1.51658037E-03 -1.75379859E-03 -6.35792528E-04 -3.50063476E-03 -3.95626950E-03
 -1.43385474E-03 -3.85164491E-04 -4.04391296E-04 -1.31695454E-04 -3.52028406E-04
 -1.59680941E-03 -6.69041519E-04  3.01399682E-03  2.18042571E-03  8.43413247E-04
 -6.17069989E-04 -3.29205773E-05  7.74993609E-04 -3.72092389E-04 -5.77489150E-05
 -1.22379209E-04  8.96461027E-04 -1.79674617E-03  2.47480681E-04 -1.06073369E-05
 -3.70786485E-04  9.16695415E-05 -1.64615237E-03  3.29433422E-03 -6.97256865E-05
 -1.44569322E-03 -6.29721835E-04  2.47545120E-06 -1.62933120E-05 -1.75186195E-05
 -5.98814341E-07  9.09799486E-06  3.30326737E-04  9.57874557E-05  6.11175195E-06
 -4.26942090E-05 -9.62467821E-04 -9.21505205E-04  3.74829274E-05 -4.79897072E-04
  1.34685227E-03  1.00939944E-03 -4.62988471E-05  2.66815487E-04  3.93493976E-06
 -2.11882207E-05  4.99280391E-06 -1.81904634E-04 -2.84974326E-06 -3.92360880E-04
 -1.07479244E-03  2.00527118E-03  1.58510185E-03 -1.68769740E-05  2.08608132E-04
 -5.95518052E-04 -2.36166268E-03  5.00485625E-04  2.36293892E-04  3.67034018E-01
 -8.58600150E-02 -3.78527951E-02  6.86851826E-01 -1.60612748E-01 -7.07897735E-02
  5.34668752E-02 -1.24005034E-02 -5.48776386E-03 -7.82486144E-03  1.44624910E-03
  6.76850769E-04  4.99557403E-03 -1.00538383E-03 -4.82269256E-04  8.95330236E-06
 -1.30315881E-04  1.66467876E-04 -3.56879880E-04 -3.80767360E-04 -9.46800667E-06
  8.62999195E-04 -6.73883893E-04  1.62989551E-04  1.82329914E-05 -1.45848235E-04
  1.61319858E-04 -3.04446048E-04 -1.23775554E-04  1.37670959E-04 -2.51145731E-04
 -1.13090373E-04  5.46714211E-07 -4.50426792E-06 -1.40274214E-05  6.01038699E-06
  7.58194771E-06  8.40911086E-05  5.32689292E-05 -9.42670912E-06 -3.23636688E-05
 -2.07358995E-04 -2.80236193E-04  1.50346974E-05 -8.16560503E-05 -3.95343947E-05
  1.76010865E-04 -4.64123382E-05 -1.81120387E-04  2.82939092E-06  1.85760212E-06
  8.40049608E-06 -4.71187796E-05  1.83497871E-05 -8.53145886E-04 -2.31066117E-03
  4.10499953E-03  4.09494239E-03 -7.53401723E-04 -1.79545265E-04 -6.53988658E-04
 -4.44827459E-04 -1.71856114E-03 -7.52770471E-04  9.39317786E-02  3.36782156E-01
  1.47600149E-01  1.75534436E-01  6.29084235E-01  2.75707449E-01  1.33734946E-02
  4.76928556E-02  2.08960953E-02 -1.92073565E-03 -6.19917986E-03 -2.71000195E-03
  1.12028934E-03  3.90616434E-03  1.71404983E-03  2.39323766E-04 -1.77524734E-04
 -4.11460342E-04  4.43882771E-04 -4.22756208E-04  2.33036842E-06  1.30382284E-04
  3.19978454E-04  4.85543314E-05 -3.26681935E-05 -5.78421243E-05 -5.30323442E-04
 -2.01501592E-04  1.19473047E-03 -7.75888650E-06  5.57402193E-04  2.47555442E-04
  5.80665318E-07  2.96650682E-06  1.08637021E-06 -2.27486917E-06  6.60480632E-06
 -3.28525532E-05 -3.03041448E-06  3.33671641E-06 -2.12781693E-05  1.35244938E-04
  1.14045515E-05 -4.54567792E-06  1.32292122E-04 -1.95560565E-04  3.92336374E-05
  2.58856515E-05 -1.98151602E-04  1.92854089E-05  2.04612894E-05 -4.08316777E-06
  9.34461371E-07 -7.58398088E-06  4.79867192E-05  1.30239580E-04 -2.32566816E-04
 -2.28781554E-04  6.34212806E-05 -5.84649335E-05 -4.19202926E-05  3.05810748E-05
  8.41124596E-04 -1.93131797E-03  1.90494022E-04 -1.52696496E-01  3.48292940E-01
  3.72109115E-04 -2.84753113E-01  6.49499717E-01  8.05201038E-06 -2.08490282E-02
  4.75476430E-02  2.81621388E-05  2.82026737E-03 -6.40595372E-03  5.86658777E-06
 -1.60628793E-03  3.72434433E-03 -2.35451217E-04 -2.88446533E-04 -3.13921982E-04
 -1.57527759E-04  1.25374569E-04  1.16724156E-05 -2.74365784E-04  3.72742317E-04
 -3.10124566E-05  1.05501641E-05 -7.96567933E-07  2.43668886E-06  2.28166573E-05
  2.08059937E-05 -1.19672262E-06 -3.26329216E-05  9.19374045E-05 -1.16816155E-01
 -1.92189363E-01  3.75142926E-03 -2.43701696E-03  4.55007534E-02  5.57950120E-01
  4.53537377E-03 -3.94230957E-03  7.43211176E-02  4.35583983E-01  2.20538760E-02
 -2.69932013E-03  3.35326420E-02 -4.28352865E-02 -1.57498285E-02  3.46490070E-04
 -9.96131452E-03  9.85933821E-03 -5.76793667E-04 -9.39888678E-04  5.89611359E-03
  1.55409358E-05  3.31686170E-03  9.39648471E-03 -1.94569785E-02 -3.59374415E-02
  6.14335204E-02  4.37805575E-02  1.15386912E-02 -7.92056094E-03  1.23450176E-04
 -1.82524928E-04  5.31044616E-03  6.28169424E-04 -5.81576914E-05  1.02356675E-02
  1.26899907E-03 -8.21956822E-05 -1.19371766E-02 -1.56097598E-03  1.81134305E-05
 -2.77655188E-02 -2.07199135E-03  9.53001876E-04 -4.20695108E-03 -1.85772139E-03
  6.06731207E-04 -4.67274333E-03 -7.58145670E-04  1.02646023E-03  6.28636227E-03
  5.54017826E-04  1.08046748E-01  7.76828088E-02  2.42804057E-02  1.54895751E-03
  1.03459196E-03 -2.22550545E-02  6.09010534E-03  6.49793894E-03 -2.56663103E-03
 -7.91295527E-04  1.49338437E-03  6.78937803E-04  1.47473129E-02  2.45658221E-02
  2.53979184E-02 -8.78864581E-04 -1.41715788E-02 -7.65553666E-02  3.79762571E-02
 -1.17566623E-03 -2.08312130E-02 -4.65942377E-02  3.13785865E-02 -1.97573099E-03
 -4.88042335E-03 -2.95499884E-02 -1.37676337E-02  7.13392603E-04 -5.81465075E-03
 -3.20554463E-03  1.44982493E-03  9.23250508E-05  2.42352818E-03 -3.89973319E-04
  3.29376981E-02  9.36224129E-02 -1.96735348E-01 -3.62501318E-01  6.53805179E-01
  4.14340668E-01 -4.00520062E-03  4.68747599E-03 -5.85771991E-04 -2.33133245E-03
 -2.42679198E-04  1.56686348E-02  6.31912357E-03 -4.09514013E-04  3.12339301E-02
  1.26243338E-02  6.76478501E-04 -4.31299943E-02 -1.77469850E-02  4.91534238E-03
 -5.97194478E-02 -2.27266858E-02 -1.29257005E-02 -9.95620089E-03  3.17833488E-04
 -1.33653307E-02 -1.02589302E-03  1.77022111E-02 -9.92552982E-03 -5.50454496E-04
 -2.19979711E-02 -3.14575428E-02  1.18462562E-02  1.06750447E-03 -3.52841978E-04
  7.04497642E-03  1.00772848E-01  1.29815131E-01  4.17723504E-03  2.20273690E-03
  2.07074675E-02  9.01586773E-03  3.66301367E-02  6.11774004E-02 -3.28823723E-02
 -9.44322784E-03  2.45128013E-01 -1.83076825E-01 -4.69096006E-02 -1.35343190E-02
  3.50354875E-01 -2.83430615E-01 -5.04833286E-02 -8.20932963E-03  2.40989862E-01
 -4.98869412E-02  5.80020432E-03  6.38939095E-04  2.64370139E-02  1.93285893E-02
  1.05802715E-03 -1.54697718E-03 -2.90004799E-03  1.02362214E-05  2.20709832E-03
  6.30448766E-03 -1.35327003E-02 -2.46265900E-02  4.76101215E-02  2.97532621E-02
  6.11691025E-03 -3.21301870E-03 -2.63643656E-04 -5.02595380E-03 -1.17710190E-02
  2.87208832E-03 -8.04034431E-03 -2.26585233E-02  5.64407616E-03 -1.52945194E-02
  2.98122032E-02 -8.49976348E-03  2.03065482E-02  6.93920523E-02 -1.28970875E-02
  4.84160717E-02  1.68715990E-02 -6.81866198E-03  1.93228278E-02  4.05513819E-03
 -1.07104673E-02  9.65826292E-05 -9.12218573E-03 -1.69474873E-03  1.64178576E-01
  2.56013127E-01  7.47689921E-02  5.72693273E-03  1.08252730E-03 -3.01072766E-02
  6.12991228E-03  1.30160264E-02 -4.64270475E-03  3.29168638E-03  1.20170935E-03
  1.86260665E-03  4.65978003E-03  7.96669550E-03  4.70588950E-02  5.09489856E-02
  2.00787045E-03 -2.84704072E-02  6.96364500E-02  7.37260692E-02  2.83565833E-03
 -8.20926146E-03  6.92419745E-02  6.93833554E-02  1.32027896E-02 -1.85510072E-02
  7.77662530E-03  8.03937195E-03 -9.98227688E-03 -1.10759010E-03  3.53909264E-03
  2.37704880E-03  2.92604248E-03  2.56310717E-03  1.09930692E-02  3.14061347E-02
 -6.75046263E-02 -1.23203270E-01  2.24745685E-01  2.77852002E-01  1.81725432E-02
  1.02571990E-03 -1.94130979E-02 -1.09973600E-02  2.65443774E-03 -7.30789942E-02
 -3.20889824E-02  5.08574752E-03 -1.42274646E-01 -6.24494721E-02 -5.06911201E-03
  2.06659090E-01  9.04793228E-02 -1.85226886E-02  3.61302347E-01  1.59398001E-01
  3.37072666E-04  9.50459589E-02  4.77315846E-02  8.56509383E-03 -2.90910454E-03
 -2.91267157E-02  4.39967786E-02 -6.00363163E-03 -6.73245555E-03 -1.85313659E-02
  2.04989842E-02  5.85276256E-03  5.41555648E-03  4.34901355E-03 -1.53978691E-01
 -2.75666667E-01 -1.29177429E-01 -3.40077194E-03 -2.30692356E-02 -1.04997942E-02
 -1.48937994E-02 -2.54316908E-02 -1.97633521E-01  9.68553442E-02 -3.70001415E-02
  8.90627613E-02 -2.91683958E-01  1.40865895E-01 -5.42621327E-02  5.04829792E-02
 -2.97019241E-01  1.30898461E-01 -6.57102469E-02  2.19602642E-02 -4.10991661E-02
  3.17880732E-02  1.54636542E-03  7.48065542E-04 -1.14740415E-02  4.86334825E-03
 -6.64966702E-03  2.38044708E-03  4.62744359E-03  1.32266281E-02 -2.84945346E-02
 -5.27123510E-02  1.06686914E-01  7.33632671E-02  1.64851949E-02 -2.96195924E-02
 -9.92674980E-03  9.62659232E-03 -5.79332613E-02 -1.11897154E-02  8.24165638E-03
 -1.11685797E-01 -2.13759231E-02  1.58695103E-02  1.52232236E-01  3.03086418E-02
 -2.29103988E-02  3.43429306E-01  6.63761279E-02 -4.56832802E-02  1.31671759E-01
  3.63264686E-02 -3.49245987E-02  1.30197343E-02 -1.30028229E-04  1.44401228E-03
 -2.01091872E-02 -1.51739722E-02 -6.22628917E-03  1.46030838E-02 -2.58039471E-02
 -2.21885922E-02  1.10375326E-02 -7.23560602E-03 -6.91997572E-04  1.98796933E-03
  2.45310528E-03  1.07939027E-02  1.96461356E-03 -1.45884082E-03  4.60027034E-03
  7.85326822E-03  6.01975790E-02  2.78317780E-01  3.07660249E-02 -2.71037362E-02
  8.90077046E-02  4.05379827E-01  4.48889621E-02 -1.75662393E-02  9.18894412E-02
  3.77316977E-01  4.33079246E-02 -2.32349168E-02  8.28522077E-03  8.51074400E-02
  2.63900028E-03  1.57251619E-03  3.20349684E-03  1.32414180E-02  2.82508607E-03
  3.12287462E-03 -3.73910468E-03 -1.06932217E-02  2.30918167E-02  4.22944511E-02
 -7.88888764E-02 -9.66829893E-02 -1.75520238E-02  1.25216504E-02  2.42463296E-03
  5.88611709E-03  2.13361138E-02  1.38614012E-02  1.79888479E-02  4.10696879E-02
  2.72223385E-02  3.48425302E-02 -5.62189468E-02 -4.24682480E-02 -5.16325690E-02
 -1.27714889E-01 -6.23830211E-02 -9.68779863E-02 -5.25373037E-02 -1.02399583E-02
 -3.62070695E-02 -5.94850603E-03 -1.95990973E-04  9.54113655E-03 -3.48770165E-03
 -9.52232097E-03  6.60800698E-03  4.13068769E-03  1.88786150E-02  6.34839198E-03
  3.20767002E-02  2.40920314E-03  4.03508652E-02  7.94805666E-02  5.12373307E-02
  1.40122163E-03  8.14221032E-03  1.19530864E-03 -4.74453586E-03 -8.01485299E-03
 -1.83477634E-02  4.95769314E-02 -3.57958098E-02  2.55894493E-02 -2.69054412E-02
  7.22006755E-02 -5.23099960E-02  3.40775216E-02 -3.19193153E-02  6.75323285E-02
 -3.72764365E-02  1.95280432E-02 -2.15998628E-03  2.21424750E-02 -8.83702514E-03