Title Card Required                                                     
FOpt      UM062X                                                      6-311+G(d,p)        
Number of atoms                            I                4
Info1-9                                    I   N=           9
          13          13           0           0           0         110
           2          18        -502
Full Title                                 C   N=           2
Title Card Required     
Route                                      C   N=           4
#p opt UM062X/6-311+G** nosymm int=superfine    
Charge                                     I                1
Multiplicity                               I                2
Number of electrons                        I               13
Number of alpha electrons                  I                7
Number of beta electrons                   I                6
Number of basis functions                  I               56
Number of independent functions            I               56
Number of point charges in /Mol/           I                0
Number of translation vectors              I                0
Atomic numbers                             I   N=           4
           6           6           1           1
Nuclear charges                            R   N=           4
  6.00000000E+00  6.00000000E+00  1.00000000E+00  1.00000000E+00
Current cartesian coordinates              R   N=          12
 -3.03709224E+00  0.00000000E+00  0.00000000E+00  3.03709224E+00  0.00000000E+00
  0.00000000E+00 -5.15048731E+00 -3.83634827E-13 -2.49181931E-13  5.15048543E+00
 -3.87603216E-13 -2.88668709E-12
Number of symbols in /Mol/                 I                0
Force Field                                I                0
Atom Types                                 C   N=           4
                                                
Int Atom Types                             I   N=           4
           0           0           0           0
MM charges                                 R   N=           4
  0.00000000E+00  0.00000000E+00  0.00000000E+00  0.00000000E+00
Integer atomic weights                     I   N=           4
          12          12           1           1
Real atomic weights                        R   N=           4
  1.20000000E+01  1.20000000E+01  1.00782504E+00  1.00782504E+00
Atom fragment info                         I   N=           4
           0           0           0           0
Atom residue num                           I   N=           4
           0           0           0           0
Nuclear spins                              I   N=           4
           0           0           1           1
Nuclear ZEff                               R   N=           4
 -3.60000000E+00 -3.60000000E+00 -1.00000000E+00 -1.00000000E+00
Nuclear ZNuc                               R   N=           4
  6.00000000E+00  6.00000000E+00  1.00000000E+00  1.00000000E+00
Nuclear QMom                               R   N=           4
  0.00000000E+00  0.00000000E+00  0.00000000E+00  0.00000000E+00
Nuclear GFac                               R   N=           4
  0.00000000E+00  0.00000000E+00  2.79284600E+00  2.79284600E+00
MicOpt                                     I   N=           4
          -2          -2          -1          -1
Number of residues                         I                0
Number of secondary structures             I                0
Redundant internal dimensions              I   N=           4
          12           8           4           0
Redundant internal coordinate indices      I   N=          48
           1          -1           0           0           1          -2
           0           0           1          -3           0           0
           2          -1           0           0           2          -2
           0           0           2          -3           0           0
           1           3           0           0           2           4
           0           0           2           1           3          -4
           1           2           4          -4           2           1
           3          -8           1           2           4          -8
Redundant internal coordinates             R   N=          12
 -3.03709224E+00  0.00000000E+00  0.00000000E+00  3.03709224E+00  0.00000000E+00
  0.00000000E+00  2.11339507E+00  2.11339319E+00  3.14159265E+00  3.14159265E+00
  3.14159265E+00  3.14159265E+00
ZRed-IntVec                                I   N=          12
          -1          -1          -1          -1          -1          -1
           0           0           0           0           0           0
ZRed-FPVec                                 R   N=          12
  0.00000000E+00  0.00000000E+00  0.00000000E+00  0.00000000E+00  0.00000000E+00
  0.00000000E+00  0.00000000E+00  0.00000000E+00  0.00000000E+00  0.00000000E+00
  0.00000000E+00  0.00000000E+00
ZRed-Constraint1                           R   N=          12
 -3.03709224E+00  0.00000000E+00  0.00000000E+00  3.03709224E+00  0.00000000E+00
  0.00000000E+00  2.08057524E+00  2.08053366E+00  3.14159265E+00  3.14159265E+00
  3.14159265E+00  3.14159265E+00
ZRed-Constraint2                           R   N=          12
 -3.03709224E+00  0.00000000E+00  0.00000000E+00  3.03709224E+00  0.00000000E+00
  0.00000000E+00  0.00000000E+00  0.00000000E+00  0.00000000E+00  0.00000000E+00
  0.00000000E+00  0.00000000E+00
Number of contracted shells                I               20
Number of primitive shells                 I               38
Pure/Cartesian d shells                    I                0
Pure/Cartesian f shells                    I                0
Highest angular momentum                   I                2
Largest degree of contraction              I                6
Shell types                                I   N=          20
           0          -1          -1          -1          -1          -2
           0          -1          -1          -1          -1          -2
           0           0           0           1           0           0
           0           1
Number of primitives per shell             I   N=          20
           6           3           1           1           1           1
           6           3           1           1           1           1
           3           1           1           1           3           1
           1           1
Shell to atom map                          I   N=          20
           1           1           1           1           1           1
           2           2           2           2           2           2
           3           3           3           3           4           4
           4           4
Primitive exponents                        R   N=          38
  4.56324000E+03  6.82024000E+02  1.54973000E+02  4.44553000E+01  1.30290000E+01
  1.82773000E+00  2.09642000E+01  4.80331000E+00  1.45933000E+00  4.83456000E-01
  1.45585000E-01  4.38000000E-02  6.26000000E-01  4.56324000E+03  6.82024000E+02
  1.54973000E+02  4.44553000E+01  1.30290000E+01  1.82773000E+00  2.09642000E+01
  4.80331000E+00  1.45933000E+00  4.83456000E-01  1.45585000E-01  4.38000000E-02
  6.26000000E-01  3.38650000E+01  5.09479000E+00  1.15879000E+00  3.25840000E-01
  1.02741000E-01  7.50000000E-01  3.38650000E+01  5.09479000E+00  1.15879000E+00
  3.25840000E-01  1.02741000E-01  7.50000000E-01
Contraction coefficients                   R   N=          38
  1.96665025E-03  1.52306019E-02  7.61269097E-02  2.60801033E-01  6.16462078E-01
  2.21006028E-01  1.14660081E-01  9.19999648E-01 -3.03068213E-03  1.00000000E+00
  1.00000000E+00  1.00000000E+00  1.00000000E+00  1.96665025E-03  1.52306019E-02
  7.61269097E-02  2.60801033E-01  6.16462078E-01  2.21006028E-01  1.14660081E-01
  9.19999648E-01 -3.03068213E-03  1.00000000E+00  1.00000000E+00  1.00000000E+00
  1.00000000E+00  2.54938145E-02  1.90373109E-01  8.52161486E-01  1.00000000E+00
  1.00000000E+00  1.00000000E+00  2.54938145E-02  1.90373109E-01  8.52161486E-01
  1.00000000E+00  1.00000000E+00  1.00000000E+00
P(S=P) Contraction coefficients            R   N=          38
  0.00000000E+00  0.00000000E+00  0.00000000E+00  0.00000000E+00  0.00000000E+00
  0.00000000E+00  4.02486927E-02  2.37593957E-01  8.15853851E-01  1.00000000E+00
  1.00000000E+00  1.00000000E+00  0.00000000E+00  0.00000000E+00  0.00000000E+00
  0.00000000E+00  0.00000000E+00  0.00000000E+00  0.00000000E+00  4.02486927E-02
  2.37593957E-01  8.15853851E-01  1.00000000E+00  1.00000000E+00  1.00000000E+00
  0.00000000E+00  0.00000000E+00  0.00000000E+00  0.00000000E+00  0.00000000E+00
  0.00000000E+00  0.00000000E+00  0.00000000E+00  0.00000000E+00  0.00000000E+00
  0.00000000E+00  0.00000000E+00  0.00000000E+00
Coordinates of each shell                  R   N=          60
 -3.03709224E+00  0.00000000E+00  0.00000000E+00 -3.03709224E+00  0.00000000E+00
  0.00000000E+00 -3.03709224E+00  0.00000000E+00  0.00000000E+00 -3.03709224E+00
  0.00000000E+00  0.00000000E+00 -3.03709224E+00  0.00000000E+00  0.00000000E+00
 -3.03709224E+00  0.00000000E+00  0.00000000E+00  3.03709224E+00  0.00000000E+00
  0.00000000E+00  3.03709224E+00  0.00000000E+00  0.00000000E+00  3.03709224E+00
  0.00000000E+00  0.00000000E+00  3.03709224E+00  0.00000000E+00  0.00000000E+00
  3.03709224E+00  0.00000000E+00  0.00000000E+00  3.03709224E+00  0.00000000E+00
  0.00000000E+00 -5.15048731E+00 -3.83634827E-13 -2.49181931E-13 -5.15048731E+00
 -3.83634827E-13 -2.49181931E-13 -5.15048731E+00 -3.83634827E-13 -2.49181931E-13
 -5.15048731E+00 -3.83634827E-13 -2.49181931E-13  5.15048543E+00 -3.87603216E-13
 -2.88668709E-12  5.15048543E+00 -3.87603216E-13 -2.88668709E-12  5.15048543E+00
 -3.87603216E-13 -2.88668709E-12  5.15048543E+00 -3.87603216E-13 -2.88668709E-12
Num ILSW                                   I              100
ILSW                                       I   N=         100
           1           0           0           0           2           0
           0           0           0           0        4336          -1
           7           0           0           0           2           0
           0           0           0           0           1           0
           1           1           0           0           0           0
           0           0      100000           0          -1           0
           0           0           0           0           0           0
           0           0           0           1           0           0
           0 -2000000000           1           0           0           0
           0           0           4          52           0           0
           0           0          55           0           0           0
           0           0           0           4           0           1
           0           0           0           0           0           0
           0           0           0           0           0           0
           0           0           0           0           0           0
           0           0           0           0           0           0
           0           0           0           0
Num RLSW                                   I               52
RLSW                                       R   N=          52
  1.00000000E+00  1.00000000E+00  1.00000000E+00  1.00000000E+00  5.40000000E-01
  0.00000000E+00  0.00000000E+00  1.00000000E+00  0.00000000E+00  0.00000000E+00
  0.00000000E+00  0.00000000E+00  1.00000000E+00  0.00000000E+00  0.00000000E+00
  0.00000000E+00  0.00000000E+00  1.00000000E+00  0.00000000E+00  0.00000000E+00
  0.00000000E+00  0.00000000E+00  1.00000000E+00  0.00000000E+00  0.00000000E+00
  0.00000000E+00  0.00000000E+00  1.00000000E+00  0.00000000E+00  0.00000000E+00
  0.00000000E+00  0.00000000E+00  1.00000000E+00  0.00000000E+00  0.00000000E+00
  0.00000000E+00  0.00000000E+00  0.00000000E+00  1.00000000E+00  1.00000000E+00
  0.00000000E+00  1.00000000E+00  0.00000000E+00  0.00000000E+00  0.00000000E+00
  0.00000000E+00  0.00000000E+00  0.00000000E+00  0.00000000E+00  0.00000000E+00
  0.00000000E+00  0.00000000E+00
MxBond                                     I                2
NBond                                      I   N=           4
           2           2           1           1
IBond                                      I   N=           8
           2           3           1           4           1           0
           2           0
RBond                                      R   N=           8
  1.00000000E-01  1.00000000E+00  1.00000000E-01  1.00000000E+00  1.00000000E+00
  0.00000000E+00  1.00000000E+00  0.00000000E+00
Virial Ratio                               R      2.002930457671389E+00
SCF Energy                                 R     -7.658686885427427E+01
Total Energy                               R     -7.658686885427427E+01
S**2                                       R      7.511879218678432E-01
S**2 after annihilation                    R      7.500010064929780E-01
RMS Force                                  R      1.371978022953015E-04
RMS Density                                R      9.335323351991107E-09
Job Status                                 I                1
Nuclear derivative order                   I                1
External E-field                           R   N=          35
  0.00000000E+00  0.00000000E+00  0.00000000E+00  0.00000000E+00  0.00000000E+00
  0.00000000E+00  0.00000000E+00  0.00000000E+00  0.00000000E+00  0.00000000E+00
  0.00000000E+00  0.00000000E+00  0.00000000E+00  0.00000000E+00  0.00000000E+00
  0.00000000E+00  0.00000000E+00  0.00000000E+00  0.00000000E+00  0.00000000E+00
  0.00000000E+00  0.00000000E+00  0.00000000E+00  0.00000000E+00  0.00000000E+00
  0.00000000E+00  0.00000000E+00  0.00000000E+00  0.00000000E+00  0.00000000E+00
  0.00000000E+00  0.00000000E+00  0.00000000E+00  0.00000000E+00  0.00000000E+00
IOpCl                                      I                1
IROHF                                      I                0
Alpha Orbital Energies                     R   N=          56
 -1.09506510E+01 -1.09506410E+01 -9.88125517E-01 -9.84356453E-01 -6.57979415E-01
 -6.21923876E-01 -4.95230135E-01 -4.02804239E-01 -3.42363444E-01 -3.33136328E-01
 -1.27648189E-01 -1.15773007E-01 -7.96088766E-02 -7.44185870E-02 -5.51793755E-02
 -5.00826072E-02 -4.61684658E-02 -1.46074834E-02  6.16954442E-04  5.99586866E-02
  2.34310572E-01  3.10852533E-01  3.44482475E-01  3.52903500E-01  3.59450335E-01
  3.87049722E-01  3.94821349E-01  5.30084473E-01  5.66431413E-01  6.10666466E-01
  8.86138756E-01  8.87376932E-01  8.95694945E-01  8.98798100E-01  1.07119831E+00
  1.07223008E+00  1.08172960E+00  1.08274899E+00  1.32297286E+00  1.37650864E+00
  1.61816307E+00  1.62128538E+00  1.62788277E+00  1.63052692E+00  2.15033569E+00
  2.19027398E+00  2.27073604E+00  2.34401045E+00  2.41976092E+00  2.43462276E+00
  2.45403214E+00  2.46814840E+00  2.90736946E+00  3.05221072E+00  2.32476939E+01
  2.32708664E+01
Beta Orbital Energies                      R   N=          56
 -1.09466379E+01 -1.09466332E+01 -9.64111992E-01 -9.61796700E-01 -6.44839164E-01
 -6.07706424E-01 -3.24865166E-01 -3.13914609E-01 -3.09200160E-01 -2.97333781E-01
 -1.32861755E-01 -1.14968284E-01 -7.48403050E-02 -6.77081795E-02 -6.35994886E-02
 -4.30779153E-02 -3.39446604E-02 -2.13548220E-02  1.76214345E-02  7.38305101E-02
  2.27253247E-01  3.24741984E-01  3.52005242E-01  3.52773803E-01  3.84878483E-01
  3.89385417E-01  3.92271838E-01  5.57779969E-01  5.71880748E-01  6.24959949E-01
  9.57735540E-01  9.66896071E-01  9.67401309E-01  9.76285159E-01  1.10411637E+00
  1.10419528E+00  1.10420474E+00  1.10432569E+00  1.32717268E+00  1.38059663E+00
  1.63570128E+00  1.64231057E+00  1.64533162E+00  1.65192330E+00  2.30802710E+00
  2.30898837E+00  2.35935701E+00  2.38936028E+00  2.44652293E+00  2.47021449E+00
  2.47891930E+00  2.50113100E+00  3.00199698E+00  3.15068647E+00  2.32608439E+01
  2.32839556E+01
Alpha MO coefficients                      R   N=        3136
  4.01935695E-01  3.31128657E-01 -1.38532322E-03 -8.97013658E-17  7.42896053E-16
  6.78224791E-03 -9.30690528E-04  2.24550666E-16 -7.01861484E-16 -3.43727789E-03
  1.69052563E-04 -1.09300725E-16  3.02956318E-16 -8.86239875E-05  8.73235828E-04
  2.85595786E-16 -8.40523825E-17 -3.37916053E-04  1.52000210E-16 -1.09358388E-05
  5.87599325E-04  1.24552976E-16  3.95689139E-01  3.25982973E-01  1.36262377E-03
 -4.46933978E-16 -6.12889394E-16  6.67345913E-03  9.21088313E-04  6.24245352E-16
 -1.32235453E-15 -3.37475678E-03 -1.72034034E-04 -9.26589574E-17  1.63648759E-15
 -1.28346631E-04 -8.38550573E-04 -1.43836538E-17  4.13982935E-16 -3.33135393E-04
 -3.41766253E-16 -1.06595175E-05  5.79260540E-04  1.52211375E-16  2.82722516E-04
 -1.93892385E-03  2.42402757E-03 -1.28553328E-03 -7.74129793E-16 -5.52964956E-16
  2.77855794E-04 -1.91002082E-03  2.38981194E-03  1.26682091E-03 -9.09718590E-16
 -5.96744622E-15 -3.95690363E-01 -3.25954888E-01  1.43848915E-03 -3.31184131E-17
 -1.31957153E-16 -6.89347090E-03  6.06426444E-04 -3.88136492E-17 -1.70350347E-17
  3.96490488E-03  1.91633845E-04  3.40289584E-17  3.54946282E-17 -2.53662498E-03
 -2.20777230E-03 -1.95856911E-16 -5.35078791E-16  3.02748787E-04 -7.77595407E-17
  1.75548978E-05 -5.28088854E-04 -1.30064891E-16  4.01936900E-01  3.31101006E-01
  1.46000954E-03  3.10529423E-16 -1.18744706E-15  6.99885601E-03  6.20937422E-04
 -2.84131735E-16 -6.74991548E-16 -4.01825170E-03  1.88962577E-04  2.89635150E-16
  1.18555741E-15  2.53492319E-03 -2.22117889E-03  5.98606109E-17  7.92440605E-16
 -3.08006355E-04 -2.86752741E-16 -1.77239825E-05  5.37230968E-04  1.16087176E-16
 -3.08421042E-04  1.83106480E-03 -2.16613510E-03  1.18517980E-03  6.97025372E-16
  7.04127366E-16  3.12809757E-04 -1.86121958E-03  2.20384051E-03  1.20517548E-03
 -8.08117497E-16 -5.89502863E-15 -8.02296117E-02 -1.30892019E-01 -5.38631111E-02
 -7.88996632E-15 -8.66644068E-15  3.84875615E-01 -8.29278355E-02 -4.84107869E-15
 -5.90663365E-15  2.51267122E-01 -2.76254131E-02  1.27361996E-14  3.56497005E-14
 -1.21923561E-03 -7.06120806E-03 -7.06992175E-15 -1.32814976E-14 -4.12277298E-03
 -5.20960453E-14  5.34445210E-04  7.02773103E-03 -1.13441375E-14 -8.02341635E-02
 -1.30899439E-01  5.38664887E-02 -9.37366803E-15 -5.66954347E-14  3.84897330E-01
  8.29329786E-02 -5.02374773E-15 -4.79810546E-14  2.51281751E-01  2.76275126E-02
  1.16223508E-14  2.22886588E-14 -1.22118322E-03  7.06277927E-03 -5.82122762E-15
 -2.03657412E-14 -4.12304206E-03  3.28500169E-14  5.34456817E-04  7.02819464E-03
  1.44868721E-14  9.65588891E-02  1.21337001E-01 -1.08697284E-02  1.67521765E-02
 -4.24469538E-14 -1.17483098E-13  9.65646776E-02  1.21344026E-01 -1.08706692E-02
 -1.67531217E-02 -4.15326232E-14 -5.74772847E-14 -7.98614124E-02 -1.30248534E-01
 -5.72867612E-02 -6.34120352E-15 -7.45397639E-15  3.82133313E-01 -8.82146717E-02
 -5.48571457E-15 -5.22445408E-15  2.59488481E-01 -3.67088529E-02  1.60221270E-14
  3.76683998E-14 -3.49118240E-02 -2.80645584E-02 -8.68301203E-15 -1.93416987E-14
 -4.49755669E-03 -5.25611507E-14  1.57468610E-04  7.75666496E-03 -1.13463619E-14
  7.98567996E-02  1.30241005E-01 -5.72837865E-02  8.49356819E-15  5.80843055E-14
 -3.82111120E-01 -8.82100363E-02  6.94164634E-15  5.05977285E-14 -2.59473891E-01
 -3.67072883E-02 -1.29001259E-14 -1.85414903E-14  3.49117530E-02 -2.80641444E-02
  8.00266260E-15  2.53989183E-14  4.49733438E-03 -3.11749997E-14 -1.57440367E-04
 -7.75628589E-03 -1.48208769E-14  9.87082332E-02  1.21191938E-01 -1.64163929E-02
  1.63496249E-02 -4.48020875E-14 -1.20058554E-13 -9.87028519E-02 -1.21185073E-01
  1.64157767E-02  1.63486734E-02  4.41580218E-14  6.06798293E-14 -3.81346785E-02
 -6.35178291E-02  1.64435186E-01  3.87735909E-14  2.66676043E-14  1.96169037E-01
  2.43622139E-01  1.26262942E-14  1.08933310E-14  2.29589322E-01  1.45846661E-01
  5.07172122E-14  1.44724802E-14  1.68435888E-02  2.24703155E-03 -1.13963845E-14
  2.35771082E-15  1.39511527E-02  5.01797315E-14  2.08312700E-04 -2.42082121E-02
  8.57647450E-15 -3.81347387E-02 -6.35179310E-02 -1.64435302E-01  1.28780856E-14
  1.48561528E-13  1.96169338E-01 -2.43622261E-01 -2.86741340E-14  1.86672016E-13
  2.29589837E-01 -1.45846657E-01  2.53891234E-14  3.05740712E-14  1.68435875E-02
 -2.24699009E-03 -9.97217811E-15  6.08765148E-15  1.39511669E-02 -1.11591584E-14
  2.08313227E-04 -2.42082367E-02 -8.77303040E-15 -9.42241983E-02 -1.62323116E-01
 -5.92450678E-02 -8.19260632E-03  1.41395392E-15  4.29681914E-14 -9.42242278E-02
 -1.62323133E-01 -5.92451336E-02  8.19259811E-03 -1.87937176E-15  6.04196185E-14
 -4.54555488E-02 -7.57807964E-02  1.71225930E-01  3.74574469E-14  2.17491259E-14
  2.35955192E-01  2.46742566E-01  1.15871564E-14  4.35441304E-15  2.65784634E-01
  1.69813671E-01  5.00522224E-14  1.39382780E-14  2.51309118E-02  1.14500031E-02
 -1.86427477E-14 -9.35197127E-15  1.61815486E-02  5.06308904E-14 -2.85774985E-04
 -2.79668019E-02  7.99141623E-15  4.54555490E-02  7.57807985E-02  1.71225850E-01
 -7.26591343E-15 -1.66977344E-13 -2.35955182E-01  2.46742395E-01  3.72863412E-14
 -2.14337754E-13 -2.65784779E-01  1.69813531E-01 -1.70756398E-14 -5.65050305E-14
 -2.51309289E-02  1.14499913E-02  1.87935568E-14 -8.92562356E-15 -1.61815446E-02
  7.38704702E-15  2.85773887E-04  2.79667952E-02  8.04303574E-15 -9.73253452E-02
 -1.69944426E-01 -5.65131900E-02 -7.42678895E-03  3.19757849E-16  3.62374645E-14
  9.73252577E-02  1.69944216E-01  5.65131211E-02 -7.42677203E-03  3.23026897E-15
 -6.17540238E-14 -4.15334711E-16 -2.78280731E-14  6.03185640E-14  1.52930229E-01
  1.37599676E-01  4.06575102E-13 -3.07315009E-13  2.39940097E-01  2.15887203E-01
 -1.92713788E-12  8.56921192E-13  2.20905801E-01  1.98761269E-01 -2.29845179E-12
  1.71302312E-12  1.54171064E-02  1.38715752E-02 -5.09396645E-14 -9.71071541E-03
  2.40858505E-15  8.67072014E-14 -1.07926069E-02  2.00269183E-15 -1.79093090E-15
  9.72049596E-14  1.52930260E-01  1.37599705E-01  2.70618239E-13  9.88098445E-15
  2.39940155E-01  2.15887255E-01 -2.22625422E-12 -8.33160090E-13  2.20905859E-01
  1.98761321E-01 -1.82564400E-12 -1.35711883E-12  1.54171114E-02  1.38715797E-02
  6.69113586E-14  9.71073028E-03 -9.69168531E-15 -1.36328154E-13  1.07926234E-02
  1.62440263E-13 -1.03311015E-12  5.06552171E-12 -1.35877806E-13  1.08984304E-02
  9.80590138E-03  8.70989820E-14  4.18637322E-14  4.09106026E-12 -2.71887196E-13
  1.08984437E-02  9.80591336E-03  2.42718850E-15 -2.59775399E-14  9.09392091E-14
  1.56030292E-01  1.40388982E-01  5.09529815E-13 -4.79474505E-13  2.45148351E-01
  2.20573368E-01 -3.18637559E-12  2.00544912E-12  2.22744502E-01  2.00415651E-01
  1.90169807E-13  3.86352951E-12  2.49112754E-02  2.24139826E-02 -2.55333839E-14
 -1.39234942E-02  3.04539567E-15  4.30378002E-14 -1.54747439E-02  1.02220092E-15
  8.14186957E-15 -5.42834024E-14 -1.56030246E-01 -1.40388940E-01 -3.79703564E-13
 -1.61320436E-13 -2.45148285E-01 -2.20573310E-01  3.31890350E-12  1.98661765E-12
 -2.22744447E-01 -2.00415602E-01 -8.39889255E-13  3.42317339E-12 -2.49112698E-02
 -2.24139777E-02 -9.57938348E-14 -1.39235025E-02  9.17922372E-15  1.85950865E-13
 -1.54747531E-02  1.54503002E-13 -7.45320620E-13  6.66199195E-12 -9.35925408E-14
  1.25201729E-02  1.12650738E-02 -6.41351165E-14 -3.28814861E-13 -5.48950886E-12
  3.19830483E-13 -1.25201799E-02 -1.12650801E-02 -6.40613159E-15 -1.18520723E-14
  2.08703439E-14 -1.28606921E-01  1.42935431E-01 -1.88103588E-14 -5.35232761E-14
 -2.07198609E-01  2.30283270E-01  5.68422532E-13 -1.55522238E-13 -2.00835810E-01
  2.23211873E-01  5.36837783E-13 -3.08057736E-13 -3.45802976E-02  3.84329624E-02
 -2.50331547E-14 -1.11436104E-02  8.13191008E-16  4.90407592E-14  1.00265083E-02
  6.22133639E-15  3.41170729E-14  1.76111953E-13 -1.28606331E-01  1.42934775E-01
 -2.23974190E-13 -2.52052692E-13 -2.07197661E-01  2.30282215E-01  2.25916270E-13
  2.62648464E-13 -2.00834924E-01  2.23210888E-01  1.02561438E-12  8.72505096E-13
 -3.45801175E-02  3.84327620E-02  1.01679793E-13  1.11435599E-02  9.24354566E-15
 -1.92712871E-13 -1.00264629E-02 -3.30521709E-14  8.06876837E-15 -9.60688558E-13
 -1.31860427E-13 -1.07702262E-02  1.19701598E-02 -9.90434809E-14  1.26277830E-12
 -2.19157461E-12 -3.19849569E-13 -1.07701849E-02  1.19701138E-02  5.20707624E-15
  7.69070151E-15 -9.82065331E-15 -1.32907848E-01  1.47715541E-01 -9.49445339E-14
 -4.05953150E-14 -2.14362885E-01  2.38245744E-01  6.70752314E-13 -4.37047948E-13
 -2.04928616E-01  2.27760665E-01 -3.29710547E-13 -8.19707727E-13 -4.41153614E-02
  4.90303440E-02 -3.50806581E-14 -1.35954369E-02  1.02361864E-15  6.67922311E-14
  1.22325470E-02 -5.71692994E-15 -3.46443946E-14 -1.85257716E-13  1.32908398E-01
 -1.47716152E-01  2.51721821E-13  2.98617582E-13  2.14363773E-01 -2.38246731E-01
 -4.88723162E-13 -5.02664576E-13  2.04929500E-01 -2.27761647E-01 -4.61665076E-13
 -1.38004588E-12  4.41155241E-02 -4.90305249E-02 -1.00708401E-13 -1.35954938E-02
 -9.22282794E-15  1.91300161E-13  1.22325982E-02 -1.33065223E-14 -1.77647041E-14
 -1.16605542E-12 -1.41366199E-13 -1.15384730E-02  1.28240006E-02  1.02657088E-13
 -1.23575407E-12  2.56740773E-12  3.22524328E-13  1.15385289E-02 -1.28240626E-02
  2.99465078E-02  5.09270638E-02  3.54489908E-02  1.41616318E-14  1.57957888E-14
 -1.64045448E-01  8.13729792E-02 -1.13174973E-13 -6.72958453E-14 -4.83017221E-01
  9.84604581E-02  1.12605384E-13  6.76652962E-14  9.60974132E-01 -3.68930946E-01
  3.64827951E-14  5.42329687E-14  4.03844819E-03 -1.97242484E-14  2.10342181E-03
 -7.43996094E-03  1.97733735E-14  2.99464181E-02  5.09269143E-02 -3.54485204E-02
  1.29241293E-14  4.07773596E-14 -1.64044956E-01 -8.13723238E-02 -1.18534468E-13
  8.91118745E-14 -4.83015991E-01 -9.84592693E-02  1.09651752E-13  1.33569792E-13
  9.60974375E-01  3.68926991E-01  6.62233083E-14 -4.97394879E-13  4.03845190E-03
  2.72432102E-14  2.10341692E-03 -7.43996633E-03 -1.98503216E-14  4.86201733E-03
  1.52144304E-01 -1.51840301E-01 -5.14696279E-03  7.67637256E-14  1.18942308E-13
  4.86190722E-03  1.52143728E-01 -1.51840588E-01  5.14684450E-03  7.84233406E-14
  4.29722992E-14 -1.93171636E-02 -3.36401227E-02 -6.65515583E-02 -4.89946047E-14
  2.30663800E-16  1.25484843E-01 -1.15679275E-01  1.44217579E-13  1.35141079E-13
  2.02917676E-01 -1.39161007E-01 -2.55769130E-13 -7.53743396E-14 -1.43998668E-01
  1.04048620E+00  3.19014286E-14  4.70966260E-14 -4.64974336E-03 -1.71001078E-15
 -1.25145325E-03  8.31846788E-03 -1.84395615E-14  1.93172629E-02  3.36402955E-02
 -6.65514925E-02  4.16354114E-14  5.28941626E-14 -1.25485455E-01 -1.15679365E-01
 -1.56860998E-13  8.64101941E-14 -2.02918901E-01 -1.39160444E-01  2.28701260E-13
  9.53073454E-14  1.44003678E-01  1.04048791E+00  5.99038580E-14 -6.28453096E-13
  4.64978368E-03  1.50620107E-14  1.25146312E-03 -8.31853979E-03 -1.97335655E-14
  5.20593245E-03 -1.10470309E-01  2.48150672E-01  1.42865558E-02 -4.16748956E-14
 -9.71089354E-14 -5.20608566E-03  1.10470525E-01 -2.48153009E-01  1.42865330E-02
  4.31392679E-14  3.65045647E-14  1.16163030E-14  2.02339232E-14  4.39663278E-14
  6.19757781E-02 -6.88803555E-02 -4.52558861E-14  9.06893092E-14  7.33638675E-02
 -8.15371308E-02 -4.68943918E-13  3.89894951E-13  2.06116460E-01 -2.29079641E-01
 -6.63176222E-13  1.87548257E-13 -4.74460775E-01  5.27319272E-01 -1.69460283E-15
  7.82330472E-03 -8.49374069E-16 -2.34985221E-16 -7.03905976E-03  3.05901301E-14
  3.98048437E-14 -2.34190908E-13  6.19757485E-02 -6.88803226E-02 -2.24104542E-14
 -4.19330964E-14  7.33638347E-02 -8.15370943E-02 -1.46517094E-12 -1.31733650E-12
  2.06116374E-01 -2.29079544E-01 -1.73861486E-12 -6.29066329E-13 -4.74460391E-01
  5.27318845E-01 -5.29904591E-14 -7.82331201E-03 -4.63080028E-15  9.88068519E-14
  7.03906632E-03  4.87810700E-14  8.08075698E-14  1.19985017E-12  3.67416251E-14
  2.45764239E-04 -2.73142701E-04  1.43245588E-13 -3.81321154E-13  4.23026084E-12
  1.63629224E-13  2.45776448E-04 -2.73156269E-04 -2.16163212E-14 -2.69121603E-14
 -2.86819447E-13 -6.37658368E-02 -5.73739742E-02 -3.92562549E-14 -1.61460126E-13
 -6.71431944E-02 -6.04127614E-02  1.67560087E-12 -1.89238916E-12 -2.15335305E-01
 -1.93750357E-01  2.80716033E-12 -6.85876678E-13  5.28035627E-01  4.75105445E-01
  4.25868459E-14  6.58855092E-03  9.88120725E-16 -7.40750851E-14  7.32252342E-03
 -7.54307809E-15 -1.25830995E-14  1.40446843E-13 -6.37658030E-02 -5.73739439E-02
 -1.33748578E-14  1.97660452E-13 -6.71431625E-02 -6.04127327E-02  8.63502054E-13
  1.13770158E-12 -2.15335204E-01 -1.93750266E-01  1.80983585E-12  2.49839654E-13
  5.28035231E-01  4.75105089E-01  3.74752682E-15 -6.58855751E-03  5.82277294E-15
  1.13718921E-15 -7.32253074E-03 -1.63077095E-13  1.69277357E-14 -5.28877032E-12
  1.21871306E-13  7.76559482E-04  6.98717572E-04 -8.17788550E-14 -3.17410655E-13
 -2.75841332E-12  2.57881402E-14  7.76546365E-04  6.98705771E-04 -6.41925723E-03
 -1.06580274E-02  1.01300605E-01 -3.40127530E-13 -1.12368704E-14  3.61473401E-02
  1.06278995E-01  1.53515969E-13  3.42489462E-13 -6.85341043E-03  5.81089863E-01
 -1.55275268E-12 -2.09085795E-13 -4.92811954E-01 -5.57942633E-01  2.20607524E-12
 -1.22508265E-12 -2.00839046E-03 -4.11534619E-14 -1.62261154E-03  3.82198993E-03
 -1.29767131E-14 -6.41925217E-03 -1.06580183E-02 -1.01300299E-01 -2.50070354E-13
 -1.91919669E-13  3.61472867E-02 -1.06278602E-01  2.75557429E-13 -2.38355864E-13
 -6.85354655E-03 -5.81088767E-01 -1.21159788E-12 -2.87634306E-13 -4.92807916E-01
  5.57943361E-01  1.05125801E-12  2.27956008E-12 -2.00835233E-03  1.38878946E-14
 -1.62260658E-03  3.82192284E-03  1.48407331E-14  1.53308694E-02  1.31779856E-01
  6.50721233E-01 -1.46766364E-02  1.26054032E-13  9.37206140E-14  1.53305846E-02
  1.31779482E-01  6.50718076E-01  1.46766111E-02  1.20300419E-13  5.29259914E-14
 -2.04336108E-14 -3.26076371E-14  2.35845194E-13  5.55286915E-02 -6.17159310E-02
  1.19138720E-13  2.79251073E-13  6.23096570E-02 -6.92522998E-02 -1.22024485E-13
  1.38653919E-12  2.11061026E-01 -2.34578692E-01 -1.47281365E-12 -1.08650791E-12
 -7.56755659E-01  8.41077441E-01  1.12886152E-14 -6.99166315E-04 -4.03253012E-15