Title Card Required                                                     
FOpt      UM062X                                                      6-311+G(d,p)        
Number of atoms                            I                4
Info1-9                                    I   N=           9
          14          14           0           0           0         100
           2          18        -502
Full Title                                 C   N=           2
Title Card Required     
Route                                      C   N=           8
#p opt UM062X/6-311+G** nosymm int=superfine SCF=(MaxCycle=2
00,NoVarAcc,noincfock) guess=read   
Charge                                     I                0
Multiplicity                               I                1
Number of electrons                        I               26
Number of alpha electrons                  I               13
Number of beta electrons                   I               13
Number of basis functions                  I               64
Number of independent functions            I               64
Number of point charges in /Mol/           I                0
Number of translation vectors              I                0
Atomic numbers                             I   N=           4
           8          16           1           1
Nuclear charges                            R   N=           4
  8.00000000E+00  1.60000000E+01  1.00000000E+00  1.00000000E+00
Current cartesian coordinates              R   N=          12
 -3.51679260E+00  0.00000000E+00  0.00000000E+00  3.51679260E+00  0.00000000E+00
  0.00000000E+00 -5.34754101E+00 -9.31048284E-04 -5.72310744E-04  6.06230123E+00
 -1.75990840E-03 -3.31131693E-03
Number of symbols in /Mol/                 I                0
Force Field                                I                0
Atom Types                                 C   N=           4
                                                
Int Atom Types                             I   N=           4
           0           0           0           0
MM charges                                 R   N=           4
  0.00000000E+00  0.00000000E+00  0.00000000E+00  0.00000000E+00
Integer atomic weights                     I   N=           4
          16          32           1           1
Real atomic weights                        R   N=           4
  1.59949146E+01  3.19720718E+01  1.00782504E+00  1.00782504E+00
Atom fragment info                         I   N=           4
           0           0           0           0
Atom residue num                           I   N=           4
           0           0           0           0
Nuclear spins                              I   N=           4
           0           0           1           1
Nuclear ZEff                               R   N=           4
 -5.60000000E+00 -1.36000000E+01 -1.00000000E+00 -1.00000000E+00
Nuclear ZNuc                               R   N=           4
  8.00000000E+00  1.60000000E+01  1.00000000E+00  1.00000000E+00
Nuclear QMom                               R   N=           4
  0.00000000E+00  0.00000000E+00  0.00000000E+00  0.00000000E+00
Nuclear GFac                               R   N=           4
  0.00000000E+00  0.00000000E+00  2.79284600E+00  2.79284600E+00
MicOpt                                     I   N=           4
          -2          -2          -1          -1
Number of residues                         I                0
Number of secondary structures             I                0
Redundant internal dimensions              I   N=           4
          12           8           4           0
Redundant internal coordinate indices      I   N=          48
           1          -1           0           0           1          -2
           0           0           1          -3           0           0
           2          -1           0           0           2          -2
           0           0           2          -3           0           0
           1           3           0           0           2           4
           0           0           2           1           3          -5
           1           2           4          -5           2           1
           3          -7           1           2           4          -7
Redundant internal coordinates             R   N=          12
 -3.51679260E+00  0.00000000E+00  0.00000000E+00  3.51679260E+00  0.00000000E+00
  0.00000000E+00  1.83074874E+00  2.54551139E+00  3.14108409E+00  3.14228403E+00
  3.14190526E+00  3.14029181E+00
ZRed-IntVec                                I   N=          12
          -1          -1          -1          -1          -1          -1
           0           0           0           0           0           0
ZRed-FPVec                                 R   N=          12
  0.00000000E+00  0.00000000E+00  0.00000000E+00  0.00000000E+00  0.00000000E+00
  0.00000000E+00  0.00000000E+00  0.00000000E+00  0.00000000E+00  0.00000000E+00
  0.00000000E+00  0.00000000E+00
ZRed-Constraint1                           R   N=          12
 -3.51679260E+00  0.00000000E+00  0.00000000E+00  3.51679260E+00  0.00000000E+00
  0.00000000E+00  1.83597177E+00  2.59721753E+00  3.14071774E+00  3.14233270E+00
  3.14159264E+00  3.14158686E+00
ZRed-Constraint2                           R   N=          12
 -3.51679260E+00  0.00000000E+00  0.00000000E+00  3.51679260E+00  0.00000000E+00
  0.00000000E+00  0.00000000E+00  0.00000000E+00  0.00000000E+00  0.00000000E+00
  0.00000000E+00  0.00000000E+00
Number of contracted shells                I               27
Number of primitive shells                 I               49
Pure/Cartesian d shells                    I                0
Pure/Cartesian f shells                    I                0
Highest angular momentum                   I                2
Largest degree of contraction              I                6
Shell types                                I   N=          27
           0          -1          -1          -1          -1          -2
           0           0           0           0           0           0
          -1           1           1           1           1           1
          -2           0           0           0           1           0
           0           0           1
Number of primitives per shell             I   N=          27
           6           3           1           1           1           1
           6           3           1           1           1           1
           1           4           2           1           1           1
           1           3           1           1           1           3
           1           1           1
Shell to atom map                          I   N=          27
           1           1           1           1           1           1
           2           2           2           2           2           2
           2           2           2           2           2           2
           2           3           3           3           3           4
           4           4           4
Primitive exponents                        R   N=          49
  8.58850000E+03  1.29723000E+03  2.99296000E+02  8.73771000E+01  2.56789000E+01
  3.74004000E+00  4.21175000E+01  9.62837000E+00  2.85332000E+00  9.05661000E-01
  2.55611000E-01  8.45000000E-02  1.29200000E+00  9.34134000E+04  1.39617000E+04
  3.16991000E+03  9.02456000E+02  2.97158000E+02  1.08702000E+02  1.08702000E+02
  4.31553000E+01  1.81079000E+01  5.56009000E+00  2.13183000E+00  4.20403000E-01
  1.36045000E-01  4.05000000E-02  4.95040000E+02  1.17221000E+02  3.77749000E+01
  1.40584000E+01  5.56574000E+00  2.26297000E+00  8.07994000E-01  2.77460000E-01
  7.71410000E-02  6.50000000E-01  3.38650000E+01  5.09479000E+00  1.15879000E+00
  3.25840000E-01  1.02741000E-01  7.50000000E-01  3.38650000E+01  5.09479000E+00
  1.15879000E+00  3.25840000E-01  1.02741000E-01  7.50000000E-01
Contraction coefficients                   R   N=          49
  1.89515008E-03  1.43859006E-02  7.07320031E-02  2.40001011E-01  5.94797026E-01
  2.80802012E-01  1.13889012E-01  9.20811101E-01 -3.27447036E-03  1.00000000E+00
  1.00000000E+00  1.00000000E+00  1.00000000E+00  7.42999957E-04  5.79299966E-03
  2.99539983E-02  1.19027993E-01  3.68431979E-01  5.77298966E-01  1.43186060E-01
  6.24465262E-01  2.83366119E-01  1.00000000E+00  1.00000000E+00  1.00000000E+00
  1.00000000E+00  1.00000000E+00  8.30900251E-03  6.40240194E-02  2.77614084E-01
  7.45076225E-01  6.13711672E-01  4.43817763E-01  1.00000000E+00  1.00000000E+00
  1.00000000E+00  1.00000000E+00  2.54938145E-02  1.90373109E-01  8.52161486E-01
  1.00000000E+00  1.00000000E+00  1.00000000E+00  2.54938145E-02  1.90373109E-01
  8.52161486E-01  1.00000000E+00  1.00000000E+00  1.00000000E+00
P(S=P) Contraction coefficients            R   N=          49
  0.00000000E+00  0.00000000E+00  0.00000000E+00  0.00000000E+00  0.00000000E+00
  0.00000000E+00  3.65113974E-02  2.37152983E-01  8.19701941E-01  1.00000000E+00
  1.00000000E+00  1.00000000E+00  0.00000000E+00  0.00000000E+00  0.00000000E+00
  0.00000000E+00  0.00000000E+00  0.00000000E+00  0.00000000E+00  0.00000000E+00
  0.00000000E+00  0.00000000E+00  0.00000000E+00  0.00000000E+00  0.00000000E+00
  0.00000000E+00  1.00000000E+00  0.00000000E+00  0.00000000E+00  0.00000000E+00
  0.00000000E+00  0.00000000E+00  0.00000000E+00  0.00000000E+00  0.00000000E+00
  0.00000000E+00  0.00000000E+00  0.00000000E+00  0.00000000E+00  0.00000000E+00
  0.00000000E+00  0.00000000E+00  0.00000000E+00  0.00000000E+00  0.00000000E+00
  0.00000000E+00  0.00000000E+00  0.00000000E+00  0.00000000E+00
Coordinates of each shell                  R   N=          81
 -3.51679260E+00  0.00000000E+00  0.00000000E+00 -3.51679260E+00  0.00000000E+00
  0.00000000E+00 -3.51679260E+00  0.00000000E+00  0.00000000E+00 -3.51679260E+00
  0.00000000E+00  0.00000000E+00 -3.51679260E+00  0.00000000E+00  0.00000000E+00
 -3.51679260E+00  0.00000000E+00  0.00000000E+00  3.51679260E+00  0.00000000E+00
  0.00000000E+00  3.51679260E+00  0.00000000E+00  0.00000000E+00  3.51679260E+00
  0.00000000E+00  0.00000000E+00  3.51679260E+00  0.00000000E+00  0.00000000E+00
  3.51679260E+00  0.00000000E+00  0.00000000E+00  3.51679260E+00  0.00000000E+00
  0.00000000E+00  3.51679260E+00  0.00000000E+00  0.00000000E+00  3.51679260E+00
  0.00000000E+00  0.00000000E+00  3.51679260E+00  0.00000000E+00  0.00000000E+00
  3.51679260E+00  0.00000000E+00  0.00000000E+00  3.51679260E+00  0.00000000E+00
  0.00000000E+00  3.51679260E+00  0.00000000E+00  0.00000000E+00  3.51679260E+00
  0.00000000E+00  0.00000000E+00 -5.34754101E+00 -9.31048284E-04 -5.72310744E-04
 -5.34754101E+00 -9.31048284E-04 -5.72310744E-04 -5.34754101E+00 -9.31048284E-04
 -5.72310744E-04 -5.34754101E+00 -9.31048284E-04 -5.72310744E-04  6.06230123E+00
 -1.75990840E-03 -3.31131693E-03  6.06230123E+00 -1.75990840E-03 -3.31131693E-03
  6.06230123E+00 -1.75990840E-03 -3.31131693E-03  6.06230123E+00 -1.75990840E-03
 -3.31131693E-03
Num ILSW                                   I              100
ILSW                                       I   N=         100
           1           0           0           1           0           0
           0           0           0           0        4336          -1
           7           0           0           0           0           0
           0           0           0           0           1           0
           1           1           0           0           0           0
           0           0      100000           0          -1           0
           0           0           0           0           0           0
           0           0           0           1           0           0
           0 -2000000000           1           0           0           0
           0           0           4          52           0           0
           0           0          55           0           0           0
           0           0           0           4           0           1
           0           0           0           0           0           0
           0           0           0           0           0           0
           0           0           0           0           0           0
           0           0           0           0           0           0
           0           0           0           0
Num RLSW                                   I               52
RLSW                                       R   N=          52
  1.00000000E+00  1.00000000E+00  1.00000000E+00  1.00000000E+00  5.40000000E-01
  0.00000000E+00  0.00000000E+00  1.00000000E+00  0.00000000E+00  0.00000000E+00
  0.00000000E+00  0.00000000E+00  1.00000000E+00  0.00000000E+00  0.00000000E+00
  0.00000000E+00  0.00000000E+00  1.00000000E+00  0.00000000E+00  0.00000000E+00
  0.00000000E+00  0.00000000E+00  1.00000000E+00  0.00000000E+00  0.00000000E+00
  0.00000000E+00  0.00000000E+00  1.00000000E+00  0.00000000E+00  0.00000000E+00
  0.00000000E+00  0.00000000E+00  1.00000000E+00  0.00000000E+00  0.00000000E+00
  0.00000000E+00  0.00000000E+00  0.00000000E+00  1.00000000E+00  1.00000000E+00
  0.00000000E+00  1.00000000E+00  0.00000000E+00  0.00000000E+00  0.00000000E+00
  0.00000000E+00  0.00000000E+00  0.00000000E+00  0.00000000E+00  0.00000000E+00
  0.00000000E+00  0.00000000E+00
MxBond                                     I                2
NBond                                      I   N=           4
           2           2           1           1
IBond                                      I   N=           8
           2           3           1           4           1           0
           2           0
RBond                                      R   N=           8
  1.00000000E-01  1.00000000E+00  1.00000000E-01  1.00000000E+00  1.00000000E+00
  0.00000000E+00  1.00000000E+00  0.00000000E+00
Virial Ratio                               R      2.001356194553726E+00
SCF Energy                                 R     -4.743368742910400E+02
Total Energy                               R     -4.743368742910400E+02
S**2                                       R      9.428902103536529E-12
S**2 after annihilation                    R      1.474376176709171E-13
RMS Force                                  R      2.451996795993491E-04
RMS Density                                R      3.549301768411451E-10
Job Status                                 I                3
Nuclear derivative order                   I                1
External E-field                           R   N=          35
  0.00000000E+00  0.00000000E+00  0.00000000E+00  0.00000000E+00  0.00000000E+00
  0.00000000E+00  0.00000000E+00  0.00000000E+00  0.00000000E+00  0.00000000E+00
  0.00000000E+00  0.00000000E+00  0.00000000E+00  0.00000000E+00  0.00000000E+00
  0.00000000E+00  0.00000000E+00  0.00000000E+00  0.00000000E+00  0.00000000E+00
  0.00000000E+00  0.00000000E+00  0.00000000E+00  0.00000000E+00  0.00000000E+00
  0.00000000E+00  0.00000000E+00  0.00000000E+00  0.00000000E+00  0.00000000E+00
  0.00000000E+00  0.00000000E+00  0.00000000E+00  0.00000000E+00  0.00000000E+00
IOpCl                                      I                1
IROHF                                      I                0
Alpha Orbital Energies                     R   N=          64
 -8.99639849E+01 -1.96507625E+01 -8.32644196E+00 -6.24817145E+00 -6.24502766E+00
 -6.23916042E+00 -1.06862529E+00 -8.29855441E-01 -5.12447166E-01 -4.85762280E-01
 -3.82324450E-01 -3.48283863E-01 -3.07711867E-01 -2.37274358E-01  1.56433269E-02
  5.15898236E-02  5.49990072E-02  5.79220747E-02  7.34299245E-02  1.15902996E-01
  1.99525077E-01  2.03296730E-01  2.33191782E-01  2.79573946E-01  3.39024883E-01
  3.47967990E-01  3.66323265E-01  4.50584707E-01  5.61758855E-01  6.19968030E-01
  7.05416502E-01  7.24563503E-01  7.88353156E-01  7.94150890E-01  9.69186360E-01
  1.07998633E+00  1.08982607E+00  1.09773929E+00  1.40303792E+00  1.40472973E+00
  1.40986516E+00  1.45093789E+00  1.46034157E+00  1.66867157E+00  1.67141819E+00
  1.69555238E+00  2.08031086E+00  2.09663509E+00  2.49397909E+00  2.52911065E+00
  2.89164976E+00  2.90167049E+00  3.18038546E+00  3.20316961E+00  3.87188047E+00
  5.02410479E+00  5.05949194E+00  5.56928700E+00  7.84172984E+00  1.74191164E+01
  1.74191896E+01  1.74919022E+01  4.98899636E+01  1.89106160E+02
Beta Orbital Energies                      R   N=          64
 -8.99639849E+01 -1.96507625E+01 -8.32644196E+00 -6.24817142E+00 -6.24502766E+00
 -6.23916043E+00 -1.06862536E+00 -8.29855408E-01 -5.12447201E-01 -4.85762267E-01
 -3.82324542E-01 -3.48283886E-01 -3.07711932E-01 -2.37274349E-01  1.56433193E-02
  5.15898184E-02  5.49989912E-02  5.79220696E-02  7.34299214E-02  1.15902981E-01
  1.99525088E-01  2.03296663E-01  2.33191773E-01  2.79573938E-01  3.39024873E-01
  3.47967985E-01  3.66323262E-01  4.50584698E-01  5.61758841E-01  6.19968051E-01
  7.05416557E-01  7.24563518E-01  7.88353183E-01  7.94150952E-01  9.69186378E-01
  1.07998631E+00  1.08982602E+00  1.09773928E+00  1.40303790E+00  1.40472970E+00
  1.40986516E+00  1.45093791E+00  1.46034157E+00  1.66867171E+00  1.67141819E+00
  1.69555241E+00  2.08031085E+00  2.09663510E+00  2.49397909E+00  2.52911065E+00
  2.89164972E+00  2.90167042E+00  3.18038541E+00  3.20316958E+00  3.87188043E+00
  5.02410472E+00  5.05949186E+00  5.56928697E+00  7.84172984E+00  1.74191165E+01
  1.74191896E+01  1.74919022E+01  4.98899636E+01  1.89106160E+02
Alpha MO coefficients                      R   N=        4096
 -4.63407926E-07  2.35639809E-06  1.22820476E-06  2.38867156E-09  4.20885359E-09
 -1.72696761E-05 -4.89719719E-06 -9.31452018E-09 -1.46039704E-08  8.21956150E-05
 -1.33523248E-05  1.04166940E-08  2.91092449E-08 -1.29387961E-04 -5.98800415E-05
 -2.66471340E-08 -5.20303968E-08 -1.65669664E-06  1.58662792E-09  4.55864124E-09
  2.80980051E-06  3.19239018E-09  4.10785576E-01  6.54411325E-01  1.53540039E-02
 -4.35247279E-03  1.62630956E-03 -9.76940460E-04  1.64650453E-04 -6.07800603E-05
  3.62026555E-10 -1.32033211E-10  8.22898840E-05 -5.84572465E-08 -9.73679593E-08
 -2.47098015E-05  1.83343583E-08  3.12404004E-08 -1.46929906E-05  6.75855455E-09
  1.47796413E-08  2.03047758E-04 -1.33070393E-07 -2.51530221E-07 -2.39829530E-04
  1.65037486E-07  3.11534938E-07 -5.11051500E-05 -2.09101182E-07  8.32847090E-07
  7.75899620E-05 -1.02718719E-07  9.16550084E-07 -3.32177389E-05  1.12885620E-05
 -9.58706992E-06 -8.30801899E-09 -4.05367886E-09  3.63723752E-05 -2.63357275E-04
  4.12785733E-04  1.74890123E-04 -1.18779057E-07 -2.23455215E-07  5.52850741E-01
  4.69689743E-01 -1.25217407E-03 -5.27912024E-07 -3.67515038E-07  8.02825750E-03
  1.67316693E-04  2.02927186E-08  4.68728625E-08 -2.89322067E-03 -4.72376383E-04
 -1.62062301E-07 -1.50356263E-07  1.25086786E-03  7.32551307E-04  2.07590341E-07
  1.97922868E-07 -6.34986448E-05  8.51885510E-08 -3.62948167E-06  1.57368845E-04
  1.61860103E-07 -1.00403954E-07  1.84575778E-06 -1.50887165E-05  3.45537024E-05
 -1.11656040E-04  4.46721331E-04 -1.68316263E-04  3.63367697E-04 -5.73320571E-08
 -6.91179917E-08 -4.54404490E-07 -1.25541139E-09 -9.69072710E-10  1.93543752E-06
  4.88748003E-10  3.84756776E-09 -6.40170699E-06 -4.97204395E-09 -1.37983508E-08
 -1.36925945E-05  1.75476372E-08  2.58181575E-08  4.19428129E-04 -2.22785740E-07
 -4.41336837E-07  4.35568502E-06 -5.25893004E-08 -2.05364769E-07 -4.85449449E-06
 -2.94210119E-08  6.08904036E-05 -2.37653345E-04  3.76314791E-04 -4.84820438E-04
 -2.32683210E-07 -1.46437249E-07 -2.04312696E-05  9.38331782E-05 -6.86434995E-04
  2.15147136E-05 -3.34926290E-08 -6.36633461E-08  3.61022063E-06  2.08925439E-05
  1.40899192E-05  2.96625632E-08  3.99634252E-08 -2.16650531E-04 -6.11731958E-05
 -7.87073537E-08 -1.62367454E-07  1.00687792E-03 -1.14243021E-04  1.46260432E-07
  3.89385103E-07 -1.88073854E-03 -7.00634387E-04 -2.84589481E-07 -6.69818625E-07
 -1.28997319E-05  1.33521875E-08 -2.43732721E-07  2.55350823E-05  3.06204499E-08
 -1.19754393E-01 -3.20465320E-01  5.15948188E-01  5.98962047E-01  4.31776170E-02
 -1.59116228E-02  2.75986804E-03 -9.10696590E-04  1.33914929E-08  3.87516412E-08
  2.10280130E-03 -1.48825849E-06 -2.40734028E-06  4.77751060E-03 -3.37606228E-06
 -5.40541777E-06  3.80538328E-04 -2.92890904E-07 -4.77625761E-07  2.20479811E-03
 -1.45296295E-06 -2.75594081E-06 -2.96555292E-03  2.11089081E-06  3.97661348E-06
 -1.03654249E-03 -3.06323204E-06  8.89741183E-05  6.26518322E-04 -7.04604263E-07
  7.81310199E-06 -3.50685685E-04  3.02476077E-04 -9.30981520E-05 -8.37645151E-08
 -4.12630431E-08  2.72193641E-04 -2.65572755E-03  5.31463240E-03  1.67985571E-03
 -1.13821978E-06 -2.13313971E-06  9.67449936E-10  5.41105748E-09  1.47200729E-08
 -4.16057989E-06 -3.14950837E-07 -3.10138895E-08 -5.58986618E-08  2.76274942E-05
  2.09532501E-06 -1.40344905E-07  2.72676024E-07 -5.73323637E-05 -4.34575009E-06
 -8.70706444E-07  7.95573539E-07  9.31099758E-05  7.05977188E-06  9.73830554E-09
 -6.65845026E-08  6.07519596E-10 -1.96808536E-08 -8.79339075E-07  1.74659188E-08
  4.85669179E-08 -9.53911909E-08 -6.35271545E-08 -2.59795250E-08  2.39756128E-07
  8.54885872E-08 -2.02919338E-06 -2.33030249E-03 -1.76717569E-04  3.07439120E-04
  3.77752887E-01  2.86372254E-02  5.75340782E-04  7.06959068E-01  5.35941485E-02
  4.46099364E-05  5.47249236E-02  4.14855496E-03 -6.32338058E-06 -7.48911348E-03
 -5.67903830E-04  4.32895600E-06  4.38026331E-03  3.32172250E-04 -1.01099215E-07
  4.48889488E-05 -7.12443185E-07  8.78871802E-07  5.94201976E-04 -2.37481150E-08
  2.64218534E-07  1.01110284E-06  6.19392833E-08  5.04509029E-06  3.82518902E-07
  5.62825671E-09  1.11944148E-07 -6.29347614E-07  5.10989375E-08  7.11426232E-05
  5.41967870E-06  4.10326500E-07  1.98186993E-06  6.86087201E-06 -8.83982133E-09
 -7.96130734E-09  1.04018219E-05 -1.23261548E-05  3.12343773E-08  3.84255922E-08
 -3.23808834E-04  1.34182725E-04 -2.48727665E-08 -7.65200004E-08 -1.58795650E-03
  1.81616595E-03  6.97184661E-07  5.45628295E-07  1.23073304E-05 -1.70398407E-08
  6.57417739E-08 -2.21777365E-05 -3.25251432E-08  8.26276084E-04  2.23707263E-03
 -3.96876118E-03 -3.98033332E-03  6.28021535E-04  8.90423936E-04  3.88906187E-04
 -2.08096539E-03  1.30060724E-06  2.47402771E-06  3.79402621E-01 -2.71433099E-04
 -4.92491886E-04  7.08876920E-01 -5.07174999E-04 -9.20163424E-04  5.41348106E-02
 -3.86598949E-05 -7.02411034E-05 -7.37165103E-03  5.07941784E-06  9.21926172E-06
  5.74786866E-03 -3.53750406E-06 -6.49089152E-06 -4.26083929E-04 -1.84254292E-06
  5.41527934E-06  6.65040748E-04 -9.62372755E-07 -7.15259831E-06  1.58124260E-04
  2.34920196E-03  9.56100583E-05  1.07191690E-07  5.72716074E-08  5.39884986E-04
  2.34719919E-04 -2.23243716E-03  6.56052571E-04 -4.74741658E-07 -9.04561408E-07
  1.58036529E-09  8.43848541E-09  2.07697258E-08  4.17390448E-07 -5.50905034E-06
 -4.75951095E-08 -7.00617188E-08 -1.74956513E-06  2.30763731E-05 -2.07021300E-07
  3.93779328E-07  4.20725325E-06 -5.55030640E-05 -1.35914687E-06  1.20538692E-06
 -6.47441931E-06  8.54192530E-05  1.70914661E-08 -1.24018096E-06  1.04402550E-09
 -2.99981949E-08  9.38882763E-08  1.29620428E-07  3.64082050E-07 -7.37522085E-07
 -3.81989567E-07 -1.97403391E-07  3.71162399E-07  1.12166371E-07 -2.87609198E-06
  1.62725749E-04 -2.14726829E-03  4.71598031E-04 -2.87428842E-02  3.79142409E-01
  8.79608591E-04 -5.36092854E-02  7.07150728E-01  6.45424924E-05 -3.93243744E-03
  5.18706717E-02 -9.05818412E-06  5.28509944E-04 -6.97360566E-03  6.15767054E-06
 -3.06339129E-04  4.04228857E-03 -1.00553684E-06  4.86908313E-04 -3.01133513E-07
  5.09452000E-07 -3.70650985E-05 -3.00520926E-08  3.76749278E-07  1.59038593E-06
  1.05237978E-07 -3.69916262E-07  4.88245583E-06 -1.84730971E-08  2.34122576E-07
 -9.16848048E-07  2.71490024E-08 -6.72247250E-06  8.90221437E-05 -1.18450996E-01
 -1.95251715E-01 -4.70590730E-02 -2.37773351E-05 -1.44548615E-05  5.72699764E-01
 -7.57694767E-02 -3.75401616E-05 -2.32176373E-05  4.17332961E-01 -2.36989732E-02
 -1.36305521E-05 -6.91013052E-06 -5.19965154E-04 -9.93984186E-03 -2.63889621E-06
 -2.43531293E-06 -8.91092153E-03  6.44569477E-06  7.07364445E-04  6.19091778E-03
  6.27929878E-06 -6.84200606E-06 -2.56430911E-05  1.05920058E-04 -1.22791653E-04
  1.18786343E-03 -6.83427518E-03  1.77427811E-03 -5.13141940E-03  3.44639931E-07
  7.63550877E-07  6.20549801E-05 -2.36213265E-07 -2.00271869E-08  1.23002259E-04
 -4.67341921E-07 -6.25133325E-08 -1.97890581E-04  7.00951956E-07  1.82632082E-07
  3.30202646E-04  1.22987597E-06 -2.93195166E-07 -7.06518739E-03  4.67107443E-06
  7.39970777E-06  6.83168184E-05  3.49277068E-07 -2.69062401E-05  2.34054294E-04
 -8.18003090E-08  1.11067738E-01  9.42722665E-02 -4.17348111E-03  2.65649790E-02
  1.33987199E-05  8.23648801E-06  1.09379170E-04 -1.24728656E-03  1.06390718E-02
 -1.50355691E-04  2.37386106E-07  4.16683717E-07  1.16911019E-05 -5.59159247E-06
  5.93066928E-04  2.20450067E-06  1.44779195E-07  4.54238737E-04  1.32360066E-03
  3.56869283E-06  6.98622446E-07 -2.52647778E-03  4.97656353E-05  2.38578555E-06
 -1.22166679E-06  7.12769706E-03  2.89198774E-03  1.99719055E-06  2.73135515E-06
  3.94707992E-05 -2.37742076E-08 -1.27448394E-05  9.85114701E-05  3.12188888E-09
  3.32285284E-02  9.44145807E-02 -1.98065302E-01 -3.66698939E-01  6.62797536E-01
  4.11027117E-01 -1.23162387E-02  5.16934416E-03 -1.27418315E-06 -2.21843640E-06
 -1.78943978E-02  1.21425422E-05  2.26555189E-05 -3.57171704E-02  2.42699199E-05
  4.52481240E-05  4.91884362E-02 -3.35692290E-05 -6.28922543E-05  6.83446799E-02
 -4.58694472E-05 -8.41657854E-05  1.56398492E-02 -9.37884382E-06 -1.74117143E-05
 -2.02089070E-02 -6.28998811E-05  1.64195799E-03  1.34309481E-02 -1.66728433E-05
 -3.88223106E-04 -3.32900121E-04 -9.98842718E-04 -2.50433031E-05  1.92953696E-07
  4.77941709E-08  1.02493662E-01  1.37568591E-01 -3.05690200E-03 -2.34577691E-02
  1.61705664E-05  3.04071008E-05 -3.84340188E-02 -6.43499481E-02  2.46232564E-01
  1.21076100E-04  7.72554611E-05  1.95533223E-01  3.54496749E-01  1.74684980E-04
  1.11274974E-04  2.81332342E-01  2.43599048E-01  1.17710990E-04  7.67807997E-05
  7.01343655E-02  1.53223033E-02  7.51790491E-06  6.27543554E-06  8.11376923E-03
 -9.58268108E-06  2.17814099E-04 -1.68995944E-02 -1.67119648E-05  1.85861062E-03
  5.31102714E-03 -1.14253390E-02 -2.07993296E-02  3.82264855E-02  4.24856949E-02
  5.56846788E-03 -1.65523581E-04 -9.24887315E-07 -2.29586596E-06  1.43200501E-02
 -9.27455250E-06 -1.53437968E-05  2.77884293E-02 -1.80320083E-05 -2.99541654E-05
 -3.95423030E-02  2.60450473E-05  4.32950623E-05 -7.18462136E-02  4.64028206E-05
  7.37616891E-05 -2.30635720E-02  1.25181739E-05  2.09038939E-05  3.51380923E-03
  1.91271184E-05  8.85051623E-05 -7.24570207E-03  1.13131463E-05 -1.63797241E-01
 -2.51463122E-01 -9.66561650E-02 -2.83030015E-02 -1.44216895E-05 -8.97672940E-06
 -2.69432572E-02 -4.82939383E-02 -1.54136670E-02  4.30560219E-03 -2.90738060E-06
 -5.94543399E-06 -8.12574720E-03 -1.36553158E-02  4.64291159E-02  2.13532454E-05
  1.63440275E-05  4.22412373E-02  6.76923420E-02  3.11617504E-05  2.39241585E-05
  5.66618084E-02  3.92347735E-02  1.65648678E-05  1.44907279E-05 -9.19619069E-03
  3.67379745E-02  1.49354583E-05  1.07479962E-05  1.46821681E-03 -1.82176785E-06
  5.80159777E-05 -3.30139269E-03 -3.06426505E-06 -1.27961832E-02 -3.65388385E-02
  7.83603474E-02  1.44253447E-01 -2.67408624E-01 -3.05759975E-01 -3.04231904E-02
 -1.69058865E-02  1.25478165E-05  2.75797894E-05 -8.04875855E-02  5.66578878E-05
  1.08010170E-04 -1.56922468E-01  1.10347377E-04  2.10354161E-04  2.29367608E-01
 -1.60485945E-04 -3.06110548E-04  3.93084593E-01 -2.79641609E-04 -5.34047359E-04
  1.03830850E-01 -7.16420210E-05 -1.40231444E-04 -2.23598355E-02 -1.11645166E-04
 -8.11510291E-04  4.93654034E-02 -6.83239905E-05 -3.07308890E-02 -5.54833743E-02
  2.28971718E-02 -5.67013846E-03 -2.96700425E-06 -1.54695792E-06  1.55328956E-01
  2.89693557E-01  1.41072454E-01 -2.63309024E-02  1.82677427E-05  3.42911067E-05
  2.39189402E-07  4.09924954E-07 -8.32560706E-05 -2.30001791E-02  3.02291103E-01
 -1.55293377E-06 -1.22312637E-04 -3.37450060E-02  4.43511679E-01 -6.85212698E-07
 -1.10004310E-04 -3.06648432E-02  4.03029518E-01  4.73691048E-06 -2.88215559E-05
 -7.04138728E-03  9.25419220E-02 -7.42093313E-06 -1.41777854E-02 -6.58064278E-06
  3.40340494E-06  1.07874930E-03  1.89613630E-07  5.32385425E-07 -1.06373441E-06
 -2.44570095E-06  5.70492993E-06 -1.42893390E-06  5.40633307E-07  4.94491202E-07
  1.59510630E-04 -2.10372725E-03 -4.00316144E-06  2.79111769E-04 -3.68014905E-03
 -7.54539654E-06  5.35138544E-04 -7.05584023E-03  1.00689822E-05 -7.66675769E-04
  1.01092304E-02  2.71631605E-05 -1.66294821E-03  2.19265046E-02  8.01094904E-07
 -8.27606294E-04  1.09141751E-02 -1.06834183E-06  7.87644258E-05 -3.26719496E-07
  1.07750153E-08 -5.93001252E-06  1.55763816E-07  6.63655022E-07 -5.02164357E-06
 -9.92769885E-06 -2.74320885E-03  3.60542552E-02 -7.42446268E-07 -2.02337150E-06
  6.94938658E-06  1.22440487E-06 -5.22502720E-05  6.89348376E-04 -4.44953971E-06
 -7.64167013E-06  1.89109728E-05  9.92636932E-04 -1.29728066E-02  2.63945409E-05
  3.07428821E-05  1.47322698E-03 -1.92522468E-02  1.83452693E-05 -4.22760759E-06
  1.25428377E-03 -1.63792350E-02 -1.06358607E-04  1.66541350E-04  5.29465638E-04
 -6.93397755E-03  7.40580776E-07  7.71939043E-04  3.55186574E-07 -1.36408096E-06
 -5.89664255E-05 -9.98784871E-07 -2.80695780E-06  5.60675095E-06  1.32935135E-05
 -3.65493250E-05  3.45825779E-05  1.24927183E-06 -5.22152138E-05  4.34792506E-03
 -5.73666624E-02 -1.30345716E-04  7.78819570E-03 -1.02753770E-01 -2.51636923E-04
  1.50030974E-02 -1.97940235E-01  3.73034303E-04 -2.20397228E-02  2.90766564E-01
  7.46355238E-04 -4.55952354E-02  6.01582760E-01  4.94622469E-04 -2.52366170E-02
  3.32996487E-01 -4.10566335E-05  1.94962972E-02 -1.12518780E-05  2.57468826E-05
 -1.48043799E-03 -9.90852925E-06 -4.16554726E-05  1.92377988E-04 -1.77225489E-06
  1.28046778E-04 -1.67466366E-03  3.39107325E-06  1.94036281E-05 -8.06094363E-05
  2.71313100E-05 -1.70607902E-03  2.25108917E-02 -8.88176717E-07 -1.57142698E-06
  1.18564612E-04 -2.18812408E-01 -1.66478663E-02  5.90772776E-06  1.79945681E-04