 Entering Gaussian System, Link 0=g16
 Initial command:
 /home/szhao/Apps/g16/l1.exe "/home/szhao/tmp/Gau-181421.inp" -scrdir="/home/szhao/tmp/"
 Default is to use a total of  16 processors:
                               16 via shared-memory
                                1 via Linda
 Entering Link 1 = /home/szhao/Apps/g16/l1.exe PID=    181423.
  
 Copyright (c) 1988,1990,1992,1993,1995,1998,2003,2009,2016,
            Gaussian, Inc.  All Rights Reserved.
  
 This is part of the Gaussian(R) 16 program.  It is based on
 the Gaussian(R) 09 system (copyright 2009, Gaussian, Inc.),
 the Gaussian(R) 03 system (copyright 2003, Gaussian, Inc.),
 the Gaussian(R) 98 system (copyright 1998, Gaussian, Inc.),
 the Gaussian(R) 94 system (copyright 1995, Gaussian, Inc.),
 the Gaussian 92(TM) system (copyright 1992, Gaussian, Inc.),
 the Gaussian 90(TM) system (copyright 1990, Gaussian, Inc.),
 the Gaussian 88(TM) system (copyright 1988, Gaussian, Inc.),
 the Gaussian 86(TM) system (copyright 1986, Carnegie Mellon
 University), and the Gaussian 82(TM) system (copyright 1983,
 Carnegie Mellon University). Gaussian is a federally registered
 trademark of Gaussian, Inc.
  
 This software contains proprietary and confidential information,
 including trade secrets, belonging to Gaussian, Inc.
  
 This software is provided under written license and may be
 used, copied, transmitted, or stored only in accord with that
 written license.
  
 The following legend is applicable only to US Government
 contracts under FAR:
  
                    RESTRICTED RIGHTS LEGEND
  
 Use, reproduction and disclosure by the US Government is
 subject to restrictions as set forth in subparagraphs (a)
 and (c) of the Commercial Computer Software - Restricted
 Rights clause in FAR 52.227-19.
  
 Gaussian, Inc.
 340 Quinnipiac St., Bldg. 40, Wallingford CT 06492
  
  
 ---------------------------------------------------------------
 Warning -- This program may not be used in any manner that
 competes with the business of Gaussian, Inc. or will provide
 assistance to any competitor of Gaussian, Inc.  The licensee
 of this program is prohibited from giving any competitor of
 Gaussian, Inc. access to this program.  By using this program,
 the user acknowledges that Gaussian, Inc. is engaged in the
 business of creating and licensing software in the field of
 computational chemistry and represents and warrants to the
 licensee that it is not a competitor of Gaussian, Inc. and that
 it will not use this program in any manner prohibited above.
 ---------------------------------------------------------------
  

 Cite this work as:
 Gaussian 16, Revision A.03,
 M. J. Frisch, G. W. Trucks, H. B. Schlegel, G. E. Scuseria, 
 M. A. Robb, J. R. Cheeseman, G. Scalmani, V. Barone, 
 G. A. Petersson, H. Nakatsuji, X. Li, M. Caricato, A. V. Marenich, 
 J. Bloino, B. G. Janesko, R. Gomperts, B. Mennucci, H. P. Hratchian, 
 J. V. Ortiz, A. F. Izmaylov, J. L. Sonnenberg, D. Williams-Young, 
 F. Ding, F. Lipparini, F. Egidi, J. Goings, B. Peng, A. Petrone, 
 T. Henderson, D. Ranasinghe, V. G. Zakrzewski, J. Gao, N. Rega, 
 G. Zheng, W. Liang, M. Hada, M. Ehara, K. Toyota, R. Fukuda, 
 J. Hasegawa, M. Ishida, T. Nakajima, Y. Honda, O. Kitao, H. Nakai, 
 T. Vreven, K. Throssell, J. A. Montgomery, Jr., J. E. Peralta, 
 F. Ogliaro, M. J. Bearpark, J. J. Heyd, E. N. Brothers, K. N. Kudin, 
 V. N. Staroverov, T. A. Keith, R. Kobayashi, J. Normand, 
 K. Raghavachari, A. P. Rendell, J. C. Burant, S. S. Iyengar, 
 J. Tomasi, M. Cossi, J. M. Millam, M. Klene, C. Adamo, R. Cammi, 
 J. W. Ochterski, R. L. Martin, K. Morokuma, O. Farkas, 
 J. B. Foresman, and D. J. Fox, Gaussian, Inc., Wallingford CT, 2016.
 
 ******************************************
 Gaussian 16:  ES64L-G16RevA.03 25-Dec-2016
                21-Apr-2025 
 ******************************************
 %chk=opt.chk
 %mem=4GB
 %nprocshared=8
 Will use up to    8 processors via shared memory.
 --------------------------------------------
 #p opt UM062X/6-311+G** nosymm int=superfine
 --------------------------------------------
 1/18=20,19=15,26=5,38=1/1,3;
 2/9=110,12=2,15=1,17=6,18=5,40=1/2;
 3/5=4,6=6,7=111,11=2,25=1,30=1,71=1,74=-55,75=-7,116=2/1,2,3;
 4//1;
 5/5=2,38=5/2;
 6/7=2,8=2,9=2,10=2,28=1/1;
 7/30=1/1,2,3,16;
 1/18=20,19=15,26=5/3(2);
 2/9=110,15=1/2;
 99//99;
 2/9=110,15=1/2;
 3/5=4,6=6,7=111,11=2,25=1,30=1,71=1,74=-55,75=-7,116=2/1,2,3;
 4/5=5,16=3,69=1/1;
 5/5=2,38=5/2;
 7/30=1/1,2,3,16;
 1/18=20,19=15,26=5/3(-5);
 2/9=110,15=1/2;
 6/7=2,8=2,9=2,10=2,19=2,28=1/1;
 99/9=1/99;
 Leave Link    1 at Mon Apr 21 20:25:17 2025, MaxMem=   536870912 cpu:               1.3 elap:               0.2
 (Enter /home/szhao/Apps/g16/l101.exe)
 -------------------
 Title Card Required
 -------------------
 Symbolic Z-matrix:
 Charge =  1 Multiplicity = 2
 Si                   -1   -1.9913    0.        0. 
 Si                   -1    1.9913    0.        0. 
 H                    0    -2.71977  -1.27361   0. 
 H                    0     2.71977   1.27361   0.0012 
 H                    0    -2.71979   1.2736   -0.0001 
 H                    0     2.71979  -1.2736   -0.0013 
 
 Add virtual bond connecting atoms Si2        and Si1        Dist= 7.53D+00.
 ITRead=  2  2  0  0  0  0
 MicOpt= -2 -2 -1 -1 -1 -1
 NAtoms=      6 NQM=        4 NQMF=       2 NMMI=      0 NMMIF=      0
                NMic=       0 NMicF=      0.
                    Isotopes and Nuclear Properties:
 (Nuclear quadrupole moments (NQMom) in fm**2, nuclear magnetic moments (NMagM)
  in nuclear magnetons)

  Atom         1           2           3           4           5           6
 IAtWgt=          28          28           1           1           1           1
 AtmWgt=  27.9769284  27.9769284   1.0078250   1.0078250   1.0078250   1.0078250
 NucSpn=           0           0           1           1           1           1
 AtZEff=  -0.0000000  -0.0000000  -0.0000000  -0.0000000  -0.0000000  -0.0000000
 NQMom=    0.0000000   0.0000000   0.0000000   0.0000000   0.0000000   0.0000000
 NMagM=    0.0000000   0.0000000   2.7928460   2.7928460   2.7928460   2.7928460
 AtZNuc=  14.0000000  14.0000000   1.0000000   1.0000000   1.0000000   1.0000000
 Leave Link  101 at Mon Apr 21 20:25:18 2025, MaxMem=   536870912 cpu:               3.0 elap:               0.4
 (Enter /home/szhao/Apps/g16/l103.exe)

 GradGradGradGradGradGradGradGradGradGradGradGradGradGradGradGradGradGrad
 Berny optimization.
 Initialization pass.
                           ----------------------------
                           !    Initial Parameters    !
                           ! (Angstroms and Degrees)  !
 --------------------------                            --------------------------
 ! Name  Definition              Value          Derivative Info.                !
 --------------------------------------------------------------------------------
 ! X1    R(1,-1)                -1.9913         Frozen                          !
 ! Y1    R(1,-2)                 0.0            Frozen                          !
 ! Z1    R(1,-3)                 0.0            Frozen                          !
 ! X2    R(2,-1)                 1.9913         Frozen                          !
 ! Y2    R(2,-2)                 0.0            Frozen                          !
 ! Z2    R(2,-3)                 0.0            Frozen                          !
 ! R1    R(1,3)                  1.4672         estimate D2E/DX2                !
 ! R2    R(1,5)                  1.4672         estimate D2E/DX2                !
 ! R3    R(2,4)                  1.4672         estimate D2E/DX2                !
 ! R4    R(2,6)                  1.4672         estimate D2E/DX2                !
 ! A1    A(2,1,3)              119.7685         estimate D2E/DX2                !
 ! A2    A(2,1,5)              119.7693         estimate D2E/DX2                !
 ! A3    A(3,1,5)              120.4622         estimate D2E/DX2                !
 ! A4    A(1,2,4)              119.7685         estimate D2E/DX2                !
 ! A5    A(1,2,6)              119.7693         estimate D2E/DX2                !
 ! A6    A(4,2,6)              120.4622         estimate D2E/DX2                !
 ! D1    D(3,1,2,4)           -179.946          estimate D2E/DX2                !
 ! D2    D(3,1,2,6)              0.0583         estimate D2E/DX2                !
 ! D3    D(5,1,2,4)              0.0583         estimate D2E/DX2                !
 ! D4    D(5,1,2,6)           -179.9375         estimate D2E/DX2                !
 --------------------------------------------------------------------------------
 Trust Radius=3.00D-01 FncErr=1.00D-07 GrdErr=1.00D-07 EigMax=2.50D+02 EigMin=1.00D-04
 Number of steps in this run=     30 maximum allowed number of steps=    100.
 GradGradGradGradGradGradGradGradGradGradGradGradGradGradGradGradGradGrad

 Leave Link  103 at Mon Apr 21 20:25:18 2025, MaxMem=   536870912 cpu:               0.2 elap:               0.1
 (Enter /home/szhao/Apps/g16/l202.exe)
                          Input orientation:                          
 ---------------------------------------------------------------------
 Center     Atomic      Atomic             Coordinates (Angstroms)
 Number     Number       Type             X           Y           Z
 ---------------------------------------------------------------------
      1         14           0       -1.991295    0.000000    0.000000
      2         14           0        1.991295    0.000000    0.000000
      3          1           0       -2.719766   -1.273606    0.000000
      4          1           0        2.719766    1.273606    0.001200
      5          1           0       -2.719788    1.273601   -0.000095
      6          1           0        2.719788   -1.273601   -0.001295
 ---------------------------------------------------------------------
                    Distance matrix (angstroms):
                    1          2          3          4          5
     1  Si   0.000000
     2  Si   3.982590   0.000000
     3  H    1.467223   4.880181   0.000000
     4  H    4.880182   1.467223   6.006397   0.000000
     5  H    1.467229   4.880201   2.547207   5.439554   0.000000
     6  H    4.880201   1.467230   5.439554   2.547208   6.006431
                    6
     6  H    0.000000
 Symmetry turned off by external request.
 Stoichiometry    H4Si2(1+,2)
 Framework group  C2[X(H4Si2)]
 Deg. of freedom     7
 Full point group                 C2      NOp   2
 Rotational constants (GHZ):          77.2864592           2.0079293           1.9570836
 Leave Link  202 at Mon Apr 21 20:25:19 2025, MaxMem=   536870912 cpu:               0.2 elap:               0.1
 (Enter /home/szhao/Apps/g16/l301.exe)
 Standard basis: 6-311+G(d,p) (5D, 7F)
 Ernie: Thresh=  0.10000D-02 Tol=  0.10000D-05 Strict=F.
    84 basis functions,   132 primitive gaussians,    86 cartesian basis functions
    16 alpha electrons       15 beta electrons
       nuclear repulsion energy        53.0988332273 Hartrees.
 IExCor= 4336 DFT=T Ex+Corr=M062X ExCW=0 ScaHFX=  0.540000
 ScaDFX=  1.000000  1.000000  1.000000  1.000000 ScalE2=  1.000000  1.000000
 IRadAn=      7 IRanWt=     -1 IRanGd=            0 ICorTp=0 IEmpDi=  4
 NAtoms=    6 NActive=    6 NUniq=    6 SFac= 1.00D+00 NAtFMM=   60 NAOKFM=F Big=F
 Integral buffers will be    131072 words long.
 Raffenetti 2 integral format.
 Two-electron integral symmetry is turned off.
 Leave Link  301 at Mon Apr 21 20:25:19 2025, MaxMem=   536870912 cpu:               0.6 elap:               0.1
 (Enter /home/szhao/Apps/g16/l302.exe)
 NPDir=0 NMtPBC=     1 NCelOv=     1 NCel=       1 NClECP=     1 NCelD=      1
         NCelK=      1 NCelE2=     1 NClLst=     1 CellRange=     0.0.
 One-electron integrals computed using PRISM.
 NBasis=    84 RedAO= T EigKep=  1.06D-02  NBF=    84
 NBsUse=    84 1.00D-06 EigRej= -1.00D+00 NBFU=    84
 Precomputing XC quadrature grid using
 IXCGrd= 4 IRadAn=           7 IRanWt=          -1 IRanGd=           0 AccXCQ= 0.00D+00.
 Generated NRdTot=       0 NPtTot=           0 NUsed=           0 NTot=          32
 NSgBfM=    78    78    78    78    78 MxSgAt=     6 MxSgA2=     6.
 Leave Link  302 at Mon Apr 21 20:25:19 2025, MaxMem=   536870912 cpu:               1.8 elap:               0.3
 (Enter /home/szhao/Apps/g16/l303.exe)
 DipDrv:  MaxL=1.
 Leave Link  303 at Mon Apr 21 20:25:20 2025, MaxMem=   536870912 cpu:               0.6 elap:               0.3
 (Enter /home/szhao/Apps/g16/l401.exe)
 ExpMin= 3.31D-02 ExpMax= 6.94D+04 ExpMxC= 2.33D+03 IAcc=3 IRadAn=         7 AccDes= 0.00D+00
 Harris functional with IExCor= 1009 and IRadAn=       7 diagonalized for initial guess.
 HarFok:  IExCor= 1009 AccDes= 0.00D+00 IRadAn=         7 IDoV= 1 UseB2=F ITyADJ=14
 ICtDFT=  3500011 ScaDFX=  1.000000  1.000000  1.000000  1.000000
 FoFCou: FMM=F IPFlag=           0 FMFlag=      100000 FMFlg1=           0
         NFxFlg=           0 DoJE=T BraDBF=F KetDBF=T FulRan=T
         wScrn=  0.000000 ICntrl=       500 IOpCl=  0 I1Cent=   200000004 NGrid=           0
         NMat0=    1 NMatS0=      1 NMatT0=    0 NMatD0=    1 NMtDS0=    0 NMtDT0=    0
 Symmetry not used in FoFCou.
 Harris En= -580.636400018463    
 JPrj=0 DoOrth=F DoCkMO=F.
 Initial guess <Sx>= 0.0000 <Sy>= 0.0000 <Sz>= 0.5000 <S**2>= 0.7500 S= 0.5000
 Leave Link  401 at Mon Apr 21 20:25:21 2025, MaxMem=   536870912 cpu:               3.8 elap:               0.7
 (Enter /home/szhao/Apps/g16/l502.exe)
 Keep R1 and R2 ints in memory in canonical form, NReq=20057634.
 FoFCou: FMM=F IPFlag=           0 FMFlag=           0 FMFlg1=           0
         NFxFlg=           0 DoJE=F BraDBF=F KetDBF=F FulRan=T
         wScrn=  0.000000 ICntrl=       600 IOpCl=  0 I1Cent=           0 NGrid=           0
         NMat0=    1 NMatS0=   3570 NMatT0=    0 NMatD0=    1 NMtDS0=    0 NMtDT0=    0
 Symmetry not used in FoFCou.
 Two-electron integral symmetry not used.
 UHF open shell SCF:
 Using DIIS extrapolation, IDIIS=  1040.
 NGot=   536870912 LenX=   524106186 LenY=   524098349
 Requested convergence on RMS density matrix=1.00D-08 within 128 cycles.
 Requested convergence on MAX density matrix=1.00D-06.
 Requested convergence on             energy=1.00D-06.
 No special actions if energy rises.

 Cycle   1  Pass 1  IDiag  1:
 E= -580.838975331992    
 DIIS: error= 2.93D-02 at cycle   1 NSaved=   1.
 NSaved= 1 IEnMin= 1 EnMin= -580.838975331992     IErMin= 1 ErrMin= 2.93D-02
 ErrMax= 2.93D-02  0.00D+00 EMaxC= 1.00D-01 BMatC= 2.18D-01 BMatP= 2.18D-01
 IDIUse=3 WtCom= 7.07D-01 WtEn= 2.93D-01
 Coeff-Com:  0.100D+01
 Coeff-En:   0.100D+01
 Coeff:      0.100D+01
 Gap=     0.164 Goal=   None    Shift=    0.000
 Gap=     0.137 Goal=   None    Shift=    0.000
 GapD=    0.137 DampG=1.000 DampE=0.500 DampFc=0.5000 IDamp=-1.
 Damping current iteration by 5.00D-01
 RMSDP=4.12D-03 MaxDP=1.32D-01              OVMax= 1.00D-01

 Cycle   2  Pass 1  IDiag  1:
 E= -580.857949034273     Delta-E=       -0.018973702282 Rises=F Damp=T
 DIIS: error= 1.50D-02 at cycle   2 NSaved=   2.
 NSaved= 2 IEnMin= 2 EnMin= -580.857949034273     IErMin= 2 ErrMin= 1.50D-02
 ErrMax= 1.50D-02  0.00D+00 EMaxC= 1.00D-01 BMatC= 3.86D-02 BMatP= 2.18D-01
 IDIUse=3 WtCom= 8.50D-01 WtEn= 1.50D-01
 Coeff-Com: -0.541D+00 0.154D+01
 Coeff-En:   0.000D+00 0.100D+01
 Coeff:     -0.460D+00 0.146D+01
 Gap=     0.167 Goal=   None    Shift=    0.000
 Gap=     0.138 Goal=   None    Shift=    0.000
 RMSDP=1.48D-03 MaxDP=4.77D-02 DE=-1.90D-02 OVMax= 2.58D-02

 Cycle   3  Pass 1  IDiag  1:
 E= -580.874485933304     Delta-E=       -0.016536899031 Rises=F Damp=F
 DIIS: error= 9.77D-04 at cycle   3 NSaved=   3.
 NSaved= 3 IEnMin= 3 EnMin= -580.874485933304     IErMin= 3 ErrMin= 9.77D-04
 ErrMax= 9.77D-04  0.00D+00 EMaxC= 1.00D-01 BMatC= 3.20D-04 BMatP= 3.86D-02
 IDIUse=3 WtCom= 9.90D-01 WtEn= 9.77D-03
 Coeff-Com: -0.716D-01 0.135D+00 0.936D+00
 Coeff-En:   0.000D+00 0.000D+00 0.100D+01
 Coeff:     -0.709D-01 0.134D+00 0.937D+00
 Gap=     0.167 Goal=   None    Shift=    0.000
 Gap=     0.138 Goal=   None    Shift=    0.000
 RMSDP=1.61D-04 MaxDP=5.56D-03 DE=-1.65D-02 OVMax= 3.62D-03

 Cycle   4  Pass 1  IDiag  1:
 E= -580.874535429182     Delta-E=       -0.000049495878 Rises=F Damp=F
 DIIS: error= 2.07D-04 at cycle   4 NSaved=   4.
 NSaved= 4 IEnMin= 4 EnMin= -580.874535429182     IErMin= 4 ErrMin= 2.07D-04
 ErrMax= 2.07D-04  0.00D+00 EMaxC= 1.00D-01 BMatC= 8.32D-06 BMatP= 3.20D-04
 IDIUse=3 WtCom= 9.98D-01 WtEn= 2.07D-03
 Coeff-Com: -0.727D-02 0.107D-01 0.188D-01 0.978D+00
 Coeff-En:   0.000D+00 0.000D+00 0.000D+00 0.100D+01
 Coeff:     -0.726D-02 0.106D-01 0.188D-01 0.978D+00
 Gap=     0.168 Goal=   None    Shift=    0.000
 Gap=     0.138 Goal=   None    Shift=    0.000
 RMSDP=5.80D-05 MaxDP=2.23D-03 DE=-4.95D-05 OVMax= 1.55D-03

 Cycle   5  Pass 1  IDiag  1:
 E= -580.874540843893     Delta-E=       -0.000005414711 Rises=F Damp=F
 DIIS: error= 5.71D-05 at cycle   5 NSaved=   5.
 NSaved= 5 IEnMin= 5 EnMin= -580.874540843893     IErMin= 5 ErrMin= 5.71D-05
 ErrMax= 5.71D-05  0.00D+00 EMaxC= 1.00D-01 BMatC= 5.59D-07 BMatP= 8.32D-06
 IDIUse=1 WtCom= 1.00D+00 WtEn= 0.00D+00
 Coeff-Com:  0.614D-02-0.112D-01-0.494D-01-0.139D+00 0.119D+01
 Coeff:      0.614D-02-0.112D-01-0.494D-01-0.139D+00 0.119D+01
 Gap=     0.168 Goal=   None    Shift=    0.000
 Gap=     0.138 Goal=   None    Shift=    0.000
 RMSDP=2.01D-05 MaxDP=6.25D-04 DE=-5.41D-06 OVMax= 6.34D-04

 Cycle   6  Pass 1  IDiag  1:
 E= -580.874541375601     Delta-E=       -0.000000531708 Rises=F Damp=F
 DIIS: error= 9.63D-06 at cycle   6 NSaved=   6.
 NSaved= 6 IEnMin= 6 EnMin= -580.874541375601     IErMin= 6 ErrMin= 9.63D-06
 ErrMax= 9.63D-06  0.00D+00 EMaxC= 1.00D-01 BMatC= 1.12D-08 BMatP= 5.59D-07
 IDIUse=1 WtCom= 1.00D+00 WtEn= 0.00D+00
 Coeff-Com: -0.275D-03 0.538D-03 0.312D-02-0.140D-01-0.713D-01 0.108D+01
 Coeff:     -0.275D-03 0.538D-03 0.312D-02-0.140D-01-0.713D-01 0.108D+01
 Gap=     0.168 Goal=   None    Shift=    0.000
 Gap=     0.138 Goal=   None    Shift=    0.000
 RMSDP=2.13D-06 MaxDP=6.47D-05 DE=-5.32D-07 OVMax= 6.88D-05

 Cycle   7  Pass 1  IDiag  1:
 E= -580.874541386054     Delta-E=       -0.000000010453 Rises=F Damp=F
 DIIS: error= 2.49D-06 at cycle   7 NSaved=   7.
 NSaved= 7 IEnMin= 7 EnMin= -580.874541386054     IErMin= 7 ErrMin= 2.49D-06
 ErrMax= 2.49D-06  0.00D+00 EMaxC= 1.00D-01 BMatC= 8.81D-10 BMatP= 1.12D-08
 IDIUse=1 WtCom= 1.00D+00 WtEn= 0.00D+00
 Coeff-Com: -0.208D-03 0.376D-03 0.146D-02 0.922D-02-0.372D-01-0.249D+00
 Coeff-Com:  0.127D+01
 Coeff:     -0.208D-03 0.376D-03 0.146D-02 0.922D-02-0.372D-01-0.249D+00
 Coeff:      0.127D+01
 Gap=     0.168 Goal=   None    Shift=    0.000
 Gap=     0.138 Goal=   None    Shift=    0.000
 RMSDP=5.58D-07 MaxDP=1.06D-05 DE=-1.05D-08 OVMax= 2.17D-05

 Cycle   8  Pass 1  IDiag  1:
 E= -580.874541387058     Delta-E=       -0.000000001004 Rises=F Damp=F
 DIIS: error= 5.30D-07 at cycle   8 NSaved=   8.
 NSaved= 8 IEnMin= 8 EnMin= -580.874541387058     IErMin= 8 ErrMin= 5.30D-07
 ErrMax= 5.30D-07  0.00D+00 EMaxC= 1.00D-01 BMatC= 5.35D-11 BMatP= 8.81D-10
 IDIUse=1 WtCom= 1.00D+00 WtEn= 0.00D+00
 Coeff-Com:  0.660D-04-0.120D-03-0.563D-03-0.161D-02 0.131D-01 0.800D-02
 Coeff-Com: -0.326D+00 0.131D+01
 Coeff:      0.660D-04-0.120D-03-0.563D-03-0.161D-02 0.131D-01 0.800D-02
 Coeff:     -0.326D+00 0.131D+01
 Gap=     0.168 Goal=   None    Shift=    0.000
 Gap=     0.138 Goal=   None    Shift=    0.000
 RMSDP=1.63D-07 MaxDP=2.58D-06 DE=-1.00D-09 OVMax= 5.34D-06

 Cycle   9  Pass 1  IDiag  1:
 E= -580.874541387122     Delta-E=       -0.000000000064 Rises=F Damp=F
 DIIS: error= 1.25D-07 at cycle   9 NSaved=   9.
 NSaved= 9 IEnMin= 9 EnMin= -580.874541387122     IErMin= 9 ErrMin= 1.25D-07
 ErrMax= 1.25D-07  0.00D+00 EMaxC= 1.00D-01 BMatC= 3.35D-12 BMatP= 5.35D-11
 IDIUse=1 WtCom= 1.00D+00 WtEn= 0.00D+00
 Coeff-Com:  0.403D-05-0.730D-05-0.105D-04-0.412D-03 0.708D-03 0.192D-01
 Coeff-Com: -0.663D-01-0.471D-01 0.109D+01
 Coeff:      0.403D-05-0.730D-05-0.105D-04-0.412D-03 0.708D-03 0.192D-01
 Coeff:     -0.663D-01-0.471D-01 0.109D+01
 Gap=     0.168 Goal=   None    Shift=    0.000
 Gap=     0.138 Goal=   None    Shift=    0.000
 RMSDP=3.91D-08 MaxDP=5.75D-07 DE=-6.39D-11 OVMax= 2.09D-06

 Cycle  10  Pass 1  IDiag  1:
 E= -580.874541387126     Delta-E=       -0.000000000005 Rises=F Damp=F
 DIIS: error= 6.64D-08 at cycle  10 NSaved=  10.
 NSaved=10 IEnMin=10 EnMin= -580.874541387126     IErMin=10 ErrMin= 6.64D-08
 ErrMax= 6.64D-08  0.00D+00 EMaxC= 1.00D-01 BMatC= 4.28D-13 BMatP= 3.35D-12
 IDIUse=1 WtCom= 1.00D+00 WtEn= 0.00D+00
 Coeff-Com: -0.205D-05 0.353D-05 0.216D-04 0.945D-04-0.555D-03-0.284D-02
 Coeff-Com:  0.255D-01-0.792D-01-0.159D+00 0.122D+01
 Coeff:     -0.205D-05 0.353D-05 0.216D-04 0.945D-04-0.555D-03-0.284D-02
 Coeff:      0.255D-01-0.792D-01-0.159D+00 0.122D+01
 Gap=     0.168 Goal=   None    Shift=    0.000
 Gap=     0.138 Goal=   None    Shift=    0.000
 RMSDP=2.02D-08 MaxDP=3.15D-07 DE=-4.55D-12 OVMax= 1.54D-06

 Cycle  11  Pass 1  IDiag  1:
 E= -580.874541387128     Delta-E=       -0.000000000002 Rises=F Damp=F
 DIIS: error= 5.75D-08 at cycle  11 NSaved=  11.
 NSaved=11 IEnMin=11 EnMin= -580.874541387128     IErMin=11 ErrMin= 5.75D-08
 ErrMax= 5.75D-08  0.00D+00 EMaxC= 1.00D-01 BMatC= 2.07D-13 BMatP= 4.28D-13
 IDIUse=1 WtCom= 1.00D+00 WtEn= 0.00D+00
 Coeff-Com:  0.111D-05-0.177D-05-0.164D-04-0.420D-04 0.366D-03 0.107D-02
 Coeff-Com: -0.155D-01 0.619D-01 0.772D-01-0.992D+00 0.187D+01
 Coeff:      0.111D-05-0.177D-05-0.164D-04-0.420D-04 0.366D-03 0.107D-02
 Coeff:     -0.155D-01 0.619D-01 0.772D-01-0.992D+00 0.187D+01
 Gap=     0.168 Goal=   None    Shift=    0.000
 Gap=     0.138 Goal=   None    Shift=    0.000
 RMSDP=2.17D-08 MaxDP=4.07D-07 DE=-1.59D-12 OVMax= 1.92D-06

 Cycle  12  Pass 1  IDiag  1:
 E= -580.874541387130     Delta-E=       -0.000000000002 Rises=F Damp=F
 DIIS: error= 4.64D-08 at cycle  12 NSaved=  12.
 NSaved=12 IEnMin=12 EnMin= -580.874541387130     IErMin=12 ErrMin= 4.64D-08
 ErrMax= 4.64D-08  0.00D+00 EMaxC= 1.00D-01 BMatC= 1.36D-13 BMatP= 2.07D-13
 IDIUse=1 WtCom= 1.00D+00 WtEn= 0.00D+00
 Coeff-Com:  0.546D-06-0.133D-05 0.676D-05-0.379D-04-0.191D-04 0.147D-02
 Coeff-Com: -0.242D-02-0.156D-01 0.348D-01 0.370D+00-0.357D+01 0.418D+01
 Coeff:      0.546D-06-0.133D-05 0.676D-05-0.379D-04-0.191D-04 0.147D-02
 Coeff:     -0.242D-02-0.156D-01 0.348D-01 0.370D+00-0.357D+01 0.418D+01
 Gap=     0.168 Goal=   None    Shift=    0.000
 Gap=     0.138 Goal=   None    Shift=    0.000
 RMSDP=6.53D-08 MaxDP=1.23D-06 DE=-2.27D-12 OVMax= 5.76D-06

 Cycle  13  Pass 1  IDiag  1:
 E= -580.874541387132     Delta-E=       -0.000000000002 Rises=F Damp=F
 DIIS: error= 1.32D-08 at cycle  13 NSaved=  13.
 NSaved=13 IEnMin=13 EnMin= -580.874541387132     IErMin=13 ErrMin= 1.32D-08
 ErrMax= 1.32D-08  0.00D+00 EMaxC= 1.00D-01 BMatC= 1.91D-14 BMatP= 1.36D-13
 IDIUse=1 WtCom= 1.00D+00 WtEn= 0.00D+00
 Coeff-Com: -0.105D-06 0.361D-07 0.557D-05-0.506D-05-0.825D-04 0.255D-03
 Coeff-Com:  0.257D-02-0.187D-01-0.112D-01 0.364D+00-0.151D+01 0.115D+01
 Coeff-Com:  0.102D+01
 Coeff:     -0.105D-06 0.361D-07 0.557D-05-0.506D-05-0.825D-04 0.255D-03
 Coeff:      0.257D-02-0.187D-01-0.112D-01 0.364D+00-0.151D+01 0.115D+01
 Coeff:      0.102D+01
 Gap=     0.168 Goal=   None    Shift=    0.000
 Gap=     0.138 Goal=   None    Shift=    0.000
 RMSDP=2.23D-08 MaxDP=4.19D-07 DE=-1.59D-12 OVMax= 1.96D-06

 Cycle  14  Pass 1  IDiag  1:
 E= -580.874541387133     Delta-E=       -0.000000000002 Rises=F Damp=F
 DIIS: error= 2.14D-09 at cycle  14 NSaved=  14.
 NSaved=14 IEnMin=14 EnMin= -580.874541387133     IErMin=14 ErrMin= 2.14D-09
 ErrMax= 2.14D-09  0.00D+00 EMaxC= 1.00D-01 BMatC= 1.52D-15 BMatP= 1.91D-14
 IDIUse=1 WtCom= 1.00D+00 WtEn= 0.00D+00
 Coeff-Com: -0.955D-07 0.216D-06-0.726D-06 0.223D-05 0.333D-05-0.128D-03
 Coeff-Com:  0.291D-03 0.945D-03-0.572D-02-0.154D-01 0.368D+00-0.528D+00
 Coeff-Com:  0.189D+00 0.991D+00
 Coeff:     -0.955D-07 0.216D-06-0.726D-06 0.223D-05 0.333D-05-0.128D-03
 Coeff:      0.291D-03 0.945D-03-0.572D-02-0.154D-01 0.368D+00-0.528D+00
 Coeff:      0.189D+00 0.991D+00
 Gap=     0.168 Goal=   None    Shift=    0.000
 Gap=     0.138 Goal=   None    Shift=    0.000
 RMSDP=4.46D-09 MaxDP=8.33D-08 DE=-1.59D-12 OVMax= 3.85D-07

 SCF Done:  E(UM062X) =  -580.874541387     A.U. after   14 cycles
            NFock= 14  Conv=0.45D-08     -V/T= 2.0015
 <Sx>= 0.0000 <Sy>= 0.0000 <Sz>= 0.5000 <S**2>= 0.7566 S= 0.5033
 <L.S>=  0.00000000000    
 KE= 5.800271501905D+02 PE=-1.483324726206D+03 EE= 2.693242014015D+02
 Annihilation of the first spin contaminant:
 S**2 before annihilation     0.7566,   after     0.7500
 Leave Link  502 at Mon Apr 21 20:25:33 2025, MaxMem=   536870912 cpu:              90.2 elap:              12.0
 (Enter /home/szhao/Apps/g16/l601.exe)
 Copying SCF densities to generalized density rwf, IOpCl= 1 IROHF=0.

 **********************************************************************

            Population analysis using the SCF density.

 **********************************************************************

 Alpha  occ. eigenvalues --  -67.24046 -67.24046  -5.78624  -5.78622  -4.09907
 Alpha  occ. eigenvalues --   -4.09906  -4.09605  -4.09605  -4.09229  -4.09229
 Alpha  occ. eigenvalues --   -0.78902  -0.78585  -0.62189  -0.62102  -0.49090
 Alpha  occ. eigenvalues --   -0.44356
 Alpha virt. eigenvalues --   -0.27573  -0.26446  -0.12146  -0.11877  -0.09670
 Alpha virt. eigenvalues --   -0.09288  -0.08968  -0.07956  -0.07330  -0.06519
 Alpha virt. eigenvalues --   -0.06004  -0.05628  -0.03930  -0.03166   0.13049
 Alpha virt. eigenvalues --    0.13338   0.14534   0.14697   0.15566   0.17714
 Alpha virt. eigenvalues --    0.19621   0.24794   0.25210   0.27179   0.31267
 Alpha virt. eigenvalues --    0.32092   0.37493   0.37495   0.40140   0.40334
 Alpha virt. eigenvalues --    0.41411   0.44441   0.61554   0.61668   0.69130
 Alpha virt. eigenvalues --    0.69785   1.01851   1.01979   1.02313   1.02448
 Alpha virt. eigenvalues --    1.03015   1.04902   1.21585   1.24040   1.29166
 Alpha virt. eigenvalues --    1.29204   1.31063   1.31063   1.40580   1.41193
 Alpha virt. eigenvalues --    1.75268   1.75597   1.91780   1.93418   2.41583
 Alpha virt. eigenvalues --    2.43027   2.43231   2.47540   5.29071   5.35435
 Alpha virt. eigenvalues --   11.22638  11.23586  11.27741  11.29898  11.38806
 Alpha virt. eigenvalues --   11.39412 140.85466 140.92859
  Beta  occ. eigenvalues --  -67.23692 -67.23692  -5.78362  -5.78360  -4.09802
  Beta  occ. eigenvalues --   -4.09802  -4.09110  -4.09110  -4.08794  -4.08793
  Beta  occ. eigenvalues --   -0.77144  -0.76678  -0.61102  -0.60999  -0.43277
  Beta virt. eigenvalues --   -0.29428  -0.26391  -0.25071  -0.11639  -0.10943
  Beta virt. eigenvalues --   -0.09411  -0.09243  -0.09225  -0.07456  -0.07141
  Beta virt. eigenvalues --   -0.06393  -0.05307  -0.05252  -0.02755  -0.02442
  Beta virt. eigenvalues --    0.12956   0.13755   0.14519   0.15177   0.15927
  Beta virt. eigenvalues --    0.18031   0.20036   0.24928   0.26076   0.27435
  Beta virt. eigenvalues --    0.31626   0.33024   0.39244   0.39250   0.42776
  Beta virt. eigenvalues --    0.42913   0.44315   0.46718   0.63424   0.63524
  Beta virt. eigenvalues --    0.70100   0.70711   1.02612   1.03727   1.04298
  Beta virt. eigenvalues --    1.04534   1.05569   1.07945   1.21814   1.24534
  Beta virt. eigenvalues --    1.29525   1.29565   1.31549   1.31552   1.41473
  Beta virt. eigenvalues --    1.41955   1.76913   1.77205   1.93210   1.94766
  Beta virt. eigenvalues --    2.42662   2.44113   2.44156   2.48408   5.30185
  Beta virt. eigenvalues --    5.36583  11.23368  11.24320  11.29604  11.31807
  Beta virt. eigenvalues --   11.39494  11.40101 140.86017 140.93412
          Condensed to atoms (all electrons):
               1          2          3          4          5          6
     1  Si  12.799251   0.045762   0.299872   0.000015   0.299873   0.000016
     2  Si   0.045762  12.799251   0.000015   0.299872   0.000016   0.299873
     3  H    0.299872   0.000015   0.737588   0.000008  -0.009892   0.000014
     4  H    0.000015   0.299872   0.000008   0.737588   0.000014  -0.009892
     5  H    0.299873   0.000016  -0.009892   0.000014   0.737586   0.000008
     6  H    0.000016   0.299873   0.000014  -0.009892   0.000008   0.737586
          Atomic-Atomic Spin Densities.
               1          2          3          4          5          6
     1  Si   0.590900  -0.132405  -0.033668   0.004466  -0.033668   0.004466
     2  Si  -0.132405   0.590900   0.004466  -0.033668   0.004466  -0.033668
     3  H   -0.033668   0.004466   0.071506  -0.000017   0.007727  -0.000059
     4  H    0.004466  -0.033668  -0.000017   0.071506  -0.000059   0.007727
     5  H   -0.033668   0.004466   0.007727  -0.000059   0.071507  -0.000017
     6  H    0.004466  -0.033668  -0.000059   0.007727  -0.000017   0.071507
 Mulliken charges and spin densities:
               1          2
     1  Si   0.555210   0.400091
     2  Si   0.555211   0.400091
     3  H   -0.027606   0.049954
     4  H   -0.027606   0.049954
     5  H   -0.027605   0.049955
     6  H   -0.027605   0.049955
 Sum of Mulliken charges =   1.00000   1.00000
 Mulliken charges and spin densities with hydrogens summed into heavy atoms:
               1          2
     1  Si   0.500000   0.500000
     2  Si   0.500000   0.500000
 Electronic spatial extent (au):  <R**2>=            559.7748
 Charge=              1.0000 electrons
 Dipole moment (field-independent basis, Debye):
    X=              0.0000    Y=              0.0000    Z=             -0.0001  Tot=              0.0001
 Quadrupole moment (field-independent basis, Debye-Ang):
   XX=             -0.3484   YY=            -25.1800   ZZ=            -20.8163
   XY=             -0.0000   XZ=              0.0000   YZ=             -0.0021
 Traceless Quadrupole moment (field-independent basis, Debye-Ang):
   XX=             15.0998   YY=             -9.7318   ZZ=             -5.3681
   XY=             -0.0000   XZ=              0.0000   YZ=             -0.0021
 Octapole moment (field-independent basis, Debye-Ang**2):
  XXX=             -0.0000  YYY=             -0.0000  ZZZ=              0.0003  XYY=              0.0000
  XXY=             -0.0000  XXZ=              0.0018  XZZ=             -0.0000  YZZ=             -0.0000
  YYZ=              0.0001  XYZ=             -0.0046
 Hexadecapole moment (field-independent basis, Debye-Ang**3):
 XXXX=           -624.9931 YYYY=            -69.0729 ZZZZ=            -25.0158 XXXY=             -0.0002
 XXXZ=              0.0000 YYYX=              0.0001 YYYZ=             -0.0087 ZZZX=              0.0000
 ZZZY=             -0.0120 XXYY=           -124.5753 XXZZ=            -98.4360 YYZZ=            -16.8620
 XXYZ=             -0.0123 YYXZ=             -0.0000 ZZXY=              0.0001
 N-N= 5.309883322729D+01 E-N=-1.483324726245D+03  KE= 5.800271501905D+02
                          Isotropic Fermi Contact Couplings
        Atom                 a.u.       MegaHertz       Gauss      10(-4) cm-1
     1  Si(29)             0.65564    -582.68293    -207.91576    -194.36211
     2  Si(29)             0.65564    -582.68309    -207.91582    -194.36216
     3  H(1)               0.02097      93.71385      33.43943      31.25957
     4  H(1)               0.02097      93.71394      33.43946      31.25960
     5  H(1)               0.02097      93.71542      33.43999      31.26010
     6  H(1)               0.02097      93.71550      33.44002      31.26013
 --------------------------------------------------------
       Center         ----  Spin Dipole Couplings  ----
                      3XX-RR        3YY-RR        3ZZ-RR
 --------------------------------------------------------
     1   Atom        0.929655     -0.469851     -0.459804
     2   Atom        0.929655     -0.469851     -0.459804
     3   Atom        0.001312      0.008333     -0.009646
     4   Atom        0.001312      0.008333     -0.009646
     5   Atom        0.001312      0.008333     -0.009646
     6   Atom        0.001312      0.008333     -0.009646
 --------------------------------------------------------
                        XY            XZ            YZ
 --------------------------------------------------------
     1   Atom        0.000012      0.000247      0.000000
     2   Atom        0.000012     -0.000247     -0.000008
     3   Atom        0.004427      0.000002     -0.000001
     4   Atom        0.004427      0.000002      0.000018
     5   Atom       -0.004427      0.000002     -0.000001
     6   Atom       -0.004427     -0.000006      0.000018
 --------------------------------------------------------


 ---------------------------------------------------------------------------------
              Anisotropic Spin Dipole Couplings in Principal Axis System
 ---------------------------------------------------------------------------------

       Atom             a.u.   MegaHertz   Gauss  10(-4) cm-1        Axes

              Baa    -0.4699    49.844    17.785    16.626 -0.0000  1.0000 -0.0000
     1 Si(29) Bbb    -0.4598    48.778    17.405    16.271 -0.0002  0.0000  1.0000
              Bcc     0.9297   -98.622   -35.191   -32.897  1.0000  0.0000  0.0002
 
              Baa    -0.4699    49.844    17.785    16.626 -0.0000  1.0000  0.0008
     2 Si(29) Bbb    -0.4598    48.778    17.405    16.271  0.0002 -0.0008  1.0000
              Bcc     0.9297   -98.622   -35.191   -32.897  1.0000  0.0000 -0.0002
 
              Baa    -0.0096    -5.146    -1.836    -1.717 -0.0002  0.0001  1.0000
     3 H(1)   Bbb    -0.0008    -0.441    -0.157    -0.147  0.9004 -0.4351  0.0002
              Bcc     0.0105     5.588     1.994     1.864  0.4351  0.9004  0.0000
 
              Baa    -0.0096    -5.146    -1.836    -1.717  0.0002 -0.0010  1.0000
     4 H(1)   Bbb    -0.0008    -0.441    -0.157    -0.147  0.9004 -0.4351 -0.0006
              Bcc     0.0105     5.588     1.994     1.864  0.4351  0.9004  0.0008
 
              Baa    -0.0096    -5.146    -1.836    -1.717 -0.0002 -0.0000  1.0000
     5 H(1)   Bbb    -0.0008    -0.441    -0.158    -0.147  0.9004  0.4351  0.0002
              Bcc     0.0105     5.588     1.994     1.864 -0.4351  0.9004 -0.0001
 
              Baa    -0.0096    -5.146    -1.836    -1.717  0.0002 -0.0009  1.0000
     6 H(1)   Bbb    -0.0008    -0.441    -0.158    -0.147  0.9004  0.4351  0.0002
              Bcc     0.0105     5.588     1.994     1.864 -0.4351  0.9004  0.0009
 

 ---------------------------------------------------------------------------------

 No NMR shielding tensors so no spin-rotation constants.
 Leave Link  601 at Mon Apr 21 20:25:33 2025, MaxMem=   536870912 cpu:               1.9 elap:               0.3
 (Enter /home/szhao/Apps/g16/l701.exe)
 ... and contract with generalized density number  0.
 Compute integral first derivatives.
 Leave Link  701 at Mon Apr 21 20:25:34 2025, MaxMem=   536870912 cpu:               1.3 elap:               0.2
 (Enter /home/szhao/Apps/g16/l702.exe)
 L702 exits ... SP integral derivatives will be done elsewhere.
 Leave Link  702 at Mon Apr 21 20:25:34 2025, MaxMem=   536870912 cpu:               0.4 elap:               0.1
 (Enter /home/szhao/Apps/g16/l703.exe)
 Integral derivatives from FoFJK, PRISM(SPDF).
 Compute integral first derivatives, UseDBF=F ICtDFT=           0.
 Calling FoFJK, ICntrl=      2127 FMM=F ISym2X=0 I1Cent= 0 IOpClX= 1 NMat=1 NMatS=1 NMatT=0.
 FoFJK:  IHMeth= 1 ICntrl=    2127 DoSepK=F KAlg= 0 I1Cent=           0 FoldK=F
 IRaf=         0 NMat=       1 IRICut=       1 DoRegI=T DoRafI=F ISym2E= 0 IDoP0=0 IntGTp=1.
 FoFCou: FMM=F IPFlag=           0 FMFlag=      100000 FMFlg1=         800
         NFxFlg=           0 DoJE=F BraDBF=F KetDBF=F FulRan=T
         wScrn=  0.000000 ICntrl=      2127 IOpCl=  1 I1Cent=           0 NGrid=           0
         NMat0=    1 NMatS0=      1 NMatT0=    0 NMatD0=    1 NMtDS0=    0 NMtDT0=    0
 Symmetry not used in FoFCou.
 Leave Link  703 at Mon Apr 21 20:25:35 2025, MaxMem=   536870912 cpu:               8.4 elap:               1.1
 (Enter /home/szhao/Apps/g16/l716.exe)
 Dipole        = 3.88655273D-07 8.84060114D-09-3.14279989D-05
 -------------------------------------------------------------------
 Center     Atomic                   Forces (Hartrees/Bohr)
 Number     Number              X              Y              Z
 -------------------------------------------------------------------
      1       14          -0.000000000   -0.000000000   -0.000000000
      2       14          -0.000000000   -0.000000000   -0.000000000
      3        1          -0.014069106   -0.000357699   -0.000001086
      4        1           0.014069020    0.000357534   -0.000000654
      5        1          -0.014067796    0.000355366   -0.000001207
      6        1           0.014067721   -0.000355217   -0.000001637
 -------------------------------------------------------------------
 Cartesian Forces:  Max     0.014069106 RMS     0.006634041
 Leave Link  716 at Mon Apr 21 20:25:36 2025, MaxMem=   536870912 cpu:               0.5 elap:               0.1
 (Enter /home/szhao/Apps/g16/l103.exe)

 GradGradGradGradGradGradGradGradGradGradGradGradGradGradGradGradGradGrad
 Berny optimization.
 FormGI is forming the generalized inverse of G from B-inverse, IUseBI=4.
 Internal  Forces:  Max     0.028136902 RMS     0.012807840
 Search for a local minimum.
 Step number   1 out of a maximum of   30
 All quantities printed in internal units (Hartrees-Bohrs-Radians)
 RMS Force = .11011D-01 SwitMx=.10000D-02 MixMth= 1
 Mixed Optimization -- RFO/linear search
 Second derivative matrix not updated -- first step.
 The second derivative matrix:
                          X1        Y1        Z1        X2        Y2
           X1           0.50000
           Y1           0.00000   0.50000
           Z1           0.00000   0.00000   0.50000
           X2           0.00000   0.00000   0.00000   0.50000
           Y2           0.00000   0.00000   0.00000   0.00000   0.50000
           Z2           0.00000   0.00000   0.00000   0.00000   0.00000
           R1           0.00000   0.00000   0.00000   0.00000   0.00000
           R2           0.00000   0.00000   0.00000   0.00000   0.00000
           R3           0.00000   0.00000   0.00000   0.00000   0.00000
           R4           0.00000   0.00000   0.00000   0.00000   0.00000
           A1           0.00000   0.00000   0.00000   0.00000   0.00000
           A2           0.00000   0.00000   0.00000   0.00000   0.00000
           A3           0.00000   0.00000   0.00000   0.00000   0.00000
           A4           0.00000   0.00000   0.00000   0.00000   0.00000
           A5           0.00000   0.00000   0.00000   0.00000   0.00000
           A6           0.00000   0.00000   0.00000   0.00000   0.00000
           D1           0.00000   0.00000   0.00000   0.00000   0.00000
           D2           0.00000   0.00000   0.00000   0.00000   0.00000
           D3           0.00000   0.00000   0.00000   0.00000   0.00000
           D4           0.00000   0.00000   0.00000   0.00000   0.00000
                          Z2        R1        R2        R3        R4
           Z2           0.50000
           R1           0.00000   0.18389
           R2           0.00000   0.00000   0.18389
           R3           0.00000   0.00000   0.00000   0.18389
           R4           0.00000   0.00000   0.00000   0.00000   0.18389
           A1           0.00000   0.00000   0.00000   0.00000   0.00000
           A2           0.00000   0.00000   0.00000   0.00000   0.00000
           A3           0.00000   0.00000   0.00000   0.00000   0.00000
           A4           0.00000   0.00000   0.00000   0.00000   0.00000
           A5           0.00000   0.00000   0.00000   0.00000   0.00000
           A6           0.00000   0.00000   0.00000   0.00000   0.00000
           D1           0.00000   0.00000   0.00000   0.00000   0.00000
           D2           0.00000   0.00000   0.00000   0.00000   0.00000
           D3           0.00000   0.00000   0.00000   0.00000   0.00000
           D4           0.00000   0.00000   0.00000   0.00000   0.00000
                          A1        A2        A3        A4        A5
           A1           0.16000
           A2           0.00000   0.16000
           A3           0.00000   0.00000   0.16000
           A4           0.00000   0.00000   0.00000   0.16000
           A5           0.00000   0.00000   0.00000   0.00000   0.16000
           A6           0.00000   0.00000   0.00000   0.00000   0.00000
           D1           0.00000   0.00000   0.00000   0.00000   0.00000
           D2           0.00000   0.00000   0.00000   0.00000   0.00000
           D3           0.00000   0.00000   0.00000   0.00000   0.00000
           D4           0.00000   0.00000   0.00000   0.00000   0.00000
                          A6        D1        D2        D3        D4
           A6           0.16000
           D1           0.00000   0.00230
           D2           0.00000   0.00000   0.00230
           D3           0.00000   0.00000   0.00000   0.00230
           D4           0.00000   0.00000   0.00000   0.00000   0.00230
 ITU=  0
     Eigenvalues ---    0.00230   0.00230   0.00230   0.16000   0.16000
     Eigenvalues ---    0.16000   0.16000   0.18389   0.18389   0.18389
     Eigenvalues ---    0.183891000.000001000.000001000.000001000.00000
     Eigenvalues --- 1000.000001000.000001000.000001000.000001000.00000
 RFO step:  Lambda=-9.83989591D-03 EMin= 2.30000000D-03
 Linear search not attempted -- first point.
 Iteration  1 RMS(Cart)=  0.08254259 RMS(Int)=  0.00270132
 Iteration  2 RMS(Cart)=  0.00297961 RMS(Int)=  0.00000221
 Iteration  3 RMS(Cart)=  0.00000334 RMS(Int)=  0.00000000
 Iteration  4 RMS(Cart)=  0.00000000 RMS(Int)=  0.00000000
 ITry= 1 IFail=0 DXMaxC= 1.75D-01 DCOld= 1.00D+10 DXMaxT= 3.00D-01 DXLimC= 3.00D+00 Rises=F
 Variable       Old X    -DE/DX   Delta X   Delta X   Delta X     New X
                                 (Linear)    (Quad)   (Total)
    X1       -3.76300  -0.02814   0.00000   0.00000   0.00000  -3.76300
    Y1        0.00000  -0.00000   0.00000   0.00000   0.00000   0.00000
    Z1        0.00000  -0.00000   0.00000   0.00000   0.00000   0.00000
    X2        3.76300   0.02814   0.00000   0.00000   0.00000   3.76300
    Y2        0.00000   0.00000   0.00000   0.00000   0.00000   0.00000
    Z2        0.00000  -0.00000   0.00000   0.00000   0.00000   0.00000
    R1        2.77265   0.00730   0.00000   0.03766   0.03766   2.81031
    R2        2.77266   0.00729   0.00000   0.03765   0.03765   2.81031
    R3        2.77265   0.00730   0.00000   0.03766   0.03766   2.81031
    R4        2.77266   0.00729   0.00000   0.03765   0.03765   2.81031
    A1        2.09035   0.01112   0.00000   0.06549   0.06549   2.15585
    A2        2.09037   0.01112   0.00000   0.06549   0.06549   2.15586
    A3        2.10246  -0.02225   0.00000  -0.13098  -0.13098   1.97148
    A4        2.09035   0.01112   0.00000   0.06549   0.06549   2.15585
    A5        2.09037   0.01112   0.00000   0.06549   0.06549   2.15586
    A6        2.10246  -0.02225   0.00000  -0.13098  -0.13098   1.97148
    D1       -3.14065  -0.00000   0.00000  -0.00010  -0.00010  -3.14075
    D2        0.00102   0.00000   0.00000   0.00001   0.00001   0.00103
    D3        0.00102   0.00000   0.00000   0.00001   0.00001   0.00103
    D4       -3.14050   0.00000   0.00000   0.00011   0.00011  -3.14039
         Item               Value     Threshold  Converged?
 Maximum Force            0.022246     0.000450     NO 
 RMS     Force            0.011011     0.000300     NO 
 Maximum Displacement     0.175353     0.001800     NO 
 RMS     Displacement     0.083457     0.001200     NO 
 Predicted change in Energy=-5.201063D-03
 Lowest energy point so far.  Saving SCF results.
 GradGradGradGradGradGradGradGradGradGradGradGradGradGradGradGradGradGrad

 Leave Link  103 at Mon Apr 21 20:25:36 2025, MaxMem=   536870912 cpu:               0.6 elap:               0.1
 (Enter /home/szhao/Apps/g16/l202.exe)
                          Input orientation:                          
 ---------------------------------------------------------------------
 Center     Atomic      Atomic             Coordinates (Angstroms)
 Number     Number       Type             X           Y           Z
 ---------------------------------------------------------------------
      1         14           0       -1.991295    0.000000    0.000000
      2         14           0        1.991295    0.000000    0.000000
      3          1           0       -2.812559   -1.239815   -0.000038
      4          1           0        2.812559    1.239815    0.001087
      5          1           0       -2.812576    1.239804   -0.000185
      6          1           0        2.812576   -1.239804   -0.001310
 ---------------------------------------------------------------------
                    Distance matrix (angstroms):
                    1          2          3          4          5
     1  Si   0.000000
     2  Si   3.982590   0.000000
     3  H    1.487151   4.961266   0.000000
     4  H    4.961266   1.487151   6.147400   0.000000
     5  H    1.487151   4.961279   2.479620   5.625136   0.000000
     6  H    4.961279   1.487151   5.625136   2.479620   6.147422
                    6
     6  H    0.000000
 Symmetry turned off by external request.
 Stoichiometry    H4Si2(1+,2)
 Framework group  C1[X(H4Si2)]
 Deg. of freedom    12
 Full point group                 C1      NOp   1
 Rotational constants (GHZ):          81.5571217           1.9915542           1.9440815
 Leave Link  202 at Mon Apr 21 20:25:37 2025, MaxMem=   536870912 cpu:               0.6 elap:               0.1
 (Enter /home/szhao/Apps/g16/l301.exe)
 Standard basis: 6-311+G(d,p) (5D, 7F)
 Ernie: Thresh=  0.10000D-02 Tol=  0.10000D-05 Strict=F.
    84 basis functions,   132 primitive gaussians,    86 cartesian basis functions
    16 alpha electrons       15 beta electrons
       nuclear repulsion energy        52.7298594869 Hartrees.
 IExCor= 4336 DFT=T Ex+Corr=M062X ExCW=0 ScaHFX=  0.540000
 ScaDFX=  1.000000  1.000000  1.000000  1.000000 ScalE2=  1.000000  1.000000
 IRadAn=      7 IRanWt=     -1 IRanGd=            0 ICorTp=0 IEmpDi=  4
 NAtoms=    6 NActive=    6 NUniq=    6 SFac= 1.00D+00 NAtFMM=   60 NAOKFM=F Big=F
 Integral buffers will be    131072 words long.
 Raffenetti 2 integral format.
 Two-electron integral symmetry is turned off.
 Leave Link  301 at Mon Apr 21 20:25:37 2025, MaxMem=   536870912 cpu:               0.7 elap:               0.1
 (Enter /home/szhao/Apps/g16/l302.exe)
 NPDir=0 NMtPBC=     1 NCelOv=     1 NCel=       1 NClECP=     1 NCelD=      1
         NCelK=      1 NCelE2=     1 NClLst=     1 CellRange=     0.0.
 One-electron integrals computed using PRISM.
 NBasis=    84 RedAO= T EigKep=  1.06D-02  NBF=    84
 NBsUse=    84 1.00D-06 EigRej= -1.00D+00 NBFU=    84
 Precomputing XC quadrature grid using
 IXCGrd= 4 IRadAn=           7 IRanWt=          -1 IRanGd=           0 AccXCQ= 0.00D+00.
 Generated NRdTot=       0 NPtTot=           0 NUsed=           0 NTot=          32
 NSgBfM=    78    78    78    78    78 MxSgAt=     6 MxSgA2=     6.
 Leave Link  302 at Mon Apr 21 20:25:37 2025, MaxMem=   536870912 cpu:               2.0 elap:               0.3
 (Enter /home/szhao/Apps/g16/l303.exe)
 DipDrv:  MaxL=1.
 Leave Link  303 at Mon Apr 21 20:25:38 2025, MaxMem=   536870912 cpu:               0.7 elap:               0.1
 (Enter /home/szhao/Apps/g16/l401.exe)
 Initial guess from the checkpoint file:  "opt.chk"
 B after Tr=    -0.000000    0.000000   -0.000015
         Rot=    1.000000    0.000009   -0.000000   -0.000000 Ang=   0.00 deg.
 Guess basis will be translated and rotated to current coordinates.
 JPrj=2 DoOrth=T DoCkMO=T.
 Initial guess <Sx>= 0.0000 <Sy>= 0.0000 <Sz>= 0.5000 <S**2>= 0.7565 S= 0.5032
 Generating alternative initial guess.
 ExpMin= 3.31D-02 ExpMax= 6.94D+04 ExpMxC= 2.33D+03 IAcc=3 IRadAn=         5 AccDes= 0.00D+00
 Harris functional with IExCor= 1009 and IRadAn=       5 diagonalized for initial guess.
 HarFok:  IExCor= 1009 AccDes= 0.00D+00 IRadAn=         5 IDoV= 1 UseB2=F ITyADJ=14
 ICtDFT=  3500011 ScaDFX=  1.000000  1.000000  1.000000  1.000000
 FoFCou: FMM=F IPFlag=           0 FMFlag=      100000 FMFlg1=           0
         NFxFlg=           0 DoJE=T BraDBF=F KetDBF=T FulRan=T
         wScrn=  0.000000 ICntrl=       500 IOpCl=  0 I1Cent=   200000004 NGrid=           0
         NMat0=    1 NMatS0=      1 NMatT0=    0 NMatD0=    1 NMtDS0=    0 NMtDT0=    0
 Symmetry not used in FoFCou.
 Harris En= -580.645271499769    
 Leave Link  401 at Mon Apr 21 20:25:38 2025, MaxMem=   536870912 cpu:               2.5 elap:               0.4
 (Enter /home/szhao/Apps/g16/l502.exe)
 Keep R1 and R2 ints in memory in canonical form, NReq=20057634.
 FoFCou: FMM=F IPFlag=           0 FMFlag=           0 FMFlg1=           0
         NFxFlg=           0 DoJE=F BraDBF=F KetDBF=F FulRan=T
         wScrn=  0.000000 ICntrl=       600 IOpCl=  0 I1Cent=           0 NGrid=           0
         NMat0=    1 NMatS0=   3570 NMatT0=    0 NMatD0=    1 NMtDS0=    0 NMtDT0=    0
 Symmetry not used in FoFCou.
 Two-electron integral symmetry not used.
 UHF open shell SCF:
 Using DIIS extrapolation, IDIIS=  1040.
 NGot=   536870912 LenX=   524106186 LenY=   524098349
 Requested convergence on RMS density matrix=1.00D-08 within 128 cycles.
 Requested convergence on MAX density matrix=1.00D-06.
 Requested convergence on             energy=1.00D-06.
 No special actions if energy rises.

 Cycle   1  Pass 1  IDiag  1:
 E= -580.880944620331    
 DIIS: error= 3.03D-03 at cycle   1 NSaved=   1.
 NSaved= 1 IEnMin= 1 EnMin= -580.880944620331     IErMin= 1 ErrMin= 3.03D-03
 ErrMax= 3.03D-03  0.00D+00 EMaxC= 1.00D-01 BMatC= 1.97D-03 BMatP= 1.97D-03
 IDIUse=3 WtCom= 9.70D-01 WtEn= 3.03D-02
 Coeff-Com:  0.100D+01
 Coeff-En:   0.100D+01
 Coeff:      0.100D+01
 Gap=     0.514 Goal=   None    Shift=    0.000
 Gap=     0.355 Goal=   None    Shift=    0.000
 GapD=    0.355 DampG=1.000 DampE=1.000 DampFc=1.0000 IDamp=-1.
 RMSDP=3.33D-04 MaxDP=3.89D-03              OVMax= 9.56D-03

 Cycle   2  Pass 1  IDiag  1:
 E= -580.881643838532     Delta-E=       -0.000699218201 Rises=F Damp=F
 DIIS: error= 4.09D-04 at cycle   2 NSaved=   2.
 NSaved= 2 IEnMin= 2 EnMin= -580.881643838532     IErMin= 2 ErrMin= 4.09D-04
 ErrMax= 4.09D-04  0.00D+00 EMaxC= 1.00D-01 BMatC= 3.23D-05 BMatP= 1.97D-03
 IDIUse=3 WtCom= 9.96D-01 WtEn= 4.09D-03
 Coeff-Com: -0.713D-01 0.107D+01
 Coeff-En:   0.000D+00 0.100D+01
 Coeff:     -0.711D-01 0.107D+01
 Gap=     0.179 Goal=   None    Shift=    0.000
 Gap=     0.136 Goal=   None    Shift=    0.000
 RMSDP=7.96D-05 MaxDP=1.09D-03 DE=-6.99D-04 OVMax= 2.46D-03

 Cycle   3  Pass 1  IDiag  1:
 E= -580.881662306259     Delta-E=       -0.000018467726 Rises=F Damp=F
 DIIS: error= 8.12D-05 at cycle   3 NSaved=   3.
 NSaved= 3 IEnMin= 3 EnMin= -580.881662306259     IErMin= 3 ErrMin= 8.12D-05
 ErrMax= 8.12D-05  0.00D+00 EMaxC= 1.00D-01 BMatC= 2.74D-06 BMatP= 3.23D-05
 IDIUse=1 WtCom= 1.00D+00 WtEn= 0.00D+00
 Coeff-Com: -0.213D-01 0.162D+00 0.859D+00
 Coeff:     -0.213D-01 0.162D+00 0.859D+00
 Gap=     0.179 Goal=   None    Shift=    0.000
 Gap=     0.136 Goal=   None    Shift=    0.000
 RMSDP=1.65D-05 MaxDP=3.75D-04 DE=-1.85D-05 OVMax= 4.93D-04

 Cycle   4  Pass 1  IDiag  1:
 E= -580.881663160955     Delta-E=       -0.000000854696 Rises=F Damp=F
 DIIS: error= 2.82D-05 at cycle   4 NSaved=   4.
 NSaved= 4 IEnMin= 4 EnMin= -580.881663160955     IErMin= 4 ErrMin= 2.82D-05
 ErrMax= 2.82D-05  0.00D+00 EMaxC= 1.00D-01 BMatC= 2.43D-07 BMatP= 2.74D-06
 IDIUse=1 WtCom= 1.00D+00 WtEn= 0.00D+00
 Coeff-Com:  0.382D-02-0.710D-01 0.758D-01 0.991D+00
 Coeff:      0.382D-02-0.710D-01 0.758D-01 0.991D+00
 Gap=     0.179 Goal=   None    Shift=    0.000
 Gap=     0.136 Goal=   None    Shift=    0.000
 RMSDP=8.12D-06 MaxDP=2.09D-04 DE=-8.55D-07 OVMax= 2.57D-04

 Cycle   5  Pass 1  IDiag  1:
 E= -580.881663298019     Delta-E=       -0.000000137064 Rises=F Damp=F
 DIIS: error= 8.77D-06 at cycle   5 NSaved=   5.
 NSaved= 5 IEnMin= 5 EnMin= -580.881663298019     IErMin= 5 ErrMin= 8.77D-06
 ErrMax= 8.77D-06  0.00D+00 EMaxC= 1.00D-01 BMatC= 1.52D-08 BMatP= 2.43D-07
 IDIUse=1 WtCom= 1.00D+00 WtEn= 0.00D+00
 Coeff-Com:  0.629D-04 0.851D-02-0.515D-01-0.252D+00 0.129D+01
 Coeff:      0.629D-04 0.851D-02-0.515D-01-0.252D+00 0.129D+01
 Gap=     0.179 Goal=   None    Shift=    0.000
 Gap=     0.136 Goal=   None    Shift=    0.000
 RMSDP=3.06D-06 MaxDP=8.01D-05 DE=-1.37D-07 OVMax= 9.98D-05

 Cycle   6  Pass 1  IDiag  1:
 E= -580.881663316756     Delta-E=       -0.000000018737 Rises=F Damp=F
 DIIS: error= 3.50D-06 at cycle   6 NSaved=   6.
 NSaved= 6 IEnMin= 6 EnMin= -580.881663316756     IErMin= 6 ErrMin= 3.50D-06
 ErrMax= 3.50D-06  0.00D+00 EMaxC= 1.00D-01 BMatC= 1.26D-09 BMatP= 1.52D-08
 IDIUse=1 WtCom= 1.00D+00 WtEn= 0.00D+00
 Coeff-Com: -0.354D-03 0.507D-02-0.331D-02-0.308D-01-0.244D+00 0.127D+01
 Coeff:     -0.354D-03 0.507D-02-0.331D-02-0.308D-01-0.244D+00 0.127D+01
 Gap=     0.179 Goal=   None    Shift=    0.000
 Gap=     0.136 Goal=   None    Shift=    0.000
 RMSDP=8.70D-07 MaxDP=1.88D-05 DE=-1.87D-08 OVMax= 2.52D-05

 Cycle   7  Pass 1  IDiag  1:
 E= -580.881663318202     Delta-E=       -0.000000001446 Rises=F Damp=F
 DIIS: error= 6.20D-07 at cycle   7 NSaved=   7.
 NSaved= 7 IEnMin= 7 EnMin= -580.881663318202     IErMin= 7 ErrMin= 6.20D-07
 ErrMax= 6.20D-07  0.00D+00 EMaxC= 1.00D-01 BMatC= 3.44D-11 BMatP= 1.26D-09
 IDIUse=1 WtCom= 1.00D+00 WtEn= 0.00D+00
 Coeff-Com:  0.114D-04-0.512D-03 0.316D-02 0.769D-02-0.582D-01 0.389D-01
 Coeff-Com:  0.101D+01
 Coeff:      0.114D-04-0.512D-03 0.316D-02 0.769D-02-0.582D-01 0.389D-01
 Coeff:      0.101D+01
 Gap=     0.179 Goal=   None    Shift=    0.000
 Gap=     0.136 Goal=   None    Shift=    0.000
 RMSDP=1.08D-07 MaxDP=2.88D-06 DE=-1.45D-09 OVMax= 3.10D-06

 Cycle   8  Pass 1  IDiag  1:
 E= -580.881663318227     Delta-E=       -0.000000000024 Rises=F Damp=F
 DIIS: error= 8.53D-08 at cycle   8 NSaved=   8.
 NSaved= 8 IEnMin= 8 EnMin= -580.881663318227     IErMin= 8 ErrMin= 8.53D-08
 ErrMax= 8.53D-08  0.00D+00 EMaxC= 1.00D-01 BMatC= 1.28D-12 BMatP= 3.44D-11
 IDIUse=1 WtCom= 1.00D+00 WtEn= 0.00D+00
 Coeff-Com:  0.115D-04-0.151D-03-0.219D-03 0.145D-02 0.119D-01-0.423D-01
 Coeff-Com: -0.135D+00 0.116D+01
 Coeff:      0.115D-04-0.151D-03-0.219D-03 0.145D-02 0.119D-01-0.423D-01
 Coeff:     -0.135D+00 0.116D+01
 Gap=     0.179 Goal=   None    Shift=    0.000
 Gap=     0.136 Goal=   None    Shift=    0.000
 RMSDP=3.36D-08 MaxDP=5.20D-07 DE=-2.43D-11 OVMax= 1.67D-06

 Cycle   9  Pass 1  IDiag  1:
 E= -580.881663318230     Delta-E=       -0.000000000003 Rises=F Damp=F
 DIIS: error= 7.28D-08 at cycle   9 NSaved=   9.
 NSaved= 9 IEnMin= 9 EnMin= -580.881663318230     IErMin= 9 ErrMin= 7.28D-08
 ErrMax= 7.28D-08  0.00D+00 EMaxC= 1.00D-01 BMatC= 3.62D-13 BMatP= 1.28D-12
 IDIUse=1 WtCom= 1.00D+00 WtEn= 0.00D+00
 Coeff-Com: -0.381D-05 0.761D-04-0.102D-03-0.946D-03-0.425D-03 0.109D-01
 Coeff-Com: -0.137D-01-0.267D+00 0.127D+01
 Coeff:     -0.381D-05 0.761D-04-0.102D-03-0.946D-03-0.425D-03 0.109D-01
 Coeff:     -0.137D-01-0.267D+00 0.127D+01
 Gap=     0.179 Goal=   None    Shift=    0.000
 Gap=     0.136 Goal=   None    Shift=    0.000
 RMSDP=1.79D-08 MaxDP=3.34D-07 DE=-3.18D-12 OVMax= 1.53D-06

 Cycle  10  Pass 1  IDiag  1:
 E= -580.881663318232     Delta-E=       -0.000000000002 Rises=F Damp=F
 DIIS: error= 6.02D-08 at cycle  10 NSaved=  10.
 NSaved=10 IEnMin=10 EnMin= -580.881663318232     IErMin=10 ErrMin= 6.02D-08
 ErrMax= 6.02D-08  0.00D+00 EMaxC= 1.00D-01 BMatC= 2.27D-13 BMatP= 3.62D-13
 IDIUse=1 WtCom= 1.00D+00 WtEn= 0.00D+00
 Coeff-Com: -0.453D-06-0.362D-04 0.261D-03 0.640D-03-0.500D-02 0.445D-02
 Coeff-Com:  0.853D-01-0.205D+00-0.161D+01 0.273D+01
 Coeff:     -0.453D-06-0.362D-04 0.261D-03 0.640D-03-0.500D-02 0.445D-02
 Coeff:      0.853D-01-0.205D+00-0.161D+01 0.273D+01
 Gap=     0.179 Goal=   None    Shift=    0.000
 Gap=     0.136 Goal=   None    Shift=    0.000
 RMSDP=3.80D-08 MaxDP=7.11D-07 DE=-2.27D-12 OVMax= 3.31D-06

 Cycle  11  Pass 1  IDiag  1:
 E= -580.881663318235     Delta-E=       -0.000000000003 Rises=F Damp=F
 DIIS: error= 3.22D-08 at cycle  11 NSaved=  11.
 NSaved=11 IEnMin=11 EnMin= -580.881663318235     IErMin=11 ErrMin= 3.22D-08
 ErrMax= 3.22D-08  0.00D+00 EMaxC= 1.00D-01 BMatC= 6.39D-14 BMatP= 2.27D-13
 IDIUse=1 WtCom= 1.00D+00 WtEn= 0.00D+00
 Coeff-Com:  0.252D-05-0.332D-04-0.296D-04 0.400D-03 0.141D-02-0.705D-02
 Coeff-Com: -0.138D-01 0.197D+00-0.364D+00-0.764D+00 0.195D+01
 Coeff:      0.252D-05-0.332D-04-0.296D-04 0.400D-03 0.141D-02-0.705D-02
 Coeff:     -0.138D-01 0.197D+00-0.364D+00-0.764D+00 0.195D+01
 Gap=     0.179 Goal=   None    Shift=    0.000
 Gap=     0.136 Goal=   None    Shift=    0.000
 RMSDP=3.70D-08 MaxDP=6.92D-07 DE=-3.30D-12 OVMax= 3.27D-06

 Cycle  12  Pass 1  IDiag  1:
 E= -580.881663318236     Delta-E=       -0.000000000001 Rises=F Damp=F
 DIIS: error= 3.89D-09 at cycle  12 NSaved=  12.
 NSaved=12 IEnMin=12 EnMin= -580.881663318236     IErMin=12 ErrMin= 3.89D-09
 ErrMax= 3.89D-09  0.00D+00 EMaxC= 1.00D-01 BMatC= 1.40D-15 BMatP= 6.39D-14
 IDIUse=1 WtCom= 1.00D+00 WtEn= 0.00D+00
 Coeff-Com: -0.428D-06 0.780D-05-0.338D-05-0.111D-03-0.334D-04 0.112D-02
 Coeff-Com: -0.137D-02-0.305D-01 0.217D+00-0.720D-01-0.401D+00 0.129D+01
 Coeff:     -0.428D-06 0.780D-05-0.338D-05-0.111D-03-0.334D-04 0.112D-02
 Coeff:     -0.137D-02-0.305D-01 0.217D+00-0.720D-01-0.401D+00 0.129D+01
 Gap=     0.179 Goal=   None    Shift=    0.000
 Gap=     0.136 Goal=   None    Shift=    0.000
 RMSDP=3.66D-09 MaxDP=6.54D-08 DE=-7.96D-13 OVMax= 3.38D-07

 SCF Done:  E(UM062X) =  -580.881663318     A.U. after   12 cycles
            NFock= 12  Conv=0.37D-08     -V/T= 2.0016
 <Sx>= 0.0000 <Sy>= 0.0000 <Sz>= 0.5000 <S**2>= 0.7565 S= 0.5032
 <L.S>=  0.00000000000    
 KE= 5.799603167679D+02 PE=-1.482506733971D+03 EE= 2.689348943977D+02
 Annihilation of the first spin contaminant:
 S**2 before annihilation     0.7565,   after     0.7500
 Leave Link  502 at Mon Apr 21 20:25:49 2025, MaxMem=   536870912 cpu:              76.8 elap:              10.2
 (Enter /home/szhao/Apps/g16/l701.exe)
 ... and contract with generalized density number  0.
 Compute integral first derivatives.
 Leave Link  701 at Mon Apr 21 20:25:49 2025, MaxMem=   536870912 cpu:               0.9 elap:               0.2
 (Enter /home/szhao/Apps/g16/l702.exe)
 L702 exits ... SP integral derivatives will be done elsewhere.
 Leave Link  702 at Mon Apr 21 20:25:49 2025, MaxMem=   536870912 cpu:               0.4 elap:               0.2
 (Enter /home/szhao/Apps/g16/l703.exe)
 Integral derivatives from FoFJK, PRISM(SPDF).
 Compute integral first derivatives, UseDBF=F ICtDFT=           0.
 Calling FoFJK, ICntrl=      2127 FMM=F ISym2X=0 I1Cent= 0 IOpClX= 1 NMat=1 NMatS=1 NMatT=0.
 FoFJK:  IHMeth= 1 ICntrl=    2127 DoSepK=F KAlg= 0 I1Cent=           0 FoldK=F
 IRaf=         0 NMat=       1 IRICut=       1 DoRegI=T DoRafI=F ISym2E= 0 IDoP0=0 IntGTp=1.
 FoFCou: FMM=F IPFlag=           0 FMFlag=      100000 FMFlg1=         800
         NFxFlg=           0 DoJE=F BraDBF=F KetDBF=F FulRan=T
         wScrn=  0.000000 ICntrl=      2127 IOpCl=  1 I1Cent=           0 NGrid=           0
         NMat0=    1 NMatS0=      1 NMatT0=    0 NMatD0=    1 NMtDS0=    0 NMtDT0=    0
 Symmetry not used in FoFCou.
 Leave Link  703 at Mon Apr 21 20:25:51 2025, MaxMem=   536870912 cpu:               8.7 elap:               1.1
 (Enter /home/szhao/Apps/g16/l716.exe)
 Dipole        = 5.65691917D-07 2.21980021D-08-4.53449949D-05
 -------------------------------------------------------------------
 Center     Atomic                   Forces (Hartrees/Bohr)
 Number     Number              X              Y              Z
 -------------------------------------------------------------------
      1       14          -0.000000000   -0.000000000   -0.000000000
      2       14          -0.000000000   -0.000000000   -0.000000000
      3        1          -0.005098273    0.002919955   -0.000000855
      4        1           0.005098276   -0.002919961   -0.000003722
      5        1          -0.005098223   -0.002919984   -0.000000588
      6        1           0.005098226    0.002919992    0.000002279
 -------------------------------------------------------------------
 Cartesian Forces:  Max     0.005098276 RMS     0.002769613
 Leave Link  716 at Mon Apr 21 20:25:51 2025, MaxMem=   536870912 cpu:               0.6 elap:               0.1
 (Enter /home/szhao/Apps/g16/l103.exe)

 GradGradGradGradGradGradGradGradGradGradGradGradGradGradGradGradGradGrad
 Berny optimization.
 Using GEDIIS/GDIIS optimizer.
 FormGI is forming the generalized inverse of G from B-inverse, IUseBI=4.
 Internal  Forces:  Max     0.010984298 RMS     0.005340797
 Search for a local minimum.
 Step number   2 out of a maximum of   30
 All quantities printed in internal units (Hartrees-Bohrs-Radians)
 RMS Force = .50888D-02 SwitMx=.10000D-02 MixMth= 1
 Mixed Optimization -- RFO/linear search
 Update second derivatives using D2CorX and points    1    2
 DE= -7.12D-03 DEPred=-5.20D-03 R= 1.37D+00
 TightC=F SS=  1.41D+00  RLast= 2.39D-01 DXNew= 5.0454D-01 7.1711D-01
 Trust test= 1.37D+00 RLast= 2.39D-01 DXMaxT set to 5.05D-01
 The second derivative matrix:
                          X1        Y1        Z1        X2        Y2
           X1           0.55888
           Y1           0.00001   0.50000
           Z1           0.00000   0.00000   0.50000
           X2          -0.05888  -0.00001  -0.00000   0.55888
           Y2          -0.00001  -0.00000  -0.00000   0.00001   0.50000
           Z2           0.00000   0.00000   0.00000  -0.00000  -0.00000
           R1          -0.02269  -0.00000  -0.00000   0.02269   0.00000
           R2          -0.02269  -0.00000  -0.00000   0.02269   0.00000
           R3          -0.02269  -0.00000  -0.00000   0.02269   0.00000
           R4          -0.02268  -0.00000  -0.00000   0.02268   0.00000
           A1          -0.01848  -0.00000  -0.00000   0.01848   0.00000
           A2          -0.01848  -0.00000  -0.00000   0.01848   0.00000
           A3           0.03696   0.00000   0.00000  -0.03696  -0.00000
           A4          -0.01848  -0.00000  -0.00000   0.01848   0.00000
           A5          -0.01848  -0.00000  -0.00000   0.01848   0.00000
           A6           0.03696   0.00000   0.00000  -0.03696  -0.00000
           D1           0.00000   0.00000   0.00000  -0.00000  -0.00000
           D2          -0.00000  -0.00000  -0.00000   0.00000   0.00000
           D3          -0.00000  -0.00000  -0.00000   0.00000   0.00000
           D4          -0.00000  -0.00000  -0.00000   0.00000   0.00000
                          Z2        R1        R2        R3        R4
           Z2           0.50000
           R1          -0.00000   0.18747
           R2          -0.00000   0.00358   0.18747
           R3          -0.00000   0.00358   0.00358   0.18747
           R4          -0.00000   0.00358   0.00357   0.00358   0.18746
           A1          -0.00000  -0.00070  -0.00070  -0.00070  -0.00070
           A2          -0.00000  -0.00070  -0.00070  -0.00070  -0.00070
           A3           0.00000   0.00140   0.00140   0.00140   0.00140
           A4          -0.00000  -0.00070  -0.00070  -0.00070  -0.00070
           A5          -0.00000  -0.00070  -0.00070  -0.00070  -0.00070
           A6           0.00000   0.00140   0.00140   0.00140   0.00140
           D1           0.00000  -0.00000  -0.00000  -0.00000  -0.00000
           D2          -0.00000   0.00000   0.00000   0.00000   0.00000
           D3          -0.00000   0.00000   0.00000   0.00000   0.00000
           D4          -0.00000   0.00000   0.00000   0.00000   0.00000
                          A1        A2        A3        A4        A5
           A1           0.15397
           A2          -0.00603   0.15397
           A3           0.01207   0.01207   0.13586
           A4          -0.00603  -0.00603   0.01207   0.15397
           A5          -0.00603  -0.00603   0.01207  -0.00603   0.15397
           A6           0.01207   0.01207  -0.02414   0.01207   0.01207
           D1          -0.00000  -0.00000   0.00000  -0.00000  -0.00000
           D2           0.00000   0.00000  -0.00000   0.00000   0.00000
           D3           0.00000   0.00000  -0.00000   0.00000   0.00000
           D4           0.00000   0.00000  -0.00000   0.00000   0.00000
                          A6        D1        D2        D3        D4
           A6           0.13586
           D1           0.00000   0.00230
           D2          -0.00000  -0.00000   0.00230
           D3          -0.00000  -0.00000   0.00000   0.00230
           D4          -0.00000  -0.00000   0.00000   0.00000   0.00230
 ITU=  1  0
 Use linear search instead of GDIIS.
     Eigenvalues ---    0.00230   0.00230   0.00230   0.08737   0.16000
     Eigenvalues ---    0.16000   0.16000   0.18389   0.18389   0.18389
     Eigenvalues ---    0.198411000.000001000.000001000.000001000.00000
     Eigenvalues --- 1000.000001000.000001000.000001000.000001000.00000
 RFO step:  Lambda=-6.28779145D-04 EMin= 2.30000000D-03
 Quartic linear search produced a step of  0.77692.
 Iteration  1 RMS(Cart)=  0.07669447 RMS(Int)=  0.00233918
 Iteration  2 RMS(Cart)=  0.00235432 RMS(Int)=  0.00000039
 Iteration  3 RMS(Cart)=  0.00000063 RMS(Int)=  0.00000000
 ITry= 1 IFail=0 DXMaxC= 1.43D-01 DCOld= 1.00D+10 DXMaxT= 5.05D-01 DXLimC= 3.00D+00 Rises=F
 Variable       Old X    -DE/DX   Delta X   Delta X   Delta X     New X
                                 (Linear)    (Quad)   (Total)
    X1       -3.76300  -0.01020   0.00000   0.00000   0.00000  -3.76300
    Y1        0.00000  -0.00000   0.00000   0.00000   0.00000   0.00000
    Z1        0.00000  -0.00000   0.00000   0.00000   0.00000   0.00000
    X2        3.76300   0.01020   0.00000   0.00000   0.00000   3.76300
    Y2        0.00000   0.00000   0.00000   0.00000   0.00000   0.00000
    Z2        0.00000  -0.00000   0.00000   0.00000   0.00000   0.00000
    R1        2.81031   0.00038   0.02926  -0.02509   0.00417   2.81447
    R2        2.81031   0.00038   0.02925  -0.02508   0.00417   2.81447
    R3        2.81031   0.00038   0.02926  -0.02509   0.00417   2.81447
    R4        2.81031   0.00038   0.02925  -0.02508   0.00417   2.81447
    A1        2.15585   0.00549   0.05088   0.01023   0.06111   2.21695
    A2        2.15586   0.00549   0.05088   0.01023   0.06111   2.21697
    A3        1.97148  -0.01098  -0.10176  -0.02045  -0.12222   1.84927
    A4        2.15585   0.00549   0.05088   0.01023   0.06111   2.21695
    A5        2.15586   0.00549   0.05088   0.01023   0.06111   2.21697
    A6        1.97148  -0.01098  -0.10176  -0.02045  -0.12222   1.84927
    D1       -3.14075  -0.00000  -0.00007  -0.00017  -0.00024  -3.14099
    D2        0.00103  -0.00000   0.00001  -0.00009  -0.00008   0.00095
    D3        0.00103  -0.00000   0.00001  -0.00009  -0.00008   0.00095
    D4       -3.14039   0.00000   0.00009  -0.00000   0.00008  -3.14030
         Item               Value     Threshold  Converged?
 Maximum Force            0.010984     0.000450     NO 
 RMS     Force            0.005089     0.000300     NO 
 Maximum Displacement     0.142695     0.001800     NO 
 RMS     Displacement     0.076868     0.001200     NO 
 Predicted change in Energy=-2.073024D-03
 Lowest energy point so far.  Saving SCF results.
 GradGradGradGradGradGradGradGradGradGradGradGradGradGradGradGradGradGrad

 Leave Link  103 at Mon Apr 21 20:25:51 2025, MaxMem=   536870912 cpu:               0.7 elap:               0.1
 (Enter /home/szhao/Apps/g16/l202.exe)
                          Input orientation:                          
 ---------------------------------------------------------------------
 Center     Atomic      Atomic             Coordinates (Angstroms)
 Number     Number       Type             X           Y           Z
 ---------------------------------------------------------------------
      1         14           0       -1.991295    0.000000    0.000000
      2         14           0        1.991295    0.000000    0.000000
      3          1           0       -2.888070   -1.189107   -0.000154
      4          1           0        2.888070    1.189107    0.000873
      5          1           0       -2.888085    1.189096   -0.000253
      6          1           0        2.888085   -1.189095   -0.001281
 ---------------------------------------------------------------------
                    Distance matrix (angstroms):
                    1          2          3          4          5
     1  Si   0.000000
     2  Si   3.982590   0.000000
     3  H    1.489356   5.022169   0.000000
     4  H    5.022169   1.489356   6.246575   0.000000
     5  H    1.489356   5.022181   2.378203   5.776155   0.000000
     6  H    5.022181   1.489356   5.776155   2.378203   6.246594
                    6
     6  H    0.000000
 Symmetry turned off by external request.
 Stoichiometry    H4Si2(1+,2)
 Framework group  C1[X(H4Si2)]
 Deg. of freedom    12
 Full point group                 C1      NOp   1
 Rotational constants (GHZ):          88.6613403           1.9780279           1.9348613
 Leave Link  202 at Mon Apr 21 20:25:51 2025, MaxMem=   536870912 cpu:               0.1 elap:               0.1
 (Enter /home/szhao/Apps/g16/l301.exe)
 Standard basis: 6-311+G(d,p) (5D, 7F)
 Ernie: Thresh=  0.10000D-02 Tol=  0.10000D-05 Strict=F.
    84 basis functions,   132 primitive gaussians,    86 cartesian basis functions
    16 alpha electrons       15 beta electrons
       nuclear repulsion energy        52.6384716480 Hartrees.
 IExCor= 4336 DFT=T Ex+Corr=M062X ExCW=0 ScaHFX=  0.540000
 ScaDFX=  1.000000  1.000000  1.000000  1.000000 ScalE2=  1.000000  1.000000
 IRadAn=      7 IRanWt=     -1 IRanGd=            0 ICorTp=0 IEmpDi=  4
 NAtoms=    6 NActive=    6 NUniq=    6 SFac= 1.00D+00 NAtFMM=   60 NAOKFM=F Big=F
 Integral buffers will be    131072 words long.
 Raffenetti 2 integral format.
 Two-electron integral symmetry is turned off.
 Leave Link  301 at Mon Apr 21 20:25:52 2025, MaxMem=   536870912 cpu:               0.9 elap:               0.2
 (Enter /home/szhao/Apps/g16/l302.exe)
 NPDir=0 NMtPBC=     1 NCelOv=     1 NCel=       1 NClECP=     1 NCelD=      1
         NCelK=      1 NCelE2=     1 NClLst=     1 CellRange=     0.0.
 One-electron integrals computed using PRISM.
 NBasis=    84 RedAO= T EigKep=  1.05D-02  NBF=    84
 NBsUse=    84 1.00D-06 EigRej= -1.00D+00 NBFU=    84
 Precomputing XC quadrature grid using
 IXCGrd= 4 IRadAn=           7 IRanWt=          -1 IRanGd=           0 AccXCQ= 0.00D+00.
 Generated NRdTot=       0 NPtTot=           0 NUsed=           0 NTot=          32
 NSgBfM=    78    78    78    78    78 MxSgAt=     6 MxSgA2=     6.
 Leave Link  302 at Mon Apr 21 20:25:53 2025, MaxMem=   536870912 cpu:               2.8 elap:               0.4
 (Enter /home/szhao/Apps/g16/l303.exe)
 DipDrv:  MaxL=1.
 Leave Link  303 at Mon Apr 21 20:25:53 2025, MaxMem=   536870912 cpu:               0.4 elap:               0.1
 (Enter /home/szhao/Apps/g16/l401.exe)
 Initial guess from the checkpoint file:  "opt.chk"
 B after Tr=     0.000000    0.000000   -0.000022
         Rot=    1.000000    0.000011   -0.000000    0.000000 Ang=   0.00 deg.
 Guess basis will be translated and rotated to current coordinates.
 JPrj=2 DoOrth=T DoCkMO=T.
 Initial guess <Sx>= 0.0000 <Sy>= 0.0000 <Sz>= 0.5000 <S**2>= 0.7564 S= 0.5032
 Generating alternative initial guess.
 ExpMin= 3.31D-02 ExpMax= 6.94D+04 ExpMxC= 2.33D+03 IAcc=3 IRadAn=         5 AccDes= 0.00D+00
 Harris functional with IExCor= 1009 and IRadAn=       5 diagonalized for initial guess.
 HarFok:  IExCor= 1009 AccDes= 0.00D+00 IRadAn=         5 IDoV= 1 UseB2=F ITyADJ=14
 ICtDFT=  3500011 ScaDFX=  1.000000  1.000000  1.000000  1.000000
 FoFCou: FMM=F IPFlag=           0 FMFlag=      100000 FMFlg1=           0
         NFxFlg=           0 DoJE=T BraDBF=F KetDBF=T FulRan=T
         wScrn=  0.000000 ICntrl=       500 IOpCl=  0 I1Cent=   200000004 NGrid=           0
         NMat0=    1 NMatS0=      1 NMatT0=    0 NMatD0=    1 NMtDS0=    0 NMtDT0=    0
 Symmetry not used in FoFCou.
 Harris En= -580.650194310271    
 Leave Link  401 at Mon Apr 21 20:25:53 2025, MaxMem=   536870912 cpu:               3.2 elap:               0.5
 (Enter /home/szhao/Apps/g16/l502.exe)
 Keep R1 and R2 ints in memory in canonical form, NReq=20057634.
 FoFCou: FMM=F IPFlag=           0 FMFlag=           0 FMFlg1=           0
         NFxFlg=           0 DoJE=F BraDBF=F KetDBF=F FulRan=T
         wScrn=  0.000000 ICntrl=       600 IOpCl=  0 I1Cent=           0 NGrid=           0
         NMat0=    1 NMatS0=   3570 NMatT0=    0 NMatD0=    1 NMtDS0=    0 NMtDT0=    0
 Symmetry not used in FoFCou.
 Two-electron integral symmetry not used.
 UHF open shell SCF:
 Using DIIS extrapolation, IDIIS=  1040.
 NGot=   536870912 LenX=   524106186 LenY=   524098349
 Requested convergence on RMS density matrix=1.00D-08 within 128 cycles.
 Requested convergence on MAX density matrix=1.00D-06.
 Requested convergence on             energy=1.00D-06.
 No special actions if energy rises.

 Cycle   1  Pass 1  IDiag  1:
 E= -580.883171679399    
 DIIS: error= 3.01D-03 at cycle   1 NSaved=   1.
 NSaved= 1 IEnMin= 1 EnMin= -580.883171679399     IErMin= 1 ErrMin= 3.01D-03
 ErrMax= 3.01D-03  0.00D+00 EMaxC= 1.00D-01 BMatC= 1.26D-03 BMatP= 1.26D-03
 IDIUse=3 WtCom= 9.70D-01 WtEn= 3.01D-02
 Coeff-Com:  0.100D+01
 Coeff-En:   0.100D+01
 Coeff:      0.100D+01
 Gap=     0.521 Goal=   None    Shift=    0.000
 Gap=     0.350 Goal=   None    Shift=    0.000
 GapD=    0.350 DampG=1.000 DampE=1.000 DampFc=1.0000 IDamp=-1.
 RMSDP=2.49D-04 MaxDP=2.61D-03              OVMax= 8.30D-03

 Cycle   2  Pass 1  IDiag  1:
 E= -580.883621711466     Delta-E=       -0.000450032067 Rises=F Damp=F
 DIIS: error= 3.41D-04 at cycle   2 NSaved=   2.
 NSaved= 2 IEnMin= 2 EnMin= -580.883621711466     IErMin= 2 ErrMin= 3.41D-04
 ErrMax= 3.41D-04  0.00D+00 EMaxC= 1.00D-01 BMatC= 1.91D-05 BMatP= 1.26D-03
 IDIUse=3 WtCom= 9.97D-01 WtEn= 3.41D-03
 Coeff-Com: -0.820D-01 0.108D+01
 Coeff-En:   0.000D+00 0.100D+01
 Coeff:     -0.817D-01 0.108D+01
 Gap=     0.189 Goal=   None    Shift=    0.000
 Gap=     0.134 Goal=   None    Shift=    0.000
 RMSDP=5.53D-05 MaxDP=6.47D-04 DE=-4.50D-04 OVMax= 1.59D-03

 Cycle   3  Pass 1  IDiag  1:
 E= -580.883632150943     Delta-E=       -0.000010439477 Rises=F Damp=F
 DIIS: error= 5.51D-05 at cycle   3 NSaved=   3.
 NSaved= 3 IEnMin= 3 EnMin= -580.883632150943     IErMin= 3 ErrMin= 5.51D-05
 ErrMax= 5.51D-05  0.00D+00 EMaxC= 1.00D-01 BMatC= 8.96D-07 BMatP= 1.91D-05
 IDIUse=1 WtCom= 1.00D+00 WtEn= 0.00D+00
 Coeff-Com: -0.141D-01 0.104D+00 0.910D+00
 Coeff:     -0.141D-01 0.104D+00 0.910D+00
 Gap=     0.189 Goal=   None    Shift=    0.000
 Gap=     0.134 Goal=   None    Shift=    0.000
 RMSDP=8.09D-06 MaxDP=1.93D-04 DE=-1.04D-05 OVMax= 3.16D-04

 Cycle   4  Pass 1  IDiag  1:
 E= -580.883632439578     Delta-E=       -0.000000288635 Rises=F Damp=F
 DIIS: error= 1.41D-05 at cycle   4 NSaved=   4.
 NSaved= 4 IEnMin= 4 EnMin= -580.883632439578     IErMin= 4 ErrMin= 1.41D-05
 ErrMax= 1.41D-05  0.00D+00 EMaxC= 1.00D-01 BMatC= 6.58D-08 BMatP= 8.96D-07
 IDIUse=1 WtCom= 1.00D+00 WtEn= 0.00D+00
 Coeff-Com:  0.274D-02-0.496D-01 0.874D-01 0.959D+00
 Coeff:      0.274D-02-0.496D-01 0.874D-01 0.959D+00
 Gap=     0.189 Goal=   None    Shift=    0.000
 Gap=     0.134 Goal=   None    Shift=    0.000
 RMSDP=2.93D-06 MaxDP=4.50D-05 DE=-2.89D-07 OVMax= 9.23D-05

 Cycle   5  Pass 1  IDiag  1:
 E= -580.883632463564     Delta-E=       -0.000000023986 Rises=F Damp=F
 DIIS: error= 3.36D-06 at cycle   5 NSaved=   5.
 NSaved= 5 IEnMin= 5 EnMin= -580.883632463564     IErMin= 5 ErrMin= 3.36D-06
 ErrMax= 3.36D-06  0.00D+00 EMaxC= 1.00D-01 BMatC= 2.35D-09 BMatP= 6.58D-08
 IDIUse=1 WtCom= 1.00D+00 WtEn= 0.00D+00
 Coeff-Com:  0.538D-03-0.599D-02-0.209D-01 0.355D-01 0.991D+00
 Coeff:      0.538D-03-0.599D-02-0.209D-01 0.355D-01 0.991D+00
 Gap=     0.189 Goal=   None    Shift=    0.000
 Gap=     0.134 Goal=   None    Shift=    0.000
 RMSDP=7.29D-07 MaxDP=1.08D-05 DE=-2.40D-08 OVMax= 2.16D-05

 Cycle   6  Pass 1  IDiag  1:
 E= -580.883632465291     Delta-E=       -0.000000001727 Rises=F Damp=F
 DIIS: error= 1.11D-06 at cycle   6 NSaved=   6.
 NSaved= 6 IEnMin= 6 EnMin= -580.883632465291     IErMin= 6 ErrMin= 1.11D-06
 ErrMax= 1.11D-06  0.00D+00 EMaxC= 1.00D-01 BMatC= 2.75D-10 BMatP= 2.35D-09
 IDIUse=1 WtCom= 1.00D+00 WtEn= 0.00D+00
 Coeff-Com: -0.304D-03 0.502D-02-0.364D-02-0.751D-01-0.226D+00 0.130D+01
 Coeff:     -0.304D-03 0.502D-02-0.364D-02-0.751D-01-0.226D+00 0.130D+01
 Gap=     0.189 Goal=   None    Shift=    0.000
 Gap=     0.134 Goal=   None    Shift=    0.000
 RMSDP=3.46D-07 MaxDP=5.09D-06 DE=-1.73D-09 OVMax= 1.08D-05

 Cycle   7  Pass 1  IDiag  1:
 E= -580.883632465597     Delta-E=       -0.000000000306 Rises=F Damp=F
 DIIS: error= 3.98D-07 at cycle   7 NSaved=   7.
 NSaved= 7 IEnMin= 7 EnMin= -580.883632465597     IErMin= 7 ErrMin= 3.98D-07
 ErrMax= 3.98D-07  0.00D+00 EMaxC= 1.00D-01 BMatC= 1.58D-11 BMatP= 2.75D-10
 IDIUse=1 WtCom= 1.00D+00 WtEn= 0.00D+00
 Coeff-Com:  0.214D-04-0.624D-03 0.218D-02 0.133D-01-0.360D-01-0.192D+00
 Coeff-Com:  0.121D+01
 Coeff:      0.214D-04-0.624D-03 0.218D-02 0.133D-01-0.360D-01-0.192D+00
 Coeff:      0.121D+01
 Gap=     0.189 Goal=   None    Shift=    0.000
 Gap=     0.134 Goal=   None    Shift=    0.000
 RMSDP=8.32D-08 MaxDP=2.04D-06 DE=-3.06D-10 OVMax= 3.20D-06

 Cycle   8  Pass 1  IDiag  1:
 E= -580.883632465617     Delta-E=       -0.000000000021 Rises=F Damp=F
 DIIS: error= 1.16D-07 at cycle   8 NSaved=   8.
 NSaved= 8 IEnMin= 8 EnMin= -580.883632465617     IErMin= 8 ErrMin= 1.16D-07
 ErrMax= 1.16D-07  0.00D+00 EMaxC= 1.00D-01 BMatC= 1.80D-12 BMatP= 1.58D-11
 IDIUse=1 WtCom= 1.00D+00 WtEn= 0.00D+00
 Coeff-Com:  0.220D-04-0.356D-03 0.350D-03 0.441D-02 0.189D-01-0.108D+00
 Coeff-Com:  0.988D-01 0.986D+00
 Coeff:      0.220D-04-0.356D-03 0.350D-03 0.441D-02 0.189D-01-0.108D+00
 Coeff:      0.988D-01 0.986D+00
 Gap=     0.189 Goal=   None    Shift=    0.000
 Gap=     0.134 Goal=   None    Shift=    0.000
 RMSDP=2.48D-08 MaxDP=4.50D-07 DE=-2.07D-11 OVMax= 1.61D-06

 Cycle   9  Pass 1  IDiag  1:
 E= -580.883632465620     Delta-E=       -0.000000000003 Rises=F Damp=F
 DIIS: error= 8.32D-08 at cycle   9 NSaved=   9.
 NSaved= 9 IEnMin= 9 EnMin= -580.883632465620     IErMin= 9 ErrMin= 8.32D-08
 ErrMax= 8.32D-08  0.00D+00 EMaxC= 1.00D-01 BMatC= 4.75D-13 BMatP= 1.80D-12
 IDIUse=1 WtCom= 1.00D+00 WtEn= 0.00D+00
 Coeff-Com: -0.770D-05 0.150D-03-0.382D-03-0.191D-02-0.703D-03 0.415D-01
 Coeff-Com: -0.142D+00-0.274D+00 0.138D+01
 Coeff:     -0.770D-05 0.150D-03-0.382D-03-0.191D-02-0.703D-03 0.415D-01
 Coeff:     -0.142D+00-0.274D+00 0.138D+01
 Gap=     0.189 Goal=   None    Shift=    0.000
 Gap=     0.134 Goal=   None    Shift=    0.000
 RMSDP=2.22D-08 MaxDP=4.07D-07 DE=-2.96D-12 OVMax= 1.87D-06

 Cycle  10  Pass 1  IDiag  1:
 E= -580.883632465622     Delta-E=       -0.000000000002 Rises=F Damp=F
 DIIS: error= 6.30D-08 at cycle  10 NSaved=  10.
 NSaved=10 IEnMin=10 EnMin= -580.883632465622     IErMin=10 ErrMin= 6.30D-08
 ErrMax= 6.30D-08  0.00D+00 EMaxC= 1.00D-01 BMatC= 2.38D-13 BMatP= 4.75D-13
 IDIUse=1 WtCom= 1.00D+00 WtEn= 0.00D+00
 Coeff-Com:  0.726D-05-0.168D-03 0.660D-03 0.192D-02-0.560D-02-0.407D-01
 Coeff-Com:  0.243D+00 0.199D+00-0.283D+01 0.344D+01
 Coeff:      0.726D-05-0.168D-03 0.660D-03 0.192D-02-0.560D-02-0.407D-01
 Coeff:      0.243D+00 0.199D+00-0.283D+01 0.344D+01
 Gap=     0.189 Goal=   None    Shift=    0.000
 Gap=     0.134 Goal=   None    Shift=    0.000
 RMSDP=4.46D-08 MaxDP=8.32D-07 DE=-1.71D-12 OVMax= 3.93D-06

 Cycle  11  Pass 1  IDiag  1:
 E= -580.883632465625     Delta-E=       -0.000000000003 Rises=F Damp=F
 DIIS: error= 1.89D-08 at cycle  11 NSaved=  11.
[...]
           R2           0.00000   0.00323   0.18712
           R3           0.00000   0.00323   0.00323   0.18713
           R4           0.00000   0.00323   0.00323   0.00323   0.18712
           A1          -0.00001  -0.00058  -0.00058  -0.00058  -0.00058
           A2          -0.00001  -0.00058  -0.00058  -0.00058  -0.00058
           A3           0.00002   0.00115   0.00115   0.00115   0.00115
           A4          -0.00001  -0.00058  -0.00058  -0.00058  -0.00058
           A5          -0.00001  -0.00058  -0.00058  -0.00058  -0.00058
           A6           0.00002   0.00115   0.00115   0.00115   0.00115
           D1           0.00000  -0.00001  -0.00001  -0.00001  -0.00001
           D2          -0.00000  -0.00000  -0.00000  -0.00000  -0.00000
           D3          -0.00000  -0.00000  -0.00000  -0.00000  -0.00000
           D4          -0.00000   0.00000   0.00000   0.00000   0.00000
                          A1        A2        A3        A4        A5
           A1           0.15472
           A2          -0.00529   0.15471
           A3           0.01057   0.01058   0.13885
           A4          -0.00528  -0.00529   0.01057   0.15472
           A5          -0.00529  -0.00529   0.01058  -0.00529   0.15471
           A6           0.01057   0.01058  -0.02115   0.01057   0.01058
           D1           0.00001   0.00001  -0.00002   0.00001   0.00001
           D2           0.00000   0.00000  -0.00000   0.00000   0.00000
           D3           0.00000   0.00000  -0.00000   0.00000   0.00000
           D4          -0.00000  -0.00000   0.00001  -0.00000  -0.00000
                          A6        D1        D2        D3        D4
           A6           0.13885
           D1          -0.00002   0.00230
           D2          -0.00000  -0.00000   0.00230
           D3          -0.00000  -0.00000  -0.00000   0.00230
           D4           0.00001   0.00000   0.00000   0.00000   0.00230
 ITU=  1  1  1  0
     Eigenvalues ---    0.00230   0.00230   0.00230   0.09639   0.16000
     Eigenvalues ---    0.16000   0.16000   0.18389   0.18389   0.18389
     Eigenvalues ---    0.196981000.000001000.000001000.000001000.00000
     Eigenvalues --- 1000.000001000.000001000.000001000.000001000.00000
 En-DIIS/RFO-DIIS/Sim-DIIS IScMMF=       -3 using points:     4    3
 RFO step:  Lambda=-3.57907088D-10.
 NNeg= 0 NGDIIS= 2 SimSw=  2.50D-01 Rises=F DC= -2.50D-06 SmlDif=  1.00D-05
 NRisDI= 0 DoIntr=F SqrtH=F CThrHd= 10.0 CDAdj=  3.0
 RMS Error=  0.3141497763D-04 NUsed= 2 OKEnD=F EnDIS=F
 InvSVX:  RCond= 1.25D-05 Info=           0 Equed=N FErr=  8.90D-16 BErr=  2.03D-17
 DidBck=F Rises=F RFO-DIIS coefs:    1.00054   -0.00054
 Iteration  1 RMS(Cart)=  0.00004598 RMS(Int)=  0.00000000
 Iteration  2 RMS(Cart)=  0.00000000 RMS(Int)=  0.00000000
 ITry= 1 IFail=0 DXMaxC= 1.27D-04 DCOld= 1.00D+10 DXMaxT= 6.36D-01 DXLimC= 3.00D+00 Rises=F
 Variable       Old X    -DE/DX   Delta X   Delta X   Delta X     New X
                                 (Linear)    (Quad)   (Total)
    X1       -3.76300  -0.00001   0.00000   0.00000   0.00000  -3.76300
    Y1        0.00000   0.00000   0.00000   0.00000   0.00000   0.00000
    Z1        0.00000   0.00000   0.00000   0.00000   0.00000   0.00000
    X2        3.76300   0.00001   0.00000   0.00000   0.00000   3.76300
    Y2        0.00000  -0.00000   0.00000   0.00000   0.00000   0.00000
    Z2        0.00000   0.00000   0.00000   0.00000   0.00000   0.00000
    R1        2.81499   0.00000   0.00000   0.00002   0.00002   2.81501
    R2        2.81499   0.00000   0.00000   0.00002   0.00002   2.81501
    R3        2.81499   0.00000   0.00000   0.00002   0.00002   2.81501
    R4        2.81499   0.00000   0.00000   0.00002   0.00002   2.81501
    A1        2.21494   0.00000  -0.00000   0.00000   0.00000   2.21494
    A2        2.21495   0.00000  -0.00000   0.00000   0.00000   2.21495
    A3        1.85330  -0.00000   0.00000  -0.00001  -0.00000   1.85330
    A4        2.21494   0.00000  -0.00000   0.00000   0.00000   2.21494
    A5        2.21495   0.00000  -0.00000   0.00000   0.00000   2.21495
    A6        1.85330  -0.00000   0.00000  -0.00001  -0.00000   1.85330
    D1       -3.14080   0.00000   0.00000   0.00011   0.00011  -3.14069
    D2        0.00098   0.00000   0.00000   0.00003   0.00003   0.00101
    D3        0.00098   0.00000   0.00000   0.00003   0.00003   0.00101
    D4       -3.14043  -0.00000  -0.00000  -0.00005  -0.00005  -3.14048
         Item               Value     Threshold  Converged?
 Maximum Force            0.000005     0.000450     YES
 RMS     Force            0.000002     0.000300     YES
 Maximum Displacement     0.000127     0.001800     YES
 RMS     Displacement     0.000046     0.001200     YES
 Predicted change in Energy=-2.418533D-10
 Optimization completed.
    -- Stationary point found.
                           ----------------------------
                           !   Optimized Parameters   !
                           ! (Angstroms and Degrees)  !
 --------------------------                            --------------------------
 ! Name  Definition              Value          Derivative Info.                !
 --------------------------------------------------------------------------------
 ! X1    R(1,-1)                -1.9913         -DE/DX =    0.0                 !
 ! Y1    R(1,-2)                 0.0            -DE/DX =    0.0                 !
 ! Z1    R(1,-3)                 0.0            -DE/DX =    0.0                 !
 ! X2    R(2,-1)                 1.9913         -DE/DX =    0.0                 !
 ! Y2    R(2,-2)                 0.0            -DE/DX =    0.0                 !
 ! Z2    R(2,-3)                 0.0            -DE/DX =    0.0                 !
 ! R1    R(1,3)                  1.4896         -DE/DX =    0.0                 !
 ! R2    R(1,5)                  1.4896         -DE/DX =    0.0                 !
 ! R3    R(2,4)                  1.4896         -DE/DX =    0.0                 !
 ! R4    R(2,6)                  1.4896         -DE/DX =    0.0                 !
 ! A1    A(2,1,3)              126.9064         -DE/DX =    0.0                 !
 ! A2    A(2,1,5)              126.9071         -DE/DX =    0.0                 !
 ! A3    A(3,1,5)              106.1864         -DE/DX =    0.0                 !
 ! A4    A(1,2,4)              126.9064         -DE/DX =    0.0                 !
 ! A5    A(1,2,6)              126.9071         -DE/DX =    0.0                 !
 ! A6    A(4,2,6)              106.1864         -DE/DX =    0.0                 !
 ! D1    D(3,1,2,4)           -179.9548         -DE/DX =    0.0                 !
 ! D2    D(3,1,2,6)              0.056          -DE/DX =    0.0                 !
 ! D3    D(5,1,2,4)              0.0559         -DE/DX =    0.0                 !
 ! D4    D(5,1,2,6)           -179.9333         -DE/DX =    0.0                 !
 --------------------------------------------------------------------------------
 Lowest energy point so far.  Saving SCF results.
 Largest change from initial coordinates is atom    4       0.185 Angstoms.
 GradGradGradGradGradGradGradGradGradGradGradGradGradGradGradGradGradGrad

 Leave Link  103 at Mon Apr 21 20:26:18 2025, MaxMem=   536870912 cpu:               0.7 elap:               0.2
 (Enter /home/szhao/Apps/g16/l202.exe)
                          Input orientation:                          
 ---------------------------------------------------------------------
 Center     Atomic      Atomic             Coordinates (Angstroms)
 Number     Number       Type             X           Y           Z
 ---------------------------------------------------------------------
      1         14           0       -1.991295    0.000000    0.000000
      2         14           0        1.991295    0.000000    0.000000
      3          1           0       -2.885831   -1.191132   -0.000045
      4          1           0        2.885831    1.191131    0.000986
      5          1           0       -2.885846    1.191121   -0.000177
      6          1           0        2.885846   -1.191120   -0.001208
 ---------------------------------------------------------------------
                    Distance matrix (angstroms):
                    1          2          3          4          5
     1  Si   0.000000
     2  Si   3.982590   0.000000
     3  H    1.489627   5.020473   0.000000
     4  H    5.020473   1.489627   6.243978   0.000000
     5  H    1.489627   5.020485   2.382253   5.771677   0.000000
     6  H    5.020485   1.489627   5.771677   2.382253   6.243997
                    6
     6  H    0.000000
 Symmetry turned off by external request.
 Stoichiometry    H4Si2(1+,2)
 Framework group  C1[X(H4Si2)]
 Deg. of freedom    12
 Full point group                 C1      NOp   1
 Rotational constants (GHZ):          88.3601527           1.9784315           1.9351035
 Leave Link  202 at Mon Apr 21 20:26:18 2025, MaxMem=   536870912 cpu:               0.1 elap:               0.0
 (Enter /home/szhao/Apps/g16/l601.exe)
 Copying SCF densities to generalized density rwf, IOpCl= 1 IROHF=0.

 **********************************************************************

            Population analysis using the SCF density.

 **********************************************************************

 Alpha  occ. eigenvalues --  -67.24524 -67.24524  -5.79011  -5.79009  -4.10284
 Alpha  occ. eigenvalues --   -4.10284  -4.09954  -4.09954  -4.09617  -4.09617
 Alpha  occ. eigenvalues --   -0.78665  -0.78339  -0.60370  -0.60284  -0.51038
 Alpha  occ. eigenvalues --   -0.46619
 Alpha virt. eigenvalues --   -0.27789  -0.26616  -0.13508  -0.12098  -0.09297
 Alpha virt. eigenvalues --   -0.08060  -0.07686  -0.07626  -0.06836  -0.06331
 Alpha virt. eigenvalues --   -0.06144  -0.05688  -0.05668  -0.03397   0.13005
 Alpha virt. eigenvalues --    0.13206   0.14080   0.14554   0.15971   0.17583
 Alpha virt. eigenvalues --    0.20774   0.22188   0.25975   0.28483   0.29816
 Alpha virt. eigenvalues --    0.32428   0.37972   0.37975   0.39342   0.39614
 Alpha virt. eigenvalues --    0.40102   0.43926   0.57998   0.58105   0.71059
 Alpha virt. eigenvalues --    0.71938   1.00683   1.01234   1.01785   1.02755
 Alpha virt. eigenvalues --    1.03283   1.03784   1.20866   1.21237   1.27868
 Alpha virt. eigenvalues --    1.27869   1.31919   1.31936   1.43113   1.43821
 Alpha virt. eigenvalues --    1.72785   1.72893   1.90085   1.91718   2.38252
 Alpha virt. eigenvalues --    2.42380   2.45671   2.47027   5.29623   5.35072
 Alpha virt. eigenvalues --   11.22286  11.23238  11.28669  11.30847  11.34406
 Alpha virt. eigenvalues --   11.35057 140.85795 140.92005
  Beta  occ. eigenvalues --  -67.24173 -67.24173  -5.78736  -5.78735  -4.10178
  Beta  occ. eigenvalues --   -4.10177  -4.09501  -4.09501  -4.09169  -4.09169
  Beta  occ. eigenvalues --   -0.76839  -0.76359  -0.59193  -0.59087  -0.45164
  Beta virt. eigenvalues --   -0.31747  -0.26590  -0.25211  -0.12490  -0.11667
  Beta virt. eigenvalues --   -0.09400  -0.07586  -0.07409  -0.06546  -0.06497
  Beta virt. eigenvalues --   -0.06051  -0.05719  -0.05362  -0.05139  -0.03013
  Beta virt. eigenvalues --    0.13184   0.13479   0.14493   0.14579   0.16299
  Beta virt. eigenvalues --    0.17944   0.21283   0.22883   0.26510   0.28743
  Beta virt. eigenvalues --    0.30105   0.33173   0.39746   0.39753   0.41821
  Beta virt. eigenvalues --    0.42023   0.42759   0.45897   0.59891   0.60015
  Beta virt. eigenvalues --    0.72181   0.72914   1.02457   1.03309   1.03466
  Beta virt. eigenvalues --    1.04398   1.05911   1.06922   1.21036   1.21418
  Beta virt. eigenvalues --    1.28295   1.28297   1.32287   1.32305   1.44012
  Beta virt. eigenvalues --    1.44545   1.74403   1.74502   1.91716   1.93260
  Beta virt. eigenvalues --    2.39331   2.43442   2.46795   2.48147   5.30735
  Beta virt. eigenvalues --    5.36208  11.23016  11.23969  11.30445  11.32681
  Beta virt. eigenvalues --   11.35091  11.35744 140.86336 140.92547
          Condensed to atoms (all electrons):
               1          2          3          4          5          6
     1  Si  12.763648   0.049840   0.315369   0.000162   0.315369   0.000162
     2  Si   0.049840  12.763648   0.000162   0.315369   0.000162   0.315369
     3  H    0.315369   0.000162   0.730221   0.000003  -0.018033   0.000005
     4  H    0.000162   0.315369   0.000003   0.730221   0.000005  -0.018033
     5  H    0.315369   0.000162  -0.018033   0.000005   0.730220   0.000003
     6  H    0.000162   0.315369   0.000005  -0.018033   0.000003   0.730220
          Atomic-Atomic Spin Densities.
               1          2          3          4          5          6
     1  Si   0.541277  -0.110122  -0.025749   0.002809  -0.025750   0.002809
     2  Si  -0.110122   0.541277   0.002809  -0.025749   0.002809  -0.025750
     3  H   -0.025749   0.002809   0.071368  -0.000008   0.008965  -0.000022
     4  H    0.002809  -0.025749  -0.000008   0.071368  -0.000022   0.008965
     5  H   -0.025750   0.002809   0.008965  -0.000022   0.071369  -0.000008
     6  H    0.002809  -0.025750  -0.000022   0.008965  -0.000008   0.071369
 Mulliken charges and spin densities:
               1          2
     1  Si   0.555451   0.385274
     2  Si   0.555451   0.385274
     3  H   -0.027726   0.057363
     4  H   -0.027726   0.057363
     5  H   -0.027725   0.057363
     6  H   -0.027725   0.057363
 Sum of Mulliken charges =   1.00000   1.00000
 Mulliken charges and spin densities with hydrogens summed into heavy atoms:
               1          2
     1  Si   0.500000   0.500000
     2  Si   0.500000   0.500000
 Electronic spatial extent (au):  <R**2>=            571.8338
 Charge=              1.0000 electrons
 Dipole moment (field-independent basis, Debye):
    X=              0.0000    Y=              0.0000    Z=             -0.0001  Tot=              0.0001
 Quadrupole moment (field-independent basis, Debye-Ang):
   XX=             -1.9916   YY=            -25.7854   ZZ=            -20.8085
   XY=             -0.0000   XZ=              0.0000   YZ=             -0.0022
 Traceless Quadrupole moment (field-independent basis, Debye-Ang):
   XX=             14.2036   YY=             -9.5902   ZZ=             -4.6133
   XY=             -0.0000   XZ=              0.0000   YZ=             -0.0022
 Octapole moment (field-independent basis, Debye-Ang**2):
  XXX=              0.0000  YYY=             -0.0000  ZZZ=              0.0009  XYY=              0.0000
  XXY=             -0.0000  XXZ=              0.0033  XZZ=             -0.0000  YZZ=             -0.0000
  YYZ=              0.0003  XYZ=             -0.0049
 Hexadecapole moment (field-independent basis, Debye-Ang**3):
 XXXX=           -652.6350 YYYY=            -68.2568 ZZZZ=            -24.6493 XXXY=             -0.0003
 XXXZ=              0.0000 YYYX=             -0.0001 YYYZ=             -0.0084 ZZZX=              0.0000
 ZZZY=             -0.0105 XXYY=           -129.6196 XXZZ=           -103.5562 YYZZ=            -16.2738
 XXYZ=             -0.0113 YYXZ=              0.0000 ZZXY=             -0.0000
 N-N= 5.263629518962D+01 E-N=-1.482299372279D+03  KE= 5.799580264249D+02
                          Isotropic Fermi Contact Couplings
        Atom                 a.u.       MegaHertz       Gauss      10(-4) cm-1
     1  Si(29)             0.70783    -629.06932    -224.46757    -209.83494
     2  Si(29)             0.70783    -629.06934    -224.46758    -209.83495
     3  H(1)               0.02370     105.95318      37.80673      35.34218
     4  H(1)               0.02370     105.95318      37.80673      35.34218
     5  H(1)               0.02370     105.95408      37.80705      35.34248
     6  H(1)               0.02370     105.95408      37.80705      35.34248
 --------------------------------------------------------
       Center         ----  Spin Dipole Couplings  ----
                      3XX-RR        3YY-RR        3ZZ-RR
 --------------------------------------------------------
     1   Atom        0.886728     -0.450345     -0.436383
     2   Atom        0.886728     -0.450345     -0.436383
     3   Atom        0.000554      0.008351     -0.008906
     4   Atom        0.000554      0.008351     -0.008906
     5   Atom        0.000554      0.008351     -0.008906
     6   Atom        0.000554      0.008351     -0.008906
 --------------------------------------------------------
                        XY            XZ            YZ
 --------------------------------------------------------
     1   Atom        0.000009      0.000306      0.000001
     2   Atom        0.000009     -0.000307     -0.000015
     3   Atom        0.004854      0.000002     -0.000001
     4   Atom        0.004854      0.000002      0.000016
     5   Atom       -0.004854      0.000002     -0.000001
     6   Atom       -0.004854     -0.000007      0.000016
 --------------------------------------------------------


 ---------------------------------------------------------------------------------
              Anisotropic Spin Dipole Couplings in Principal Axis System
 ---------------------------------------------------------------------------------

       Atom             a.u.   MegaHertz   Gauss  10(-4) cm-1        Axes

              Baa    -0.4503    47.774    17.047    15.936 -0.0000  1.0000 -0.0001
     1 Si(29) Bbb    -0.4364    46.293    16.519    15.442 -0.0002  0.0001  1.0000
              Bcc     0.8867   -94.068   -33.566   -31.378  1.0000  0.0000  0.0002
 
              Baa    -0.4503    47.774    17.047    15.936 -0.0000  1.0000  0.0011
     2 Si(29) Bbb    -0.4364    46.293    16.519    15.442  0.0002 -0.0011  1.0000
              Bcc     0.8867   -94.068   -33.566   -31.378  1.0000  0.0000 -0.0002
 
              Baa    -0.0089    -4.752    -1.695    -1.585 -0.0002  0.0001  1.0000
     3 H(1)   Bbb    -0.0018    -0.946    -0.338    -0.316  0.9017 -0.4323  0.0003
              Bcc     0.0107     5.698     2.033     1.901  0.4323  0.9017  0.0000
 
              Baa    -0.0089    -4.752    -1.695    -1.585  0.0002 -0.0010  1.0000
     4 H(1)   Bbb    -0.0018    -0.946    -0.338    -0.316  0.9017 -0.4323 -0.0006
              Bcc     0.0107     5.698     2.033     1.901  0.4323  0.9017  0.0008
 
              Baa    -0.0089    -4.752    -1.695    -1.585 -0.0002  0.0000  1.0000
     5 H(1)   Bbb    -0.0018    -0.946    -0.338    -0.316  0.9017  0.4323  0.0002
              Bcc     0.0107     5.698     2.033     1.901 -0.4323  0.9017 -0.0001
 
              Baa    -0.0089    -4.752    -1.695    -1.585  0.0002 -0.0009  1.0000
     6 H(1)   Bbb    -0.0018    -0.946    -0.338    -0.316  0.9017  0.4323  0.0002
              Bcc     0.0107     5.698     2.033     1.901 -0.4323  0.9017  0.0009
 

 ---------------------------------------------------------------------------------

 No NMR shielding tensors so no spin-rotation constants.
 Leave Link  601 at Mon Apr 21 20:26:19 2025, MaxMem=   536870912 cpu:               1.8 elap:               0.3
 (Enter /home/szhao/Apps/g16/l9999.exe)
 1\1\GINC-NODE05\FOpt\UM062X\6-311+G(d,p)\H4Si2(1+,2)\SZHAO\21-Apr-2025
 \0\\#p opt UM062X/6-311+G** nosymm int=superfine\\Title Card Required\
 \1,2\Si,-1.991295,0.,0.\Si,1.991295,0.,0.\H,-2.8858311015,-1.191131736
 ,-0.0000451375\H,2.8858310614,1.1911313531,0.0009855521\H,-2.885845720
 7,1.1911207878,-0.0001773372\H,2.885845726,-1.1911201767,-0.0012083412
 \\Version=ES64L-G16RevA.03\HF=-580.883635\S2=0.756415\S2-1=0.\S2A=0.75
 0008\RMSD=2.343e-09\RMSF=2.191e-06\Dipole=0.,0.,-0.0000025\Quadrupole=
 10.5599932,-7.1301131,-3.4298801,-0.0000068,0.0000003,-0.0016009\PG=C0
 1 [X(H4Si2)]\\@


 ASKING DUMB QUESTIONS IS EASIER THAN CORECTING DUMB MISTAKES.
 Job cpu time:       0 days  0 hours  6 minutes 27.0 seconds.
 Elapsed time:       0 days  0 hours  0 minutes 53.3 seconds.
 File lengths (MBytes):  RWF=     22 Int=      0 D2E=      0 Chk=      2 Scr=      2
 Normal termination of Gaussian 16 at Mon Apr 21 20:26:19 2025.
