 Entering Gaussian System, Link 0=g16
 Initial command:
 /home/szhao/Apps/g16/l1.exe "/home/szhao/tmp/Gau-77850.inp" -scrdir="/home/szhao/tmp/"
 Default is to use a total of  16 processors:
                               16 via shared-memory
                                1 via Linda
 Entering Link 1 = /home/szhao/Apps/g16/l1.exe PID=     77852.
  
 Copyright (c) 1988,1990,1992,1993,1995,1998,2003,2009,2016,
            Gaussian, Inc.  All Rights Reserved.
  
 This is part of the Gaussian(R) 16 program.  It is based on
 the Gaussian(R) 09 system (copyright 2009, Gaussian, Inc.),
 the Gaussian(R) 03 system (copyright 2003, Gaussian, Inc.),
 the Gaussian(R) 98 system (copyright 1998, Gaussian, Inc.),
 the Gaussian(R) 94 system (copyright 1995, Gaussian, Inc.),
 the Gaussian 92(TM) system (copyright 1992, Gaussian, Inc.),
 the Gaussian 90(TM) system (copyright 1990, Gaussian, Inc.),
 the Gaussian 88(TM) system (copyright 1988, Gaussian, Inc.),
 the Gaussian 86(TM) system (copyright 1986, Carnegie Mellon
 University), and the Gaussian 82(TM) system (copyright 1983,
 Carnegie Mellon University). Gaussian is a federally registered
 trademark of Gaussian, Inc.
  
 This software contains proprietary and confidential information,
 including trade secrets, belonging to Gaussian, Inc.
  
 This software is provided under written license and may be
 used, copied, transmitted, or stored only in accord with that
 written license.
  
 The following legend is applicable only to US Government
 contracts under FAR:
  
                    RESTRICTED RIGHTS LEGEND
  
 Use, reproduction and disclosure by the US Government is
 subject to restrictions as set forth in subparagraphs (a)
 and (c) of the Commercial Computer Software - Restricted
 Rights clause in FAR 52.227-19.
  
 Gaussian, Inc.
 340 Quinnipiac St., Bldg. 40, Wallingford CT 06492
  
  
 ---------------------------------------------------------------
 Warning -- This program may not be used in any manner that
 competes with the business of Gaussian, Inc. or will provide
 assistance to any competitor of Gaussian, Inc.  The licensee
 of this program is prohibited from giving any competitor of
 Gaussian, Inc. access to this program.  By using this program,
 the user acknowledges that Gaussian, Inc. is engaged in the
 business of creating and licensing software in the field of
 computational chemistry and represents and warrants to the
 licensee that it is not a competitor of Gaussian, Inc. and that
 it will not use this program in any manner prohibited above.
 ---------------------------------------------------------------
  

 Cite this work as:
 Gaussian 16, Revision A.03,
 M. J. Frisch, G. W. Trucks, H. B. Schlegel, G. E. Scuseria, 
 M. A. Robb, J. R. Cheeseman, G. Scalmani, V. Barone, 
 G. A. Petersson, H. Nakatsuji, X. Li, M. Caricato, A. V. Marenich, 
 J. Bloino, B. G. Janesko, R. Gomperts, B. Mennucci, H. P. Hratchian, 
 J. V. Ortiz, A. F. Izmaylov, J. L. Sonnenberg, D. Williams-Young, 
 F. Ding, F. Lipparini, F. Egidi, J. Goings, B. Peng, A. Petrone, 
 T. Henderson, D. Ranasinghe, V. G. Zakrzewski, J. Gao, N. Rega, 
 G. Zheng, W. Liang, M. Hada, M. Ehara, K. Toyota, R. Fukuda, 
 J. Hasegawa, M. Ishida, T. Nakajima, Y. Honda, O. Kitao, H. Nakai, 
 T. Vreven, K. Throssell, J. A. Montgomery, Jr., J. E. Peralta, 
 F. Ogliaro, M. J. Bearpark, J. J. Heyd, E. N. Brothers, K. N. Kudin, 
 V. N. Staroverov, T. A. Keith, R. Kobayashi, J. Normand, 
 K. Raghavachari, A. P. Rendell, J. C. Burant, S. S. Iyengar, 
 J. Tomasi, M. Cossi, J. M. Millam, M. Klene, C. Adamo, R. Cammi, 
 J. W. Ochterski, R. L. Martin, K. Morokuma, O. Farkas, 
 J. B. Foresman, and D. J. Fox, Gaussian, Inc., Wallingford CT, 2016.
 
 ******************************************
 Gaussian 16:  ES64L-G16RevA.03 25-Dec-2016
                19-Nov-2024 
 ******************************************
 %chk=opt.chk
 %mem=4GB
 %nprocshared=8
 Will use up to    8 processors via shared memory.
 ---------------------------------------
 #p UM062X/6-311+G** force int=superfine
 ---------------------------------------
 1/10=7,30=1,38=1/1,3;
 2/12=2,17=6,18=5,40=1/2;
 3/5=4,6=6,7=111,11=2,25=1,30=1,71=1,74=-55,75=-7,116=2/1,2,3;
 4//1;
 5/5=2,38=5/2;
 6/7=2,8=2,9=2,10=2,28=1/1;
 7/29=1/1,2,3,16;
 1/10=7,30=1/3;
 99//99;
 Leave Link    1 at Tue Nov 19 11:56:14 2024, MaxMem=   536870912 cpu:               0.3 elap:               0.0
 (Enter /home/szhao/Apps/g16/l101.exe)
 -------------------
 Title Card Required
 -------------------
 Symbolic Z-matrix:
 Charge =  1 Multiplicity = 2
 C                    -0.98258   0.        0. 
 C                     0.98258   0.        0. 
 H                    -1.45147  -0.97775   0. 
 H                    -1.45152   0.97764   0. 
 H                     1.45147   0.97775   0. 
 H                     1.45152  -0.97764   0. 
 
 ITRead=  0  0  0  0  0  0
 MicOpt= -1 -1 -1 -1 -1 -1
 NAtoms=      6 NQM=        6 NQMF=       0 NMMI=      0 NMMIF=      0
                NMic=       0 NMicF=      0.
                    Isotopes and Nuclear Properties:
 (Nuclear quadrupole moments (NQMom) in fm**2, nuclear magnetic moments (NMagM)
  in nuclear magnetons)

  Atom         1           2           3           4           5           6
 IAtWgt=          12          12           1           1           1           1
 AtmWgt=  12.0000000  12.0000000   1.0078250   1.0078250   1.0078250   1.0078250
 NucSpn=           0           0           1           1           1           1
 AtZEff=  -0.0000000  -0.0000000  -0.0000000  -0.0000000  -0.0000000  -0.0000000
 NQMom=    0.0000000   0.0000000   0.0000000   0.0000000   0.0000000   0.0000000
 NMagM=    0.0000000   0.0000000   2.7928460   2.7928460   2.7928460   2.7928460
 AtZNuc=   6.0000000   6.0000000   1.0000000   1.0000000   1.0000000   1.0000000
 Leave Link  101 at Tue Nov 19 11:56:14 2024, MaxMem=   536870912 cpu:               2.1 elap:               0.3
 (Enter /home/szhao/Apps/g16/l103.exe)

 GradGradGradGradGradGradGradGradGradGradGradGradGradGradGradGradGradGrad
 Berny optimization.
 Initialization pass.
 Trust Radius=3.00D-01 FncErr=1.00D-07 GrdErr=1.00D-07 EigMax=2.50D+02 EigMin=1.00D-04
 Number of steps in this run=      2 maximum allowed number of steps=      2.
 GradGradGradGradGradGradGradGradGradGradGradGradGradGradGradGradGradGrad

 Leave Link  103 at Tue Nov 19 11:56:14 2024, MaxMem=   536870912 cpu:               0.2 elap:               0.0
 (Enter /home/szhao/Apps/g16/l202.exe)
                          Input orientation:                          
 ---------------------------------------------------------------------
 Center     Atomic      Atomic             Coordinates (Angstroms)
 Number     Number       Type             X           Y           Z
 ---------------------------------------------------------------------
      1          6           0       -0.982580    0.000000    0.000000
      2          6           0        0.982580    0.000000    0.000000
      3          1           0       -1.451472   -0.977747    0.000000
      4          1           0       -1.451524    0.977643    0.000000
      5          1           0        1.451473    0.977747    0.000000
      6          1           0        1.451524   -0.977643    0.000000
 ---------------------------------------------------------------------
                    Distance matrix (angstroms):
                    1          2          3          4          5
     1  C    0.000000
     2  C    1.965160   0.000000
     3  H    1.084366   2.623089   0.000000
     4  H    1.084294   2.623099   1.955390   0.000000
     5  H    2.623090   1.084366   3.500149   2.902997   0.000000
     6  H    2.623099   1.084294   2.902996   3.500119   1.955390
                    6
     6  H    0.000000
 Stoichiometry    C2H4(1+,2)
 Framework group  C2H[SGH(C2H4)]
 Deg. of freedom     5
 Full point group                 C2H     NOp   4
 Largest Abelian subgroup         C2H     NOp   4
 Largest concise Abelian subgroup C2      NOp   2
                         Standard orientation:                         
 ---------------------------------------------------------------------
 Center     Atomic      Atomic             Coordinates (Angstroms)
 Number     Number       Type             X           Y           Z
 ---------------------------------------------------------------------
      1          6           0       -0.000000   -0.982580    0.000000
      2          6           0        0.000000    0.982580    0.000000
      3          1           0        0.977747   -1.451472    0.000000
      4          1           0       -0.977643   -1.451524    0.000000
      5          1           0       -0.977747    1.451472    0.000000
      6          1           0        0.977643    1.451524    0.000000
 ---------------------------------------------------------------------
 Rotational constants (GHZ):         131.1490883          15.9604508          14.2288433
 Leave Link  202 at Tue Nov 19 11:56:14 2024, MaxMem=   536870912 cpu:               0.0 elap:               0.0
 (Enter /home/szhao/Apps/g16/l301.exe)
 Standard basis: 6-311+G(d,p) (5D, 7F)
 Ernie: Thresh=  0.10000D-02 Tol=  0.10000D-05 Strict=F.
 There are    27 symmetry adapted cartesian basis functions of AG  symmetry.
 There are     8 symmetry adapted cartesian basis functions of BG  symmetry.
 There are     8 symmetry adapted cartesian basis functions of AU  symmetry.
 There are    27 symmetry adapted cartesian basis functions of BU  symmetry.
 There are    26 symmetry adapted basis functions of AG  symmetry.
 There are     8 symmetry adapted basis functions of BG  symmetry.
 There are     8 symmetry adapted basis functions of AU  symmetry.
 There are    26 symmetry adapted basis functions of BU  symmetry.
    68 basis functions,   104 primitive gaussians,    70 cartesian basis functions
     8 alpha electrons        7 beta electrons
       nuclear repulsion energy        27.4564993599 Hartrees.
 IExCor= 4336 DFT=T Ex+Corr=M062X ExCW=0 ScaHFX=  0.540000
 ScaDFX=  1.000000  1.000000  1.000000  1.000000 ScalE2=  1.000000  1.000000
 IRadAn=      7 IRanWt=     -1 IRanGd=            0 ICorTp=0 IEmpDi=  4
 NAtoms=    6 NActive=    6 NUniq=    3 SFac= 4.00D+00 NAtFMM=   60 NAOKFM=F Big=F
 Integral buffers will be    131072 words long.
 Raffenetti 2 integral format.
 Two-electron integral symmetry is turned on.
 Leave Link  301 at Tue Nov 19 11:56:14 2024, MaxMem=   536870912 cpu:               0.3 elap:               0.0
 (Enter /home/szhao/Apps/g16/l302.exe)
 NPDir=0 NMtPBC=     1 NCelOv=     1 NCel=       1 NClECP=     1 NCelD=      1
         NCelK=      1 NCelE2=     1 NClLst=     1 CellRange=     0.0.
 One-electron integrals computed using PRISM.
 One-electron integral symmetry used in STVInt
 NBasis=    68 RedAO= T EigKep=  1.21D-03  NBF=    26     8     8    26
 NBsUse=    68 1.00D-06 EigRej= -1.00D+00 NBFU=    26     8     8    26
 Precomputing XC quadrature grid using
 IXCGrd= 4 IRadAn=           7 IRanWt=          -1 IRanGd=           0 AccXCQ= 0.00D+00.
 Generated NRdTot=       0 NPtTot=           0 NUsed=           0 NTot=          32
 NSgBfM=    70    70    70    70    70 MxSgAt=     6 MxSgA2=     6.
 Leave Link  302 at Tue Nov 19 11:56:14 2024, MaxMem=   536870912 cpu:               1.3 elap:               0.2
 (Enter /home/szhao/Apps/g16/l303.exe)
 DipDrv:  MaxL=1.
 Leave Link  303 at Tue Nov 19 11:56:14 2024, MaxMem=   536870912 cpu:               0.4 elap:               0.1
 (Enter /home/szhao/Apps/g16/l401.exe)
 ExpMin= 4.38D-02 ExpMax= 4.56D+03 ExpMxC= 6.82D+02 IAcc=3 IRadAn=         7 AccDes= 0.00D+00
 Harris functional with IExCor= 1009 and IRadAn=       7 diagonalized for initial guess.
 HarFok:  IExCor= 1009 AccDes= 0.00D+00 IRadAn=         7 IDoV= 1 UseB2=F ITyADJ=14
 ICtDFT=  3500011 ScaDFX=  1.000000  1.000000  1.000000  1.000000
 FoFCou: FMM=F IPFlag=           0 FMFlag=      100000 FMFlg1=           0
         NFxFlg=           0 DoJE=T BraDBF=F KetDBF=T FulRan=T
         wScrn=  0.000000 ICntrl=       500 IOpCl=  0 I1Cent=   200000004 NGrid=           0
         NMat0=    1 NMatS0=      1 NMatT0=    0 NMatD0=    1 NMtDS0=    0 NMtDT0=    0
 Petite list used in FoFCou.
 Harris En= -78.0949505492872    
 JPrj=0 DoOrth=F DoCkMO=F.
 Initial guess orbital symmetries:
 Alpha Orbitals:
       Occupied  (AG) (BU) (AG) (BU) (BU) (AG) (AG) (AU)
       Virtual   (BG) (BU) (AG) (BU) (BU) (AG) (AU) (AG) (BG) (AG)
                 (BU) (BU) (BU) (AG) (BU) (AG) (BU) (AU) (AG) (BG)
                 (BU) (AG) (BU) (AG) (AG) (BU) (BG) (AU) (AU) (AG)
                 (AG) (BU) (BG) (AG) (BU) (BU) (AU) (BG) (BU) (AG)
                 (AG) (BG) (BU) (AU) (BU) (BU) (AG) (AG) (AG) (BU)
                 (AG) (AU) (BU) (BG) (AG) (BU) (BU) (AG) (BU) (AG)
 Beta  Orbitals:
       Occupied  (AG) (BU) (AG) (BU) (BU) (AG) (AG)
       Virtual   (AU) (BG) (BU) (AG) (BU) (BU) (AG) (AU) (AG) (BG)
                 (AG) (BU) (BU) (BU) (AG) (BU) (AG) (BU) (AU) (AG)
                 (BG) (BU) (AG) (BU) (AG) (AG) (BU) (BG) (AU) (AU)
                 (AG) (AG) (BU) (BG) (AG) (BU) (BU) (AU) (BG) (BU)
                 (AG) (AG) (BG) (BU) (AU) (BU) (BU) (AG) (AG) (AG)
                 (BU) (AG) (AU) (BU) (BG) (AG) (BU) (BU) (AG) (BU)
                 (AG)
 The electronic state of the initial guess is 2-AU.
 Initial guess <Sx>= 0.0000 <Sy>= 0.0000 <Sz>= 0.5000 <S**2>= 0.7500 S= 0.5000
 Leave Link  401 at Tue Nov 19 11:56:15 2024, MaxMem=   536870912 cpu:               1.5 elap:               0.2
 (Enter /home/szhao/Apps/g16/l502.exe)
 Keep R1 and R2 ints in memory in symmetry-blocked form, NReq=9935219.
 FoFCou: FMM=F IPFlag=           0 FMFlag=           0 FMFlg1=           0
         NFxFlg=           0 DoJE=F BraDBF=F KetDBF=F FulRan=T
         wScrn=  0.000000 ICntrl=       600 IOpCl=  0 I1Cent=           0 NGrid=           0
         NMat0=    1 NMatS0=   2346 NMatT0=    0 NMatD0=    1 NMtDS0=    0 NMtDT0=    0
 Petite list used in FoFCou.
 UHF open shell SCF:
 Using DIIS extrapolation, IDIIS=  1040.
 NGot=   536870912 LenX=   535358074 LenY=   535352733
 Requested convergence on RMS density matrix=1.00D-08 within 128 cycles.
 Requested convergence on MAX density matrix=1.00D-06.
 Requested convergence on             energy=1.00D-06.
 No special actions if energy rises.

 Cycle   1  Pass 1  IDiag  1:
 E= -78.0687500112386    
 DIIS: error= 1.83D-02 at cycle   1 NSaved=   1.
 NSaved= 1 IEnMin= 1 EnMin= -78.0687500112386     IErMin= 1 ErrMin= 1.83D-02
 ErrMax= 1.83D-02  0.00D+00 EMaxC= 1.00D-01 BMatC= 5.76D-02 BMatP= 5.76D-02
 IDIUse=3 WtCom= 8.17D-01 WtEn= 1.83D-01
 Coeff-Com:  0.100D+01
 Coeff-En:   0.100D+01
 Coeff:      0.100D+01
 Gap=     0.211 Goal=   None    Shift=    0.000
 Gap=     0.319 Goal=   None    Shift=    0.000
 GapD=    0.211 DampG=1.000 DampE=0.500 DampFc=0.5000 IDamp=-1.
 Damping current iteration by 5.00D-01
 RMSDP=1.39D-03 MaxDP=1.68D-02              OVMax= 3.78D-02

 Cycle   2  Pass 1  IDiag  1:
 E= -78.0727637819547     Delta-E=       -0.004013770716 Rises=F Damp=T
 DIIS: error= 9.25D-03 at cycle   2 NSaved=   2.
 NSaved= 2 IEnMin= 2 EnMin= -78.0727637819547     IErMin= 2 ErrMin= 9.25D-03
 ErrMax= 9.25D-03  0.00D+00 EMaxC= 1.00D-01 BMatC= 1.34D-02 BMatP= 5.76D-02
 IDIUse=3 WtCom= 9.07D-01 WtEn= 9.25D-02
 Coeff-Com: -0.867D+00 0.187D+01
 Coeff-En:   0.000D+00 0.100D+01
 Coeff:     -0.787D+00 0.179D+01
 Gap=     0.210 Goal=   None    Shift=    0.000
 Gap=     0.309 Goal=   None    Shift=    0.000
 RMSDP=6.53D-04 MaxDP=9.59D-03 DE=-4.01D-03 OVMax= 1.02D-02

 Cycle   3  Pass 1  IDiag  1:
 E= -78.0766722880396     Delta-E=       -0.003908506085 Rises=F Damp=F
 DIIS: error= 1.45D-03 at cycle   3 NSaved=   3.
 NSaved= 3 IEnMin= 3 EnMin= -78.0766722880396     IErMin= 3 ErrMin= 1.45D-03
 ErrMax= 1.45D-03  0.00D+00 EMaxC= 1.00D-01 BMatC= 1.48D-04 BMatP= 1.34D-02
 IDIUse=3 WtCom= 9.85D-01 WtEn= 1.45D-02
 Coeff-Com: -0.194D+00 0.382D+00 0.812D+00
 Coeff-En:   0.000D+00 0.000D+00 0.100D+01
 Coeff:     -0.192D+00 0.377D+00 0.815D+00
 Gap=     0.211 Goal=   None    Shift=    0.000
 Gap=     0.310 Goal=   None    Shift=    0.000
 RMSDP=7.14D-05 MaxDP=2.07D-03 DE=-3.91D-03 OVMax= 2.58D-03

 Cycle   4  Pass 1  IDiag  1:
 E= -78.0767157226189     Delta-E=       -0.000043434579 Rises=F Damp=F
 DIIS: error= 3.81D-04 at cycle   4 NSaved=   4.
 NSaved= 4 IEnMin= 4 EnMin= -78.0767157226189     IErMin= 4 ErrMin= 3.81D-04
 ErrMax= 3.81D-04  0.00D+00 EMaxC= 1.00D-01 BMatC= 1.03D-05 BMatP= 1.48D-04
 IDIUse=3 WtCom= 9.96D-01 WtEn= 3.81D-03
 Coeff-Com:  0.190D-01-0.461D-01 0.569D-01 0.970D+00
 Coeff-En:   0.000D+00 0.000D+00 0.000D+00 0.100D+01
 Coeff:      0.189D-01-0.459D-01 0.566D-01 0.970D+00
 Gap=     0.211 Goal=   None    Shift=    0.000
 Gap=     0.310 Goal=   None    Shift=    0.000
 RMSDP=2.67D-05 MaxDP=9.71D-04 DE=-4.34D-05 OVMax= 1.03D-03

 Cycle   5  Pass 1  IDiag  1:
 E= -78.0767202829032     Delta-E=       -0.000004560284 Rises=F Damp=F
 DIIS: error= 1.50D-04 at cycle   5 NSaved=   5.
 NSaved= 5 IEnMin= 5 EnMin= -78.0767202829032     IErMin= 5 ErrMin= 1.50D-04
 ErrMax= 1.50D-04  0.00D+00 EMaxC= 1.00D-01 BMatC= 1.37D-06 BMatP= 1.03D-05
 IDIUse=3 WtCom= 9.98D-01 WtEn= 1.50D-03
 Coeff-Com:  0.263D-01-0.514D-01-0.115D+00 0.249D-01 0.111D+01
 Coeff-En:   0.000D+00 0.000D+00 0.000D+00 0.000D+00 0.100D+01
 Coeff:      0.263D-01-0.513D-01-0.114D+00 0.249D-01 0.111D+01
 Gap=     0.211 Goal=   None    Shift=    0.000
 Gap=     0.310 Goal=   None    Shift=    0.000
 RMSDP=1.27D-05 MaxDP=3.06D-04 DE=-4.56D-06 OVMax= 3.87D-04

 Cycle   6  Pass 1  IDiag  1:
 E= -78.0767210569006     Delta-E=       -0.000000773997 Rises=F Damp=F
 DIIS: error= 2.92D-05 at cycle   6 NSaved=   6.
 NSaved= 6 IEnMin= 6 EnMin= -78.0767210569006     IErMin= 6 ErrMin= 2.92D-05
 ErrMax= 2.92D-05  0.00D+00 EMaxC= 1.00D-01 BMatC= 4.40D-08 BMatP= 1.37D-06
 IDIUse=1 WtCom= 1.00D+00 WtEn= 0.00D+00
 Coeff-Com: -0.661D-02 0.135D-01 0.254D-01-0.550D-01-0.269D+00 0.129D+01
 Coeff:     -0.661D-02 0.135D-01 0.254D-01-0.550D-01-0.269D+00 0.129D+01
 Gap=     0.211 Goal=   None    Shift=    0.000
 Gap=     0.310 Goal=   None    Shift=    0.000
 RMSDP=2.63D-06 MaxDP=4.96D-05 DE=-7.74D-07 OVMax= 8.83D-05

 Cycle   7  Pass 1  IDiag  1:
 E= -78.0767210844065     Delta-E=       -0.000000027506 Rises=F Damp=F
 DIIS: error= 2.69D-06 at cycle   7 NSaved=   7.
 NSaved= 7 IEnMin= 7 EnMin= -78.0767210844065     IErMin= 7 ErrMin= 2.69D-06
 ErrMax= 2.69D-06  0.00D+00 EMaxC= 1.00D-01 BMatC= 3.98D-10 BMatP= 4.40D-08
 IDIUse=1 WtCom= 1.00D+00 WtEn= 0.00D+00
 Coeff-Com:  0.472D-03-0.988D-03-0.125D-02 0.527D-02 0.190D-01-0.169D+00
 Coeff-Com:  0.115D+01
 Coeff:      0.472D-03-0.988D-03-0.125D-02 0.527D-02 0.190D-01-0.169D+00
 Coeff:      0.115D+01
 Gap=     0.211 Goal=   None    Shift=    0.000
 Gap=     0.310 Goal=   None    Shift=    0.000
 RMSDP=1.87D-07 MaxDP=3.17D-06 DE=-2.75D-08 OVMax= 7.72D-06

 Cycle   8  Pass 1  IDiag  1:
 E= -78.0767210846509     Delta-E=       -0.000000000244 Rises=F Damp=F
 DIIS: error= 3.21D-07 at cycle   8 NSaved=   8.
 NSaved= 8 IEnMin= 8 EnMin= -78.0767210846509     IErMin= 8 ErrMin= 3.21D-07
 ErrMax= 3.21D-07  0.00D+00 EMaxC= 1.00D-01 BMatC= 7.68D-12 BMatP= 3.98D-10
 IDIUse=1 WtCom= 1.00D+00 WtEn= 0.00D+00
 Coeff-Com: -0.119D-04 0.295D-04 0.543D-05-0.178D-03-0.119D-02 0.154D-01
 Coeff-Com: -0.230D+00 0.122D+01
 Coeff:     -0.119D-04 0.295D-04 0.543D-05-0.178D-03-0.119D-02 0.154D-01
 Coeff:     -0.230D+00 0.122D+01
 Gap=     0.211 Goal=   None    Shift=    0.000
 Gap=     0.310 Goal=   None    Shift=    0.000
 RMSDP=3.08D-08 MaxDP=4.93D-07 DE=-2.44D-10 OVMax= 1.70D-06

 Cycle   9  Pass 1  IDiag  1:
 E= -78.0767210846564     Delta-E=       -0.000000000005 Rises=F Damp=F
 DIIS: error= 4.75D-08 at cycle   9 NSaved=   9.
 NSaved= 9 IEnMin= 9 EnMin= -78.0767210846564     IErMin= 9 ErrMin= 4.75D-08
 ErrMax= 4.75D-08  0.00D+00 EMaxC= 1.00D-01 BMatC= 9.96D-14 BMatP= 7.68D-12
 IDIUse=1 WtCom= 1.00D+00 WtEn= 0.00D+00
 Coeff-Com: -0.429D-05 0.789D-05 0.851D-05-0.321D-04 0.207D-04-0.922D-03
 Coeff-Com:  0.321D-01-0.255D+00 0.122D+01
 Coeff:     -0.429D-05 0.789D-05 0.851D-05-0.321D-04 0.207D-04-0.922D-03
 Coeff:      0.321D-01-0.255D+00 0.122D+01
 Gap=     0.211 Goal=   None    Shift=    0.000
 Gap=     0.310 Goal=   None    Shift=    0.000
 RMSDP=3.88D-09 MaxDP=5.54D-08 DE=-5.44D-12 OVMax= 1.98D-07

 SCF Done:  E(UM062X) =  -78.0767210847     A.U. after    9 cycles
            NFock=  9  Conv=0.39D-08     -V/T= 2.0101
 <Sx>= 0.0000 <Sy>= 0.0000 <Sz>= 0.5000 <S**2>= 0.7522 S= 0.5011
 <L.S>=  0.00000000000    
 KE= 7.729303706596D+01 PE=-2.308679433744D+02 EE= 4.804168586389D+01
 Annihilation of the first spin contaminant:
 S**2 before annihilation     0.7522,   after     0.7500
 Leave Link  502 at Tue Nov 19 11:56:16 2024, MaxMem=   536870912 cpu:              14.2 elap:               1.8
 (Enter /home/szhao/Apps/g16/l601.exe)
 Copying SCF densities to generalized density rwf, IOpCl= 1 IROHF=0.

 **********************************************************************

            Population analysis using the SCF density.

 **********************************************************************

 Orbital symmetries:
 Alpha Orbitals:
       Occupied  (AG) (BU) (AG) (BU) (BU) (AG) (AG) (AU)
       Virtual   (BG) (BU) (AG) (BU) (BU) (AU) (AG) (AG) (BG) (AG)
                 (BU) (BU) (BU) (AG) (BU) (AG) (BU) (AU) (BG) (AG)
                 (BU) (BU) (AG) (AG) (AG) (BU) (BG) (AU) (AU) (AG)
                 (AG) (BU) (BG) (AG) (BU) (BU) (AU) (BG) (BU) (AG)
                 (AG) (BG) (AU) (BU) (BU) (BU) (AG) (AG) (AG) (BU)
                 (AG) (AU) (BU) (BG) (AG) (BU) (BU) (AG) (BU) (AG)
 Beta  Orbitals:
       Occupied  (AG) (BU) (AG) (BU) (BU) (AG) (AG)
       Virtual   (AU) (BG) (BU) (AG) (BU) (BU) (AU) (AG) (AG) (AG)
                 (BG) (BU) (BU) (BU) (AG) (BU) (AG) (BU) (AU) (BG)
                 (AG) (BU) (AG) (BU) (AG) (AG) (BU) (BG) (AU) (AU)
                 (AG) (AG) (BU) (BG) (AG) (BU) (BU) (AU) (BG) (BU)
                 (AG) (AG) (BG) (AU) (BU) (BU) (BU) (AG) (AG) (BU)
                 (AG) (AG) (BU) (AU) (AG) (BG) (BU) (BU) (AG) (BU)
                 (AG)
 The electronic state is 2-AU.
 Alpha  occ. eigenvalues --  -10.92083 -10.92066  -1.07512  -0.99908  -0.80961
 Alpha  occ. eigenvalues --   -0.77227  -0.68435  -0.57079
 Alpha virt. eigenvalues --   -0.36014  -0.22481  -0.14200  -0.11086  -0.09894
 Alpha virt. eigenvalues --   -0.08492  -0.07431  -0.07238  -0.04748  -0.04231
 Alpha virt. eigenvalues --   -0.02487  -0.00751   0.02228   0.09446   0.18053
 Alpha virt. eigenvalues --    0.23019   0.24507   0.32572   0.37608   0.37834
 Alpha virt. eigenvalues --    0.41167   0.45031   0.45379   0.48089   0.53327
 Alpha virt. eigenvalues --    0.56106   0.79518   0.81971   0.84022   0.93891
 Alpha virt. eigenvalues --    1.14394   1.17046   1.20413   1.23109   1.26454
 Alpha virt. eigenvalues --    1.38788   1.46891   1.52621   1.58007   1.63362
 Alpha virt. eigenvalues --    1.69047   1.70683   1.77980   1.78307   2.11631
 Alpha virt. eigenvalues --    2.26058   2.30675   2.32622   2.36765   2.37867
 Alpha virt. eigenvalues --    2.42459   2.43886   2.44380   2.48046   2.48334
 Alpha virt. eigenvalues --    3.18396   3.42655   3.46858  23.49056  23.52104
  Beta  occ. eigenvalues --  -10.91850 -10.91839  -1.04365  -0.97704  -0.80386
  Beta  occ. eigenvalues --   -0.76875  -0.66956
  Beta virt. eigenvalues --   -0.35947  -0.27443  -0.20062  -0.15584  -0.11439
  Beta virt. eigenvalues --   -0.09846  -0.08042  -0.07708  -0.07367  -0.04274
  Beta virt. eigenvalues --   -0.03950  -0.02044  -0.00156   0.01466   0.10128
  Beta virt. eigenvalues --    0.18005   0.23059   0.24985   0.33751   0.36182
  Beta virt. eigenvalues --    0.39202   0.42206   0.44634   0.46532   0.49459
  Beta virt. eigenvalues --    0.52864   0.56024   0.82699   0.84799   0.87288
  Beta virt. eigenvalues --    0.97314   1.15366   1.18627   1.22378   1.26780
  Beta virt. eigenvalues --    1.29117   1.40461   1.48348   1.54436   1.61612
  Beta virt. eigenvalues --    1.64617   1.70244   1.72511   1.79724   1.80172
  Beta virt. eigenvalues --    2.15374   2.27621   2.32616   2.34418   2.40976
  Beta virt. eigenvalues --    2.42124   2.45305   2.46301   2.47975   2.49194
  Beta virt. eigenvalues --    2.52257   3.23735   3.47380   3.51594  23.50299
  Beta virt. eigenvalues --   23.53365
          Condensed to atoms (all electrons):
               1          2          3          4          5          6
     1  C    4.997236   0.355831   0.371152   0.371163  -0.014480  -0.014477
     2  C    0.355831   4.997236  -0.014480  -0.014477   0.371152   0.371163
     3  H    0.371152  -0.014480   0.365167  -0.006114   0.000482   0.000578
     4  H    0.371163  -0.014477  -0.006114   0.365158   0.000578   0.000482
     5  H   -0.014480   0.371152   0.000482   0.000578   0.365167  -0.006114
     6  H   -0.014477   0.371163   0.000578   0.000482  -0.006114   0.365158
          Atomic-Atomic Spin Densities.
               1          2          3          4          5          6
     1  C    0.481473   0.069354  -0.005756  -0.005756   0.000826   0.000826
     2  C    0.069354   0.481473   0.000826   0.000826  -0.005756  -0.005756
     3  H   -0.005756   0.000826  -0.015449   0.000034  -0.000016  -0.000124
     4  H   -0.005756   0.000826   0.000034  -0.015447  -0.000124  -0.000016
     5  H    0.000826  -0.005756  -0.000016  -0.000124  -0.015449   0.000034
     6  H    0.000826  -0.005756  -0.000124  -0.000016   0.000034  -0.015447
 Mulliken charges and spin densities:
               1          2
     1  C   -0.066426   0.540967
     2  C   -0.066426   0.540967
     3  H    0.283216  -0.020485
     4  H    0.283210  -0.020483
     5  H    0.283216  -0.020485
     6  H    0.283210  -0.020483
 Sum of Mulliken charges =   1.00000   1.00000
 Mulliken charges and spin densities with hydrogens summed into heavy atoms:
               1          2
     1  C    0.500000   0.500000
     2  C    0.500000   0.500000
 Electronic spatial extent (au):  <R**2>=            102.2787
 Charge=              1.0000 electrons
 Dipole moment (field-independent basis, Debye):
    X=             -0.0000    Y=             -0.0000    Z=              0.0000  Tot=              0.0000
 Quadrupole moment (field-independent basis, Debye-Ang):
   XX=             -8.1802   YY=             -2.4652   ZZ=            -12.4314
   XY=             -0.0001   XZ=              0.0000   YZ=              0.0000
 Traceless Quadrupole moment (field-independent basis, Debye-Ang):
   XX=             -0.4879   YY=              5.2271   ZZ=             -4.7392
   XY=             -0.0001   XZ=              0.0000   YZ=              0.0000
 Octapole moment (field-independent basis, Debye-Ang**2):
  XXX=             -0.0000  YYY=             -0.0000  ZZZ=              0.0000  XYY=             -0.0000
  XXY=              0.0000  XXZ=              0.0000  XZZ=             -0.0000  YZZ=              0.0000
  YYZ=              0.0000  XYZ=              0.0000
 Hexadecapole moment (field-independent basis, Debye-Ang**3):
 XXXX=            -17.7538 YYYY=            -79.1753 ZZZZ=            -12.5618 XXXY=             -0.0006
 XXXZ=              0.0000 YYYX=              0.0012 YYYZ=              0.0000 ZZZX=              0.0000
 ZZZY=              0.0000 XXYY=             -8.7211 XXZZ=             -6.4187 YYZZ=            -18.0221
 XXYZ=              0.0000 YYXZ=              0.0000 ZZXY=              0.0003
 N-N= 2.745649935989D+01 E-N=-2.308679435169D+02  KE= 7.729303706596D+01
 Symmetry AG   KE= 3.925512743693D+01
 Symmetry BG   KE= 2.392665631805D-32
 Symmetry AU   KE= 1.086005519135D+00
 Symmetry BU   KE= 3.695190410990D+01
 Symmetry AG   SP= 4.190804637380D-15
 Symmetry BG   SP= 6.249451540463D-33
 Symmetry AU   SP= 1.000000000000D+00
 Symmetry BU   SP=-5.594029773988D-15
                          Isotropic Fermi Contact Couplings
        Atom                 a.u.       MegaHertz       Gauss      10(-4) cm-1
     1  C(13)              0.09239     103.86734      37.06245      34.64642
     2  C(13)              0.09239     103.86734      37.06245      34.64642
     3  H(1)              -0.00815     -36.41351     -12.99325     -12.14624
     4  H(1)              -0.00815     -36.41119     -12.99242     -12.14547
     5  H(1)              -0.00815     -36.41351     -12.99325     -12.14624
     6  H(1)              -0.00815     -36.41119     -12.99242     -12.14547
 --------------------------------------------------------
       Center         ----  Spin Dipole Couplings  ----
                      3XX-RR        3YY-RR        3ZZ-RR
 --------------------------------------------------------
     1   Atom       -0.283412     -0.279341      0.562752
     2   Atom       -0.283412     -0.279341      0.562752
     3   Atom        0.019530     -0.013448     -0.006081
     4   Atom        0.019525     -0.013446     -0.006079
     5   Atom        0.019530     -0.013448     -0.006081
     6   Atom        0.019525     -0.013446     -0.006079
 --------------------------------------------------------
                        XY            XZ            YZ
 --------------------------------------------------------
     1   Atom       -0.000002      0.000000      0.000000
     2   Atom       -0.000002      0.000000      0.000000
     3   Atom       -0.034458      0.000000      0.000000
     4   Atom        0.034464      0.000000      0.000000
     5   Atom       -0.034458      0.000000      0.000000
     6   Atom        0.034464      0.000000      0.000000
 --------------------------------------------------------


 ---------------------------------------------------------------------------------
              Anisotropic Spin Dipole Couplings in Principal Axis System
 ---------------------------------------------------------------------------------

       Atom             a.u.   MegaHertz   Gauss  10(-4) cm-1        Axes

              Baa    -0.2834   -38.031   -13.570   -12.686  1.0000  0.0004  0.0000
     1 C(13)  Bbb    -0.2793   -37.485   -13.376   -12.504 -0.0004  1.0000 -0.0000
              Bcc     0.5628    75.516    26.946    25.189  0.0000  0.0000  1.0000
 
              Baa    -0.2834   -38.031   -13.570   -12.686  1.0000  0.0004  0.0000
     2 C(13)  Bbb    -0.2793   -37.485   -13.376   -12.504 -0.0004  1.0000 -0.0000
              Bcc     0.5628    75.516    26.946    25.189  0.0000  0.0000  1.0000
 
              Baa    -0.0352   -18.759    -6.694    -6.257  0.5331  0.8461  0.0000
     3 H(1)   Bbb    -0.0061    -3.245    -1.158    -1.082  0.0000  0.0000  1.0000
              Bcc     0.0412    22.004     7.852     7.340  0.8461 -0.5331 -0.0000
 
              Baa    -0.0352   -18.762    -6.695    -6.258 -0.5331  0.8460 -0.0000
     4 H(1)   Bbb    -0.0061    -3.244    -1.157    -1.082  0.0000  0.0000  1.0000
              Bcc     0.0412    22.006     7.852     7.340  0.8460  0.5331  0.0000
 
              Baa    -0.0352   -18.759    -6.694    -6.257  0.5331  0.8461  0.0000
     5 H(1)   Bbb    -0.0061    -3.245    -1.158    -1.082  0.0000  0.0000  1.0000
              Bcc     0.0412    22.004     7.852     7.340  0.8461 -0.5331 -0.0000
 
              Baa    -0.0352   -18.762    -6.695    -6.258 -0.5331  0.8460 -0.0000
     6 H(1)   Bbb    -0.0061    -3.244    -1.157    -1.082  0.0000  0.0000  1.0000
              Bcc     0.0412    22.006     7.852     7.340  0.8460  0.5331  0.0000
 

 ---------------------------------------------------------------------------------

 No NMR shielding tensors so no spin-rotation constants.
 Leave Link  601 at Tue Nov 19 11:56:17 2024, MaxMem=   536870912 cpu:               1.6 elap:               0.2
 (Enter /home/szhao/Apps/g16/l701.exe)
 ... and contract with generalized density number  0.
 Compute integral first derivatives.
 Leave Link  701 at Tue Nov 19 11:56:17 2024, MaxMem=   536870912 cpu:               0.9 elap:               0.1
 (Enter /home/szhao/Apps/g16/l702.exe)
 L702 exits ... SP integral derivatives will be done elsewhere.
 Leave Link  702 at Tue Nov 19 11:56:17 2024, MaxMem=   536870912 cpu:               0.3 elap:               0.0
 (Enter /home/szhao/Apps/g16/l703.exe)
 Integral derivatives from FoFJK, PRISM(SPDF).
 Compute integral first derivatives, UseDBF=F ICtDFT=           0.
 Calling FoFJK, ICntrl=      2127 FMM=F ISym2X=1 I1Cent= 0 IOpClX= 1 NMat=1 NMatS=1 NMatT=0.
 FoFJK:  IHMeth= 1 ICntrl=    2127 DoSepK=F KAlg= 0 I1Cent=           0 FoldK=F
 IRaf=         0 NMat=       1 IRICut=       1 DoRegI=T DoRafI=F ISym2E= 1 IDoP0=0 IntGTp=1.
 FoFCou: FMM=F IPFlag=           0 FMFlag=      100000 FMFlg1=         800
         NFxFlg=           0 DoJE=F BraDBF=F KetDBF=F FulRan=T
         wScrn=  0.000000 ICntrl=      2127 IOpCl=  1 I1Cent=           0 NGrid=           0
         NMat0=    1 NMatS0=      1 NMatT0=    0 NMatD0=    1 NMtDS0=    0 NMtDT0=    0
 Petite list used in FoFCou.
 Leave Link  703 at Tue Nov 19 11:56:17 2024, MaxMem=   536870912 cpu:               3.9 elap:               0.5
 (Enter /home/szhao/Apps/g16/l716.exe)
 Dipole        = 0.00000000D+00-8.88178420D-16 0.00000000D+00
 ***** Axes restored to original set *****
 -------------------------------------------------------------------
 Center     Atomic                   Forces (Hartrees/Bohr)
 Number     Number              X              Y              Z
 -------------------------------------------------------------------
      1        6           0.130259744   -0.000053207   -0.000000000
      2        6          -0.130259744    0.000053207   -0.000000000
      3        1          -0.000161011   -0.000225193   -0.000000000
      4        1          -0.000178752    0.000273133   -0.000000000
      5        1           0.000161011    0.000225193   -0.000000000
      6        1           0.000178752   -0.000273133   -0.000000000
 -------------------------------------------------------------------
 Cartesian Forces:  Max     0.130259744 RMS     0.043420153
 Z-matrix is all fixed cartesians, so copy forces.
 Force constants in Cartesian coordinates: 
                1             2             3             4             5 
      1  0.414041D+00
      2 -0.401004D-04  0.673865D+00
      3  0.000000D+00  0.000000D+00  0.773387D-01
      4 -0.954703D-01  0.000000D+00  0.000000D+00  0.414041D+00
      5  0.000000D+00 -0.827786D-01  0.000000D+00 -0.401004D-04  0.673865D+00
      6  0.000000D+00  0.000000D+00 -0.317737D-01  0.000000D+00  0.000000D+00
      7 -0.159264D+00 -0.104492D+00  0.000000D+00  0.000000D+00 -0.189583D-01
      8 -0.937334D-01 -0.304609D+00  0.000000D+00  0.000000D+00  0.909171D-02
      9  0.000000D+00  0.000000D+00 -0.290166D-01  0.000000D+00  0.000000D+00
     10 -0.159306D+00  0.104532D+00  0.000000D+00  0.000000D+00  0.189588D-01
     11  0.937740D-01 -0.304663D+00  0.000000D+00  0.000000D+00  0.909391D-02
     12  0.000000D+00  0.000000D+00 -0.290188D-01  0.000000D+00  0.000000D+00
     13  0.000000D+00 -0.189583D-01  0.000000D+00 -0.159264D+00 -0.104492D+00
     14  0.000000D+00  0.909171D-02  0.000000D+00 -0.937334D-01 -0.304609D+00
     15  0.000000D+00  0.000000D+00  0.623506D-02  0.000000D+00  0.000000D+00
     16  0.000000D+00  0.189588D-01  0.000000D+00 -0.159306D+00  0.104532D+00
     17  0.000000D+00  0.909391D-02  0.000000D+00  0.937740D-01 -0.304663D+00
     18  0.000000D+00  0.000000D+00  0.623534D-02  0.000000D+00  0.000000D+00
                6             7             8             9            10 
      6  0.773387D-01
      7  0.000000D+00  0.128284D+00
      8  0.000000D+00  0.108590D+00  0.302644D+00
      9  0.623506D-02  0.000000D+00  0.000000D+00  0.120642D-01
     10  0.000000D+00  0.309801D-01 -0.148569D-01  0.000000D+00  0.128326D+00
     11  0.000000D+00  0.148602D-01 -0.712640D-02  0.000000D+00 -0.108634D+00
     12  0.623534D-02  0.000000D+00  0.000000D+00  0.107175D-01  0.000000D+00
     13  0.000000D+00  0.000000D+00  0.000000D+00  0.000000D+00  0.000000D+00
     14  0.000000D+00  0.000000D+00  0.000000D+00  0.000000D+00  0.000000D+00
     15 -0.290166D-01  0.000000D+00  0.000000D+00  0.673716D-03  0.000000D+00
     16  0.000000D+00  0.000000D+00  0.000000D+00  0.000000D+00  0.000000D+00
     17  0.000000D+00  0.000000D+00  0.000000D+00  0.000000D+00  0.000000D+00
     18 -0.290188D-01  0.000000D+00  0.000000D+00 -0.673788D-03  0.000000D+00
               11            12            13            14            15 
     11  0.302696D+00
     12  0.000000D+00  0.120659D-01
     13  0.000000D+00  0.000000D+00  0.128284D+00
     14  0.000000D+00  0.000000D+00  0.108590D+00  0.302644D+00
     15  0.000000D+00 -0.673788D-03  0.000000D+00  0.000000D+00  0.120642D-01
     16  0.000000D+00  0.000000D+00  0.309801D-01 -0.148569D-01  0.000000D+00
     17  0.000000D+00  0.000000D+00  0.148602D-01 -0.712640D-02  0.000000D+00
     18  0.000000D+00  0.673860D-03  0.000000D+00  0.000000D+00  0.107175D-01
               16            17            18 
     16  0.128326D+00
     17 -0.108634D+00  0.302696D+00
     18  0.000000D+00  0.000000D+00  0.120659D-01
 Leave Link  716 at Tue Nov 19 11:56:17 2024, MaxMem=   536870912 cpu:               0.3 elap:               0.0
 (Enter /home/szhao/Apps/g16/l103.exe)

 GradGradGradGradGradGradGradGradGradGradGradGradGradGradGradGradGradGrad
 Berny optimization.
 Search for a local minimum.
 Step number   1 out of a maximum of    2
 All quantities printed in internal units (Hartrees-Bohrs-Radians)
 Second derivative matrix not updated -- first step.
 The second derivative matrix:
                          X1        Y1        Z1        X2        Y2
           X1           0.41404
           Y1          -0.00004   0.67387
           Z1           0.00000   0.00000   0.07734
           X2          -0.09547  -0.00000   0.00000   0.41404
           Y2          -0.00000  -0.08278   0.00000  -0.00004   0.67387
           Z2           0.00000   0.00000  -0.03177   0.00000   0.00000
           X3          -0.15926  -0.10449   0.00000  -0.00000  -0.01896
           Y3          -0.09373  -0.30461   0.00000   0.00000   0.00909
           Z3           0.00000   0.00000  -0.02902   0.00000   0.00000
           X4          -0.15931   0.10453   0.00000   0.00000   0.01896
           Y4           0.09377  -0.30466   0.00000   0.00000   0.00909
           Z4           0.00000   0.00000  -0.02902   0.00000   0.00000
           X5          -0.00000  -0.01896   0.00000  -0.15926  -0.10449
           Y5           0.00000   0.00909   0.00000  -0.09373  -0.30461
           Z5           0.00000   0.00000   0.00624   0.00000   0.00000
           X6           0.00000   0.01896   0.00000  -0.15931   0.10453
           Y6           0.00000   0.00909   0.00000   0.09377  -0.30466
           Z6           0.00000   0.00000   0.00624   0.00000   0.00000
                          Z2        X3        Y3        Z3        X4
           Z2           0.07734
           X3           0.00000   0.12828
           Y3           0.00000   0.10859   0.30264
           Z3           0.00624   0.00000   0.00000   0.01206
           X4           0.00000   0.03098  -0.01486   0.00000   0.12833
           Y4           0.00000   0.01486  -0.00713   0.00000  -0.10863
           Z4           0.00624   0.00000   0.00000   0.01072   0.00000
           X5           0.00000   0.00000   0.00000   0.00000   0.00000
           Y5           0.00000   0.00000   0.00000   0.00000   0.00000
           Z5          -0.02902   0.00000   0.00000   0.00067   0.00000
           X6           0.00000   0.00000   0.00000   0.00000   0.00000
           Y6           0.00000   0.00000   0.00000   0.00000   0.00000
           Z6          -0.02902   0.00000   0.00000  -0.00067   0.00000
                          Y4        Z4        X5        Y5        Z5
           Y4           0.30270
           Z4           0.00000   0.01207
           X5           0.00000   0.00000   0.12828
           Y5           0.00000   0.00000   0.10859   0.30264
           Z5           0.00000  -0.00067   0.00000   0.00000   0.01206
           X6           0.00000   0.00000   0.03098  -0.01486   0.00000
           Y6           0.00000   0.00000   0.01486  -0.00713   0.00000
           Z6           0.00000   0.00067   0.00000   0.00000   0.01072
                          X6        Y6        Z6
           X6           0.12833
           Y6          -0.10863   0.30270
           Z6           0.00000   0.00000   0.01207
 ITU=  0
     Eigenvalues ---    0.00270   0.04256   0.04600   0.05638   0.09110
     Eigenvalues ---    0.10837   0.19859   0.24472   0.50540   0.68787
     Eigenvalues ---    0.78616   0.92963
 Quadratic step=1.666D+00 exceeds max=3.000D-01 adjusted using Lamda=-2.953D-01.
 Angle between NR and scaled steps=  30.71 degrees.
 Angle between quadratic step and forces=  26.02 degrees.
 ClnCor:  largest displacement from symmetrization is 5.38D-15 for atom     6.
 Linear search not attempted -- first point.
 ClnCor:  largest displacement from symmetrization is 2.22D-16 for atom     5.
 B after Tr=    -0.000000   -0.000000    0.000000
         Rot=    1.000000   -0.000000   -0.000000   -0.000002 Ang=  -0.00 deg.
 Variable       Old X    -DE/DX   Delta X   Delta X   Delta X     New X
                                 (Linear)    (Quad)   (Total)
    X1       -1.85681   0.13026   0.00000   0.19119   0.19119  -1.66562
    Y1        0.00000  -0.00005   0.00000  -0.00003  -0.00003  -0.00003
    Z1        0.00000  -0.00000   0.00000   0.00000   0.00000   0.00000
    X2        1.85681  -0.13026   0.00000  -0.19119  -0.19119   1.66562
    Y2       -0.00000   0.00005   0.00000   0.00003   0.00003   0.00003
    Z2        0.00000  -0.00000   0.00000   0.00000   0.00000   0.00000
    X3       -2.74288  -0.00016   0.00000   0.06260   0.06260  -2.68028
    Y3       -1.84767  -0.00023   0.00000   0.01954   0.01953  -1.82814
    Z3        0.00000  -0.00000   0.00000   0.00000   0.00000   0.00000
    X4       -2.74298  -0.00018   0.00000   0.06260   0.06259  -2.68039
    Y4        1.84748   0.00027   0.00000  -0.01949  -0.01950   1.82798
    Z4        0.00000  -0.00000   0.00000   0.00000   0.00000   0.00000
    X5        2.74288   0.00016   0.00000  -0.06260  -0.06260   2.68028
    Y5        1.84767   0.00023   0.00000  -0.01954  -0.01953   1.82814
    Z5        0.00000  -0.00000   0.00000   0.00000   0.00000   0.00000
    X6        2.74298   0.00018   0.00000  -0.06260  -0.06259   2.68039
    Y6       -1.84748  -0.00027   0.00000   0.01949   0.01950  -1.82798
    Z6        0.00000  -0.00000   0.00000   0.00000   0.00000   0.00000
         Item               Value     Threshold  Converged?
 Maximum Force            0.130260     0.000450     NO 
 RMS     Force            0.043420     0.000300     NO 
 Maximum Displacement     0.191186     0.001800     NO 
 RMS     Displacement     0.070829     0.001200     NO 
 Predicted change in Energy=-3.820396D-02
 GradGradGradGradGradGradGradGradGradGradGradGradGradGradGradGradGradGrad

 Leave Link  103 at Tue Nov 19 11:56:17 2024, MaxMem=   536870912 cpu:               0.1 elap:               0.0
 (Enter /home/szhao/Apps/g16/l9999.exe)
 1\1\GINC-NODE01\Force\UM062X\6-311+G(d,p)\C2H4(1+,2)\SZHAO\19-Nov-2024
 \0\\#p UM062X/6-311+G** force int=superfine\\Title Card Required\\1,2\
 C,-0.98258,0.,0.\C,0.982580125,0.,0.\H,-1.451472,-0.977747,0.\H,-1.451
 524,0.977643,0.\H,1.451472125,0.977747,0.\H,1.451524125,-0.977643,0.\\
 Version=ES64L-G16RevA.03\State=2-AU\HF=-78.0767211\S2=0.752211\S2-1=0.
 \S2A=0.750004\RMSD=3.881e-09\RMSF=4.342e-02\Dipole=0.,0.,0.\Quadrupole
 =3.8861986,-0.3627426,-3.523456,0.000092,0.,0.\PG=C02H [SGH(C2H4)]\\@


 ERWIN WITH HIS PSI CAN DO
 CALCULATIONS QUITE A FEW.
 BUT ONE THING HAS NOT BEEN SEEN
 JUST WHAT DOES PSI REALLY MEAN.
 -- WALTER HUCKEL, TRANS. BY FELIX BLOCH
 Job cpu time:       0 days  0 hours  0 minutes 27.8 seconds.
 Elapsed time:       0 days  0 hours  0 minutes  3.5 seconds.
 File lengths (MBytes):  RWF=      6 Int=      0 D2E=      0 Chk=      1 Scr=      1
 Normal termination of Gaussian 16 at Tue Nov 19 11:56:17 2024.
