Title Card Required                                                     
Force     UM062X                                                      6-311+G(d,p)        
Number of atoms                            I                6
Info1-9                                    I   N=           9
          15          15           0           0           0         100
           5          18        -502
Full Title                                 C   N=           2
Title Card Required     
Route                                      C   N=           4
#p UM062X/6-311+G** force int=superfine         
Charge                                     I                1
Multiplicity                               I                2
Number of electrons                        I               15
Number of alpha electrons                  I                8
Number of beta electrons                   I                7
Number of basis functions                  I               68
Number of independent functions            I               68
Number of point charges in /Mol/           I                0
Number of translation vectors              I                0
Atomic numbers                             I   N=           6
           6           6           1           1           1           1
Nuclear charges                            R   N=           6
  6.00000000E+00  6.00000000E+00  1.00000000E+00  1.00000000E+00  1.00000000E+00
  1.00000000E+00
Current cartesian coordinates              R   N=          18
 -9.19557464E-21 -1.85680721E+00  0.00000000E+00  2.27408627E-16  1.85680721E+00
  0.00000000E+00  1.84767405E+00 -2.74288468E+00  0.00000000E+00 -1.84747752E+00
 -2.74298294E+00  0.00000000E+00 -1.84767405E+00  2.74288468E+00  0.00000000E+00
  1.84747752E+00  2.74298294E+00  0.00000000E+00
Number of symbols in /Mol/                 I                0
Force Field                                I                0
Atom Types                                 C   N=           6
                                                            
            
Int Atom Types                             I   N=           6
           0           0           0           0           0           0
MM charges                                 R   N=           6
  0.00000000E+00  0.00000000E+00  0.00000000E+00  0.00000000E+00  0.00000000E+00
  0.00000000E+00
Integer atomic weights                     I   N=           6
          12          12           1           1           1           1
Real atomic weights                        R   N=           6
  1.20000000E+01  1.20000000E+01  1.00782504E+00  1.00782504E+00  1.00782504E+00
  1.00782504E+00
Atom fragment info                         I   N=           6
           0           0           0           0           0           0
Atom residue num                           I   N=           6
           0           0           0           0           0           0
Nuclear spins                              I   N=           6
           0           0           1           1           1           1
Nuclear ZEff                               R   N=           6
 -3.60000000E+00 -3.60000000E+00 -1.00000000E+00 -1.00000000E+00 -1.00000000E+00
 -1.00000000E+00
Nuclear ZNuc                               R   N=           6
  6.00000000E+00  6.00000000E+00  1.00000000E+00  1.00000000E+00  1.00000000E+00
  1.00000000E+00
Nuclear QMom                               R   N=           6
  0.00000000E+00  0.00000000E+00  0.00000000E+00  0.00000000E+00  0.00000000E+00
  0.00000000E+00
Nuclear GFac                               R   N=           6
  0.00000000E+00  0.00000000E+00  2.79284600E+00  2.79284600E+00  2.79284600E+00
  2.79284600E+00
MicOpt                                     I   N=           6
          -1          -1          -1          -1          -1          -1
Number of residues                         I                0
Number of secondary structures             I                0
SymInf integers                            I   N=          26
           2           4           1           1           1          -1
          -1           1           1           1          -1          -1
          -1          -1           0           0           0           0
           0           0           0           0           0           0
           0           0
RotTr to input orientation                 R   N=          12
 -2.45993619E-17 -1.00000000E+00  0.00000000E+00  1.00000000E+00 -2.46010127E-17
  0.00000000E+00  0.00000000E+00  0.00000000E+00  1.00000000E+00  1.18107883E-07
  0.00000000E+00  0.00000000E+00
Number of contracted shells                I               28
Number of primitive shells                 I               50
Pure/Cartesian d shells                    I                0
Pure/Cartesian f shells                    I                0
Highest angular momentum                   I                2
Largest degree of contraction              I                6
Shell types                                I   N=          28
           0          -1          -1          -1          -1          -2
           0          -1          -1          -1          -1          -2
           0           0           0           1           0           0
           0           1           0           0           0           1
           0           0           0           1
Number of primitives per shell             I   N=          28
           6           3           1           1           1           1
           6           3           1           1           1           1
           3           1           1           1           3           1
           1           1           3           1           1           1
           3           1           1           1
Shell to atom map                          I   N=          28
           1           1           1           1           1           1
           2           2           2           2           2           2
           3           3           3           3           4           4
           4           4           5           5           5           5
           6           6           6           6
Primitive exponents                        R   N=          50
  4.56324000E+03  6.82024000E+02  1.54973000E+02  4.44553000E+01  1.30290000E+01
  1.82773000E+00  2.09642000E+01  4.80331000E+00  1.45933000E+00  4.83456000E-01
  1.45585000E-01  4.38000000E-02  6.26000000E-01  4.56324000E+03  6.82024000E+02
  1.54973000E+02  4.44553000E+01  1.30290000E+01  1.82773000E+00  2.09642000E+01
  4.80331000E+00  1.45933000E+00  4.83456000E-01  1.45585000E-01  4.38000000E-02
  6.26000000E-01  3.38650000E+01  5.09479000E+00  1.15879000E+00  3.25840000E-01
  1.02741000E-01  7.50000000E-01  3.38650000E+01  5.09479000E+00  1.15879000E+00
  3.25840000E-01  1.02741000E-01  7.50000000E-01  3.38650000E+01  5.09479000E+00
  1.15879000E+00  3.25840000E-01  1.02741000E-01  7.50000000E-01  3.38650000E+01
  5.09479000E+00  1.15879000E+00  3.25840000E-01  1.02741000E-01  7.50000000E-01
Contraction coefficients                   R   N=          50
  1.96665025E-03  1.52306019E-02  7.61269097E-02  2.60801033E-01  6.16462078E-01
  2.21006028E-01  1.14660081E-01  9.19999648E-01 -3.03068213E-03  1.00000000E+00
  1.00000000E+00  1.00000000E+00  1.00000000E+00  1.96665025E-03  1.52306019E-02
  7.61269097E-02  2.60801033E-01  6.16462078E-01  2.21006028E-01  1.14660081E-01
  9.19999648E-01 -3.03068213E-03  1.00000000E+00  1.00000000E+00  1.00000000E+00
  1.00000000E+00  2.54938145E-02  1.90373109E-01  8.52161486E-01  1.00000000E+00
  1.00000000E+00  1.00000000E+00  2.54938145E-02  1.90373109E-01  8.52161486E-01
  1.00000000E+00  1.00000000E+00  1.00000000E+00  2.54938145E-02  1.90373109E-01
  8.52161486E-01  1.00000000E+00  1.00000000E+00  1.00000000E+00  2.54938145E-02
  1.90373109E-01  8.52161486E-01  1.00000000E+00  1.00000000E+00  1.00000000E+00
P(S=P) Contraction coefficients            R   N=          50
  0.00000000E+00  0.00000000E+00  0.00000000E+00  0.00000000E+00  0.00000000E+00
  0.00000000E+00  4.02486927E-02  2.37593957E-01  8.15853851E-01  1.00000000E+00
  1.00000000E+00  1.00000000E+00  0.00000000E+00  0.00000000E+00  0.00000000E+00
  0.00000000E+00  0.00000000E+00  0.00000000E+00  0.00000000E+00  4.02486927E-02
  2.37593957E-01  8.15853851E-01  1.00000000E+00  1.00000000E+00  1.00000000E+00
  0.00000000E+00  0.00000000E+00  0.00000000E+00  0.00000000E+00  0.00000000E+00
  0.00000000E+00  0.00000000E+00  0.00000000E+00  0.00000000E+00  0.00000000E+00
  0.00000000E+00  0.00000000E+00  0.00000000E+00  0.00000000E+00  0.00000000E+00
  0.00000000E+00  0.00000000E+00  0.00000000E+00  0.00000000E+00  0.00000000E+00
  0.00000000E+00  0.00000000E+00  0.00000000E+00  0.00000000E+00  0.00000000E+00
Coordinates of each shell                  R   N=          84
 -6.13038309E-21 -1.85680721E+00  0.00000000E+00 -6.13038309E-21 -1.85680721E+00
  0.00000000E+00 -6.13038309E-21 -1.85680721E+00  0.00000000E+00 -6.13038309E-21
 -1.85680721E+00  0.00000000E+00 -6.13038309E-21 -1.85680721E+00  0.00000000E+00
 -6.13038309E-21 -1.85680721E+00  0.00000000E+00  2.27405562E-16  1.85680721E+00
  0.00000000E+00  2.27405562E-16  1.85680721E+00  0.00000000E+00  2.27405562E-16
  1.85680721E+00  0.00000000E+00  2.27405562E-16  1.85680721E+00  0.00000000E+00
  2.27405562E-16  1.85680721E+00  0.00000000E+00  2.27405562E-16  1.85680721E+00
  0.00000000E+00  1.84767405E+00 -2.74288468E+00  0.00000000E+00  1.84767405E+00
 -2.74288468E+00  0.00000000E+00  1.84767405E+00 -2.74288468E+00  0.00000000E+00
  1.84767405E+00 -2.74288468E+00  0.00000000E+00 -1.84747752E+00 -2.74298294E+00
  0.00000000E+00 -1.84747752E+00 -2.74298294E+00  0.00000000E+00 -1.84747752E+00
 -2.74298294E+00  0.00000000E+00 -1.84747752E+00 -2.74298294E+00  0.00000000E+00
 -1.84767405E+00  2.74288468E+00  0.00000000E+00 -1.84767405E+00  2.74288468E+00
  0.00000000E+00 -1.84767405E+00  2.74288468E+00  0.00000000E+00 -1.84767405E+00
  2.74288468E+00  0.00000000E+00  1.84747752E+00  2.74298294E+00  0.00000000E+00
  1.84747752E+00  2.74298294E+00  0.00000000E+00  1.84747752E+00  2.74298294E+00
  0.00000000E+00  1.84747752E+00  2.74298294E+00  0.00000000E+00
Num ILSW                                   I              100
ILSW                                       I   N=         100
           1           0           0           0           2           0
           0           0           0           0        4336          -1
           7           0           0           0           2           0
           0           0           0           0           1           0
           1           0           0           0           0           0
           0           0      100000           0          -1           0
           0           0           0           0           0           0
           0           0           0           1           0           0
           0 -2000000000           1           0           0           0
           0           0           4          52           0           0
           0           0          55           0           0           0
           0           0           0           6           0           1
           0           0           0           0           0           0
           0           0           0           0           0           0
           0           0           0           0           0           0
           0           0           0           0           0           0
           0           0           0           0
Num RLSW                                   I               52
RLSW                                       R   N=          52
  1.00000000E+00  1.00000000E+00  1.00000000E+00  1.00000000E+00  5.40000000E-01
  0.00000000E+00  0.00000000E+00  1.00000000E+00  0.00000000E+00  0.00000000E+00
  0.00000000E+00  0.00000000E+00  1.00000000E+00  0.00000000E+00  0.00000000E+00
  0.00000000E+00  0.00000000E+00  1.00000000E+00  0.00000000E+00  0.00000000E+00
  0.00000000E+00  0.00000000E+00  1.00000000E+00  0.00000000E+00  0.00000000E+00
  0.00000000E+00  0.00000000E+00  1.00000000E+00  0.00000000E+00  0.00000000E+00
  0.00000000E+00  0.00000000E+00  1.00000000E+00  0.00000000E+00  0.00000000E+00
  0.00000000E+00  0.00000000E+00  0.00000000E+00  1.00000000E+00  1.00000000E+00
  0.00000000E+00  1.00000000E+00  0.00000000E+00  0.00000000E+00  0.00000000E+00
  0.00000000E+00  0.00000000E+00  0.00000000E+00  0.00000000E+00  0.00000000E+00
  0.00000000E+00  0.00000000E+00
MxBond                                     I                2
NBond                                      I   N=           6
           2           2           1           1           1           1
IBond                                      I   N=          12
           3           4           5           6           1           0
           1           0           2           0           2           0
RBond                                      R   N=          12
  1.00000000E+00  1.00000000E+00  1.00000000E+00  1.00000000E+00  1.00000000E+00
  0.00000000E+00  1.00000000E+00  0.00000000E+00  1.00000000E+00  0.00000000E+00
  1.00000000E+00  0.00000000E+00
Virial Ratio                               R      2.010139128289522E+00
SCF Energy                                 R     -7.807672108465638E+01
Total Energy                               R     -7.807672108465638E+01
S**2                                       R      7.522109790630074E-01
S**2 after annihilation                    R      7.500037173376040E-01
RMS Force                                  R      4.342015260878437E-02
RMS Density                                R      3.881208155671674E-09
Job Status                                 I                1
Nuclear derivative order                   I                1
External E-field                           R   N=          35
  0.00000000E+00  0.00000000E+00  0.00000000E+00  0.00000000E+00  0.00000000E+00
  0.00000000E+00  0.00000000E+00  0.00000000E+00  0.00000000E+00  0.00000000E+00
  0.00000000E+00  0.00000000E+00  0.00000000E+00  0.00000000E+00  0.00000000E+00
  0.00000000E+00  0.00000000E+00  0.00000000E+00  0.00000000E+00  0.00000000E+00
  0.00000000E+00  0.00000000E+00  0.00000000E+00  0.00000000E+00  0.00000000E+00
  0.00000000E+00  0.00000000E+00  0.00000000E+00  0.00000000E+00  0.00000000E+00
  0.00000000E+00  0.00000000E+00  0.00000000E+00  0.00000000E+00  0.00000000E+00
IOpCl                                      I                1
IROHF                                      I                0
Alpha Orbital Energies                     R   N=          68
 -1.09208288E+01 -1.09206595E+01 -1.07512455E+00 -9.99077407E-01 -8.09606954E-01
 -7.72270461E-01 -6.84353321E-01 -5.70794277E-01 -3.60138478E-01 -2.24810903E-01
 -1.41996564E-01 -1.10864504E-01 -9.89427943E-02 -8.49246092E-02 -7.43076571E-02
 -7.23821669E-02 -4.74845648E-02 -4.23054726E-02 -2.48690822E-02 -7.51239246E-03
  2.22775919E-02  9.44563188E-02  1.80531686E-01  2.30194851E-01  2.45066284E-01
  3.25716273E-01  3.76084881E-01  3.78339471E-01  4.11669877E-01  4.50314943E-01
  4.53786576E-01  4.80893353E-01  5.33270833E-01  5.61056164E-01  7.95183900E-01
  8.19708772E-01  8.40215837E-01  9.38910648E-01  1.14394089E+00  1.17046081E+00
  1.20412802E+00  1.23109444E+00  1.26453647E+00  1.38787723E+00  1.46891108E+00
  1.52620960E+00  1.58007082E+00  1.63361591E+00  1.69047185E+00  1.70683020E+00
  1.77979860E+00  1.78307102E+00  2.11630693E+00  2.26057770E+00  2.30674594E+00
  2.32621630E+00  2.36765221E+00  2.37866982E+00  2.42459000E+00  2.43885526E+00
  2.44380393E+00  2.48046330E+00  2.48333618E+00  3.18395518E+00  3.42655464E+00
  3.46857694E+00  2.34905579E+01  2.35210389E+01
Beta Orbital Energies                      R   N=          68
 -1.09184973E+01 -1.09183892E+01 -1.04365200E+00 -9.77044484E-01 -8.03859982E-01
 -7.68751677E-01 -6.69560046E-01 -3.59469212E-01 -2.74432721E-01 -2.00615827E-01
 -1.55841434E-01 -1.14387824E-01 -9.84630262E-02 -8.04189764E-02 -7.70829834E-02
 -7.36656144E-02 -4.27430217E-02 -3.94959816E-02 -2.04402075E-02 -1.56362201E-03
  1.46585185E-02  1.01280264E-01  1.80047034E-01  2.30591148E-01  2.49849225E-01
  3.37509335E-01  3.61817054E-01  3.92022979E-01  4.22062078E-01  4.46336722E-01
  4.65319428E-01  4.94591395E-01  5.28637091E-01  5.60240205E-01  8.26990039E-01
  8.47986628E-01  8.72876624E-01  9.73140895E-01  1.15366256E+00  1.18626777E+00
  1.22377660E+00  1.26779866E+00  1.29117111E+00  1.40460666E+00  1.48348109E+00
  1.54435962E+00  1.61611847E+00  1.64616772E+00  1.70243919E+00  1.72511237E+00
  1.79724175E+00  1.80172368E+00  2.15374344E+00  2.27621057E+00  2.32615987E+00
  2.34418061E+00  2.40975871E+00  2.42124151E+00  2.45305175E+00  2.46301452E+00
  2.47975343E+00  2.49194013E+00  2.52256833E+00  3.23734633E+00  3.47380458E+00
  3.51594068E+00  2.35029934E+01  2.35336483E+01
Alpha MO coefficients                      R   N=        4624
  3.99030335E-01  3.28051185E-01  1.12889065E-08  5.79449365E-04  0.00000000E+00
  7.96496159E-03 -7.06390425E-07 -1.34619397E-03  0.00000000E+00 -1.99133024E-03
 -3.41151889E-08  2.15981746E-05  0.00000000E+00 -5.30766116E-04  3.26207452E-07
  3.94610781E-04  0.00000000E+00 -8.17211048E-04  0.00000000E+00  0.00000000E+00
  9.13358133E-04  3.61786891E-07  3.99030335E-01  3.28051185E-01 -1.12889065E-08
 -5.79449365E-04  0.00000000E+00  7.96496159E-03  7.06390425E-07  1.34619397E-03
  0.00000000E+00 -1.99133024E-03  3.41151889E-08 -2.15981746E-05  0.00000000E+00
 -5.30766116E-04 -3.26207452E-07 -3.94610781E-04  0.00000000E+00 -8.17211048E-04
  0.00000000E+00  0.00000000E+00  9.13358133E-04  3.61786891E-07  1.43783723E-04
 -2.25304098E-03  1.46249842E-03  1.26069448E-03 -6.59217538E-04  0.00000000E+00
  1.43634674E-04 -2.25436271E-03  1.46345230E-03 -1.26118172E-03 -6.59579312E-04
  0.00000000E+00  1.43783723E-04 -2.25304098E-03  1.46249842E-03 -1.26069448E-03
  6.59217538E-04  0.00000000E+00  1.43634674E-04 -2.25436271E-03  1.46345230E-03
  1.26118172E-03  6.59579312E-04  0.00000000E+00  3.99047093E-01  3.28096837E-01
  1.13247815E-08  6.36515912E-04  0.00000000E+00  8.04458760E-03 -6.80641393E-07
 -1.82853939E-03  0.00000000E+00 -3.41099779E-03  2.55944097E-08 -4.65642184E-04
  0.00000000E+00  1.11116866E-03  9.37247398E-08  1.00557983E-03  0.00000000E+00
 -7.18308909E-04  0.00000000E+00  0.00000000E+00  1.12667302E-03  3.48823183E-07
 -3.99047093E-01 -3.28096837E-01  1.13247815E-08  6.36515912E-04  0.00000000E+00
 -8.04458760E-03 -6.80641393E-07 -1.82853939E-03  0.00000000E+00  3.41099779E-03
  2.55944097E-08 -4.65642184E-04  0.00000000E+00 -1.11116866E-03  9.37247398E-08
  1.00557983E-03  0.00000000E+00  7.18308909E-04  0.00000000E+00  0.00000000E+00
 -1.12667302E-03 -3.48823183E-07  1.04144452E-04 -2.12413621E-03  1.62680618E-03
  1.29120246E-03 -6.08126647E-04  0.00000000E+00  1.03967084E-04 -2.12528990E-03
  1.62752777E-03 -1.29167284E-03 -6.08483055E-04  0.00000000E+00 -1.04144452E-04
  2.12413621E-03 -1.62680618E-03  1.29120246E-03 -6.08126647E-04  0.00000000E+00
 -1.03967084E-04  2.12528990E-03 -1.62752777E-03 -1.29167284E-03 -6.08483055E-04
  0.00000000E+00 -8.09357058E-02 -1.31806984E-01 -6.35881942E-06 -1.75069439E-03
  0.00000000E+00  3.63356212E-01 -6.29638899E-06  7.59048566E-03  0.00000000E+00
  2.42024753E-01 -1.96240230E-06  8.15732049E-03  0.00000000E+00  7.50498312E-04
 -1.61463874E-06 -6.30377315E-03  0.00000000E+00 -5.63051074E-03  0.00000000E+00
  0.00000000E+00 -1.57316987E-03  1.04809454E-06 -8.09357058E-02 -1.31806984E-01
  6.35881942E-06  1.75069439E-03  0.00000000E+00  3.63356212E-01  6.29638899E-06
 -7.59048566E-03  0.00000000E+00  2.42024753E-01  1.96240230E-06 -8.15732049E-03
  0.00000000E+00  7.50498312E-04  1.61463874E-06  6.30377315E-03  0.00000000E+00
 -5.63051074E-03  0.00000000E+00  0.00000000E+00 -1.57316987E-03  1.04809454E-06
  6.67204150E-02  7.37446936E-02 -8.08172556E-03 -1.16508598E-02  5.22942897E-03
  0.00000000E+00  6.67327949E-02  7.37569824E-02 -8.08576336E-03  1.16519005E-02
  5.23149068E-03  0.00000000E+00  6.67204150E-02  7.37446936E-02 -8.08172556E-03
  1.16508598E-02 -5.22942897E-03  0.00000000E+00  6.67327949E-02  7.37569824E-02
 -8.08576336E-03 -1.16519005E-02 -5.23149068E-03  0.00000000E+00 -7.77515252E-02
 -1.27057362E-01 -1.14464846E-05 -4.94678696E-02  0.00000000E+00  3.56532037E-01
 -1.37376577E-05 -7.38739248E-02  0.00000000E+00  2.54744896E-01 -5.04431626E-06
 -2.03478938E-02  0.00000000E+00 -3.19047070E-02 -1.79491605E-07 -1.41651019E-02
  0.00000000E+00 -3.29486835E-03  0.00000000E+00  0.00000000E+00  1.06466825E-02
  1.85376803E-06  7.77515252E-02  1.27057362E-01 -1.14464846E-05 -4.94678696E-02
  0.00000000E+00 -3.56532037E-01 -1.37376577E-05 -7.38739248E-02  0.00000000E+00
 -2.54744896E-01 -5.04431626E-06 -2.03478938E-02  0.00000000E+00  3.19047070E-02
 -1.79491605E-07 -1.41651019E-02  0.00000000E+00  3.29486835E-03  0.00000000E+00
  0.00000000E+00 -1.06466825E-02 -1.85376803E-06  8.19018283E-02  9.42538418E-02
 -3.03192800E-03 -1.28209741E-02  3.67881882E-03  0.00000000E+00  8.19227578E-02
  9.42738462E-02 -3.03365649E-03  1.28228081E-02  3.68107715E-03  0.00000000E+00
 -8.19018283E-02 -9.42538418E-02  3.03192800E-03 -1.28209741E-02  3.67881882E-03
  0.00000000E+00 -8.19227578E-02 -9.42738462E-02  3.03365649E-03  1.28228081E-02
  3.68107715E-03  0.00000000E+00 -4.88347899E-06 -8.23777291E-06  1.58674694E-01
  2.04141674E-06  0.00000000E+00  2.41514226E-05  2.32013017E-01  5.57487475E-07
  0.00000000E+00  2.94365974E-05  1.40273027E-01  2.55661467E-06  0.00000000E+00
 -2.15545387E-07  3.75778382E-03 -4.19735023E-07  0.00000000E+00  3.88047000E-08
  0.00000000E+00  0.00000000E+00  1.56685139E-06 -8.84679700E-03  4.88347899E-06
  8.23777291E-06  1.58674694E-01  2.04141674E-06  0.00000000E+00 -2.41514226E-05
  2.32013017E-01  5.57487475E-07  0.00000000E+00 -2.94365974E-05  1.40273027E-01
  2.55661467E-06  0.00000000E+00  2.15545387E-07  3.75778382E-03 -4.19735023E-07
  0.00000000E+00 -3.88047000E-08  0.00000000E+00  0.00000000E+00 -1.56685139E-06
  8.84679700E-03  1.02730608E-01  1.31131717E-01  5.91009112E-03 -9.79053204E-03
  7.69912422E-03  0.00000000E+00 -1.02722140E-01 -1.31114454E-01 -5.90768369E-03
 -9.78790997E-03 -7.69990677E-03  0.00000000E+00 -1.02730608E-01 -1.31131717E-01
 -5.91009112E-03 -9.79053204E-03  7.69912422E-03  0.00000000E+00  1.02722140E-01
  1.31114454E-01  5.90768369E-03 -9.78790997E-03 -7.69990677E-03  0.00000000E+00
 -2.56770453E-06 -4.46229509E-06  1.63113077E-01  2.77350358E-05  0.00000000E+00
  1.29092431E-05  2.34301693E-01  4.17670755E-05  0.00000000E+00  2.17727184E-05
  1.47393925E-01  2.42172580E-05  0.00000000E+00  8.10627669E-08  1.26503982E-02
 -9.12629244E-07  0.00000000E+00 -5.33555130E-08  0.00000000E+00  0.00000000E+00
 -1.79202298E-06 -1.97726131E-02 -2.56770453E-06 -4.46229509E-06 -1.63113077E-01
 -2.77350358E-05  0.00000000E+00  1.29092431E-05 -2.34301693E-01 -4.17670755E-05
  0.00000000E+00  2.17727184E-05 -1.47393925E-01 -2.42172580E-05  0.00000000E+00
  8.10627669E-08 -1.26503982E-02  9.12629244E-07  0.00000000E+00 -5.33555130E-08
  0.00000000E+00  0.00000000E+00 -1.79202298E-06 -1.97726131E-02  1.09693338E-01
  1.47638000E-01  1.12456801E-02 -9.95864618E-03  8.57889864E-03  0.00000000E+00
 -1.09706823E-01 -1.47650648E-01 -1.12459555E-02 -9.95862548E-03 -8.57883321E-03
  0.00000000E+00  1.09693338E-01  1.47638000E-01  1.12456801E-02  9.95864618E-03
 -8.57889864E-03  0.00000000E+00 -1.09706823E-01 -1.47650648E-01 -1.12459555E-02
  9.95862548E-03  8.57883321E-03  0.00000000E+00 -7.56930456E-03 -1.29406543E-02
 -2.40147219E-05  1.80443067E-01  0.00000000E+00  3.33927763E-02 -3.72101044E-05
  2.92311320E-01  0.00000000E+00  7.45793481E-02 -2.46217070E-05  1.91609375E-01
  0.00000000E+00 -3.11184294E-04 -8.40635980E-07 -8.39965859E-03  0.00000000E+00
 -1.17877066E-03  0.00000000E+00  0.00000000E+00 -1.98840876E-02  1.55051252E-06
 -7.56930456E-03 -1.29406543E-02  2.40147219E-05 -1.80443067E-01  0.00000000E+00
  3.33927763E-02  3.72101044E-05 -2.92311320E-01  0.00000000E+00  7.45793481E-02
  2.46217070E-05 -1.91609375E-01  0.00000000E+00 -3.11184294E-04  8.40635980E-07
  8.39965859E-03  0.00000000E+00 -1.17877066E-03  0.00000000E+00  0.00000000E+00
 -1.98840876E-02  1.55051252E-06 -5.84958047E-02 -8.98356981E-02 -2.26961993E-02
  8.43423090E-03  5.15084089E-03  0.00000000E+00 -5.84714742E-02 -8.97946034E-02
 -2.26859630E-02 -8.43265485E-03  5.15303139E-03  0.00000000E+00 -5.84958047E-02
 -8.98356981E-02 -2.26961993E-02 -8.43423090E-03 -5.15084089E-03  0.00000000E+00
 -5.84714742E-02 -8.97946034E-02 -2.26859630E-02  8.43265485E-03 -5.15303139E-03
  0.00000000E+00  0.00000000E+00  0.00000000E+00  0.00000000E+00  0.00000000E+00
  1.87255010E-01  0.00000000E+00  0.00000000E+00  0.00000000E+00  3.03124495E-01
  0.00000000E+00  0.00000000E+00  0.00000000E+00  2.89206702E-01  0.00000000E+00
  0.00000000E+00  0.00000000E+00  6.80231512E-03  0.00000000E+00 -6.17017182E-07
  1.40892979E-02  0.00000000E+00  0.00000000E+00  0.00000000E+00  0.00000000E+00
  0.00000000E+00  0.00000000E+00  1.87255010E-01  0.00000000E+00  0.00000000E+00
  0.00000000E+00  3.03124495E-01  0.00000000E+00  0.00000000E+00  0.00000000E+00
  2.89206702E-01  0.00000000E+00  0.00000000E+00  0.00000000E+00  6.80231512E-03
  0.00000000E+00  6.17017182E-07 -1.40892979E-02  0.00000000E+00  0.00000000E+00
  0.00000000E+00  0.00000000E+00  0.00000000E+00  0.00000000E+00  0.00000000E+00
  1.18974804E-02  0.00000000E+00  0.00000000E+00  0.00000000E+00  0.00000000E+00
  0.00000000E+00  1.18984795E-02  0.00000000E+00  0.00000000E+00  0.00000000E+00
  0.00000000E+00  0.00000000E+00  1.18974804E-02  0.00000000E+00  0.00000000E+00
  0.00000000E+00  0.00000000E+00  0.00000000E+00  1.18984795E-02  0.00000000E+00
  0.00000000E+00  0.00000000E+00  0.00000000E+00  2.07735320E-01  0.00000000E+00
  0.00000000E+00  0.00000000E+00  3.29873568E-01  0.00000000E+00  0.00000000E+00
  0.00000000E+00  3.62758165E-01  0.00000000E+00  0.00000000E+00  0.00000000E+00
  5.71469020E-02  0.00000000E+00 -6.23864702E-07 -1.48752281E-02  0.00000000E+00
  0.00000000E+00  0.00000000E+00  0.00000000E+00  0.00000000E+00  0.00000000E+00
 -2.07735320E-01  0.00000000E+00  0.00000000E+00  0.00000000E+00 -3.29873568E-01
  0.00000000E+00  0.00000000E+00  0.00000000E+00 -3.62758165E-01  0.00000000E+00
  0.00000000E+00  0.00000000E+00 -5.71469020E-02  0.00000000E+00 -6.23864702E-07
 -1.48752281E-02  0.00000000E+00  0.00000000E+00  0.00000000E+00  0.00000000E+00
  0.00000000E+00  0.00000000E+00  0.00000000E+00  1.68512806E-02  0.00000000E+00
  0.00000000E+00  0.00000000E+00  0.00000000E+00  0.00000000E+00  1.68527507E-02
  0.00000000E+00  0.00000000E+00  0.00000000E+00  0.00000000E+00  0.00000000E+00
 -1.68512806E-02  0.00000000E+00  0.00000000E+00  0.00000000E+00  0.00000000E+00
  0.00000000E+00 -1.68527507E-02 -5.20323978E-02 -8.82581038E-02 -2.43917953E-06
  1.88922626E-01  0.00000000E+00  2.62317905E-01 -7.17451416E-06  2.88408008E-01
  0.00000000E+00  6.67599496E-01 -1.27932651E-05  4.92772139E-01  0.00000000E+00
  7.27855652E-01 -7.47662634E-06  4.03555096E-01  0.00000000E+00  1.76992420E-02
  0.00000000E+00  0.00000000E+00  2.20958635E-02 -1.27316510E-06  5.20323978E-02
  8.82581038E-02 -2.43917953E-06  1.88922626E-01  0.00000000E+00 -2.62317905E-01
 -7.17451416E-06  2.88408008E-01  0.00000000E+00 -6.67599496E-01 -1.27932651E-05
  4.92772139E-01  0.00000000E+00 -7.27855652E-01 -7.47662634E-06  4.03555096E-01
  0.00000000E+00 -1.76992420E-02  0.00000000E+00  0.00000000E+00 -2.20958635E-02
  1.27316510E-06 -3.13080512E-02 -7.91039361E-02 -9.60761452E-02  6.62543023E-03
  1.53223613E-02  0.00000000E+00 -3.13147668E-02 -7.91193964E-02 -9.60831343E-02
 -6.62869928E-03  1.53229119E-02  0.00000000E+00  3.13080512E-02  7.91039361E-02
  9.60761452E-02  6.62543023E-03  1.53223613E-02  0.00000000E+00  3.13147668E-02
  7.91193964E-02  9.60831343E-02 -6.62869928E-03  1.53229119E-02  0.00000000E+00
  3.36297445E-02  5.77643677E-02 -1.03955506E-05  3.58882879E-02  0.00000000E+00
 -1.72727891E-01 -7.88266557E-06  5.07494347E-02  0.00000000E+00 -7.25381580E-01
 -5.05947008E-05  1.40356702E-01  0.00000000E+00  8.25430783E-01 -3.66493085E-05
 -1.11120104E-01  0.00000000E+00  1.07619338E-02  0.00000000E+00  0.00000000E+00
  4.67452618E-03 -2.50543310E-06  3.36297445E-02  5.77643677E-02  1.03955506E-05
 -3.58882879E-02  0.00000000E+00 -1.72727891E-01  7.88266557E-06 -5.07494347E-02
  0.00000000E+00 -7.25381580E-01  5.05947008E-05 -1.40356702E-01  0.00000000E+00
  8.25430783E-01  3.66493085E-05  1.11120104E-01  0.00000000E+00  1.07619338E-02
  0.00000000E+00  0.00000000E+00  4.67452618E-03 -2.50543310E-06  5.14820048E-03
  1.14328843E-01  3.85242736E-02  7.71811882E-03  2.45676783E-03  0.00000000E+00
  5.14207557E-03  1.14327502E-01  3.84057111E-02 -7.71465365E-03  2.45868655E-03
  0.00000000E+00  5.14820048E-03  1.14328843E-01  3.85242736E-02 -7.71811882E-03
 -2.45676783E-03  0.00000000E+00  5.14207557E-03  1.14327502E-01  3.84057111E-02
  7.71465365E-03 -2.45868655E-03  0.00000000E+00  1.35321495E-06  2.17225088E-06
 -7.45222006E-02  7.96225725E-06  0.00000000E+00 -3.22847160E-06 -1.22019499E-01
  9.85869273E-06  0.00000000E+00 -4.51383733E-05 -2.35691276E-01  4.40156653E-05
  0.00000000E+00  1.20521084E-04  7.02467417E-01  6.64845119E-05  0.00000000E+00
 -1.00522729E-06  0.00000000E+00  0.00000000E+00  1.55104469E-06  5.34537422E-03
 -1.35321495E-06 -2.17225088E-06 -7.45222006E-02  7.96225725E-06  0.00000000E+00
  3.22847160E-06 -1.22019499E-01  9.85869273E-06  0.00000000E+00  4.51383733E-05
 -2.35691276E-01  4.40156653E-05  0.00000000E+00 -1.20521084E-04  7.02467417E-01
  6.64845119E-05  0.00000000E+00  1.00522729E-06  0.00000000E+00  0.00000000E+00
 -1.55104469E-06 -5.34537422E-03 -1.32998229E-02  6.36828993E-02 -1.19514561E-01
  9.48957369E-03 -2.21641455E-03  0.00000000E+00  1.33097454E-02 -6.36530163E-02
  1.19582866E-01  9.48632523E-03  2.21798100E-03  0.00000000E+00  1.32998229E-02