Title Card Required                                                     
Force     UM062X                                                      6-311+G(d,p)        
Number of atoms                            I                4
Info1-9                                    I   N=           9
          13          13           0           0           0         100
           5          18        -502
Full Title                                 C   N=           2
Title Card Required     
Route                                      C   N=           4
#p UM062X/6-311+G** force int=superfine         
Charge                                     I                1
Multiplicity                               I                2
Number of electrons                        I               13
Number of alpha electrons                  I                7
Number of beta electrons                   I                6
Number of basis functions                  I               56
Number of independent functions            I               56
Number of point charges in /Mol/           I                0
Number of translation vectors              I                0
Atomic numbers                             I   N=           4
           6           6           1           1
Nuclear charges                            R   N=           4
  6.00000000E+00  6.00000000E+00  1.00000000E+00  1.00000000E+00
Current cartesian coordinates              R   N=          12
  0.00000000E+00  0.00000000E+00  9.51074457E-01  1.16473029E-16  0.00000000E+00
 -9.51074457E-01  0.00000000E+00  0.00000000E+00  2.98025670E+00  3.64976183E-16
  0.00000000E+00 -2.98025670E+00
Number of symbols in /Mol/                 I                0
Force Field                                I                0
Atom Types                                 C   N=           4
                                                
Int Atom Types                             I   N=           4
           0           0           0           0
MM charges                                 R   N=           4
  0.00000000E+00  0.00000000E+00  0.00000000E+00  0.00000000E+00
Integer atomic weights                     I   N=           4
          12          12           1           1
Real atomic weights                        R   N=           4
  1.20000000E+01  1.20000000E+01  1.00782504E+00  1.00782504E+00
Atom fragment info                         I   N=           4
           0           0           0           0
Atom residue num                           I   N=           4
           0           0           0           0
Nuclear spins                              I   N=           4
           0           0           1           1
Nuclear ZEff                               R   N=           4
 -3.60000000E+00 -3.60000000E+00 -1.00000000E+00 -1.00000000E+00
Nuclear ZNuc                               R   N=           4
  6.00000000E+00  6.00000000E+00  1.00000000E+00  1.00000000E+00
Nuclear QMom                               R   N=           4
  0.00000000E+00  0.00000000E+00  0.00000000E+00  0.00000000E+00
Nuclear GFac                               R   N=           4
  0.00000000E+00  0.00000000E+00  2.79284600E+00  2.79284600E+00
MicOpt                                     I   N=           4
          -1          -1          -1          -1
Number of residues                         I                0
Number of secondary structures             I                0
SymInf integers                            I   N=          26
           2           8           1           1           1          -1
           1          -1          -1          -1           1           1
          -1          -1          -1           1           1           1
          -1           1           1           1          -1          -1
          -1          -1
RotTr to input orientation                 R   N=          12
  0.00000000E+00  0.00000000E+00  1.00000000E+00  0.00000000E+00  1.00000000E+00
  0.00000000E+00 -1.00000000E+00 -0.00000000E+00 -0.00000000E+00 -1.34980437E-07
  0.00000000E+00  0.00000000E+00
Number of contracted shells                I               20
Number of primitive shells                 I               38
Pure/Cartesian d shells                    I                0
Pure/Cartesian f shells                    I                0
Highest angular momentum                   I                2
Largest degree of contraction              I                6
Shell types                                I   N=          20
           0          -1          -1          -1          -1          -2
           0          -1          -1          -1          -1          -2
           0           0           0           1           0           0
           0           1
Number of primitives per shell             I   N=          20
           6           3           1           1           1           1
           6           3           1           1           1           1
           3           1           1           1           3           1
           1           1
Shell to atom map                          I   N=          20
           1           1           1           1           1           1
           2           2           2           2           2           2
           3           3           3           3           4           4
           4           4
Primitive exponents                        R   N=          38
  4.56324000E+03  6.82024000E+02  1.54973000E+02  4.44553000E+01  1.30290000E+01
  1.82773000E+00  2.09642000E+01  4.80331000E+00  1.45933000E+00  4.83456000E-01
  1.45585000E-01  4.38000000E-02  6.26000000E-01  4.56324000E+03  6.82024000E+02
  1.54973000E+02  4.44553000E+01  1.30290000E+01  1.82773000E+00  2.09642000E+01
  4.80331000E+00  1.45933000E+00  4.83456000E-01  1.45585000E-01  4.38000000E-02
  6.26000000E-01  3.38650000E+01  5.09479000E+00  1.15879000E+00  3.25840000E-01
  1.02741000E-01  7.50000000E-01  3.38650000E+01  5.09479000E+00  1.15879000E+00
  3.25840000E-01  1.02741000E-01  7.50000000E-01
Contraction coefficients                   R   N=          38
  1.96665025E-03  1.52306019E-02  7.61269097E-02  2.60801033E-01  6.16462078E-01
  2.21006028E-01  1.14660081E-01  9.19999648E-01 -3.03068213E-03  1.00000000E+00
  1.00000000E+00  1.00000000E+00  1.00000000E+00  1.96665025E-03  1.52306019E-02
  7.61269097E-02  2.60801033E-01  6.16462078E-01  2.21006028E-01  1.14660081E-01
  9.19999648E-01 -3.03068213E-03  1.00000000E+00  1.00000000E+00  1.00000000E+00
  1.00000000E+00  2.54938145E-02  1.90373109E-01  8.52161486E-01  1.00000000E+00
  1.00000000E+00  1.00000000E+00  2.54938145E-02  1.90373109E-01  8.52161486E-01
  1.00000000E+00  1.00000000E+00  1.00000000E+00
P(S=P) Contraction coefficients            R   N=          38
  0.00000000E+00  0.00000000E+00  0.00000000E+00  0.00000000E+00  0.00000000E+00
  0.00000000E+00  4.02486927E-02  2.37593957E-01  8.15853851E-01  1.00000000E+00
  1.00000000E+00  1.00000000E+00  0.00000000E+00  0.00000000E+00  0.00000000E+00
  0.00000000E+00  0.00000000E+00  0.00000000E+00  0.00000000E+00  4.02486927E-02
  2.37593957E-01  8.15853851E-01  1.00000000E+00  1.00000000E+00  1.00000000E+00
  0.00000000E+00  0.00000000E+00  0.00000000E+00  0.00000000E+00  0.00000000E+00
  0.00000000E+00  0.00000000E+00  0.00000000E+00  0.00000000E+00  0.00000000E+00
  0.00000000E+00  0.00000000E+00  0.00000000E+00
Coordinates of each shell                  R   N=          60
  0.00000000E+00  0.00000000E+00  9.51074457E-01  0.00000000E+00  0.00000000E+00
  9.51074457E-01  0.00000000E+00  0.00000000E+00  9.51074457E-01  0.00000000E+00
  0.00000000E+00  9.51074457E-01  0.00000000E+00  0.00000000E+00  9.51074457E-01
  0.00000000E+00  0.00000000E+00  9.51074457E-01  1.16473029E-16  0.00000000E+00
 -9.51074457E-01  1.16473029E-16  0.00000000E+00 -9.51074457E-01  1.16473029E-16
  0.00000000E+00 -9.51074457E-01  1.16473029E-16  0.00000000E+00 -9.51074457E-01
  1.16473029E-16  0.00000000E+00 -9.51074457E-01  1.16473029E-16  0.00000000E+00
 -9.51074457E-01  0.00000000E+00  0.00000000E+00  2.98025670E+00  0.00000000E+00
  0.00000000E+00  2.98025670E+00  0.00000000E+00  0.00000000E+00  2.98025670E+00
  0.00000000E+00  0.00000000E+00  2.98025670E+00  3.64976183E-16  0.00000000E+00
 -2.98025670E+00  3.64976183E-16  0.00000000E+00 -2.98025670E+00  3.64976183E-16
  0.00000000E+00 -2.98025670E+00  3.64976183E-16  0.00000000E+00 -2.98025670E+00
Num ILSW                                   I              100
ILSW                                       I   N=         100
           1           0           0           0           2           0
           0           0           0           0        4336          -1
           7           0           0           0           2           0
           0           0           0           0           1           0
           1           0           0           0           0           0
           0           0      100000           0          -1           0
           0           0           0           0           0           0
           0           0           0           1           0           0
           0 -2000000000           1           0           0           0
           0           0           4          52           0           0
           0           0          55           0           0           0
           0           0           0           4           0           1
           0           0           0           0           0           0
           0           0           0           0           0           0
           0           0           0           0           0           0
           0           0           0           0           0           0
           0           0           0           0
Num RLSW                                   I               52
RLSW                                       R   N=          52
  1.00000000E+00  1.00000000E+00  1.00000000E+00  1.00000000E+00  5.40000000E-01
  0.00000000E+00  0.00000000E+00  1.00000000E+00  0.00000000E+00  0.00000000E+00
  0.00000000E+00  0.00000000E+00  1.00000000E+00  0.00000000E+00  0.00000000E+00
  0.00000000E+00  0.00000000E+00  1.00000000E+00  0.00000000E+00  0.00000000E+00
  0.00000000E+00  0.00000000E+00  1.00000000E+00  0.00000000E+00  0.00000000E+00
  0.00000000E+00  0.00000000E+00  1.00000000E+00  0.00000000E+00  0.00000000E+00
  0.00000000E+00  0.00000000E+00  1.00000000E+00  0.00000000E+00  0.00000000E+00
  0.00000000E+00  0.00000000E+00  0.00000000E+00  1.00000000E+00  1.00000000E+00
  0.00000000E+00  1.00000000E+00  0.00000000E+00  0.00000000E+00  0.00000000E+00
  0.00000000E+00  0.00000000E+00  0.00000000E+00  0.00000000E+00  0.00000000E+00
  0.00000000E+00  0.00000000E+00
MxBond                                     I                2
NBond                                      I   N=           4
           2           2           1           1
IBond                                      I   N=           8
           2           3           1           4           1           0
           2           0
RBond                                      R   N=           8
  3.00000000E+00  1.00000000E+00  3.00000000E+00  1.00000000E+00  1.00000000E+00
  0.00000000E+00  1.00000000E+00  0.00000000E+00
Virial Ratio                               R      1.982936984140965E+00
SCF Energy                                 R     -7.674765956705770E+01
Total Energy                               R     -7.674765956705770E+01
S**2                                       R      7.521731131086540E-01
S**2 after annihilation                    R      7.500033892115365E-01
RMS Force                                  R      3.511395449775602E-01
RMS Density                                R      2.156471202457236E-09
Job Status                                 I                1
Nuclear derivative order                   I                1
External E-field                           R   N=          35
  0.00000000E+00  0.00000000E+00  0.00000000E+00  0.00000000E+00  0.00000000E+00
  0.00000000E+00  0.00000000E+00  0.00000000E+00  0.00000000E+00  0.00000000E+00
  0.00000000E+00  0.00000000E+00  0.00000000E+00  0.00000000E+00  0.00000000E+00
  0.00000000E+00  0.00000000E+00  0.00000000E+00  0.00000000E+00  0.00000000E+00
  0.00000000E+00  0.00000000E+00  0.00000000E+00  0.00000000E+00  0.00000000E+00
  0.00000000E+00  0.00000000E+00  0.00000000E+00  0.00000000E+00  0.00000000E+00
  0.00000000E+00  0.00000000E+00  0.00000000E+00  0.00000000E+00  0.00000000E+00
IOpCl                                      I                1
IROHF                                      I                0
Alpha Orbital Energies                     R   N=          56
 -1.09076668E+01 -1.08945029E+01 -1.31397387E+00 -9.53495448E-01 -9.12157687E-01
 -8.12855287E-01 -7.78925283E-01 -2.02784800E-01 -1.84862882E-01 -1.46987574E-01
 -1.39082201E-01 -1.19393279E-01 -1.13070804E-01 -1.09851844E-01 -3.66340659E-02
 -2.98810352E-02 -2.58471714E-02  2.43058797E-02  4.31916713E-02  1.71580864E-01
  2.04380247E-01  2.60649894E-01  2.70739572E-01  4.12079513E-01  4.20890837E-01
  4.66838751E-01  5.06717943E-01  5.58741736E-01  8.00830454E-01  8.02635878E-01
  8.45940714E-01  8.51062451E-01  8.60492679E-01  1.01343599E+00  1.26736463E+00
  1.27353100E+00  1.33892521E+00  1.33940052E+00  1.38255048E+00  1.66557900E+00
  1.68323710E+00  2.15136675E+00  2.25642945E+00  2.32807631E+00  2.35566253E+00
  2.35936992E+00  2.41829957E+00  2.45421653E+00  2.63597495E+00  2.72409933E+00
  2.75757303E+00  3.06010034E+00  3.17129091E+00  3.83605563E+00  2.37206510E+01
  2.53176978E+01
Beta Orbital Energies                      R   N=          56
 -1.09042943E+01 -1.08917319E+01 -1.25616295E+00 -9.38259772E-01 -9.04153748E-01
 -7.52599942E-01 -5.13369677E-01 -1.73007187E-01 -1.58953222E-01 -1.55866384E-01
 -1.34768482E-01 -1.18914046E-01 -1.15034684E-01 -1.10963566E-01 -2.54043684E-02
 -2.08226936E-02 -1.55221910E-02  2.60689527E-02  4.72813218E-02  1.77640747E-01
  2.08285311E-01  2.44580214E-01  2.67756046E-01  4.23721262E-01  4.26269289E-01
  4.66008415E-01  4.91815932E-01  5.67404036E-01  8.32493668E-01  8.43863074E-01
  8.63066922E-01  8.73302107E-01  8.84023591E-01  1.04192621E+00  1.28435803E+00
  1.29355366E+00  1.36647539E+00  1.38100498E+00  1.39447567E+00  1.68848421E+00
  1.69773540E+00  2.18753493E+00  2.27992740E+00  2.36342548E+00  2.36590614E+00
  2.37359793E+00  2.45744463E+00  2.45993596E+00  2.71405971E+00  2.74628952E+00
  2.76242538E+00  3.10643682E+00  3.20402597E+00  3.88564951E+00  2.37285052E+01
  2.53411235E+01
Alpha MO coefficients                      R   N=        3136
  3.97837580E-01  3.27239932E-01  0.00000000E+00  0.00000000E+00 -1.52405529E-03
  8.54334458E-03  0.00000000E+00  0.00000000E+00  2.82027718E-03  6.60383977E-04
  0.00000000E+00  0.00000000E+00  1.62757580E-03 -7.05254811E-04  0.00000000E+00
  0.00000000E+00 -9.23822211E-04  3.89395489E-03  0.00000000E+00  0.00000000E+00
  5.31962401E-05  0.00000000E+00  3.97837580E-01  3.27239932E-01  0.00000000E+00
  0.00000000E+00  1.52405529E-03  8.54334458E-03  0.00000000E+00  0.00000000E+00
 -2.82027718E-03  6.60383977E-04  0.00000000E+00  0.00000000E+00 -1.62757580E-03
 -7.05254811E-04  0.00000000E+00  0.00000000E+00  9.23822211E-04  3.89395489E-03
  0.00000000E+00  0.00000000E+00  5.31962401E-05  0.00000000E+00 -3.81482005E-04
 -6.09263062E-03  1.88389443E-03  0.00000000E+00  0.00000000E+00  3.26061652E-03
 -3.81482005E-04 -6.09263062E-03  1.88389443E-03  0.00000000E+00  0.00000000E+00
 -3.26061652E-03  3.99134515E-01  3.27060548E-01  0.00000000E+00  0.00000000E+00
 -1.38708964E-03  3.21477917E-02  0.00000000E+00  0.00000000E+00 -2.05922545E-02
 -1.30526740E-02  0.00000000E+00  0.00000000E+00  1.10505382E-02 -5.54209264E-02
  0.00000000E+00  0.00000000E+00  1.15162515E-02  9.23974159E-03  0.00000000E+00
  0.00000000E+00  7.72912861E-05  0.00000000E+00 -3.99134515E-01 -3.27060548E-01
  0.00000000E+00  0.00000000E+00 -1.38708964E-03 -3.21477917E-02  0.00000000E+00
  0.00000000E+00 -2.05922545E-02  1.30526740E-02  0.00000000E+00  0.00000000E+00
  1.10505382E-02  5.54209264E-02  0.00000000E+00  0.00000000E+00  1.15162515E-02
 -9.23974159E-03  0.00000000E+00  0.00000000E+00 -7.72912861E-05  0.00000000E+00
 -4.83326231E-04 -2.65136237E-03 -3.65007734E-03  0.00000000E+00  0.00000000E+00
  1.54112855E-03  4.83326231E-04  2.65136237E-03  3.65007734E-03  0.00000000E+00
  0.00000000E+00  1.54112855E-03 -1.03407896E-01 -1.67281691E-01  0.00000000E+00
  0.00000000E+00 -1.32929397E-01  3.86348970E-01  0.00000000E+00  0.00000000E+00
 -1.08611252E-01  1.62483978E-01  0.00000000E+00  0.00000000E+00 -1.50121280E-02
 -8.26858963E-03  0.00000000E+00  0.00000000E+00  2.34730700E-02  3.63800856E-02
  0.00000000E+00  0.00000000E+00  6.72984035E-03  0.00000000E+00 -1.03407896E-01
 -1.67281691E-01  0.00000000E+00  0.00000000E+00  1.32929397E-01  3.86348970E-01
  0.00000000E+00  0.00000000E+00  1.08611252E-01  1.62483978E-01  0.00000000E+00
  0.00000000E+00  1.50121280E-02 -8.26858963E-03  0.00000000E+00  0.00000000E+00
 -2.34730700E-02  3.63800856E-02  0.00000000E+00  0.00000000E+00  6.72984035E-03
  0.00000000E+00  1.88597211E-02 -1.01289545E-04 -9.97134845E-03  0.00000000E+00
  0.00000000E+00  8.89186424E-03  1.88597211E-02 -1.01289545E-04 -9.97134845E-03
  0.00000000E+00  0.00000000E+00 -8.89186424E-03  6.25302967E-02  1.03753101E-01
  0.00000000E+00  0.00000000E+00 -1.01016427E-01 -2.87972068E-01  0.00000000E+00
  0.00000000E+00 -1.40118036E-01 -4.04588220E-01  0.00000000E+00  0.00000000E+00
  2.14828236E-02  4.98965512E-01  0.00000000E+00  0.00000000E+00 -1.02480385E-01
 -1.02807588E-02  0.00000000E+00  0.00000000E+00 -4.63506465E-03  0.00000000E+00
 -6.25302967E-02 -1.03753101E-01  0.00000000E+00  0.00000000E+00 -1.01016427E-01
  2.87972068E-01  0.00000000E+00  0.00000000E+00 -1.40118036E-01  4.04588220E-01
  0.00000000E+00  0.00000000E+00  2.14828236E-02 -4.98965512E-01  0.00000000E+00
  0.00000000E+00 -1.02480385E-01  1.02807588E-02  0.00000000E+00  0.00000000E+00
  4.63506465E-03  0.00000000E+00 -1.28997561E-01 -1.74048036E-01 -9.37390985E-03
  0.00000000E+00  0.00000000E+00  2.21107239E-02  1.28997561E-01  1.74048036E-01
  9.37390985E-03  0.00000000E+00  0.00000000E+00  2.21107239E-02 -1.07902717E-02
 -1.88769448E-02  0.00000000E+00  0.00000000E+00  2.05290310E-01  7.94251179E-02
  0.00000000E+00  0.00000000E+00  2.23025306E-01  1.30212811E-01  0.00000000E+00
  0.00000000E+00  8.98440838E-02  1.04240822E-02  0.00000000E+00  0.00000000E+00
  1.39513366E-02 -1.71548606E-02  0.00000000E+00  0.00000000E+00  9.15550592E-04
  0.00000000E+00 -1.07902717E-02 -1.88769448E-02  0.00000000E+00  0.00000000E+00
 -2.05290310E-01  7.94251179E-02  0.00000000E+00  0.00000000E+00 -2.23025306E-01
  1.30212811E-01  0.00000000E+00  0.00000000E+00 -8.98440838E-02  1.04240822E-02
  0.00000000E+00  0.00000000E+00 -1.39513366E-02 -1.71548606E-02  0.00000000E+00
  0.00000000E+00  9.15550592E-04  0.00000000E+00  1.36239108E-01  2.02847532E-01
 -1.09755368E-02  0.00000000E+00  0.00000000E+00 -3.49644858E-02  1.36239108E-01
  2.02847532E-01 -1.09755368E-02  0.00000000E+00  0.00000000E+00  3.49644858E-02
  0.00000000E+00  0.00000000E+00  2.13989864E-01  0.00000000E+00  0.00000000E+00
  0.00000000E+00  3.22061076E-01  0.00000000E+00  0.00000000E+00  0.00000000E+00
  1.55360137E-01  0.00000000E+00  0.00000000E+00  0.00000000E+00 -8.68119674E-03
  0.00000000E+00  0.00000000E+00  0.00000000E+00 -3.96882177E-02  0.00000000E+00
  0.00000000E+00  0.00000000E+00  0.00000000E+00  0.00000000E+00  2.13989864E-01
  0.00000000E+00  0.00000000E+00  0.00000000E+00  3.22061076E-01  0.00000000E+00
  0.00000000E+00  0.00000000E+00  1.55360137E-01  0.00000000E+00  0.00000000E+00
  0.00000000E+00 -8.68119674E-03  0.00000000E+00  0.00000000E+00  0.00000000E+00
  3.96882177E-02  0.00000000E+00  0.00000000E+00  0.00000000E+00  0.00000000E+00
  0.00000000E+00  0.00000000E+00  1.17562648E-02  0.00000000E+00  0.00000000E+00
  0.00000000E+00  0.00000000E+00  0.00000000E+00  1.17562648E-02  0.00000000E+00
  0.00000000E+00  0.00000000E+00  0.00000000E+00  0.00000000E+00  2.13921532E-01
  0.00000000E+00  0.00000000E+00  0.00000000E+00  3.19230234E-01  0.00000000E+00
  0.00000000E+00  0.00000000E+00  1.58455894E-01  0.00000000E+00  0.00000000E+00
  0.00000000E+00 -6.33544907E-03  0.00000000E+00  0.00000000E+00  0.00000000E+00
 -3.68547958E-02  0.00000000E+00  0.00000000E+00  0.00000000E+00  0.00000000E+00
  0.00000000E+00  2.13921532E-01  0.00000000E+00  0.00000000E+00  0.00000000E+00
  3.19230234E-01  0.00000000E+00  0.00000000E+00  0.00000000E+00  1.58455894E-01
  0.00000000E+00  0.00000000E+00  0.00000000E+00 -6.33544907E-03  0.00000000E+00
  0.00000000E+00  0.00000000E+00  3.68547958E-02  0.00000000E+00  0.00000000E+00
  0.00000000E+00  0.00000000E+00  0.00000000E+00  0.00000000E+00  1.30201682E-02
  0.00000000E+00  0.00000000E+00  0.00000000E+00  0.00000000E+00  0.00000000E+00
  1.30201682E-02  0.00000000E+00  0.00000000E+00  0.00000000E+00  1.81062854E-01
  0.00000000E+00  0.00000000E+00  0.00000000E+00  3.21543234E-01  0.00000000E+00
  0.00000000E+00  0.00000000E+00  6.58419390E-01  0.00000000E+00  0.00000000E+00
  0.00000000E+00  5.47300177E-01  0.00000000E+00  0.00000000E+00  0.00000000E+00
  4.56007982E-02  0.00000000E+00  0.00000000E+00  0.00000000E+00  0.00000000E+00
  0.00000000E+00 -1.81062854E-01  0.00000000E+00  0.00000000E+00  0.00000000E+00
 -3.21543234E-01  0.00000000E+00  0.00000000E+00  0.00000000E+00 -6.58419390E-01
  0.00000000E+00  0.00000000E+00  0.00000000E+00 -5.47300177E-01  0.00000000E+00
  0.00000000E+00  0.00000000E+00  4.56007982E-02  0.00000000E+00  0.00000000E+00
  0.00000000E+00  0.00000000E+00  0.00000000E+00  0.00000000E+00  3.10639950E-02
  0.00000000E+00  0.00000000E+00  0.00000000E+00  0.00000000E+00  0.00000000E+00
 -3.10639950E-02  0.00000000E+00  0.00000000E+00  0.00000000E+00  0.00000000E+00
  0.00000000E+00  1.71833190E-01  0.00000000E+00  0.00000000E+00  0.00000000E+00
  2.93257935E-01  0.00000000E+00  0.00000000E+00  0.00000000E+00  6.63180449E-01
  0.00000000E+00  0.00000000E+00  0.00000000E+00  6.69977839E-01  0.00000000E+00
  0.00000000E+00  0.00000000E+00  4.89131321E-02  0.00000000E+00  0.00000000E+00
  0.00000000E+00  0.00000000E+00  0.00000000E+00 -1.71833190E-01  0.00000000E+00
  0.00000000E+00  0.00000000E+00 -2.93257935E-01  0.00000000E+00  0.00000000E+00
  0.00000000E+00 -6.63180449E-01  0.00000000E+00  0.00000000E+00  0.00000000E+00
 -6.69977839E-01  0.00000000E+00  0.00000000E+00  0.00000000E+00  4.89131321E-02
  0.00000000E+00  0.00000000E+00  0.00000000E+00  0.00000000E+00  0.00000000E+00
  0.00000000E+00  3.19780409E-02  0.00000000E+00  0.00000000E+00  0.00000000E+00
  0.00000000E+00  0.00000000E+00 -3.19780409E-02  0.00000000E+00  2.14746586E-02
  3.82661329E-02  0.00000000E+00  0.00000000E+00 -3.21426795E-02 -1.23331127E-01
  0.00000000E+00  0.00000000E+00 -6.39483540E-02 -2.79379593E-01  0.00000000E+00
  0.00000000E+00 -5.21670689E-02  9.49410882E-01  0.00000000E+00  0.00000000E+00
  5.79439736E-01 -2.46751834E-02  0.00000000E+00  0.00000000E+00  7.06732158E-04
  0.00000000E+00  2.14746586E-02  3.82661329E-02  0.00000000E+00  0.00000000E+00
  3.21426795E-02 -1.23331127E-01  0.00000000E+00  0.00000000E+00  6.39483540E-02
 -2.79379593E-01  0.00000000E+00  0.00000000E+00  5.21670689E-02  9.49410882E-01
  0.00000000E+00  0.00000000E+00 -5.79439736E-01 -2.46751834E-02  0.00000000E+00
  0.00000000E+00  7.06732158E-04  0.00000000E+00 -3.03200692E-02  1.77777673E-02
 -3.23523130E-01  0.00000000E+00  0.00000000E+00  6.41312350E-03 -3.03200692E-02
  1.77777673E-02 -3.23523130E-01  0.00000000E+00  0.00000000E+00 -6.41312350E-03
 -3.43142471E-02 -6.00617993E-02  0.00000000E+00  0.00000000E+00  4.32552891E-02
  1.74389224E-01  0.00000000E+00  0.00000000E+00  8.05863674E-02  9.78095629E-01
  0.00000000E+00  0.00000000E+00 -9.81876969E-02  1.65887489E+01  0.00000000E+00
  0.00000000E+00 -3.87389148E+00 -1.78699662E-02  0.00000000E+00  0.00000000E+00
  3.19771876E-03  0.00000000E+00  3.43142471E-02  6.00617993E-02  0.00000000E+00
  0.00000000E+00  4.32552891E-02 -1.74389224E-01  0.00000000E+00  0.00000000E+00
  8.05863674E-02 -9.78095629E-01  0.00000000E+00  0.00000000E+00 -9.81876969E-02
 -1.65887489E+01  0.00000000E+00  0.00000000E+00 -3.87389148E+00  1.78699662E-02
  0.00000000E+00  0.00000000E+00 -3.19771876E-03  0.00000000E+00 -2.97189518E-02
 -1.32392175E-01 -2.11146099E-01  0.00000000E+00  0.00000000E+00 -2.15974157E-02
  2.97189518E-02  1.32392175E-01  2.11146099E-01  0.00000000E+00  0.00000000E+00
 -2.15974157E-02 -3.82121117E-03 -7.84535608E-03  0.00000000E+00  0.00000000E+00
 -1.11198761E-01  2.67320536E-02  0.00000000E+00  0.00000000E+00 -1.24649671E-01
 -2.91497040E-01  0.00000000E+00  0.00000000E+00 -1.94006690E-01 -2.24924044E-01
  0.00000000E+00  0.00000000E+00  1.05839458E+00  5.90970940E-02  0.00000000E+00
  0.00000000E+00 -4.19276791E-03  0.00000000E+00 -3.82121117E-03 -7.84535608E-03
  0.00000000E+00  0.00000000E+00  1.11198761E-01  2.67320536E-02  0.00000000E+00
  0.00000000E+00  1.24649671E-01 -2.91497040E-01  0.00000000E+00  0.00000000E+00
  1.94006690E-01 -2.24924044E-01  0.00000000E+00  0.00000000E+00 -1.05839458E+00
  5.90970940E-02  0.00000000E+00  0.00000000E+00 -4.19276791E-03  0.00000000E+00
  6.13565149E-02  1.87997625E-01  6.54731979E-01  0.00000000E+00  0.00000000E+00
  3.10927608E-02  6.13565149E-02  1.87997625E-01  6.54731979E-01  0.00000000E+00
  0.00000000E+00 -3.10927608E-02  0.00000000E+00  0.00000000E+00 -6.49789178E-02
  0.00000000E+00  0.00000000E+00  0.00000000E+00 -7.22689945E-02  0.00000000E+00
  0.00000000E+00  0.00000000E+00 -1.38121869E-01  0.00000000E+00  0.00000000E+00
  0.00000000E+00  5.84258831E-01  0.00000000E+00  0.00000000E+00  0.00000000E+00
  2.20606781E-02  0.00000000E+00  0.00000000E+00  0.00000000E+00  0.00000000E+00
  0.00000000E+00 -6.49789178E-02  0.00000000E+00  0.00000000E+00  0.00000000E+00
 -7.22689945E-02  0.00000000E+00  0.00000000E+00  0.00000000E+00 -1.38121869E-01
  0.00000000E+00  0.00000000E+00  0.00000000E+00  5.84258831E-01  0.00000000E+00
  0.00000000E+00  0.00000000E+00 -2.20606781E-02  0.00000000E+00  0.00000000E+00
  0.00000000E+00  0.00000000E+00  0.00000000E+00  0.00000000E+00  9.69600304E-03
  0.00000000E+00  0.00000000E+00  0.00000000E+00  0.00000000E+00  0.00000000E+00
  9.69600304E-03  0.00000000E+00  0.00000000E+00  0.00000000E+00  0.00000000E+00
  0.00000000E+00 -6.48764727E-02  0.00000000E+00  0.00000000E+00  0.00000000E+00
 -7.91704239E-02  0.00000000E+00  0.00000000E+00  0.00000000E+00 -1.35472223E-01
  0.00000000E+00  0.00000000E+00  0.00000000E+00  5.82851252E-01  0.00000000E+00
  0.00000000E+00  0.00000000E+00  2.07649486E-02  0.00000000E+00  0.00000000E+00
  0.00000000E+00  0.00000000E+00  0.00000000E+00 -6.48764727E-02  0.00000000E+00
  0.00000000E+00  0.00000000E+00 -7.91704239E-02  0.00000000E+00  0.00000000E+00
  0.00000000E+00 -1.35472223E-01  0.00000000E+00  0.00000000E+00  0.00000000E+00
  5.82851252E-01  0.00000000E+00  0.00000000E+00  0.00000000E+00 -2.07649486E-02
  0.00000000E+00  0.00000000E+00  0.00000000E+00  0.00000000E+00  0.00000000E+00
  0.00000000E+00  9.25870188E-03  0.00000000E+00  0.00000000E+00  0.00000000E+00
  0.00000000E+00  0.00000000E+00  9.25870188E-03  0.00000000E+00  0.00000000E+00
  0.00000000E+00 -1.06352960E-01  0.00000000E+00  0.00000000E+00  0.00000000E+00
 -1.64518867E-01  0.00000000E+00  0.00000000E+00  0.00000000E+00 -5.73196604E-01
  0.00000000E+00  0.00000000E+00  0.00000000E+00  2.80173992E+00  0.00000000E+00
  0.00000000E+00  0.00000000E+00 -1.87607802E-02  0.00000000E+00  0.00000000E+00
  0.00000000E+00  0.00000000E+00  0.00000000E+00  1.06352960E-01  0.00000000E+00
  0.00000000E+00  0.00000000E+00  1.64518867E-01  0.00000000E+00  0.00000000E+00
  0.00000000E+00  5.73196604E-01  0.00000000E+00  0.00000000E+00  0.00000000E+00
 -2.80173992E+00  0.00000000E+00  0.00000000E+00  0.00000000E+00 -1.87607802E-02
  0.00000000E+00  0.00000000E+00  0.00000000E+00  0.00000000E+00  0.00000000E+00
  0.00000000E+00  6.04139249E-04  0.00000000E+00  0.00000000E+00  0.00000000E+00
  0.00000000E+00  0.00000000E+00 -6.04139249E-04  0.00000000E+00  0.00000000E+00
  0.00000000E+00  0.00000000E+00  0.00000000E+00 -1.13033080E-01  0.00000000E+00
  0.00000000E+00  0.00000000E+00 -1.72321440E-01  0.00000000E+00  0.00000000E+00
  0.00000000E+00 -6.26301294E-01  0.00000000E+00  0.00000000E+00  0.00000000E+00
  2.78259290E+00  0.00000000E+00  0.00000000E+00  0.00000000E+00 -2.41699512E-02
  0.00000000E+00  0.00000000E+00  0.00000000E+00  0.00000000E+00  0.00000000E+00
  1.13033080E-01  0.00000000E+00  0.00000000E+00  0.00000000E+00  1.72321440E-01
  0.00000000E+00  0.00000000E+00  0.00000000E+00  6.26301294E-01  0.00000000E+00
  0.00000000E+00  0.00000000E+00 -2.78259290E+00  0.00000000E+00  0.00000000E+00
  0.00000000E+00 -2.41699512E-02  0.00000000E+00  0.00000000E+00  0.00000000E+00
  0.00000000E+00  0.00000000E+00  0.00000000E+00 -2.22492235E-03  0.00000000E+00
  0.00000000E+00  0.00000000E+00  0.00000000E+00  0.00000000E+00  2.22492235E-03
  0.00000000E+00 -3.07777734E-02 -5.36448777E-02  0.00000000E+00  0.00000000E+00
  1.50484554E-02  1.08567308E-01  0.00000000E+00  0.00000000E+00  7.00044768E-02
 -8.66993006E-01  0.00000000E+00  0.00000000E+00  1.18443389E+00  2.48876913E+01
  0.00000000E+00  0.00000000E+00 -4.04787349E+00 -6.72909429E-02  0.00000000E+00
  0.00000000E+00  5.21809871E-03  0.00000000E+00  3.07777734E-02  5.36448777E-02
  0.00000000E+00  0.00000000E+00  1.50484554E-02 -1.08567308E-01  0.00000000E+00
  0.00000000E+00  7.00044768E-02  8.66993006E-01  0.00000000E+00  0.00000000E+00
  1.18443389E+00 -2.48876913E+01  0.00000000E+00  0.00000000E+00 -4.04787349E+00
  6.72909429E-02  0.00000000E+00  0.00000000E+00 -5.21809871E-03  0.00000000E+00
 -9.80721819E-02 -3.46104168E-01 -2.15532392E+00  0.00000000E+00  0.00000000E+00