Title Card Required                                                     
FOpt      UM062X                                                      6-311+G(d,p)        
Number of atoms                            I                4
Info1-9                                    I   N=           9
          13          13           0           0           0         110
           2          18        -502
Full Title                                 C   N=           2
Title Card Required     
Route                                      C   N=           5
#p opt UM062X/6-311+G** nosymm int=superfine SCF=NoVarAcc   
Charge                                     I                0
Multiplicity                               I                1
Number of electrons                        I               14
Number of alpha electrons                  I                7
Number of beta electrons                   I                7
Number of basis functions                  I               56
Number of independent functions            I               56
Number of point charges in /Mol/           I                0
Number of translation vectors              I                0
Atomic numbers                             I   N=           4
           6           6           1           1
Nuclear charges                            R   N=           4
  6.00000000E+00  6.00000000E+00  1.00000000E+00  1.00000000E+00
Current cartesian coordinates              R   N=          12
 -9.32131033E+00  0.00000000E+00  0.00000000E+00  9.32131033E+00  0.00000000E+00
  0.00000000E+00 -1.14383787E+01 -1.35769590E-05  1.35769571E-05  1.14383786E+01
  9.34395604E-06 -9.34394991E-06
Number of symbols in /Mol/                 I                0
Force Field                                I                0
Atom Types                                 C   N=           4
                                                
Int Atom Types                             I   N=           4
           0           0           0           0
MM charges                                 R   N=           4
  0.00000000E+00  0.00000000E+00  0.00000000E+00  0.00000000E+00
Integer atomic weights                     I   N=           4
          12          12           1           1
Real atomic weights                        R   N=           4
  1.20000000E+01  1.20000000E+01  1.00782504E+00  1.00782504E+00
Atom fragment info                         I   N=           4
           0           0           0           0
Atom residue num                           I   N=           4
           0           0           0           0
Nuclear spins                              I   N=           4
           0           0           1           1
Nuclear ZEff                               R   N=           4
 -3.60000000E+00 -3.60000000E+00 -1.00000000E+00 -1.00000000E+00
Nuclear ZNuc                               R   N=           4
  6.00000000E+00  6.00000000E+00  1.00000000E+00  1.00000000E+00
Nuclear QMom                               R   N=           4
  0.00000000E+00  0.00000000E+00  0.00000000E+00  0.00000000E+00
Nuclear GFac                               R   N=           4
  0.00000000E+00  0.00000000E+00  2.79284600E+00  2.79284600E+00
MicOpt                                     I   N=           4
          -2          -2          -1          -1
Number of residues                         I                0
Number of secondary structures             I                0
Redundant internal dimensions              I   N=           4
          12           8           4           0
Redundant internal coordinate indices      I   N=          48
           1          -1           0           0           1          -2
           0           0           1          -3           0           0
           2          -1           0           0           2          -2
           0           0           2          -3           0           0
           1           3           0           0           2           4
           0           0           2           1           3          -4
           1           2           4          -4           2           1
           3          -8           1           2           4          -8
Redundant internal coordinates             R   N=          12
 -9.32131033E+00  0.00000000E+00  0.00000000E+00  9.32131033E+00  0.00000000E+00
  0.00000000E+00  2.11706836E+00  2.11706828E+00  3.14158624E+00  3.14158824E+00
  3.14158624E+00  3.14158824E+00
ZRed-IntVec                                I   N=          12
          -1          -1          -1          -1          -1          -1
           0           0           0           0           0           0
ZRed-FPVec                                 R   N=          12
  0.00000000E+00  0.00000000E+00  0.00000000E+00  0.00000000E+00  0.00000000E+00
  0.00000000E+00  0.00000000E+00  0.00000000E+00  0.00000000E+00  0.00000000E+00
  0.00000000E+00  0.00000000E+00
ZRed-Constraint1                           R   N=          12
 -9.32131033E+00  0.00000000E+00  0.00000000E+00  9.32131033E+00  0.00000000E+00
  0.00000000E+00  2.12190166E+00  2.12189977E+00  3.14158731E+00  3.14158909E+00
  3.14158731E+00  3.14158909E+00
ZRed-Constraint2                           R   N=          12
 -9.32131033E+00  0.00000000E+00  0.00000000E+00  9.32131033E+00  0.00000000E+00
  0.00000000E+00  0.00000000E+00  0.00000000E+00  0.00000000E+00  0.00000000E+00
  0.00000000E+00  0.00000000E+00
Number of contracted shells                I               20
Number of primitive shells                 I               38
Pure/Cartesian d shells                    I                0
Pure/Cartesian f shells                    I                0
Highest angular momentum                   I                2
Largest degree of contraction              I                6
Shell types                                I   N=          20
           0          -1          -1          -1          -1          -2
           0          -1          -1          -1          -1          -2
           0           0           0           1           0           0
           0           1
Number of primitives per shell             I   N=          20
           6           3           1           1           1           1
           6           3           1           1           1           1
           3           1           1           1           3           1
           1           1
Shell to atom map                          I   N=          20
           1           1           1           1           1           1
           2           2           2           2           2           2
           3           3           3           3           4           4
           4           4
Primitive exponents                        R   N=          38
  4.56324000E+03  6.82024000E+02  1.54973000E+02  4.44553000E+01  1.30290000E+01
  1.82773000E+00  2.09642000E+01  4.80331000E+00  1.45933000E+00  4.83456000E-01
  1.45585000E-01  4.38000000E-02  6.26000000E-01  4.56324000E+03  6.82024000E+02
  1.54973000E+02  4.44553000E+01  1.30290000E+01  1.82773000E+00  2.09642000E+01
  4.80331000E+00  1.45933000E+00  4.83456000E-01  1.45585000E-01  4.38000000E-02
  6.26000000E-01  3.38650000E+01  5.09479000E+00  1.15879000E+00  3.25840000E-01
  1.02741000E-01  7.50000000E-01  3.38650000E+01  5.09479000E+00  1.15879000E+00
  3.25840000E-01  1.02741000E-01  7.50000000E-01
Contraction coefficients                   R   N=          38
  1.96665025E-03  1.52306019E-02  7.61269097E-02  2.60801033E-01  6.16462078E-01
  2.21006028E-01  1.14660081E-01  9.19999648E-01 -3.03068213E-03  1.00000000E+00
  1.00000000E+00  1.00000000E+00  1.00000000E+00  1.96665025E-03  1.52306019E-02
  7.61269097E-02  2.60801033E-01  6.16462078E-01  2.21006028E-01  1.14660081E-01
  9.19999648E-01 -3.03068213E-03  1.00000000E+00  1.00000000E+00  1.00000000E+00
  1.00000000E+00  2.54938145E-02  1.90373109E-01  8.52161486E-01  1.00000000E+00
  1.00000000E+00  1.00000000E+00  2.54938145E-02  1.90373109E-01  8.52161486E-01
  1.00000000E+00  1.00000000E+00  1.00000000E+00
P(S=P) Contraction coefficients            R   N=          38
  0.00000000E+00  0.00000000E+00  0.00000000E+00  0.00000000E+00  0.00000000E+00
  0.00000000E+00  4.02486927E-02  2.37593957E-01  8.15853851E-01  1.00000000E+00
  1.00000000E+00  1.00000000E+00  0.00000000E+00  0.00000000E+00  0.00000000E+00
  0.00000000E+00  0.00000000E+00  0.00000000E+00  0.00000000E+00  4.02486927E-02
  2.37593957E-01  8.15853851E-01  1.00000000E+00  1.00000000E+00  1.00000000E+00
  0.00000000E+00  0.00000000E+00  0.00000000E+00  0.00000000E+00  0.00000000E+00
  0.00000000E+00  0.00000000E+00  0.00000000E+00  0.00000000E+00  0.00000000E+00
  0.00000000E+00  0.00000000E+00  0.00000000E+00
Coordinates of each shell                  R   N=          60
 -9.32131033E+00  0.00000000E+00  0.00000000E+00 -9.32131033E+00  0.00000000E+00
  0.00000000E+00 -9.32131033E+00  0.00000000E+00  0.00000000E+00 -9.32131033E+00
  0.00000000E+00  0.00000000E+00 -9.32131033E+00  0.00000000E+00  0.00000000E+00
 -9.32131033E+00  0.00000000E+00  0.00000000E+00  9.32131033E+00  0.00000000E+00
  0.00000000E+00  9.32131033E+00  0.00000000E+00  0.00000000E+00  9.32131033E+00
  0.00000000E+00  0.00000000E+00  9.32131033E+00  0.00000000E+00  0.00000000E+00
  9.32131033E+00  0.00000000E+00  0.00000000E+00  9.32131033E+00  0.00000000E+00
  0.00000000E+00 -1.14383787E+01 -1.35769590E-05  1.35769571E-05 -1.14383787E+01
 -1.35769590E-05  1.35769571E-05 -1.14383787E+01 -1.35769590E-05  1.35769571E-05
 -1.14383787E+01 -1.35769590E-05  1.35769571E-05  1.14383786E+01  9.34395604E-06
 -9.34394991E-06  1.14383786E+01  9.34395604E-06 -9.34394991E-06  1.14383786E+01
  9.34395604E-06 -9.34394991E-06  1.14383786E+01  9.34395604E-06 -9.34394991E-06
Num ILSW                                   I              100
ILSW                                       I   N=         100
           1           0           0           1           2           0
           0           0           0           0        4336          -1
           7           0           0           0           2           0
           0           0           0           0           1           0
           1           1           0           0           0           0
           0           0      100000           0          -1           0
           0           0           0           0           0           0
           0           0           0           1           0           0
           0 -2000000000           1           0           0           0
           0           0           4          52           0           0
           0           0          55           0           0           0
           0           0           0           4           0           1
           0           0           0           0           0           0
           0           0           0           0           0           0
           0           0           0           0           0           0
           0           0           0           0           0           0
           0           0           0           0
Num RLSW                                   I               52
RLSW                                       R   N=          52
  1.00000000E+00  1.00000000E+00  1.00000000E+00  1.00000000E+00  5.40000000E-01
  0.00000000E+00  0.00000000E+00  1.00000000E+00  0.00000000E+00  0.00000000E+00
  0.00000000E+00  0.00000000E+00  1.00000000E+00  0.00000000E+00  0.00000000E+00
  0.00000000E+00  0.00000000E+00  1.00000000E+00  0.00000000E+00  0.00000000E+00
  0.00000000E+00  0.00000000E+00  1.00000000E+00  0.00000000E+00  0.00000000E+00
  0.00000000E+00  0.00000000E+00  1.00000000E+00  0.00000000E+00  0.00000000E+00
  0.00000000E+00  0.00000000E+00  1.00000000E+00  0.00000000E+00  0.00000000E+00
  0.00000000E+00  0.00000000E+00  0.00000000E+00  1.00000000E+00  1.00000000E+00
  0.00000000E+00  1.00000000E+00  0.00000000E+00  0.00000000E+00  0.00000000E+00
  0.00000000E+00  0.00000000E+00  0.00000000E+00  0.00000000E+00  0.00000000E+00
  0.00000000E+00  0.00000000E+00
MxBond                                     I                2
NBond                                      I   N=           4
           2           2           1           1
IBond                                      I   N=           8
           2           3           1           4           1           0
           2           0
RBond                                      R   N=           8
  1.00000000E-01  1.00000000E+00  1.00000000E-01  1.00000000E+00  1.00000000E+00
  0.00000000E+00  1.00000000E+00  0.00000000E+00
Virial Ratio                               R      2.003149672241922E+00
SCF Energy                                 R     -7.681803041200362E+01
Total Energy                               R     -7.681803041200362E+01
S**2                                       R     -3.286260152890463E-14
S**2 after annihilation                    R     -6.572520305780840E-14
RMS Force                                  R      3.049471591030330E-05
RMS Density                                R      3.159074822493827E-09
Job Status                                 I                1
Nuclear derivative order                   I                1
External E-field                           R   N=          35
  0.00000000E+00  0.00000000E+00  0.00000000E+00  0.00000000E+00  0.00000000E+00
  0.00000000E+00  0.00000000E+00  0.00000000E+00  0.00000000E+00  0.00000000E+00
  0.00000000E+00  0.00000000E+00  0.00000000E+00  0.00000000E+00  0.00000000E+00
  0.00000000E+00  0.00000000E+00  0.00000000E+00  0.00000000E+00  0.00000000E+00
  0.00000000E+00  0.00000000E+00  0.00000000E+00  0.00000000E+00  0.00000000E+00
  0.00000000E+00  0.00000000E+00  0.00000000E+00  0.00000000E+00  0.00000000E+00
  0.00000000E+00  0.00000000E+00  0.00000000E+00  0.00000000E+00  0.00000000E+00
IOpCl                                      I                1
IROHF                                      I                0
Alpha Orbital Energies                     R   N=          56
 -1.06666243E+01 -1.06666239E+01 -7.24492947E-01 -7.24443945E-01 -3.86231215E-01
 -3.86203087E-01 -1.95220238E-01 -1.66569287E-01 -9.64991730E-02 -9.64911314E-02
  3.34470825E-02  3.36085785E-02  8.00275987E-02  8.14811657E-02  8.19251079E-02
  8.66357795E-02  8.97393766E-02  9.01969961E-02  1.73744036E-01  1.74367734E-01
  4.53239128E-01  4.56257993E-01  5.72422399E-01  5.72750057E-01  5.77890802E-01
  5.78231446E-01  6.12881973E-01  6.13300724E-01  6.83598597E-01  6.86944268E-01
  1.12654941E+00  1.12655135E+00  1.13679316E+00  1.13686008E+00  1.33408521E+00
  1.33411792E+00  1.34646996E+00  1.34650323E+00  1.58040988E+00  1.58139671E+00
  1.84873515E+00  1.84874620E+00  1.85965063E+00  1.85966828E+00  2.38430151E+00
  2.38462288E+00  2.48766244E+00  2.48884430E+00  2.70462055E+00  2.70481570E+00
  2.70863627E+00  2.70883178E+00  3.16973692E+00  3.17128818E+00  2.35096795E+01
  2.35104841E+01
Beta Orbital Energies                      R   N=          56
 -1.06666243E+01 -1.06666239E+01 -7.24492947E-01 -7.24443945E-01 -3.86231215E-01
 -3.86203087E-01 -1.95220238E-01 -1.66569287E-01 -9.64991730E-02 -9.64911314E-02
  3.34470825E-02  3.36085785E-02  8.00275987E-02  8.14811657E-02  8.19251079E-02
  8.66357795E-02  8.97393766E-02  9.01969961E-02  1.73744036E-01  1.74367734E-01
  4.53239128E-01  4.56257993E-01  5.72422399E-01  5.72750057E-01  5.77890802E-01
  5.78231446E-01  6.12881973E-01  6.13300724E-01  6.83598597E-01  6.86944268E-01
  1.12654941E+00  1.12655135E+00  1.13679316E+00  1.13686008E+00  1.33408521E+00
  1.33411792E+00  1.34646996E+00  1.34650323E+00  1.58040988E+00  1.58139671E+00
  1.84873515E+00  1.84874620E+00  1.85965063E+00  1.85966828E+00  2.38430151E+00
  2.38462288E+00  2.48766244E+00  2.48884430E+00  2.70462055E+00  2.70481570E+00
  2.70863627E+00  2.70883178E+00  3.16973692E+00  3.17128818E+00  2.35096795E+01
  2.35104841E+01
Alpha MO coefficients                      R   N=        3136
  4.01093417E-01  3.30437908E-01 -1.28418488E-03 -8.20763300E-09  8.20762487E-09
  6.72015542E-03 -9.76988083E-04 -6.26395865E-09  6.26396038E-09 -2.80886439E-03
 -3.95700995E-05 -2.88263250E-10  2.88263030E-10  3.00981280E-04  4.56360190E-04
  2.97080584E-09 -2.97080467E-09 -3.82772405E-04 -8.23662390E-09 -4.25985281E-05
  6.62992218E-04  8.23669511E-09  3.96528853E-01  3.26677434E-01  1.26955838E-03
  5.58535730E-09 -5.58534971E-09  6.64361749E-03  9.65903672E-04  4.26031180E-09
 -4.26031071E-09 -2.77673989E-03  3.90172421E-05  1.98107982E-10 -1.98109242E-10
  2.97617370E-04 -4.50923482E-04 -2.02263484E-09  2.02263334E-09 -3.78410719E-04
 -5.60422720E-09 -4.21112082E-05  6.55437431E-04  5.60427924E-09  2.34438261E-04
 -1.96442819E-03  1.58869269E-03 -1.37601640E-03 -8.81827055E-09  8.81826875E-09
  2.31739622E-04 -1.94193085E-03  1.57030721E-03  1.36035930E-03  5.99961108E-09
 -5.99960716E-09 -3.96528923E-01 -3.26676707E-01  1.27062584E-03  8.10967281E-09
 -8.10966428E-09 -6.64899477E-03  9.62931142E-04  6.21359454E-09 -6.21359244E-09
  2.79076734E-03  4.80778682E-05  2.56851914E-10 -2.56851367E-10 -2.92184250E-04
 -4.72419760E-04 -2.97816033E-09  2.97816060E-09  3.78915571E-04  8.15139715E-09
  4.23351378E-05 -6.56311918E-04 -8.15146831E-09  4.01093487E-01  3.30437190E-01
  1.28524017E-03  5.64612531E-09 -5.64611570E-09  6.72547212E-03  9.74050132E-04
  4.32516603E-09 -4.32516270E-09 -2.82273209E-03  4.85275886E-05  1.78136639E-10
 -1.78134917E-10  2.95609726E-04 -4.77611934E-04 -2.07159976E-09  2.07159882E-09
 -3.83271697E-04 -5.67462615E-09 -4.28199052E-05  6.63857074E-04  5.67467865E-09
 -2.34443958E-04  1.95448536E-03 -1.59734712E-03  1.36017318E-03  8.71986932E-09
 -8.71986820E-09  2.37111698E-04 -1.97684084E-03  1.61542546E-03  1.37583295E-03
  6.07013155E-09 -6.07012746E-09 -7.66142259E-02 -1.23996352E-01 -5.44866143E-02
 -3.48885872E-07  3.48885890E-07  3.52819537E-01 -8.20879886E-02 -5.25320164E-07
  5.25320155E-07  2.45685038E-01 -3.29909569E-02 -2.10126909E-07  2.10127061E-07
 -6.37885878E-04 -8.54320051E-04 -5.53353864E-09  5.53358151E-09 -5.17188598E-03
 -9.44469212E-08 -3.19525609E-03  8.95879212E-03  9.44522298E-08 -7.66297363E-02
 -1.24021455E-01  5.44976524E-02  2.40079341E-07 -2.40079314E-07  3.52890964E-01
  8.21046169E-02  3.61480120E-07 -3.61480056E-07  2.45734766E-01  3.29976307E-02
  1.44382778E-07 -1.44382944E-07 -6.38031255E-04  8.54501941E-04  3.78607805E-09
 -3.78614998E-09 -5.17293402E-03 -6.50119635E-08 -3.19590562E-03  8.96060756E-03
  6.50156627E-08  1.02480144E-01  1.30475054E-01  1.57036457E-02  1.58234212E-02
  1.01496084E-07 -1.01496059E-07  1.02500899E-01  1.30501484E-01  1.57068270E-02
 -1.58266259E-02 -6.98764881E-08  6.98764282E-08 -7.66279393E-02 -1.24018651E-01
 -5.45104200E-02 -3.49039625E-07  3.49039405E-07  3.52891430E-01 -8.21281472E-02
 -5.25521645E-07  5.25521272E-07  2.45713144E-01 -3.29685803E-02 -2.10101320E-07
  2.10101068E-07 -7.17199151E-04 -8.98621791E-04 -5.53559244E-09  5.53553161E-09
 -5.17566251E-03 -9.44394318E-08 -3.20968658E-03  8.96533698E-03  9.44447602E-08
  7.66124272E-02  1.23993546E-01 -5.44993925E-02 -2.40088254E-07  2.40087880E-07
 -3.52819992E-01 -8.21115314E-02 -3.61471785E-07  3.61471192E-07 -2.45663393E-01
 -3.29619012E-02 -1.44309636E-07  1.44309215E-07  7.17070205E-04 -8.98448812E-04
 -3.78315890E-09  3.78307169E-09  5.17461578E-03  6.49805032E-08  3.20903948E-03
 -8.96352384E-03 -6.49842196E-08  1.02510108E-01  1.30551938E-01  1.57187845E-02
  1.58296387E-02  1.01537385E-07 -1.01537372E-07 -1.02489365E-01 -1.30525526E-01
 -1.57156046E-02  1.58264355E-02  6.98767141E-08 -6.98766746E-08 -4.29053136E-02
 -7.08701955E-02  1.53556020E-01  9.83764799E-07 -9.83764344E-07  2.08592050E-01
  2.21261105E-01  1.41760842E-06 -1.41760777E-06  2.98154303E-01  1.45636747E-01
  9.33352082E-07 -9.33351401E-07  4.25049865E-02  9.31304728E-03  6.05807623E-08
 -6.05806284E-08  1.23779872E-02  2.92557988E-07 -2.86102616E-03 -2.14385660E-02
 -2.92553375E-07 -4.29069235E-02 -7.08728549E-02 -1.53561778E-01 -6.77065402E-07
  6.77064548E-07  2.08599877E-01 -2.21269400E-01 -9.75652554E-07  9.75651304E-07
  2.98165494E-01 -1.45642205E-01 -6.42558301E-07  6.42557194E-07  4.25065767E-02
 -9.31339861E-03 -4.18945836E-08  4.18943933E-08  1.23784513E-02  2.01275897E-07
 -2.86113395E-03 -2.14393697E-02 -2.01272830E-07 -9.49123820E-02 -1.75869404E-01
 -1.16336396E-01 -7.22460122E-03 -4.64679822E-08  4.64679984E-08 -9.49159385E-02
 -1.75875995E-01 -1.16340751E-01  7.22487179E-03  3.20108625E-08 -3.20108724E-08
 -4.29190638E-02 -7.08936525E-02  1.53559287E-01  9.83820046E-07 -9.83820040E-07
  2.08677640E-01  2.21267288E-01  1.41762529E-06 -1.41762532E-06  2.98166483E-01
  1.45655721E-01  9.33716340E-07 -9.33716421E-07  4.23586381E-02  9.38420050E-03
  6.08793273E-08 -6.08793960E-08  1.23749410E-02  2.92575877E-07 -2.87408886E-03
 -2.14332865E-02 -2.92571227E-07  4.29174561E-02  7.08909970E-02  1.53553531E-01
  6.77053354E-07 -6.77053153E-07 -2.08669824E-01  2.21258993E-01  9.75590720E-07
 -9.75590473E-07 -2.98155317E-01  1.45650258E-01  6.42765419E-07 -6.42765424E-07
 -4.23570466E-02  9.38385084E-03  4.20952996E-08 -4.20954167E-08 -1.23744771E-02
 -2.01273173E-07  2.87398164E-03  2.14324829E-02  2.01270060E-07 -9.49002997E-02
 -1.75877840E-01 -1.16197661E-01 -7.22168060E-03 -4.64551370E-08  4.64551210E-08
  9.48967398E-02  1.75871243E-01  1.16193298E-01 -7.22140956E-03 -3.19997458E-08
  3.19997065E-08 -1.20276351E-13 -1.97104188E-13 -1.09128056E-10  1.32239227E-01
  1.32222202E-01  6.78334775E-13 -1.67187897E-10  2.02555743E-01  2.02529665E-01
  5.22216258E-13 -1.84678004E-10  2.24110823E-01  2.24081970E-01 -1.58726913E-12
 -5.55083059E-11  6.75915011E-02  6.75827992E-02  1.28660445E-07 -1.14789724E-02
  9.51964628E-12  7.43011585E-08 -1.14804504E-02  7.09655247E-14  1.16632661E-13
 -7.54277603E-11  1.32239227E-01  1.32222201E-01 -4.16078264E-13 -1.15540665E-10
  2.02555743E-01  2.02529665E-01 -2.02998787E-13 -1.27701730E-10  2.24110824E-01
  2.24081970E-01  9.34239895E-13 -3.81939302E-11  6.75915011E-02  6.75827991E-02
 -8.84521464E-08  1.14789728E-02 -6.51850505E-12 -5.10810134E-08  1.14804509E-02
 -6.54575319E-15  4.10995307E-14  7.90704637E-13 -1.01869810E-11  1.23678980E-02
  1.23663057E-02 -5.51270590E-15 -4.16872691E-15 -6.25651539E-13 -7.03951150E-12
  1.23678985E-02  1.23663061E-02  1.90926327E-13  3.26858447E-13 -1.09477607E-10
  1.32208217E-01  1.32191196E-01 -1.13698475E-12 -1.67574794E-10  2.02501899E-01
  2.02475828E-01 -8.82167363E-13 -1.85905577E-10  2.24028643E-01  2.23999800E-01
  2.62014698E-12 -5.61589315E-11  6.77554922E-02  6.77467692E-02  1.28356561E-07
 -1.17702018E-02  9.51055169E-12  7.41261352E-08 -1.17717173E-02  1.37842255E-13
  2.36175962E-13  7.56544603E-11 -1.32208217E-01 -1.32191195E-01 -8.26488000E-13
  1.15806370E-10 -2.02501899E-01 -2.02475828E-01 -6.23185840E-13  1.28473450E-10
 -2.24028643E-01 -2.23999800E-01  1.87546548E-12  3.88271345E-11 -6.77554922E-02
 -6.77467691E-02  8.82485128E-08 -1.17702022E-02  6.51016780E-12  5.09637367E-08
 -1.17717177E-02  1.78507081E-14  1.00177423E-13 -1.24293203E-12 -1.03646052E-11
  1.25245504E-02  1.25229379E-02  1.38058092E-14  6.30622632E-14 -8.78779974E-13
  7.16501126E-12 -1.25245508E-02 -1.25229383E-02 -8.94016930E-10 -1.45235117E-09
  1.57160425E-06 -1.22503866E-01  1.22519640E-01  4.21277478E-09  2.48219754E-06
 -1.93618361E-01  1.93643291E-01  1.09985181E-08  2.76551512E-06 -2.15121840E-01
  2.15149539E-01 -2.26815831E-08  1.34917383E-06 -1.06044739E-01  1.06058394E-01
  1.16800952E-07 -1.05331798E-02 -1.34367685E-07 -2.02288042E-07  1.05318237E-02
  9.01728962E-10  1.44628408E-09  1.08196937E-06 -1.22499775E-01  1.22515548E-01
 -3.88275015E-09  1.70814578E-06 -1.93611895E-01  1.93636825E-01 -1.27376553E-08
  1.90603274E-06 -2.15114654E-01  2.15142353E-01  2.14154643E-08  9.22278371E-07
 -1.06041203E-01  1.06054858E-01 -8.04068600E-08  1.05328284E-02  9.23819955E-08
  1.39257030E-07 -1.05314723E-02  5.03360864E-10  2.52555117E-09  2.43152020E-09
  1.54670500E-07 -1.20653067E-02  1.20668603E-02 -1.70455105E-10 -2.64998927E-09
  7.55769303E-10  1.06407533E-07 -1.20649043E-02  1.20664578E-02  6.93811748E-10
  1.20591296E-09 -1.57100903E-06  1.22515784E-01 -1.22531559E-01 -4.69557992E-09
 -2.48221914E-06  1.93616229E-01 -1.93641160E-01 -1.39104854E-09 -2.76167338E-06
  2.15204417E-01 -2.15232127E-01  2.37460419E-08 -1.36683405E-06  1.05905861E-01
 -1.05919498E-01 -1.16642255E-07  1.05343543E-02  1.34337670E-07  2.02013185E-07
 -1.05329980E-02  6.11173064E-10  1.08184404E-09  1.08110283E-06 -1.22519874E-01
  1.22535650E-01 -4.49137297E-09  1.70839623E-06 -1.93622693E-01  1.93647625E-01
  6.20375878E-10  1.89993062E-06 -2.15211600E-01  2.15239311E-01  2.12311658E-08
  9.47075854E-07 -1.05909402E-01  1.05923039E-01 -8.02036972E-08  1.05347063E-02
  9.23335632E-08  1.38905162E-07 -1.05333500E-02 -1.27002281E-09  8.33625169E-10
 -1.83043141E-08 -1.54764884E-07  1.20645090E-02 -1.20660624E-02 -1.17890266E-09
  1.60691967E-09 -1.94203818E-08  1.06577843E-07 -1.20649122E-02  1.20664657E-02
  2.10696760E-02  3.44505869E-02  3.47864077E-02  2.06895610E-07 -2.06895277E-07
 -8.39187816E-02  7.93171496E-02  4.92642337E-07 -4.92641788E-07 -4.22647764E-01
  7.75747108E-02  4.31969066E-07 -4.31967993E-07  1.09181293E+00 -5.48258422E-01
 -3.39733757E-06  3.39733575E-06  8.56136152E-03  1.79127616E-07  1.51100738E-03
 -1.48291022E-02 -1.79130150E-07  2.10697795E-02  3.44507561E-02 -3.47865689E-02
 -1.39528991E-07  1.39528667E-07 -8.39191946E-02 -7.93175340E-02 -3.36108242E-07
  3.36107765E-07 -4.22649844E-01 -7.75750484E-02 -2.86019763E-07  2.86018341E-07
  1.09181828E+00  5.48261012E-01  2.31778390E-06 -2.31777991E-06  8.56140341E-03
  1.23034943E-07  1.51101469E-03 -1.48291748E-02 -1.23036752E-07 -1.83653755E-02
  1.17197769E-01 -4.20715007E-01 -3.13746275E-04 -2.20041924E-09  2.20042349E-09
 -1.83654645E-02  1.17198336E-01 -4.20717044E-01  3.13744775E-04  1.55704423E-09
 -1.55702831E-09  2.14234178E-02  3.49861918E-02  3.39965763E-02  2.17017657E-07
 -2.17017384E-07 -8.46190807E-02  7.93720405E-02  5.05370956E-07 -5.05370307E-07
 -4.33588245E-01  7.27270665E-02  4.69043606E-07 -4.69043750E-07  1.09986296E+00
 -5.30412344E-01 -3.40427767E-06  3.40427874E-06  8.44558739E-03  1.77828299E-07
  1.52089952E-03 -1.46285781E-02 -1.77830877E-07 -2.14233149E-02 -3.49860238E-02
  3.39964034E-02  1.48184740E-07 -1.48184089E-07  8.46186750E-02  7.93716542E-02
  3.46182329E-07 -3.46181229E-07  4.33586166E-01  7.27266743E-02  3.19270451E-07
 -3.19269256E-07 -1.09985767E+00 -5.30409697E-01 -2.33628812E-06  2.33628631E-06
 -8.44554670E-03 -1.22286800E-07 -1.52089211E-03  1.46285076E-02  1.22288685E-07
 -1.77876575E-02  1.16175936E-01 -4.11662824E-01 -1.66359888E-04 -1.29590444E-09
  1.29595059E-09  1.77875709E-02 -1.16175369E-01  4.11660821E-01 -1.66356045E-04
 -9.44828474E-10  9.44883078E-10  1.75830933E-02  2.80641906E-02 -4.67408431E-02
  5.32145630E-07 -5.32234648E-07 -6.18731675E-02 -2.08959945E-02  6.90428605E-07
 -6.90518929E-07 -4.16801290E-01 -2.43382773E-01  1.90002602E-06 -1.90039228E-06
  4.46582464E-01  8.01039215E-01 -2.00343190E-06  2.00417604E-06 -5.19529142E-03
 -5.48596233E-08  1.39687235E-03  8.99814898E-03  5.48647808E-08  1.75830925E-02
  2.80641893E-02  4.67408409E-02 -2.82669122E-07  2.82720272E-07 -6.18731640E-02
  2.08959922E-02 -3.91515874E-07  3.91567930E-07 -4.16801270E-01  2.43382764E-01
 -9.62041553E-07  9.62251515E-07  4.46582467E-01 -8.01039148E-01  6.64704882E-07
 -6.65130371E-07 -5.19529074E-03 -4.47043801E-08  1.39687226E-03  8.99814780E-03
  4.47071269E-08  2.31885703E-02 -1.48609184E-02  2.28137820E-01  6.65785654E-03
  3.95871466E-08 -3.95870657E-08  2.31885681E-02 -1.48609152E-02  2.28137775E-01
 -6.65785693E-03 -2.74807453E-08  2.74807213E-08 -1.44426706E-07 -2.30792526E-07
 -4.99764562E-07  7.07139661E-02 -7.07230740E-02  5.13075316E-07 -7.08921443E-07
  7.08864084E-02 -7.08955382E-02  3.39025744E-06 -1.65813194E-06  2.92339575E-01
 -2.92377228E-01 -3.67452628E-06  9.83511493E-07 -6.06379583E-01  6.06457687E-01
 -2.08244996E-08  5.88507598E-03  6.37199147E-08  3.60624449E-08 -5.88431808E-03
  5.94526066E-08  9.49699743E-08 -4.48292303E-07  7.07139552E-02 -7.07230631E-02
 -2.10431762E-07 -5.34729766E-07  7.08863975E-02 -7.08955274E-02 -1.39444142E-06
 -1.68303368E-06  2.92339530E-01 -2.92377184E-01  1.51169048E-06  2.46539799E-06
 -6.06379490E-01  6.06457595E-01  2.58916384E-08 -5.88507541E-03 -4.69975596E-08
 -4.48402745E-08  5.88431750E-03 -1.94864122E-07  1.19493793E-07 -1.81340967E-06
 -5.49539430E-08 -2.30515371E-04  2.30545094E-04  8.23532417E-08 -5.19168561E-08
  7.42603804E-07 -2.31048665E-08 -2.30514958E-04  2.30544681E-04 -1.76161727E-07
 -2.81635971E-07 -4.04671920E-07  7.07448074E-02 -7.07539192E-02  6.28233286E-07
 -6.61068278E-07  7.10982445E-02 -7.11074015E-02  4.11848379E-06 -1.16810299E-06
  2.92059188E-01 -2.92096805E-01 -4.49962339E-06 -5.43186129E-07 -6.06702791E-01
  6.06780935E-01 -1.08526155E-08  5.88493195E-03  6.11293835E-08  1.87912982E-08
 -5.88417408E-03 -1.44724569E-07 -2.31370680E-07  2.10220898E-07 -7.07448181E-02
  7.07539299E-02  5.16031974E-07  4.20195253E-07 -7.10982552E-02  7.11074124E-02
  3.38322151E-06  4.54479803E-07 -2.92059233E-01  2.92096850E-01 -3.69548714E-06
  1.49838085E-06  6.06702883E-01 -6.06781028E-01 -7.81853939E-11  5.88493318E-03
  4.01387093E-08  1.31822667E-10 -5.88417530E-03 -2.37802042E-07  1.42302335E-07
 -2.16831169E-06 -6.87329557E-08 -2.26202797E-04  2.26231963E-04 -1.95704723E-07
  1.17889071E-07 -1.78202819E-06  5.70279933E-08  2.26202452E-04 -2.26231619E-04
  1.71689905E-02  2.75905421E-02 -5.04259308E-02  1.64672465E-07 -1.64824386E-07
 -6.38418118E-02 -2.75653843E-02  3.23837000E-07 -3.23985073E-07 -3.88912735E-01
 -2.53873997E-01  3.64313777E-07 -3.64946765E-07  4.45867209E-01  8.08173955E-01
  9.81630993E-07 -9.80240825E-07 -5.28117279E-03 -8.54595678E-08  1.35682783E-03