Title Card Required                                                     
FOpt      UM062X                                                      6-311+G(d,p)        
Number of atoms                            I                4
Info1-9                                    I   N=           9
          13          13           0           0           0         110
           2          18        -502
Full Title                                 C   N=           2
Title Card Required     
Route                                      C   N=           5
#p opt UM062X/6-311+G** nosymm int=superfine SCF=NoVarAcc   
Charge                                     I                0
Multiplicity                               I                1
Number of electrons                        I               14
Number of alpha electrons                  I                7
Number of beta electrons                   I                7
Number of basis functions                  I               56
Number of independent functions            I               56
Number of point charges in /Mol/           I                0
Number of translation vectors              I                0
Atomic numbers                             I   N=           4
           6           6           1           1
Nuclear charges                            R   N=           4
  6.00000000E+00  6.00000000E+00  1.00000000E+00  1.00000000E+00
Current cartesian coordinates              R   N=          12
 -1.78250779E+01  0.00000000E+00  0.00000000E+00  1.78250779E+01  0.00000000E+00
  0.00000000E+00 -1.99399493E+01 -1.09662821E-05  1.09655896E-05  1.99399492E+01
  7.35840434E-06 -7.35905153E-06
Number of symbols in /Mol/                 I                0
Force Field                                I                0
Atom Types                                 C   N=           4
                                                
Int Atom Types                             I   N=           4
           0           0           0           0
MM charges                                 R   N=           4
  0.00000000E+00  0.00000000E+00  0.00000000E+00  0.00000000E+00
Integer atomic weights                     I   N=           4
          12          12           1           1
Real atomic weights                        R   N=           4
  1.20000000E+01  1.20000000E+01  1.00782504E+00  1.00782504E+00
Atom fragment info                         I   N=           4
           0           0           0           0
Atom residue num                           I   N=           4
           0           0           0           0
Nuclear spins                              I   N=           4
           0           0           1           1
Nuclear ZEff                               R   N=           4
 -3.60000000E+00 -3.60000000E+00 -1.00000000E+00 -1.00000000E+00
Nuclear ZNuc                               R   N=           4
  6.00000000E+00  6.00000000E+00  1.00000000E+00  1.00000000E+00
Nuclear QMom                               R   N=           4
  0.00000000E+00  0.00000000E+00  0.00000000E+00  0.00000000E+00
Nuclear GFac                               R   N=           4
  0.00000000E+00  0.00000000E+00  2.79284600E+00  2.79284600E+00
MicOpt                                     I   N=           4
          -2          -2          -1          -1
Number of residues                         I                0
Number of secondary structures             I                0
Redundant internal dimensions              I   N=           4
          12           8           4           0
Redundant internal coordinate indices      I   N=          48
           1          -1           0           0           1          -2
           0           0           1          -3           0           0
           2          -1           0           0           2          -2
           0           0           2          -3           0           0
           1           3           0           0           2           4
           0           0           2           1           3          -4
           1           2           4          -4           2           1
           3          -8           1           2           4          -8
Redundant internal coordinates             R   N=          12
 -1.78250779E+01  0.00000000E+00  0.00000000E+00  1.78250779E+01  0.00000000E+00
  0.00000000E+00  2.11487146E+00  2.11487134E+00  3.14158747E+00  3.14158917E+00
  3.14158747E+00  3.14158917E+00
ZRed-IntVec                                I   N=          12
          -1          -1          -1          -1          -1          -1
           0           0           0           0           0           0
ZRed-FPVec                                 R   N=          12
  0.00000000E+00  0.00000000E+00  0.00000000E+00  0.00000000E+00  0.00000000E+00
  0.00000000E+00  0.00000000E+00  0.00000000E+00  0.00000000E+00  0.00000000E+00
  0.00000000E+00  0.00000000E+00
ZRed-Constraint1                           R   N=          12
 -1.78250779E+01  0.00000000E+00  0.00000000E+00  1.78250779E+01  0.00000000E+00
  0.00000000E+00  2.12190166E+00  2.12189977E+00  3.14158731E+00  3.14158909E+00
  3.14158731E+00  3.14158909E+00
ZRed-Constraint2                           R   N=          12
 -1.78250779E+01  0.00000000E+00  0.00000000E+00  1.78250779E+01  0.00000000E+00
  0.00000000E+00  0.00000000E+00  0.00000000E+00  0.00000000E+00  0.00000000E+00
  0.00000000E+00  0.00000000E+00
Number of contracted shells                I               20
Number of primitive shells                 I               38
Pure/Cartesian d shells                    I                0
Pure/Cartesian f shells                    I                0
Highest angular momentum                   I                2
Largest degree of contraction              I                6
Shell types                                I   N=          20
           0          -1          -1          -1          -1          -2
           0          -1          -1          -1          -1          -2
           0           0           0           1           0           0
           0           1
Number of primitives per shell             I   N=          20
           6           3           1           1           1           1
           6           3           1           1           1           1
           3           1           1           1           3           1
           1           1
Shell to atom map                          I   N=          20
           1           1           1           1           1           1
           2           2           2           2           2           2
           3           3           3           3           4           4
           4           4
Primitive exponents                        R   N=          38
  4.56324000E+03  6.82024000E+02  1.54973000E+02  4.44553000E+01  1.30290000E+01
  1.82773000E+00  2.09642000E+01  4.80331000E+00  1.45933000E+00  4.83456000E-01
  1.45585000E-01  4.38000000E-02  6.26000000E-01  4.56324000E+03  6.82024000E+02
  1.54973000E+02  4.44553000E+01  1.30290000E+01  1.82773000E+00  2.09642000E+01
  4.80331000E+00  1.45933000E+00  4.83456000E-01  1.45585000E-01  4.38000000E-02
  6.26000000E-01  3.38650000E+01  5.09479000E+00  1.15879000E+00  3.25840000E-01
  1.02741000E-01  7.50000000E-01  3.38650000E+01  5.09479000E+00  1.15879000E+00
  3.25840000E-01  1.02741000E-01  7.50000000E-01
Contraction coefficients                   R   N=          38
  1.96665025E-03  1.52306019E-02  7.61269097E-02  2.60801033E-01  6.16462078E-01
  2.21006028E-01  1.14660081E-01  9.19999648E-01 -3.03068213E-03  1.00000000E+00
  1.00000000E+00  1.00000000E+00  1.00000000E+00  1.96665025E-03  1.52306019E-02
  7.61269097E-02  2.60801033E-01  6.16462078E-01  2.21006028E-01  1.14660081E-01
  9.19999648E-01 -3.03068213E-03  1.00000000E+00  1.00000000E+00  1.00000000E+00
  1.00000000E+00  2.54938145E-02  1.90373109E-01  8.52161486E-01  1.00000000E+00
  1.00000000E+00  1.00000000E+00  2.54938145E-02  1.90373109E-01  8.52161486E-01
  1.00000000E+00  1.00000000E+00  1.00000000E+00
P(S=P) Contraction coefficients            R   N=          38
  0.00000000E+00  0.00000000E+00  0.00000000E+00  0.00000000E+00  0.00000000E+00
  0.00000000E+00  4.02486927E-02  2.37593957E-01  8.15853851E-01  1.00000000E+00
  1.00000000E+00  1.00000000E+00  0.00000000E+00  0.00000000E+00  0.00000000E+00
  0.00000000E+00  0.00000000E+00  0.00000000E+00  0.00000000E+00  4.02486927E-02
  2.37593957E-01  8.15853851E-01  1.00000000E+00  1.00000000E+00  1.00000000E+00
  0.00000000E+00  0.00000000E+00  0.00000000E+00  0.00000000E+00  0.00000000E+00
  0.00000000E+00  0.00000000E+00  0.00000000E+00  0.00000000E+00  0.00000000E+00
  0.00000000E+00  0.00000000E+00  0.00000000E+00
Coordinates of each shell                  R   N=          60
 -1.78250779E+01  0.00000000E+00  0.00000000E+00 -1.78250779E+01  0.00000000E+00
  0.00000000E+00 -1.78250779E+01  0.00000000E+00  0.00000000E+00 -1.78250779E+01
  0.00000000E+00  0.00000000E+00 -1.78250779E+01  0.00000000E+00  0.00000000E+00
 -1.78250779E+01  0.00000000E+00  0.00000000E+00  1.78250779E+01  0.00000000E+00
  0.00000000E+00  1.78250779E+01  0.00000000E+00  0.00000000E+00  1.78250779E+01
  0.00000000E+00  0.00000000E+00  1.78250779E+01  0.00000000E+00  0.00000000E+00
  1.78250779E+01  0.00000000E+00  0.00000000E+00  1.78250779E+01  0.00000000E+00
  0.00000000E+00 -1.99399493E+01 -1.09662821E-05  1.09655896E-05 -1.99399493E+01
 -1.09662821E-05  1.09655896E-05 -1.99399493E+01 -1.09662821E-05  1.09655896E-05
 -1.99399493E+01 -1.09662821E-05  1.09655896E-05  1.99399492E+01  7.35840434E-06
 -7.35905153E-06  1.99399492E+01  7.35840434E-06 -7.35905153E-06  1.99399492E+01
  7.35840434E-06 -7.35905153E-06  1.99399492E+01  7.35840434E-06 -7.35905153E-06
Num ILSW                                   I              100
ILSW                                       I   N=         100
           1           0           0           1           2           0
           0           0           0           0        4336          -1
           7           0           0           0           2           0
           0           0           0           0           1           0
           1           1           0           0           0           0
           0           0      100000           0          -1           0
           0           0           0           0           0           0
           0           0           0           1           0           0
           0 -2000000000           1           0           0           0
           0           0           4          52           0           0
           0           0          55           0           0           0
           0           0           0           4           0           1
           0           0           0           0           0           0
           0           0           0           0           0           0
           0           0           0           0           0           0
           0           0           0           0           0           0
           0           0           0           0
Num RLSW                                   I               52
RLSW                                       R   N=          52
  1.00000000E+00  1.00000000E+00  1.00000000E+00  1.00000000E+00  5.40000000E-01
  0.00000000E+00  0.00000000E+00  1.00000000E+00  0.00000000E+00  0.00000000E+00
  0.00000000E+00  0.00000000E+00  1.00000000E+00  0.00000000E+00  0.00000000E+00
  0.00000000E+00  0.00000000E+00  1.00000000E+00  0.00000000E+00  0.00000000E+00
  0.00000000E+00  0.00000000E+00  1.00000000E+00  0.00000000E+00  0.00000000E+00
  0.00000000E+00  0.00000000E+00  1.00000000E+00  0.00000000E+00  0.00000000E+00
  0.00000000E+00  0.00000000E+00  1.00000000E+00  0.00000000E+00  0.00000000E+00
  0.00000000E+00  0.00000000E+00  0.00000000E+00  1.00000000E+00  1.00000000E+00
  0.00000000E+00  1.00000000E+00  0.00000000E+00  0.00000000E+00  0.00000000E+00
  0.00000000E+00  0.00000000E+00  0.00000000E+00  0.00000000E+00  0.00000000E+00
  0.00000000E+00  0.00000000E+00
MxBond                                     I                2
NBond                                      I   N=           4
           2           2           1           1
IBond                                      I   N=           8
           2           3           1           4           1           0
           2           0
RBond                                      R   N=           8
  1.00000000E-01  1.00000000E+00  1.00000000E-01  1.00000000E+00  1.00000000E+00
  0.00000000E+00  1.00000000E+00  0.00000000E+00
Virial Ratio                               R      2.002788267727634E+00
SCF Energy                                 R     -7.693908774421793E+01
Total Energy                               R     -7.693908774421793E+01
S**2                                       R      1.004716307634831E+00
S**2 after annihilation                    R      3.775808746055612E-02
RMS Force                                  R      5.652773155240206E-05
RMS Density                                R      2.825538420349802E-09
Job Status                                 I                1
Nuclear derivative order                   I                1
External E-field                           R   N=          35
  0.00000000E+00  0.00000000E+00  0.00000000E+00  0.00000000E+00  0.00000000E+00
  0.00000000E+00  0.00000000E+00  0.00000000E+00  0.00000000E+00  0.00000000E+00
  0.00000000E+00  0.00000000E+00  0.00000000E+00  0.00000000E+00  0.00000000E+00
  0.00000000E+00  0.00000000E+00  0.00000000E+00  0.00000000E+00  0.00000000E+00
  0.00000000E+00  0.00000000E+00  0.00000000E+00  0.00000000E+00  0.00000000E+00
  0.00000000E+00  0.00000000E+00  0.00000000E+00  0.00000000E+00  0.00000000E+00
  0.00000000E+00  0.00000000E+00  0.00000000E+00  0.00000000E+00  0.00000000E+00
IOpCl                                      I                1
IROHF                                      I                0
Alpha Orbital Energies                     R   N=          56
 -1.06398174E+01 -1.06300952E+01 -7.33134395E-01 -6.87560873E-01 -3.87382016E-01
 -3.58970116E-01 -3.11894524E-01 -9.36799604E-02 -7.31406199E-02 -4.70658197E-02
  2.84777278E-02  3.80603861E-02  8.25439519E-02  8.34667664E-02  8.50792159E-02
  8.54710081E-02  9.12618750E-02  1.07445269E-01  1.76655197E-01  1.91165704E-01
  4.53688651E-01  4.62091347E-01  5.63941030E-01  5.82068736E-01  5.83398844E-01
  5.90141817E-01  6.16371265E-01  6.49487803E-01  6.83141320E-01  7.12316714E-01
  1.12752119E+00  1.13196171E+00  1.19599766E+00  1.21356849E+00  1.32782627E+00
  1.33898818E+00  1.37860778E+00  1.37927009E+00  1.58813564E+00  1.59617202E+00
  1.85289855E+00  1.85886385E+00  1.86956580E+00  1.88565077E+00  2.39333022E+00
  2.49072288E+00  2.49407305E+00  2.56368430E+00  2.69830084E+00  2.71449041E+00
  2.73182709E+00  2.77864602E+00  3.18394187E+00  3.23787173E+00  2.35418783E+01
  2.35542715E+01
Beta Orbital Energies                      R   N=          56
 -1.06398174E+01 -1.06300952E+01 -7.33134410E-01 -6.87560856E-01 -3.87382018E-01
 -3.58970115E-01 -3.11894523E-01 -9.36799598E-02 -7.31406217E-02 -4.70658215E-02
  2.84777286E-02  3.80603849E-02  8.25439511E-02  8.34667669E-02  8.50792169E-02
  8.54710083E-02  9.12618742E-02  1.07445268E-01  1.76655213E-01  1.91165688E-01
  4.53688658E-01  4.62091344E-01  5.63941032E-01  5.82068737E-01  5.83398842E-01
  5.90141815E-01  6.16371287E-01  6.49487786E-01  6.83141331E-01  7.12316685E-01
  1.12752119E+00  1.13196172E+00  1.19599764E+00  1.21356847E+00  1.32782627E+00
  1.33898818E+00  1.37860778E+00  1.37927009E+00  1.58813567E+00  1.59617199E+00
  1.85289860E+00  1.85886390E+00  1.86956575E+00  1.88565072E+00  2.39333028E+00
  2.49072288E+00  2.49407309E+00  2.56368416E+00  2.69830084E+00  2.71449042E+00
  2.73182708E+00  2.77864602E+00  3.18394191E+00  3.23787166E+00  2.35418784E+01
  2.35542714E+01
Alpha MO coefficients                      R   N=        3136
  5.63919961E-01  4.64495449E-01 -1.86515973E-03 -9.69296395E-09  9.69255064E-09
  1.01673752E-02 -1.44195216E-03 -7.46500387E-09  7.46430336E-09 -4.00433566E-03
 -1.02025926E-04 -5.34254068E-10  5.34322855E-10  4.30432003E-04  6.84683462E-04
  3.55215021E-09 -3.55196152E-09 -5.33706698E-04 -9.15783900E-09 -8.20287537E-05
  9.24178153E-04  9.15734486E-09 -3.34407498E-14 -2.42682795E-14 -3.04771592E-15
  8.77278244E-17 -1.74400940E-17 -2.11292287E-14  5.04595082E-15 -1.28687639E-16
  5.22574344E-17  5.01825270E-14 -3.28204628E-14  8.07138312E-17 -1.34426248E-16
  4.99867209E-14  9.85353192E-14 -3.88701639E-18  9.84742200E-17  3.42438098E-15
 -7.58914526E-17  3.31849844E-17 -5.86005442E-15  2.79067934E-17  3.15404158E-04
 -2.96220811E-03  2.33277495E-03 -2.06693002E-03 -1.07185483E-08  1.07178994E-08
 -1.43392946E-14  7.23743897E-14 -1.49010574E-13 -2.55675740E-15 -2.06830326E-17
  8.59234236E-17  3.30193760E-14  3.05746146E-14  2.26310567E-15 -5.72433305E-16
  2.91745583E-16 -1.98187541E-14 -4.21107808E-15  9.54129474E-16 -1.09769867E-16
  4.62705077E-14  3.09428519E-14 -8.10948993E-16  2.87157382E-16  4.93686399E-14
 -9.17488293E-14  2.05465478E-16 -1.47302700E-16  3.45458606E-15 -1.09149989E-16
 -2.18300721E-17 -6.69211783E-15  3.91118933E-16  5.63932395E-01  4.64948740E-01
  1.26801128E-03  4.42545492E-09 -4.42578147E-09  8.82773243E-03  1.26876346E-03
  4.40263542E-09 -4.40306107E-09 -4.12085588E-03 -1.02619546E-04 -3.52398283E-10
  3.52442619E-10  3.69497701E-04 -6.43746488E-04 -2.24149400E-09  2.24168624E-09
 -4.68756364E-04 -5.07306914E-09 -1.65489182E-04  8.11817209E-04  5.07219576E-09
 -1.33653042E-14  7.14069966E-14 -1.43276090E-13  1.76909031E-15  3.96718745E-16
 -2.48054196E-16  6.69466061E-04 -2.48236137E-03  2.34484233E-03  1.48806170E-03
  5.17964156E-09 -5.18008789E-09 -1.10048107E-01 -1.79607023E-01 -7.30807247E-02
 -3.79154397E-07  3.79128339E-07  5.10614897E-01 -1.12308496E-01 -5.82693977E-07
  5.82654585E-07  3.63920943E-01 -4.83158763E-02 -2.50572283E-07  2.50555767E-07
  1.75202749E-04 -1.68607237E-03 -8.69642723E-09  8.69591793E-09 -6.17332507E-03
 -1.03174347E-07 -1.48041363E-03  1.06883803E-02  1.03160770E-07  1.65539886E-16
  1.05578377E-15 -9.22372018E-16 -6.04873112E-17 -2.30173004E-17 -1.13214025E-14
  3.41594995E-15  1.68435915E-16 -4.80186208E-18  4.06186486E-14 -2.20760128E-14
 -3.22791251E-16 -7.19137854E-17  3.66517619E-14  8.66465552E-14  1.21325722E-16
 -1.42018346E-16  1.65151054E-15  3.09157169E-17 -2.96022656E-17 -2.66266186E-15
 -2.15998482E-16  1.38709529E-01  1.68071753E-01  1.54298126E-02  1.95504600E-02
  1.01385234E-07 -1.01378720E-07 -5.12174327E-15  3.99949500E-14 -1.11789270E-13
 -6.79805754E-16  8.97111758E-17  1.62295550E-16 -1.64202567E-16  1.82526612E-16
  9.03991532E-17  1.77189882E-16 -8.60679492E-17  1.24008252E-16 -8.12555759E-16
 -1.35421397E-16 -1.31974684E-16 -2.13944873E-16  9.50429241E-16  4.48760086E-17
 -2.63935964E-17  1.43837528E-15 -1.47187467E-15  1.94262027E-16  6.36584175E-17
  9.82895521E-19  3.31110138E-17 -1.61190704E-17  9.03718356E-17 -4.99256461E-17
 -1.03697770E-01 -1.65656237E-01  8.02773637E-02  2.79067459E-07 -2.79092446E-07
  4.60708620E-01  1.16683101E-01  4.05582312E-07 -4.05619097E-07  3.30334973E-01
  4.93883840E-02  1.71644937E-07 -1.71659998E-07  3.47788133E-03  7.35141556E-04
  2.52982285E-09 -2.53006569E-09 -9.60376758E-03 -7.49823763E-08 -1.17060497E-02
  1.66276610E-02  7.49458757E-08 -2.41855636E-16  1.30749436E-15 -2.30013363E-15
 -3.81419269E-16 -2.01632278E-17  3.31050433E-17  1.57293190E-01  2.09266198E-01
  3.64692430E-02 -2.66192445E-02 -9.25919245E-08  9.26003066E-08 -5.78111471E-02
 -9.61814402E-02  2.18316827E-01  1.13123536E-06 -1.13116519E-06  2.82819642E-01
  3.20894222E-01  1.66267351E-06 -1.66257007E-06  4.11988630E-01  2.03658651E-01
  1.05511681E-06 -1.05505184E-06  5.94263472E-02  1.24033518E-02  6.44005846E-08
 -6.43965491E-08  1.87448068E-02  3.37857182E-07 -2.15133284E-04 -3.24675584E-02
 -3.37881304E-07 -4.55467464E-14 -9.99316159E-14 -1.06238267E-13  1.04943313E-16
  6.16951846E-17  5.82695180E-13 -3.14543746E-13  2.39613910E-16  8.79578056E-17
 -1.36156328E-12  7.04716956E-13 -1.35556801E-17  1.19714325E-16 -1.61739657E-12
 -3.93697387E-12 -3.62038963E-16 -3.25882445E-16 -4.63857319E-14 -6.72004049E-17
 -5.60441735E-15  8.03602639E-14 -1.49875318E-16 -1.36555213E-01 -2.52732080E-01
 -1.65300816E-01 -9.58654055E-03 -4.97798791E-08  4.97765406E-08  9.62900138E-14
 -1.65487959E-12  4.63640062E-12  2.96614372E-14 -8.64571714E-17 -1.18982525E-16
  5.75321703E-14  4.96021003E-14 -3.01750267E-13 -2.54556380E-16  2.77512466E-16
  3.66483940E-13 -1.70346191E-13 -9.64094259E-18 -2.24051444E-16 -3.37415432E-12
 -1.71279606E-12 -3.62108218E-16  7.65700015E-16 -3.28206196E-12  7.15817389E-12
  2.87598958E-16 -4.68195097E-16 -1.25763959E-13  2.22737734E-17 -5.09082344E-16
  2.17945669E-13 -1.10596584E-16 -6.36326918E-02 -1.03504162E-01 -2.09067428E-01
 -7.28046004E-07  7.28107331E-07  2.95088580E-01 -2.97997540E-01 -1.03774070E-06
  1.03782777E-06  4.49070796E-01 -2.10330364E-01 -7.32721234E-07  7.32782243E-07
  7.97433188E-02 -2.26028771E-02 -7.88572285E-08  7.88634780E-08  1.59819493E-02
  2.24494251E-07 -9.12982389E-03 -2.76866586E-02 -2.24498570E-07  4.76529195E-13
 -2.44045792E-12  8.89978725E-12 -4.33503826E-14 -1.29834811E-16  5.00991353E-17
 -1.24007339E-01 -2.40237548E-01 -1.77190086E-01  8.31226732E-03  2.89157201E-08
 -2.89184546E-08 -1.82337672E-10 -2.95887925E-10 -2.15817403E-06  2.08325503E-01
 -2.08035144E-01  5.14929456E-10 -3.25486812E-06  3.14177389E-01 -3.13739499E-01
  1.78210051E-09 -3.16043571E-06  3.05026673E-01 -3.04601543E-01  1.51948461E-09
 -3.97533349E-07  3.83742984E-02 -3.83208163E-02 -1.67251761E-07  1.86214404E-02
  1.93319910E-07  2.89974272E-07 -1.86474316E-02 -1.13081666E-17 -5.69937857E-17
 -6.26532314E-17 -2.99421719E-15  3.16901871E-15  7.79021867E-17 -2.53105412E-16
  2.02973279E-14 -2.01980226E-14  7.69823931E-16  2.63100307E-16 -6.85885811E-14
  6.83687962E-14  1.42865324E-15  8.84434688E-16  1.18634526E-13 -1.18433103E-13
  8.04423305E-17  4.71803169E-16  7.58417090E-18 -4.30534040E-17 -5.27980511E-16
 -3.71710835E-10 -8.09778614E-10 -8.89517723E-10 -1.68424663E-07  1.62449252E-02
 -1.62222840E-02 -1.80679442E-16  6.46048912E-16 -2.88933963E-15 -3.98678031E-17
  1.71719523E-15 -1.71616254E-15 -1.17458156E-13  3.19719255E-14  1.20555898E-09
  1.74392688E-01  1.74636085E-01 -1.00135319E-12  1.93521119E-09  2.79856107E-01
  2.80246701E-01  8.77229391E-13  2.06814027E-09  2.99199336E-01  2.99616931E-01
  5.35006840E-12  1.00594339E-09  1.46307405E-01  1.46511615E-01  1.41926849E-07
 -1.57784650E-02 -1.18106862E-10  8.17235348E-08 -1.57564747E-02 -1.04951623E-17
  5.00795199E-19 -1.10819033E-17  1.00724286E-13  1.03748043E-13  2.37456547E-17
  6.67853273E-17  2.82517877E-13  2.87299043E-13  1.74431165E-16  1.28345082E-16
 -2.32129066E-13 -2.26795835E-13  3.22225253E-16  2.15831197E-16  1.31577088E-12
  1.32132760E-12 -5.95205339E-18  2.58077470E-15  1.83548356E-19  1.51378402E-17
  2.42145804E-15  4.07619575E-13  3.44076185E-12 -4.50480937E-12  1.21147336E-10
  1.74745476E-02  1.74989373E-02  2.17447266E-18 -7.94581540E-18 -5.81632580E-16
  4.01605982E-17  2.20793681E-14  2.23624210E-14 -2.81667202E-17 -6.18172824E-17
 -8.35339914E-17 -1.38406373E-13  1.41222224E-13  5.76323418E-16  1.00837387E-16
  6.63094246E-14 -6.17230749E-14 -1.23435066E-15 -1.24710379E-16 -1.00566528E-12
  1.01052211E-12  2.30333019E-16  7.54931877E-16  1.80416656E-12 -1.80165333E-12
  2.14065007E-16 -1.32837370E-14  8.58809723E-17  8.56028704E-17  1.30052519E-14
 -2.83556030E-10 -3.92525487E-10 -1.08795185E-06  1.56280482E-01 -1.56236751E-01
  7.25188542E-10 -1.64556660E-06  2.36386595E-01 -2.36320447E-01  2.85261088E-09
 -2.15929847E-06  3.10164653E-01 -3.10077859E-01 -2.69799725E-09 -1.46274077E-06
  2.10099268E-01 -2.10040478E-01  4.65033675E-08 -7.72768738E-03 -5.37194458E-08
 -8.05563352E-08  7.72985041E-03  1.15304327E-16 -3.84866599E-17  7.18100045E-16
  4.19727570E-17  1.52028279E-14 -1.48129794E-14 -7.50483079E-11 -4.43225953E-10
  1.19634247E-09 -8.07540756E-08  1.16023887E-02 -1.15991420E-02  5.66026618E-17
  1.11131136E-16  2.26594356E-17 -5.62881261E-13 -5.63643354E-13 -7.23831661E-16
  2.09415279E-17 -4.63091442E-13 -4.64047505E-13  1.04888328E-15 -1.30434002E-16
 -2.28489169E-12 -2.28663602E-12 -1.34360625E-16 -1.31557709E-16  2.79607694E-12
  2.79674255E-12  2.52490170E-16  5.22426004E-14  1.01302659E-16  1.34162168E-16
  5.23144484E-14 -1.96305643E-13 -2.39277070E-13  1.78498411E-10  1.40120742E-01
  1.40159963E-01 -2.45583426E-13  2.49776834E-10  1.95877480E-01  1.95932307E-01
  2.56646255E-12  3.73481854E-10  2.92488547E-01  2.92570415E-01 -3.01799013E-13
  3.65790013E-10  2.89132482E-01  2.89213414E-01 -3.56691050E-08  5.95292065E-03
  3.72784064E-12 -2.05778589E-08  5.95125487E-03  7.60759438E-17 -1.67509195E-16
 -4.86007136E-16 -2.95355527E-17 -1.20515986E-14 -1.20071773E-14 -1.86237912E-13
 -2.86241801E-12  3.73342845E-12  1.59057561E-11  1.22326392E-02  1.22360631E-02
  2.33405695E-11  4.01318324E-11  7.31821776E-11  2.35970198E-16 -1.40789152E-16
 -1.15318863E-10  1.29455044E-10  5.39813120E-16 -6.15461354E-16 -3.36085842E-10
  2.51787873E-10  1.02052775E-16  1.04712722E-17  1.68927119E-09 -1.50779846E-09
 -5.19414037E-15  5.11350625E-15  2.13985590E-11  2.62237378E-16 -2.67210888E-12
 -3.70708431E-11 -3.13713177E-16  3.27922474E-02  5.22363198E-02 -3.26063840E-02
 -1.12213298E-07  1.12225865E-07 -1.24058650E-01 -8.45073602E-02 -2.92747533E-07
  2.92774427E-07 -6.21102422E-01 -1.88823944E-03 -1.80472722E-09  1.81969535E-09
  1.59488325E+00  6.16144513E-01  2.13615667E-06 -2.13636584E-06  4.28777384E-03
  4.88341469E-08  7.93689754E-04 -7.42619787E-03 -4.88276026E-08 -5.28096296E-11
  2.97632312E-10 -1.20766612E-09  3.84507490E-12  1.05831584E-16 -1.66661547E-16
 -2.87551422E-02  5.13666295E-02 -5.24207824E-01  1.34606062E-02  4.68235606E-08
 -4.68278375E-08  2.90554665E-02  4.81283037E-02  4.93871273E-02  2.55200824E-07
 -2.55192999E-07 -1.18042431E-01  1.15822574E-01  5.99776961E-07 -5.99745384E-07
 -5.81214477E-01  1.20050739E-01  6.18814831E-07 -6.18815176E-07  1.55853450E+00
 -8.16967726E-01 -4.22781049E-06  4.22761121E-06  1.44582562E-02  2.74899073E-07
 -2.93731678E-03 -2.50506263E-02 -2.74956330E-07 -5.78447600E-11 -9.01669590E-11
 -1.02378431E-11  3.99428176E-16 -3.93766115E-16  1.84501019E-10  8.18981999E-11
  6.69462206E-16 -6.63218396E-16  1.31578979E-09 -2.72018731E-10  8.96435797E-16
 -8.95121853E-16 -2.08831979E-09  4.13433646E-10 -1.31216485E-15  1.29898410E-15
  5.06414328E-12  4.36142983E-17 -2.63491319E-12 -8.77282767E-12 -4.37626867E-17
 -2.80144901E-02  1.97472998E-01 -6.60089327E-01  4.03207158E-03  2.09291119E-08
 -2.09278079E-08 -3.89264520E-12  5.64837997E-11 -1.11545200E-10 -1.33031627E-11
 -5.17183585E-17  5.40017225E-17 -8.07157221E-10 -1.29810071E-09  1.90985432E-09
 -4.11496296E-15  7.60604769E-15  2.86359184E-09  6.47649094E-10 -6.39912717E-15
  9.61882413E-15  1.93993245E-08  1.03620176E-08 -9.34224439E-15  2.41498184E-14
 -2.12821118E-08 -3.43829392E-08 -1.94477133E-14 -1.07972094E-14  2.01479854E-10
  1.73481172E-15  6.31503854E-11 -3.48797235E-10 -2.18672156E-15 -2.19683731E-02
 -3.47173871E-02 -7.90691298E-02 -2.80374445E-07  2.80397539E-07  7.33008626E-02
 -5.11241387E-02 -1.83565886E-07  1.83581084E-07  4.99285483E-01 -3.88315188E-01
 -1.37222425E-06  1.37233702E-06 -5.10433807E-01  1.18822748E+00  4.17375179E-06
 -4.17410007E-06  8.32526905E-03  1.06921964E-07 -1.80042379E-03 -1.44207968E-02
 -1.06917494E-07 -9.92626446E-10  4.85941831E-10 -1.01960925E-08 -3.00238996E-10
 -8.42737044E-16  6.81362919E-16 -3.50427590E-02  1.38117471E-02 -2.59829440E-01
  1.11351367E-02  3.87808404E-08 -3.87841241E-08 -2.46327340E-11 -3.98078433E-11
 -6.23259742E-10 -9.82074154E-02 -9.83446764E-02  8.95874662E-11 -6.26428400E-10
 -9.32174865E-02 -9.33477310E-02  5.88723329E-10 -2.58575841E-09 -4.17770105E-01
 -4.18354052E-01 -6.41308315E-10  4.93085712E-09  8.61408288E-01  8.62612684E-01
 -7.62130892E-08  8.47335990E-03  6.53921285E-11 -4.38985978E-08  8.46153488E-03
 -3.85370889E-16 -6.06901426E-16 -1.47166774E-15 -7.48518599E-12 -7.51271777E-12
  1.36657981E-15 -1.05102010E-15 -8.09045428E-12 -8.11975883E-12  7.95508394E-15
 -7.49666936E-15 -3.00470286E-11 -3.01600149E-11 -9.61513506E-15  2.08250027E-14
  4.58678460E-11  4.60727665E-11  1.78499241E-16 -3.35762228E-13 -1.10109618E-17
 -2.90865110E-16 -3.34315462E-13 -3.03484929E-11  1.25193784E-11 -3.17210986E-10
 -4.44471958E-12  6.31437622E-04  6.32327793E-04 -6.18301296E-16  4.16258992E-16
 -2.98784625E-15  1.41458306E-16 -1.54343674E-13 -1.54162101E-13  2.51770974E-02
  4.05682544E-02 -6.52142270E-02 -4.38908789E-07  4.38564628E-07 -9.08137290E-02
 -2.69819360E-02 -2.15356108E-07  2.15067426E-07 -5.95023306E-01 -3.46428845E-01
 -2.23949777E-06  2.23799337E-06  6.67820972E-01  1.12195120E+00  6.92136950E-06
 -6.91786251E-06 -6.68705056E-03 -1.18052824E-07 -1.96998004E-03  1.15768169E-02
  1.18059571E-07 -6.61661463E-10 -1.04970231E-09 -2.51276204E-09 -1.56591186E-14
  1.56970668E-14  2.26502160E-09 -1.68693253E-09 -1.32800410E-14  1.33312714E-14
  1.46819205E-08 -1.22223074E-08 -7.07535892E-14  7.08741993E-14 -1.57623444E-08
  3.65946789E-08  1.79265299E-13 -1.79501103E-13  2.51069581E-10  3.58282281E-15
 -5.44716189E-11 -4.34895774E-10 -3.57601356E-15  3.18007163E-02 -1.42367029E-02
  2.98325273E-01  1.01176485E-02  5.71116215E-08 -5.71006641E-08 -1.07277331E-09
  2.05676979E-10 -6.76404324E-09  3.69545802E-10  1.34904361E-15 -1.32882264E-15
 -3.24356573E-08 -5.22943060E-08  9.00222719E-07 -7.89422703E-02  7.88320036E-02
  1.17597322E-07  6.45407211E-07 -5.90872996E-02  5.90047156E-02  7.65761317E-07
  4.03446011E-06 -3.47150189E-01  3.46665335E-01 -8.61076645E-07 -1.03938837E-05
  8.65591659E-01 -8.64383125E-01  6.58853518E-08 -6.39618792E-03 -6.38563762E-08