Title Card Required                                                     
FOpt      UM062X                                                      6-311+G(d,p)        
Number of atoms                            I                6
Info1-9                                    I   N=           9
          15          15           0           0           0         110
           2          18        -502
Full Title                                 C   N=           2
Title Card Required     
Route                                      C   N=           4
#p opt UM062X/6-311+G** nosymm int=superfine    
Charge                                     I                1
Multiplicity                               I                2
Number of electrons                        I               15
Number of alpha electrons                  I                8
Number of beta electrons                   I                7
Number of basis functions                  I               68
Number of independent functions            I               68
Number of point charges in /Mol/           I                0
Number of translation vectors              I                0
Atomic numbers                             I   N=           6
           6           6           1           1           1           1
Nuclear charges                            R   N=           6
  6.00000000E+00  6.00000000E+00  1.00000000E+00  1.00000000E+00  1.00000000E+00
  1.00000000E+00
Current cartesian coordinates              R   N=          18
 -1.36254893E+00  0.00000000E+00  0.00000000E+00  1.36254893E+00  0.00000000E+00
  0.00000000E+00 -2.39987285E+00 -1.77103173E+00 -3.08262519E-11 -2.40019021E+00
  1.77071569E+00 -7.24621412E-11  2.39987285E+00  1.77103173E+00  3.88949154E-11
  2.40019021E+00 -1.77071569E+00 -2.70176420E-12
Number of symbols in /Mol/                 I                0
Force Field                                I                0
Atom Types                                 C   N=           6
                                                            
            
Int Atom Types                             I   N=           6
           0           0           0           0           0           0
MM charges                                 R   N=           6
  0.00000000E+00  0.00000000E+00  0.00000000E+00  0.00000000E+00  0.00000000E+00
  0.00000000E+00
Integer atomic weights                     I   N=           6
          12          12           1           1           1           1
Real atomic weights                        R   N=           6
  1.20000000E+01  1.20000000E+01  1.00782504E+00  1.00782504E+00  1.00782504E+00
  1.00782504E+00
Atom fragment info                         I   N=           6
           0           0           0           0           0           0
Atom residue num                           I   N=           6
           0           0           0           0           0           0
Nuclear spins                              I   N=           6
           0           0           1           1           1           1
Nuclear ZEff                               R   N=           6
 -3.60000000E+00 -3.60000000E+00 -1.00000000E+00 -1.00000000E+00 -1.00000000E+00
 -1.00000000E+00
Nuclear ZNuc                               R   N=           6
  6.00000000E+00  6.00000000E+00  1.00000000E+00  1.00000000E+00  1.00000000E+00
  1.00000000E+00
Nuclear QMom                               R   N=           6
  0.00000000E+00  0.00000000E+00  0.00000000E+00  0.00000000E+00  0.00000000E+00
  0.00000000E+00
Nuclear GFac                               R   N=           6
  0.00000000E+00  0.00000000E+00  2.79284600E+00  2.79284600E+00  2.79284600E+00
  2.79284600E+00
MicOpt                                     I   N=           6
          -2          -2          -1          -1          -1          -1
Number of residues                         I                0
Number of secondary structures             I                0
Redundant internal dimensions              I   N=           4
          20          10           6           4
Redundant internal coordinate indices      I   N=          80
           1          -1           0           0           1          -2
           0           0           1          -3           0           0
           2          -1           0           0           2          -2
           0           0           2          -3           0           0
           1           3           0           0           1           4
           0           0           2           5           0           0
           2           6           0           0           2           1
           3           0           2           1           4           0
           3           1           4           0           1           2
           5           0           1           2           6           0
           5           2           6           0           3           1
           2           5           3           1           2           6
           4           1           2           5           4           1
           2           6
Redundant internal coordinates             R   N=          20
 -1.36254893E+00  0.00000000E+00  0.00000000E+00  1.36254893E+00  0.00000000E+00
  0.00000000E+00  2.05246055E+00  2.05234829E+00  2.05246055E+00  2.05234829E+00
  2.10064764E+00  2.10085890E+00  2.08167877E+00  2.10064764E+00  2.10085890E+00
  2.08167877E+00  3.14159265E+00 -0.00000000E+00  0.00000000E+00  3.14159265E+00
ZRed-IntVec                                I   N=          20
          -1          -1          -1          -1          -1          -1
           0           0           0           0           0           0
           0           0           0           0           0           0
           0           0
ZRed-FPVec                                 R   N=          20
  0.00000000E+00  0.00000000E+00  0.00000000E+00  0.00000000E+00  0.00000000E+00
  0.00000000E+00  0.00000000E+00  0.00000000E+00  0.00000000E+00  0.00000000E+00
  0.00000000E+00  0.00000000E+00  0.00000000E+00  0.00000000E+00  0.00000000E+00
  0.00000000E+00  0.00000000E+00  0.00000000E+00  0.00000000E+00  0.00000000E+00
ZRed-Constraint1                           R   N=          20
 -1.36254893E+00  0.00000000E+00  0.00000000E+00  1.36254893E+00  0.00000000E+00
  0.00000000E+00  2.06196877E+00  2.06574191E+00  2.06196877E+00  2.06574191E+00
  2.11716039E+00  2.11246778E+00  2.05355714E+00  2.11716039E+00  2.11246778E+00
  2.05355714E+00  3.14159265E+00  0.00000000E+00  0.00000000E+00  3.14159265E+00
ZRed-Constraint2                           R   N=          20
 -1.36254893E+00  0.00000000E+00  0.00000000E+00  1.36254893E+00  0.00000000E+00
  0.00000000E+00  0.00000000E+00  0.00000000E+00  0.00000000E+00  0.00000000E+00
  0.00000000E+00  0.00000000E+00  0.00000000E+00  0.00000000E+00  0.00000000E+00
  0.00000000E+00  0.00000000E+00  0.00000000E+00  0.00000000E+00  0.00000000E+00
Number of contracted shells                I               28
Number of primitive shells                 I               50
Pure/Cartesian d shells                    I                0
Pure/Cartesian f shells                    I                0
Highest angular momentum                   I                2
Largest degree of contraction              I                6
Shell types                                I   N=          28
           0          -1          -1          -1          -1          -2
           0          -1          -1          -1          -1          -2
           0           0           0           1           0           0
           0           1           0           0           0           1
           0           0           0           1
Number of primitives per shell             I   N=          28
           6           3           1           1           1           1
           6           3           1           1           1           1
           3           1           1           1           3           1
           1           1           3           1           1           1
           3           1           1           1
Shell to atom map                          I   N=          28
           1           1           1           1           1           1
           2           2           2           2           2           2
           3           3           3           3           4           4
           4           4           5           5           5           5
           6           6           6           6
Primitive exponents                        R   N=          50
  4.56324000E+03  6.82024000E+02  1.54973000E+02  4.44553000E+01  1.30290000E+01
  1.82773000E+00  2.09642000E+01  4.80331000E+00  1.45933000E+00  4.83456000E-01
  1.45585000E-01  4.38000000E-02  6.26000000E-01  4.56324000E+03  6.82024000E+02
  1.54973000E+02  4.44553000E+01  1.30290000E+01  1.82773000E+00  2.09642000E+01
  4.80331000E+00  1.45933000E+00  4.83456000E-01  1.45585000E-01  4.38000000E-02
  6.26000000E-01  3.38650000E+01  5.09479000E+00  1.15879000E+00  3.25840000E-01
  1.02741000E-01  7.50000000E-01  3.38650000E+01  5.09479000E+00  1.15879000E+00
  3.25840000E-01  1.02741000E-01  7.50000000E-01  3.38650000E+01  5.09479000E+00
  1.15879000E+00  3.25840000E-01  1.02741000E-01  7.50000000E-01  3.38650000E+01
  5.09479000E+00  1.15879000E+00  3.25840000E-01  1.02741000E-01  7.50000000E-01
Contraction coefficients                   R   N=          50
  1.96665025E-03  1.52306019E-02  7.61269097E-02  2.60801033E-01  6.16462078E-01
  2.21006028E-01  1.14660081E-01  9.19999648E-01 -3.03068213E-03  1.00000000E+00
  1.00000000E+00  1.00000000E+00  1.00000000E+00  1.96665025E-03  1.52306019E-02
  7.61269097E-02  2.60801033E-01  6.16462078E-01  2.21006028E-01  1.14660081E-01
  9.19999648E-01 -3.03068213E-03  1.00000000E+00  1.00000000E+00  1.00000000E+00
  1.00000000E+00  2.54938145E-02  1.90373109E-01  8.52161486E-01  1.00000000E+00
  1.00000000E+00  1.00000000E+00  2.54938145E-02  1.90373109E-01  8.52161486E-01
  1.00000000E+00  1.00000000E+00  1.00000000E+00  2.54938145E-02  1.90373109E-01
  8.52161486E-01  1.00000000E+00  1.00000000E+00  1.00000000E+00  2.54938145E-02
  1.90373109E-01  8.52161486E-01  1.00000000E+00  1.00000000E+00  1.00000000E+00
P(S=P) Contraction coefficients            R   N=          50
  0.00000000E+00  0.00000000E+00  0.00000000E+00  0.00000000E+00  0.00000000E+00
  0.00000000E+00  4.02486927E-02  2.37593957E-01  8.15853851E-01  1.00000000E+00
  1.00000000E+00  1.00000000E+00  0.00000000E+00  0.00000000E+00  0.00000000E+00
  0.00000000E+00  0.00000000E+00  0.00000000E+00  0.00000000E+00  4.02486927E-02
  2.37593957E-01  8.15853851E-01  1.00000000E+00  1.00000000E+00  1.00000000E+00
  0.00000000E+00  0.00000000E+00  0.00000000E+00  0.00000000E+00  0.00000000E+00
  0.00000000E+00  0.00000000E+00  0.00000000E+00  0.00000000E+00  0.00000000E+00
  0.00000000E+00  0.00000000E+00  0.00000000E+00  0.00000000E+00  0.00000000E+00
  0.00000000E+00  0.00000000E+00  0.00000000E+00  0.00000000E+00  0.00000000E+00
  0.00000000E+00  0.00000000E+00  0.00000000E+00  0.00000000E+00  0.00000000E+00
Coordinates of each shell                  R   N=          84
 -1.36254893E+00  0.00000000E+00  0.00000000E+00 -1.36254893E+00  0.00000000E+00
  0.00000000E+00 -1.36254893E+00  0.00000000E+00  0.00000000E+00 -1.36254893E+00
  0.00000000E+00  0.00000000E+00 -1.36254893E+00  0.00000000E+00  0.00000000E+00
 -1.36254893E+00  0.00000000E+00  0.00000000E+00  1.36254893E+00  0.00000000E+00
  0.00000000E+00  1.36254893E+00  0.00000000E+00  0.00000000E+00  1.36254893E+00
  0.00000000E+00  0.00000000E+00  1.36254893E+00  0.00000000E+00  0.00000000E+00
  1.36254893E+00  0.00000000E+00  0.00000000E+00  1.36254893E+00  0.00000000E+00
  0.00000000E+00 -2.39987285E+00 -1.77103173E+00 -3.08262519E-11 -2.39987285E+00
 -1.77103173E+00 -3.08262519E-11 -2.39987285E+00 -1.77103173E+00 -3.08262519E-11
 -2.39987285E+00 -1.77103173E+00 -3.08262519E-11 -2.40019021E+00  1.77071569E+00
 -7.24621412E-11 -2.40019021E+00  1.77071569E+00 -7.24621412E-11 -2.40019021E+00
  1.77071569E+00 -7.24621412E-11 -2.40019021E+00  1.77071569E+00 -7.24621412E-11
  2.39987285E+00  1.77103173E+00  3.88949154E-11  2.39987285E+00  1.77103173E+00
  3.88949154E-11  2.39987285E+00  1.77103173E+00  3.88949154E-11  2.39987285E+00
  1.77103173E+00  3.88949154E-11  2.40019021E+00 -1.77071569E+00 -2.70176420E-12
  2.40019021E+00 -1.77071569E+00 -2.70176420E-12  2.40019021E+00 -1.77071569E+00
 -2.70176420E-12  2.40019021E+00 -1.77071569E+00 -2.70176420E-12
Num ILSW                                   I              100
ILSW                                       I   N=         100
           1           0           0           1           2           0
           0           0           0           0        4336          -1
           7           0           0           0           2           0
           0           0           0           0           1           0
           1           1           0           0           0           0
           0           0      100000           0          -1           0
           0           0           0           0           0           0
           0           0           0           1           0           0
           0 -2000000000           1           0           0           0
           0           0           4          52           0           0
           0           0          55           0           0           0
           0           0           0           6           0           1
           0           0           0           0           0           0
           0           0           0           0           0           0
           0           0           0           0           0           0
           0           0           0           0           0           0
           0           0           0           0
Num RLSW                                   I               52
RLSW                                       R   N=          52
  1.00000000E+00  1.00000000E+00  1.00000000E+00  1.00000000E+00  5.40000000E-01
  0.00000000E+00  0.00000000E+00  1.00000000E+00  0.00000000E+00  0.00000000E+00
  0.00000000E+00  0.00000000E+00  1.00000000E+00  0.00000000E+00  0.00000000E+00
  0.00000000E+00  0.00000000E+00  1.00000000E+00  0.00000000E+00  0.00000000E+00
  0.00000000E+00  0.00000000E+00  1.00000000E+00  0.00000000E+00  0.00000000E+00
  0.00000000E+00  0.00000000E+00  1.00000000E+00  0.00000000E+00  0.00000000E+00
  0.00000000E+00  0.00000000E+00  1.00000000E+00  0.00000000E+00  0.00000000E+00
  0.00000000E+00  0.00000000E+00  0.00000000E+00  1.00000000E+00  1.00000000E+00
  0.00000000E+00  1.00000000E+00  0.00000000E+00  0.00000000E+00  0.00000000E+00
  0.00000000E+00  0.00000000E+00  0.00000000E+00  0.00000000E+00  0.00000000E+00
  0.00000000E+00  0.00000000E+00
MxBond                                     I                3
NBond                                      I   N=           6
           3           3           1           1           1           1
IBond                                      I   N=          18
           2           3           4           1           5           6
           1           0           0           1           0           0
           2           0           0           2           0           0
RBond                                      R   N=          18
  1.00000000E+00  1.00000000E+00  1.00000000E+00  1.00000000E+00  1.00000000E+00
  1.00000000E+00  1.00000000E+00  0.00000000E+00  0.00000000E+00  1.00000000E+00
  0.00000000E+00  0.00000000E+00  1.00000000E+00  0.00000000E+00  0.00000000E+00
  1.00000000E+00  0.00000000E+00  0.00000000E+00
Virial Ratio                               R      2.004885164025376E+00
SCF Energy                                 R     -7.818355489240666E+01
Total Energy                               R     -7.818355489240666E+01
S**2                                       R      7.524980148661307E-01
S**2 after annihilation                    R      7.500049949604011E-01
RMS Force                                  R      5.165027435441765E-05
RMS Density                                R      8.995379720808024E-09
Job Status                                 I                1
Nuclear derivative order                   I                1
External E-field                           R   N=          35
  0.00000000E+00  0.00000000E+00  0.00000000E+00  0.00000000E+00  0.00000000E+00
  0.00000000E+00  0.00000000E+00  0.00000000E+00  0.00000000E+00  0.00000000E+00
  0.00000000E+00  0.00000000E+00  0.00000000E+00  0.00000000E+00  0.00000000E+00
  0.00000000E+00  0.00000000E+00  0.00000000E+00  0.00000000E+00  0.00000000E+00
  0.00000000E+00  0.00000000E+00  0.00000000E+00  0.00000000E+00  0.00000000E+00
  0.00000000E+00  0.00000000E+00  0.00000000E+00  0.00000000E+00  0.00000000E+00
  0.00000000E+00  0.00000000E+00  0.00000000E+00  0.00000000E+00  0.00000000E+00
IOpCl                                      I                1
IROHF                                      I                0
Alpha Orbital Energies                     R   N=          68
 -1.08980384E+01 -1.08973484E+01 -1.17610449E+00 -9.78815275E-01 -8.44162270E-01
 -7.89348681E-01 -7.31923680E-01 -6.60005993E-01 -2.99539032E-01 -1.46681041E-01
 -1.27030761E-01 -1.23138668E-01 -9.61674399E-02 -7.73820690E-02 -6.92413878E-02
 -4.77692555E-02 -4.48893643E-02 -2.43302128E-02 -6.33531970E-03  1.52472348E-02
  6.41529520E-02  1.06782121E-01  2.01546775E-01  2.29553904E-01  2.87056409E-01
  2.87629562E-01  3.16849009E-01  3.77103419E-01  4.05195521E-01  4.48412394E-01
  4.60468582E-01  4.84442685E-01  5.60649145E-01  5.93941596E-01  7.49674447E-01
  7.90776902E-01  8.56988433E-01  1.13814426E+00  1.15777602E+00  1.19058041E+00
  1.28279308E+00  1.30801501E+00  1.34968616E+00  1.35868669E+00  1.49197472E+00
  1.55898061E+00  1.68531222E+00  1.73531268E+00  1.75380957E+00  1.84294436E+00
  1.86142249E+00  1.91287076E+00  2.14423952E+00  2.16362565E+00  2.27815394E+00
  2.32164643E+00  2.39883236E+00  2.41701101E+00  2.42852478E+00  2.52180471E+00
  2.56657277E+00  2.74793228E+00  2.93719275E+00  3.40679589E+00  3.53481509E+00
  3.84589504E+00  2.35297901E+01  2.36792920E+01
Beta Orbital Energies                      R   N=          68
 -1.08957484E+01 -1.08951935E+01 -1.13695792E+00 -9.59433557E-01 -8.33452683E-01
 -7.79755548E-01 -7.28667981E-01 -4.16730157E-01 -2.27664012E-01 -1.64217794E-01
 -1.26268810E-01 -1.24739992E-01 -1.00831991E-01 -8.59553849E-02 -6.98476837E-02
 -4.75076385E-02 -3.73259084E-02 -1.92568865E-02 -9.72931463E-03  2.00998260E-02
  7.80327249E-02  1.11388159E-01  1.95180242E-01  2.23881227E-01  2.96096521E-01
  3.03197878E-01  3.04226803E-01  3.67346708E-01  4.17107305E-01  4.64936108E-01
  4.70877169E-01  4.96171953E-01  5.31847449E-01  5.83303349E-01  7.84388727E-01
  8.29120520E-01  8.81426263E-01  1.17549688E+00  1.17707941E+00  1.19940453E+00
  1.31544319E+00  1.33693528E+00  1.36377290E+00  1.36801351E+00  1.50723848E+00
  1.58058522E+00  1.71160061E+00  1.76612032E+00  1.76891073E+00  1.86421861E+00
  1.87772905E+00  1.94956123E+00  2.17834649E+00  2.19504537E+00  2.28768544E+00
  2.32774795E+00  2.41260848E+00  2.43516869E+00  2.46642918E+00  2.54487391E+00
  2.61312161E+00  2.78710661E+00  2.96421113E+00  3.45442885E+00  3.58232887E+00
  3.90195765E+00  2.35426192E+01  2.36944205E+01
Alpha MO coefficients                      R   N=        4624
  3.98937602E-01  3.27950773E-01  8.00823429E-04  8.28145310E-09  3.56779583E-14
  8.68540347E-03 -1.75067886E-03  4.89491681E-07 -8.83598639E-14 -2.25215869E-03
 -9.22250066E-05  4.07861305E-07  2.92833683E-14 -6.25206198E-04  6.41200571E-04
 -3.95436723E-07  1.93645428E-14 -6.86402259E-04  3.02736700E-14 -4.26010051E-14
 -8.50346534E-04 -6.09223730E-07  3.98937602E-01  3.27950773E-01 -8.00823429E-04
 -8.28145297E-09 -6.82403242E-15  8.68540347E-03  1.75067886E-03 -4.89491682E-07
  1.89855385E-14 -2.25215869E-03  9.22250066E-05 -4.07861310E-07 -2.34497928E-14
 -6.25206197E-04 -6.41200571E-04  3.95436719E-07 -8.93537308E-15 -6.86402259E-04
  4.89425731E-15  2.96750653E-15 -8.50346534E-04 -6.09223732E-07  1.65732289E-04
 -2.39139012E-03  1.60621404E-03 -7.24747290E-04 -1.27601763E-03 -7.69268529E-14
  1.65600080E-04 -2.39301784E-03  1.60702648E-03 -7.25345343E-04  1.27643446E-03
 -5.19930252E-14  1.65732289E-04 -2.39139012E-03  1.60621404E-03  7.24747290E-04
  1.27601763E-03  9.74028236E-14  1.65600080E-04 -2.39301784E-03  1.60702648E-03
  7.25345343E-04 -1.27643446E-03 -4.96997991E-15  3.99005857E-01  3.27974948E-01
 -7.45729331E-05 -1.44261024E-08  3.00000438E-14  8.29176129E-03  7.12575798E-04
  3.94753472E-07 -5.53798988E-14 -3.75656817E-03 -1.07366304E-03 -3.68226853E-08
  1.90125247E-14  3.45202826E-03  1.40877489E-03 -3.44989232E-08  1.31021027E-14
 -1.09359709E-03  1.35094200E-14 -3.26402679E-14  5.79560057E-04 -3.03515435E-07
 -3.99005857E-01 -3.27974948E-01 -7.45729331E-05 -1.44261041E-08  2.10153308E-15
 -8.29176129E-03  7.12575798E-04  3.94753482E-07 -6.21030944E-15  3.75656817E-03
 -1.07366304E-03 -3.68226376E-08  1.27655703E-14 -3.45202826E-03  1.40877489E-03
 -3.44989142E-08 -2.24047889E-15  1.09359709E-03  8.84170547E-16  1.66294951E-14
 -5.79560057E-04  3.03515442E-07  2.92932505E-04 -1.46739655E-03  1.11518595E-03
 -3.74891833E-04 -8.86615502E-04 -6.99851376E-14  2.92789742E-04 -1.46816942E-03
  1.11566075E-03 -3.75189637E-04  8.86964676E-04 -3.51475100E-14 -2.92932505E-04
  1.46739655E-03 -1.11518595E-03 -3.74891833E-04 -8.86615502E-04 -9.07306401E-14
 -2.92789742E-04  1.46816942E-03 -1.11566075E-03 -3.75189637E-04  8.86964676E-04
  7.58423732E-15 -8.50650665E-02 -1.37871737E-01  4.67660799E-02  1.23687850E-06
 -4.44484540E-13  3.71175248E-01  7.27814942E-02  1.42084315E-06 -2.69543758E-13
  2.02800849E-01  1.98955665E-02 -4.11144768E-07 -2.67502520E-13  1.26153162E-04
 -1.05504648E-02  1.28074468E-06 -1.12824049E-13 -6.26016372E-03 -1.01908575E-13
  1.17071394E-13  9.92217570E-03 -1.47757700E-06 -8.50650665E-02 -1.37871737E-01
 -4.67660799E-02 -1.23687850E-06 -9.01158265E-14  3.71175248E-01 -7.27814942E-02
 -1.42084315E-06 -3.02330802E-13  2.02800849E-01 -1.98955665E-02  4.11144783E-07
  7.56968822E-14  1.26153170E-04  1.05504648E-02 -1.28074466E-06 -1.00136333E-14
 -6.26016372E-03  1.25223915E-13 -1.01201971E-13  9.92217570E-03 -1.47757701E-06
  5.01815769E-02  5.33120051E-02 -1.00481909E-02  6.49557251E-03  8.78103436E-03
  4.13046265E-14  5.01844218E-02  5.33150674E-02 -1.00507708E-02  6.49731303E-03
 -8.77910665E-03  1.57680547E-13  5.01815769E-02  5.33120051E-02 -1.00481909E-02
 -6.49557251E-03 -8.78103436E-03 -1.97528197E-13  5.01844218E-02  5.33150674E-02
 -1.00507708E-02 -6.49731303E-03  8.77910665E-03 -1.43738533E-14 -7.18159621E-02
 -1.17879236E-01 -7.17568270E-02  1.02550068E-05 -1.77303589E-12  3.26076579E-01
 -1.07156812E-01  1.28466615E-05 -2.48413210E-12  2.70695080E-01 -2.61768021E-02
  4.75583939E-06 -8.79792572E-13 -7.65340746E-02 -2.48694646E-02  1.44195029E-07
 -4.04089391E-13 -7.58230823E-04 -5.10884842E-14 -8.02975865E-14 -1.18337347E-02
 -2.21075206E-06  7.18159621E-02  1.17879236E-01 -7.17568270E-02  1.02550067E-05
 -8.50914297E-13 -3.26076579E-01 -1.07156812E-01  1.28466615E-05 -1.26253000E-12
 -2.70695080E-01 -2.61768021E-02  4.75583945E-06 -8.06737315E-13  7.65340746E-02
 -2.48694646E-02  1.44194984E-07  6.28973656E-13  7.58230823E-04 -4.51577456E-14
 -4.31337374E-15  1.18337347E-02  2.21075207E-06  8.65410981E-02  1.02357917E-01
 -2.78604093E-03  4.95707065E-03  1.35214906E-02 -8.26982495E-14  8.65659898E-02
  1.02384575E-01 -2.78790575E-03  4.96170534E-03 -1.35233856E-02  3.73208812E-13
 -8.65410981E-02 -1.02357917E-01  2.78604093E-03  4.95707065E-03  1.35214906E-02
  2.70335786E-13 -8.65659898E-02 -1.02384575E-01  2.78790575E-03  4.96170534E-03
 -1.35233856E-02 -2.01052727E-14  4.47584531E-06  7.56325727E-06 -1.86927376E-06
  1.59453890E-01 -9.77060189E-13 -2.16140577E-05  2.05914248E-06  2.39754968E-01
 -1.22915122E-12 -3.45552220E-05 -6.77485462E-06  1.40274152E-01 -7.82893623E-13
 -2.08436767E-05 -5.83536274E-06  4.29097900E-03 -5.95882902E-13  3.66356005E-07
  2.26770776E-13 -4.95018284E-13  4.58529498E-06  4.49206868E-03 -4.47584530E-06
 -7.56325726E-06 -1.86927380E-06  1.59453890E-01  7.52091010E-13  2.16140577E-05
  2.05914243E-06  2.39754968E-01  1.06126328E-12  3.45552220E-05 -6.77485466E-06
  1.40274152E-01  7.67615806E-13  2.08436766E-05 -5.83536275E-06  4.29097900E-03
  1.61895863E-13 -3.66356011E-07  1.19280525E-13  1.52035205E-13 -4.58529498E-06
 -4.49206868E-03 -9.50115857E-02 -1.18381943E-01  2.82061117E-03 -9.05150167E-03
 -9.39949201E-03 -2.09266932E-14  9.49962174E-02  1.18358630E-01 -2.82178667E-03
  9.05381391E-03 -9.39626374E-03  4.47345218E-13  9.50115857E-02  1.18381943E-01
 -2.82061117E-03 -9.05150167E-03 -9.39949201E-03 -2.03074055E-13 -9.49962174E-02
 -1.18358630E-01  2.82178667E-03  9.05381391E-03 -9.39626374E-03  4.39455324E-15
  6.71529965E-04  1.08863149E-03  1.93572137E-01 -5.57769310E-05  3.11411291E-12
  3.31068009E-03  2.91122968E-01 -7.78794388E-05  4.62703958E-12 -4.44713966E-02
  1.38766661E-01 -6.24319636E-05  3.30324708E-12 -3.11093076E-03 -9.83789707E-03
 -1.25673821E-05 -8.08240215E-13 -1.28610532E-03  2.36363393E-14  2.04618963E-13
  2.13935851E-02  1.21184028E-05  6.71529965E-04  1.08863149E-03 -1.93572137E-01
  5.57769310E-05 -4.78127541E-13  3.31068009E-03 -2.91122968E-01  7.78794387E-05
 -6.68613786E-13 -4.44713966E-02 -1.38766661E-01  6.24319636E-05 -1.12635737E-12
 -3.11093076E-03  9.83789707E-03  1.25673821E-05  7.74696794E-13 -1.28610532E-03
 -1.90577087E-13 -9.90623078E-14  2.13935851E-02  1.21184028E-05 -7.54783297E-02
 -1.03886786E-01 -1.79750025E-02  1.97594654E-03 -1.11879410E-02  2.04397517E-13
 -7.55771877E-02 -1.04010798E-01 -1.79708323E-02  1.96530312E-03  1.11965027E-02
 -2.07596394E-13 -7.54783297E-02 -1.03886786E-01 -1.79750025E-02 -1.97594654E-03
  1.11879410E-02  1.48815629E-13 -7.55771877E-02 -1.04010798E-01 -1.79708323E-02
 -1.96530312E-03 -1.11965027E-02  9.89956098E-15 -1.84332965E-06 -3.01846647E-06
  7.00850507E-05  1.58191543E-01 -4.78684034E-12  1.23287931E-05  1.08739885E-04
  2.36454971E-01 -8.03275949E-12 -9.00647951E-06  5.25199563E-05  1.80574489E-01
 -4.02454970E-12 -3.19514095E-07 -6.95656897E-06  1.68221471E-02 -2.21551451E-12
 -8.67741915E-08 -2.91551423E-13 -8.29034923E-13  1.26868563E-05 -2.95801318E-02
 -1.84332965E-06 -3.01846646E-06 -7.00850507E-05 -1.58191543E-01 -4.59803976E-12
  1.23287930E-05 -1.08739885E-04 -2.36454971E-01 -7.35768230E-12 -9.00647944E-06
 -5.25199563E-05 -1.80574489E-01 -6.03224855E-12 -3.19514960E-07  6.95656924E-06
 -1.68221471E-02  2.53781053E-12 -8.67741908E-08  5.64819629E-13 -3.96117939E-13
  1.26868563E-05 -2.95801318E-02 -1.13770111E-01 -1.54517566E-01 -1.90210382E-02
 -9.00860923E-03 -6.59811124E-03 -1.59704657E-13  1.13707750E-01  1.54420724E-01
  1.89916695E-02  9.01257105E-03 -6.58556259E-03  2.13157295E-13 -1.13770111E-01
 -1.54517566E-01 -1.90210382E-02  9.00860923E-03  6.59811124E-03  2.76099766E-14
  1.13707750E-01  1.54420724E-01  1.89916695E-02 -9.01257105E-03  6.58556259E-03
 -1.53223232E-13 -1.30150245E-12 -2.25892167E-12 -2.16427207E-12  4.60575073E-12
  1.86991421E-01  7.62507576E-12 -4.81857566E-12  9.05824755E-12  3.14322784E-01
  5.83547447E-12  4.45808049E-12  5.45100711E-12  2.38728481E-01 -1.01643940E-10
 -2.27484640E-11 -2.50926069E-12 -4.37209581E-03  3.01621690E-13  3.03945478E-02
  7.72820218E-08 -2.12964398E-13 -1.52653062E-12  7.54031852E-13  1.27661957E-12
  1.11919486E-12 -4.60827187E-12  1.86991421E-01 -3.91849800E-12  1.02220956E-12
 -6.45856793E-12  3.14322784E-01 -7.42364717E-12  5.70108817E-12 -1.72188312E-12
  2.38728481E-01  9.42546955E-11 -2.38179876E-11  3.73545418E-12 -4.37209581E-03
 -1.45780051E-13 -3.03945478E-02 -7.72820207E-08  4.26902688E-14 -1.83578209E-13
 -2.80771848E-12 -5.31978263E-12  1.25050059E-11  9.42075147E-14  6.40717733E-13
  9.79463775E-03  1.93580689E-12 -2.35877734E-12  1.75143486E-11 -5.28688728E-13
  7.17038303E-13  9.79552958E-03 -1.50200892E-12 -2.96761319E-12 -1.19316205E-11
  5.00103796E-13  3.39580266E-13  9.79463775E-03  2.95107794E-12  6.77580824E-12
 -4.35070142E-13 -6.39029283E-13  5.79554041E-13  9.79552958E-03 -1.42034015E-12
 -2.37443689E-12 -4.30118264E-12  2.55079624E-12  2.05835415E-01  5.04515117E-12
 -5.33096629E-12  2.52124806E-12  3.39745236E-01  3.74080274E-11 -2.34737825E-11
  3.06680107E-11  4.56078231E-01  1.55255053E-10  2.82836107E-11  2.75537412E-11
  1.30494614E-01  6.81757087E-13 -2.35960931E-02  6.82204912E-08  7.98231146E-14
 -1.64065913E-13 -1.66025785E-13 -2.87773982E-13  2.78912380E-12  2.11002248E-12
 -2.05835415E-01 -3.76982769E-13  5.21515114E-12  2.19838368E-12 -3.39745236E-01
  2.23635567E-11  4.64800838E-12 -1.78739937E-12 -4.56078231E-01 -1.16441126E-10
  3.49129054E-11 -6.79951934E-12 -1.30494614E-01 -3.23926615E-14 -2.35960931E-02
  6.82204916E-08 -3.75623020E-13 -1.05876066E-12 -1.89303293E-12 -7.81921396E-13
  5.30636697E-13  3.84247935E-13  1.76249119E-13  1.83830651E-02 -5.47150916E-12
 -7.52205244E-12 -8.13307766E-11 -1.37823143E-12  1.82995419E-12  1.83855151E-02
 -2.55305697E-12 -2.66408238E-12 -1.40638397E-11  2.29525202E-13  6.09727444E-13
 -1.83830651E-02  8.10144721E-13 -5.29615657E-12  1.55863902E-12  9.07372917E-13
 -7.65013956E-13 -1.83855151E-02  3.04230160E-02  5.27362844E-02  4.49352214E-02
  1.17429163E-05  1.36966140E-12 -1.67502609E-01  6.70811334E-02  1.15976134E-05
  3.01555832E-12 -6.58991816E-01  2.09376126E-01  9.27905245E-05  4.97963287E-12
  8.41056993E-01 -1.30224400E-01  1.16869189E-04 -5.90821476E-12  1.06167546E-02
 -3.95546827E-13  2.71279584E-13 -5.62356171E-03  3.09305148E-06  3.04230160E-02
  5.27362844E-02 -4.49352214E-02 -1.17429164E-05 -4.72627758E-13 -1.67502609E-01
 -6.70811334E-02 -1.15976135E-05 -1.09405887E-12 -6.58991816E-01 -2.09376126E-01