Title Card Required                                                     
FOpt      UM062X                                                      6-311+G(d,p)        
Number of atoms                            I                4
Info1-9                                    I   N=           9
          13          13           0           0           0         100
           2          18        -502
Full Title                                 C   N=           2
Title Card Required     
Route                                      C   N=           4
#p opt UM062X/6-311+G** nosymm int=superfine    
Charge                                     I                1
Multiplicity                               I                2
Number of electrons                        I               13
Number of alpha electrons                  I                7
Number of beta electrons                   I                6
Number of basis functions                  I               56
Number of independent functions            I               56
Number of point charges in /Mol/           I                0
Number of translation vectors              I                0
Atomic numbers                             I   N=           4
           6           6           1           1
Nuclear charges                            R   N=           4
  6.00000000E+00  6.00000000E+00  1.00000000E+00  1.00000000E+00
Current cartesian coordinates              R   N=          12
 -3.36779431E+00  0.00000000E+00  0.00000000E+00  3.36779431E+00  0.00000000E+00
  0.00000000E+00 -5.44836955E+00  0.00000000E+00  0.00000000E+00  5.44832797E+00
  0.00000000E+00  0.00000000E+00
Number of symbols in /Mol/                 I                0
Force Field                                I                0
Atom Types                                 C   N=           4
                                                
Int Atom Types                             I   N=           4
           0           0           0           0
MM charges                                 R   N=           4
  0.00000000E+00  0.00000000E+00  0.00000000E+00  0.00000000E+00
Integer atomic weights                     I   N=           4
          12          12           1           1
Real atomic weights                        R   N=           4
  1.20000000E+01  1.20000000E+01  1.00782504E+00  1.00782504E+00
Atom fragment info                         I   N=           4
           0           0           0           0
Atom residue num                           I   N=           4
           0           0           0           0
Nuclear spins                              I   N=           4
           0           0           1           1
Nuclear ZEff                               R   N=           4
 -3.60000000E+00 -3.60000000E+00 -1.00000000E+00 -1.00000000E+00
Nuclear ZNuc                               R   N=           4
  6.00000000E+00  6.00000000E+00  1.00000000E+00  1.00000000E+00
Nuclear QMom                               R   N=           4
  0.00000000E+00  0.00000000E+00  0.00000000E+00  0.00000000E+00
Nuclear GFac                               R   N=           4
  0.00000000E+00  0.00000000E+00  2.79284600E+00  2.79284600E+00
MicOpt                                     I   N=           4
          -2          -2          -1          -1
Number of residues                         I                0
Number of secondary structures             I                0
Redundant internal dimensions              I   N=           4
          12           8           4           0
Redundant internal coordinate indices      I   N=          48
           1          -1           0           0           1          -2
           0           0           1          -3           0           0
           2          -1           0           0           2          -2
           0           0           2          -3           0           0
           1           3           0           0           2           4
           0           0           2           1           3          -4
           1           2           4          -4           2           1
           3          -8           1           2           4          -8
Redundant internal coordinates             R   N=          12
 -3.36779431E+00  0.00000000E+00  0.00000000E+00  3.36779431E+00  0.00000000E+00
  0.00000000E+00  2.08057524E+00  2.08053366E+00  3.14159265E+00  3.14159265E+00
  3.14159265E+00  3.14159265E+00
ZRed-IntVec                                I   N=          12
          -1          -1          -1          -1          -1          -1
           0           0           0           0           0           0
ZRed-FPVec                                 R   N=          12
  0.00000000E+00  0.00000000E+00  0.00000000E+00  0.00000000E+00  0.00000000E+00
  0.00000000E+00  0.00000000E+00  0.00000000E+00  0.00000000E+00  0.00000000E+00
  0.00000000E+00  0.00000000E+00
ZRed-Constraint1                           R   N=          12
 -3.36779431E+00  0.00000000E+00  0.00000000E+00  3.36779431E+00  0.00000000E+00
  0.00000000E+00  2.08057524E+00  2.08053366E+00  3.14159265E+00  3.14159265E+00
  3.14159265E+00  3.14159265E+00
ZRed-Constraint2                           R   N=          12
 -3.36779431E+00  0.00000000E+00  0.00000000E+00  3.36779431E+00  0.00000000E+00
  0.00000000E+00  0.00000000E+00  0.00000000E+00  0.00000000E+00  0.00000000E+00
  0.00000000E+00  0.00000000E+00
Number of contracted shells                I               20
Number of primitive shells                 I               38
Pure/Cartesian d shells                    I                0
Pure/Cartesian f shells                    I                0
Highest angular momentum                   I                2
Largest degree of contraction              I                6
Shell types                                I   N=          20
           0          -1          -1          -1          -1          -2
           0          -1          -1          -1          -1          -2
           0           0           0           1           0           0
           0           1
Number of primitives per shell             I   N=          20
           6           3           1           1           1           1
           6           3           1           1           1           1
           3           1           1           1           3           1
           1           1
Shell to atom map                          I   N=          20
           1           1           1           1           1           1
           2           2           2           2           2           2
           3           3           3           3           4           4
           4           4
Primitive exponents                        R   N=          38
  4.56324000E+03  6.82024000E+02  1.54973000E+02  4.44553000E+01  1.30290000E+01
  1.82773000E+00  2.09642000E+01  4.80331000E+00  1.45933000E+00  4.83456000E-01
  1.45585000E-01  4.38000000E-02  6.26000000E-01  4.56324000E+03  6.82024000E+02
  1.54973000E+02  4.44553000E+01  1.30290000E+01  1.82773000E+00  2.09642000E+01
  4.80331000E+00  1.45933000E+00  4.83456000E-01  1.45585000E-01  4.38000000E-02
  6.26000000E-01  3.38650000E+01  5.09479000E+00  1.15879000E+00  3.25840000E-01
  1.02741000E-01  7.50000000E-01  3.38650000E+01  5.09479000E+00  1.15879000E+00
  3.25840000E-01  1.02741000E-01  7.50000000E-01
Contraction coefficients                   R   N=          38
  1.96665025E-03  1.52306019E-02  7.61269097E-02  2.60801033E-01  6.16462078E-01
  2.21006028E-01  1.14660081E-01  9.19999648E-01 -3.03068213E-03  1.00000000E+00
  1.00000000E+00  1.00000000E+00  1.00000000E+00  1.96665025E-03  1.52306019E-02
  7.61269097E-02  2.60801033E-01  6.16462078E-01  2.21006028E-01  1.14660081E-01
  9.19999648E-01 -3.03068213E-03  1.00000000E+00  1.00000000E+00  1.00000000E+00
  1.00000000E+00  2.54938145E-02  1.90373109E-01  8.52161486E-01  1.00000000E+00
  1.00000000E+00  1.00000000E+00  2.54938145E-02  1.90373109E-01  8.52161486E-01
  1.00000000E+00  1.00000000E+00  1.00000000E+00
P(S=P) Contraction coefficients            R   N=          38
  0.00000000E+00  0.00000000E+00  0.00000000E+00  0.00000000E+00  0.00000000E+00
  0.00000000E+00  4.02486927E-02  2.37593957E-01  8.15853851E-01  1.00000000E+00
  1.00000000E+00  1.00000000E+00  0.00000000E+00  0.00000000E+00  0.00000000E+00
  0.00000000E+00  0.00000000E+00  0.00000000E+00  0.00000000E+00  4.02486927E-02
  2.37593957E-01  8.15853851E-01  1.00000000E+00  1.00000000E+00  1.00000000E+00
  0.00000000E+00  0.00000000E+00  0.00000000E+00  0.00000000E+00  0.00000000E+00
  0.00000000E+00  0.00000000E+00  0.00000000E+00  0.00000000E+00  0.00000000E+00
  0.00000000E+00  0.00000000E+00  0.00000000E+00
Coordinates of each shell                  R   N=          60
 -3.36779431E+00  0.00000000E+00  0.00000000E+00 -3.36779431E+00  0.00000000E+00
  0.00000000E+00 -3.36779431E+00  0.00000000E+00  0.00000000E+00 -3.36779431E+00
  0.00000000E+00  0.00000000E+00 -3.36779431E+00  0.00000000E+00  0.00000000E+00
 -3.36779431E+00  0.00000000E+00  0.00000000E+00  3.36779431E+00  0.00000000E+00
  0.00000000E+00  3.36779431E+00  0.00000000E+00  0.00000000E+00  3.36779431E+00
  0.00000000E+00  0.00000000E+00  3.36779431E+00  0.00000000E+00  0.00000000E+00
  3.36779431E+00  0.00000000E+00  0.00000000E+00  3.36779431E+00  0.00000000E+00
  0.00000000E+00 -5.44836955E+00  0.00000000E+00  0.00000000E+00 -5.44836955E+00
  0.00000000E+00  0.00000000E+00 -5.44836955E+00  0.00000000E+00  0.00000000E+00
 -5.44836955E+00  0.00000000E+00  0.00000000E+00  5.44832797E+00  0.00000000E+00
  0.00000000E+00  5.44832797E+00  0.00000000E+00  0.00000000E+00  5.44832797E+00
  0.00000000E+00  0.00000000E+00  5.44832797E+00  0.00000000E+00  0.00000000E+00
Num ILSW                                   I              100
ILSW                                       I   N=         100
           1           0           0           0           0           0
           0           0           0           0        4336          -1
           7           0           0           0           0           0
           0           0           0           0           1           0
           1           1           0           0           0           0
           0           0      100000           0          -1           0
           0           0           0           0           0           0
           0           0           0           1           0           0
           0 -2000000000           1           0           0           0
           0           0           4          52           0           0
           0           0          55           0           0           0
           0           0           0           4           0           1
           0           0           0           0           0           0
           0           0           0           0           0           0
           0           0           0           0           0           0
           0           0           0           0           0           0
           0           0           0           0
Num RLSW                                   I               52
RLSW                                       R   N=          52
  1.00000000E+00  1.00000000E+00  1.00000000E+00  1.00000000E+00  5.40000000E-01
  0.00000000E+00  0.00000000E+00  1.00000000E+00  0.00000000E+00  0.00000000E+00
  0.00000000E+00  0.00000000E+00  1.00000000E+00  0.00000000E+00  0.00000000E+00
  0.00000000E+00  0.00000000E+00  1.00000000E+00  0.00000000E+00  0.00000000E+00
  0.00000000E+00  0.00000000E+00  1.00000000E+00  0.00000000E+00  0.00000000E+00
  0.00000000E+00  0.00000000E+00  1.00000000E+00  0.00000000E+00  0.00000000E+00
  0.00000000E+00  0.00000000E+00  1.00000000E+00  0.00000000E+00  0.00000000E+00
  0.00000000E+00  0.00000000E+00  0.00000000E+00  1.00000000E+00  1.00000000E+00
  0.00000000E+00  1.00000000E+00  0.00000000E+00  0.00000000E+00  0.00000000E+00
  0.00000000E+00  0.00000000E+00  0.00000000E+00  0.00000000E+00  0.00000000E+00
  0.00000000E+00  0.00000000E+00
MxBond                                     I                2
NBond                                      I   N=           4
           2           2           1           1
IBond                                      I   N=           8
           2           3           1           4           1           0
           2           0
RBond                                      R   N=           8
  1.00000000E-01  1.00000000E+00  1.00000000E-01  1.00000000E+00  1.00000000E+00
  0.00000000E+00  1.00000000E+00  0.00000000E+00
Virial Ratio                               R      2.002445586978504E+00
SCF Energy                                 R     -7.658549050438299E+01
Total Energy                               R     -7.658549050438299E+01
S**2                                       R      7.512645498356711E-01
S**2 after annihilation                    R      7.500011287237721E-01
RMS Force                                  R      4.369902866795070E-03
RMS Density                                R      4.874642562258802E-09
Job Status                                 I                3
Nuclear derivative order                   I                1
External E-field                           R   N=          35
  0.00000000E+00  0.00000000E+00  0.00000000E+00  0.00000000E+00  0.00000000E+00
  0.00000000E+00  0.00000000E+00  0.00000000E+00  0.00000000E+00  0.00000000E+00
  0.00000000E+00  0.00000000E+00  0.00000000E+00  0.00000000E+00  0.00000000E+00
  0.00000000E+00  0.00000000E+00  0.00000000E+00  0.00000000E+00  0.00000000E+00
  0.00000000E+00  0.00000000E+00  0.00000000E+00  0.00000000E+00  0.00000000E+00
  0.00000000E+00  0.00000000E+00  0.00000000E+00  0.00000000E+00  0.00000000E+00
  0.00000000E+00  0.00000000E+00  0.00000000E+00  0.00000000E+00  0.00000000E+00
IOpCl                                      I                1
IROHF                                      I                0
Alpha Orbital Energies                     R   N=          56
 -1.09470888E+01 -1.09470811E+01 -9.83976427E-01 -9.81927040E-01 -6.46237001E-01
 -6.26059947E-01 -4.86001552E-01 -4.04965747E-01 -3.36479217E-01 -3.31278825E-01
 -1.24893754E-01 -1.14446346E-01 -7.80314301E-02 -7.32261654E-02 -5.34634755E-02
 -4.85083054E-02 -4.48373022E-02 -1.55723618E-02 -4.69527189E-03  5.95074336E-02
  2.41511445E-01  3.03513996E-01  3.52477960E-01  3.56245603E-01  3.64969733E-01
  3.82370351E-01  3.90839723E-01  5.26900359E-01  5.28742026E-01  5.96689522E-01
  8.92623986E-01  8.94094070E-01  8.95007151E-01  8.97772156E-01  1.07507259E+00
  1.07575798E+00  1.08561590E+00  1.08629169E+00  1.34278108E+00  1.36657301E+00
  1.62524828E+00  1.62822274E+00  1.62828471E+00  1.63098104E+00  2.17014704E+00
  2.17334110E+00  2.26571337E+00  2.33126304E+00  2.42722152E+00  2.44184718E+00
  2.45249034E+00  2.46667427E+00  2.89805230E+00  3.02379647E+00  2.32521326E+01
  2.32702118E+01
Beta Orbital Energies                      R   N=          56
 -1.09430020E+01 -1.09429988E+01 -9.60015261E-01 -9.58949176E-01 -6.32949141E-01
 -6.11944069E-01 -3.18479769E-01 -3.12030386E-01 -3.02691597E-01 -2.95463383E-01
 -1.29780577E-01 -1.13655957E-01 -7.25752294E-02 -6.51462697E-02 -6.11076970E-02
 -4.13078476E-02 -3.20866289E-02 -2.12386061E-02  1.14667859E-02  7.47867832E-02
  2.34339290E-01  3.10708550E-01  3.61216008E-01  3.63238512E-01  3.81143338E-01
  3.87428286E-01  3.89522347E-01  5.35385913E-01  5.52951564E-01  6.20419364E-01
  9.65271963E-01  9.67464071E-01  9.74351466E-01  9.76480705E-01  1.10801208E+00
  1.10802374E+00  1.10812117E+00  1.10813086E+00  1.34634097E+00  1.37098211E+00
  1.64293990E+00  1.64595126E+00  1.64957280E+00  1.65257953E+00  2.30921985E+00
  2.32477024E+00  2.33369936E+00  2.38797625E+00  2.45367141E+00  2.47728808E+00
  2.47792875E+00  2.50068415E+00  3.00241768E+00  3.11781733E+00  2.32653632E+01
  2.32834627E+01
Alpha MO coefficients                      R   N=        3136
  4.72078983E-01  3.88881540E-01 -1.64400066E-03 -6.42272344E-16 -2.95939603E-16
  8.17437192E-03 -1.22504981E-03  8.64070359E-16  1.73202339E-16 -4.02529753E-03
  5.11315124E-05 -5.70643714E-16  1.11331857E-16  2.77118955E-04  1.19895944E-03
  3.38575368E-16 -1.13761107E-16 -4.47608645E-04 -5.06643496E-17 -1.22653808E-05
  7.60457798E-04 -1.98802572E-17  3.08647814E-01  2.54259372E-01  1.05905143E-03
 -5.78984189E-17 -7.52496359E-17  5.28896762E-03  8.65494628E-04  1.86460862E-16
 -4.21235205E-18 -2.38967686E-03 -2.36292305E-05 -2.10257676E-16  8.39154541E-17
 -4.68001174E-04 -3.77991712E-04  1.71919713E-17 -1.29380472E-17 -2.98935621E-04
  4.20141884E-17 -6.54375025E-06  5.09866477E-04  2.29337057E-17  3.07262334E-04
 -2.56567122E-03  2.84910543E-03 -1.65672658E-03 -3.56959950E-17 -6.66746867E-17
  1.99730224E-04 -1.73964797E-03  1.81566724E-03  1.11106619E-03 -1.98520024E-17
 -3.84874083E-17 -3.08648607E-01 -2.54237267E-01  1.11426655E-03 -6.93125476E-16
  2.58578163E-16 -5.48317609E-03  6.40464078E-04  8.85632209E-16 -5.72018171E-16
  3.23525539E-03 -5.78941193E-05 -5.77137623E-16  4.82031889E-16 -1.79951789E-03
 -1.79586950E-03  3.30462674E-16 -2.72018038E-16  2.77084952E-04 -5.69014941E-17
  1.16963589E-05 -4.65781960E-04 -2.30256754E-17  4.72079495E-01  3.88867038E-01
  1.68010481E-03  6.26646452E-16  1.25440529E-17  8.30168049E-03  1.07830006E-03
 -7.83427045E-16 -6.11216120E-17 -4.57810066E-03 -7.35510827E-05  4.31045970E-16
  7.63932566E-17  1.75949384E-03 -2.12599814E-03 -2.32093115E-16  2.45172950E-17
 -4.33414461E-04  4.49672419E-17 -1.56329712E-05  7.31795736E-04 -1.60171485E-18
 -2.03697726E-04  1.52299277E-03 -1.98052089E-03  1.01398600E-03 -5.84162170E-17
 -7.97110422E-18  3.09785662E-04 -2.42452751E-03  2.95717011E-03  1.59354280E-03
  5.52398382E-17 -4.14585408E-17 -7.96668598E-02 -1.29923166E-01 -5.67315650E-02
  5.42145893E-16  1.01024981E-16  3.81471479E-01 -8.63013827E-02 -4.70849078E-16
 -1.38998327E-16  2.44369247E-01 -2.81221886E-02  3.06474722E-16  2.31065213E-16
 -1.94784155E-03 -5.57961968E-03 -2.76762210E-16 -2.37510404E-17 -4.10289838E-03
 -2.41777030E-16  4.64172008E-04  7.66839023E-03  1.18684602E-16 -7.98691863E-02
 -1.30252903E-01  5.68827867E-02  2.03483868E-17 -2.64335890E-16  3.82435719E-01
  8.65299230E-02 -3.47105025E-17  2.59622735E-16  2.45013318E-01  2.82134631E-02
  8.75783223E-18  3.65240175E-17 -2.01114541E-03  5.63874531E-03  5.15560347E-17
 -8.99567729E-17 -4.11465404E-03 -1.12933052E-16  4.64794829E-04  7.68950554E-03
  1.72796724E-16  9.95751412E-02  1.23781492E-01 -8.73900383E-03  1.70206182E-02
  1.38782963E-16 -2.42316276E-16  9.98352432E-02  1.24095583E-01 -8.78122267E-03
 -1.70629447E-02 -1.74106531E-16  1.23544513E-16 -7.96804309E-02 -1.29894531E-01
 -5.85335301E-02 -2.58920163E-16 -8.75995859E-17  3.80343184E-01 -8.90017443E-02
  3.39068146E-16  2.95688354E-16  2.55139974E-01 -3.58725584E-02  1.14235750E-16
  2.41149136E-18 -2.51827901E-02 -2.34730595E-02 -7.17668555E-17 -1.32672386E-16
 -4.53200470E-03 -2.55417870E-16  2.26555063E-04  8.12394809E-03  3.29735949E-17
  7.94767726E-02  1.29562307E-01 -5.83911819E-02  5.42009818E-16 -1.03183625E-16
 -3.79366471E-01 -8.87838974E-02 -6.67812455E-16  2.82418508E-16 -2.54511907E-01
 -3.58010918E-02  4.48357612E-16 -2.75321670E-16  2.51776980E-02 -2.34585831E-02
 -2.03868872E-16  1.46705939E-16  4.52179672E-03  9.79461796E-18 -2.25415289E-04
 -8.10488732E-03 -1.23580156E-16  1.00985407E-01  1.22681758E-01 -1.65896805E-02
  1.65391332E-02 -9.55498915E-17 -3.33174236E-16 -1.00734610E-01 -1.22367676E-01
  1.65675357E-02  1.64959074E-02  1.53608553E-16 -4.75492411E-17 -4.02802226E-02
 -6.71256682E-02  1.65195401E-01  6.46753021E-16  7.97700083E-17  2.06864739E-01
  2.44763638E-01  7.34239384E-16  6.35401909E-16  2.49466646E-01  1.43946344E-01
  5.35753044E-16  2.76825220E-17  1.85095466E-02 -8.07438782E-05 -3.03358901E-16
  1.31042856E-16  1.42394000E-02  1.43232412E-16  1.54066882E-04 -2.44767672E-02
 -1.15870442E-16 -4.02817647E-02 -6.71282800E-02 -1.65199121E-01 -1.61931943E-16
 -2.53302497E-16  2.06872525E-01 -2.44767946E-01  6.08821879E-17  2.65081204E-16
  2.49479693E-01 -1.43947245E-01 -7.63928878E-17 -1.89616706E-17  1.85100227E-02
  8.14702577E-05  2.41872504E-16 -1.99702825E-16  1.42398060E-02  9.01397833E-17
  1.54079244E-04 -2.44774554E-02 -3.04658875E-16 -9.39926479E-02 -1.63149703E-01
 -6.62860315E-02 -7.93572310E-03 -1.12609595E-16  1.87397922E-16 -9.39938896E-02
 -1.63151126E-01 -6.62880102E-02  7.93563345E-03  3.33946253E-16 -1.17413412E-16
  4.45692538E-02  7.43727879E-02 -1.70278333E-01 -2.60545176E-16 -8.76557791E-16
 -2.31802356E-01 -2.47025986E-01 -8.89860558E-16  3.55595888E-16 -2.63871194E-01
 -1.55972836E-01 -6.05769395E-16 -5.87737622E-16 -2.16422834E-02 -6.92751506E-03
  9.96541018E-17  2.50749540E-16 -1.57578994E-02 -8.04846778E-17  1.54508007E-04
  2.74804911E-02  5.60973090E-18 -4.45689930E-02 -7.43723976E-02 -1.70275462E-01
 -2.98522157E-16 -5.60850835E-16  2.31800857E-01 -2.47020500E-01  5.48407762E-16
  4.28990271E-16  2.63872785E-01 -1.55968570E-01  3.86103155E-17 -3.35898017E-16
  2.16425609E-02 -6.92734580E-03 -3.32704491E-17  3.12908401E-17  1.57577233E-02
 -1.73592346E-17 -1.54488985E-04 -2.74801630E-02  1.88130299E-16  9.59564329E-02
  1.68486825E-01  6.15529572E-02  7.37638309E-03  1.02858924E-17 -1.52809101E-16
 -9.59538736E-02 -1.68481230E-01 -6.15512667E-02  7.37598768E-03 -2.26780914E-16
  2.51272096E-17  5.56200511E-17  4.18089580E-17 -2.83635024E-16  1.01487220E-01
  1.80066295E-01  3.21445597E-16  1.56486052E-16  1.59517691E-01  2.83027759E-01
 -2.18185358E-15 -5.50499519E-16  1.45978832E-01  2.59006505E-01  2.87441459E-15
  7.83432607E-16  1.05272269E-02  1.86778518E-02  2.88800263E-16 -1.38912683E-02
  8.14115631E-17 -1.20521462E-16 -7.82932941E-03 -4.58149100E-17 -1.43291789E-16
 -2.49648866E-16  1.01487626E-01  1.80067019E-01  8.34634506E-16  3.24331249E-16
  1.59518453E-01  2.83029117E-01 -1.20432548E-15 -1.92075750E-15  1.45979569E-01
  2.59007819E-01 -3.79662326E-15  1.48121262E-15  1.05272901E-02  1.86779643E-02
 -1.12400628E-17  1.38916879E-02  2.16068102E-16  9.28364572E-17  7.82956585E-03
  4.01027912E-17  1.54259208E-15 -1.39859682E-15  3.06840923E-16  7.52367832E-03
  1.33490484E-02  5.91055410E-17 -7.65048944E-16  4.24976124E-15  1.18508601E-16
  7.52386547E-03  1.33493807E-02  1.02794539E-16  1.79646412E-16 -1.76954810E-16
  1.02624501E-01  1.82084869E-01 -7.15248096E-16 -3.76293073E-16  1.61750991E-01
  2.86991391E-01 -8.52426166E-16  4.12746801E-16  1.45687863E-01  2.58491328E-01
 -1.35501146E-15  2.10914575E-15  1.52860326E-02  2.71214247E-02  3.16585880E-16
 -1.79062297E-02 -4.47129194E-17  1.82346077E-16 -1.00921680E-02  1.09885363E-17
  4.54273779E-17  3.63945460E-17 -1.02623870E-01 -1.82083753E-01 -4.65379634E-16
 -8.02586217E-17 -1.61750112E-01 -2.86989838E-01  1.84911466E-15  6.26095114E-16
 -1.45687130E-01 -2.58490031E-01  4.72804249E-16  2.49834985E-15 -1.52859557E-02
 -2.71212886E-02  2.34371715E-16 -1.79064763E-02  1.35314456E-17  4.48690088E-17
 -1.00923069E-02  1.29124224E-16  2.96058614E-16  3.19292144E-15  9.56073804E-17
  8.32860861E-03  1.47772714E-02 -4.49550040E-18  2.90121781E-16 -3.50940806E-15
 -9.73326782E-17 -8.32870937E-03 -1.47774505E-02  9.43017390E-18 -1.85117804E-17
  8.50134763E-17  1.68491083E-01 -9.49635908E-02  9.04427642E-16 -1.74644804E-16
  2.71743581E-01 -1.53157613E-01 -3.96178968E-15  1.33291811E-15  2.62365048E-01
 -1.47872009E-01 -2.50270682E-15  1.37899429E-15  4.60833746E-02 -2.59728553E-02
 -4.74054852E-17  7.87410771E-03 -3.73776890E-18  9.84874985E-18 -1.39709310E-02
 -5.33596147E-18  6.36601959E-18  1.67158708E-16  1.68461806E-01 -9.49470883E-02
  1.14350835E-16  6.86353432E-17  2.71696319E-01 -1.53130973E-01 -8.27659230E-16
 -7.42500172E-17  2.62320688E-01 -1.47847004E-01  3.46277738E-16 -2.27791192E-16
  4.60743740E-02 -2.59677820E-02  1.56853105E-19 -7.87274427E-03 -4.85235325E-17
 -1.30820434E-16  1.39685122E-02  2.47925588E-16 -6.22263389E-17  6.00859355E-15
 -3.60991960E-17  1.45339606E-02 -8.19149622E-03 -3.23016580E-17  5.39139671E-17
  3.86153427E-16 -2.04457060E-16  1.45316582E-02 -8.19019845E-03 -7.16526280E-17
 -1.16473587E-16  9.05087788E-17 -1.72022143E-01  9.69533076E-02  2.77236770E-16
  5.86999942E-16 -2.78153223E-01  1.56769466E-01  5.60661526E-16 -3.95640907E-16
 -2.64300143E-01  1.48962017E-01  2.87797115E-15  5.67675690E-16 -5.53416355E-02
  3.11908483E-02  3.03969853E-16 -8.85098827E-03  2.42218491E-16 -3.03919822E-17
  1.57042525E-02  5.12336701E-17  1.13872495E-16  1.09938255E-16  1.72050236E-01
 -9.69691395E-02 -1.03185400E-15 -2.21553050E-16  2.78198601E-01 -1.56795039E-01
  2.78078929E-15  7.82726779E-16  2.64344554E-01 -1.48987045E-01 -1.33486643E-15
  1.94693256E-15  5.53497199E-02 -3.11954042E-02 -1.47871191E-16 -8.85243965E-03
 -1.66207785E-16 -8.05937559E-17  1.57068280E-02 -1.66902000E-16 -2.65565442E-17
 -1.96974715E-15  1.76608230E-16 -1.51526795E-02  8.54017413E-03  7.29367585E-18
  3.09474485E-16 -2.51250742E-15 -2.28041559E-17  1.51553756E-02 -8.54169355E-03
  2.96254125E-02  5.03555443E-02  3.08469309E-02 -2.71497772E-17 -8.28976662E-17
 -1.60657553E-01  7.88040860E-02 -3.74775986E-16  2.96852112E-16 -4.94664625E-01
  8.74432215E-02 -1.68793514E-16  3.94233383E-16  9.77951217E-01 -3.31983343E-01
  1.17543396E-15 -6.80872934E-16  5.40159713E-03  2.59891520E-16  1.79252476E-03
 -7.18562474E-03  2.69631385E-16  2.96232040E-02  5.03518678E-02 -3.08370203E-02
  2.53552830E-17  2.84904198E-18 -1.60645728E-01 -7.87901735E-02 -1.11313494E-18
  5.08649173E-17 -4.94633340E-01 -8.74172661E-02 -6.28378067E-16 -5.05708776E-16
  9.77931537E-01  3.31901462E-01  5.73632990E-16  8.21853104E-16  5.40158995E-03
 -1.89548048E-16  1.79241809E-03 -7.18574126E-03  1.48233619E-17  3.09244515E-03
  1.50366707E-01 -1.52540377E-01 -3.17429404E-03  5.13962071E-17 -9.05631975E-17
  3.09035753E-03  1.50353640E-01 -1.52543991E-01  3.17168145E-03  3.12363354E-16
  4.49720670E-16 -2.02053909E-02 -3.51489557E-02 -6.10614148E-02  1.41756739E-16
 -2.53173461E-16  1.29268360E-01 -1.09137100E-01 -5.69410126E-16  6.72688683E-17
  2.24731320E-01 -1.33926058E-01 -8.18323438E-17 -3.80505242E-16 -3.85593257E-01
  9.29646138E-01  3.39566575E-16 -3.79686032E-16 -5.82649936E-03 -6.28726892E-17
 -1.14896380E-03  8.70077030E-03 -2.05732579E-16  2.02077542E-02  3.51530730E-02
 -6.10601188E-02 -2.11006266E-17 -6.74769005E-17 -1.29282906E-01 -1.09140106E-01
 -1.36351167E-16 -1.69474952E-16 -2.24761501E-01 -1.33914474E-01  2.04632145E-16
 -7.90382290E-17  3.85707906E-01  9.29683028E-01  7.42282537E-17  5.63592455E-16
  5.82751242E-03 -1.27039189E-16  1.14915246E-03 -8.70229644E-03 -3.56829691E-16
  6.88169855E-03 -1.14990682E-01  2.65596905E-01  1.24244607E-02  4.54299244E-16
  2.81601164E-16 -6.88479145E-03  1.14997504E-01 -2.65647535E-01  1.24237555E-02
 -7.45792390E-17 -5.64495107E-17 -1.64244900E-17 -2.59261820E-17 -1.45236230E-16
 -7.91211898E-02  4.45908549E-02  1.06466603E-16 -8.45238354E-17 -9.31505920E-02
  5.24977877E-02 -1.81803145E-17 -8.75981372E-16 -2.63034837E-01  1.48239702E-01
  3.37054310E-15  1.95205465E-15  6.29031159E-01 -3.54504919E-01  1.78175505E-16
 -5.33866758E-03  2.55801859E-16  5.69941521E-17  9.47278278E-03 -4.35555919E-17
 -4.98298031E-17  2.35061817E-20 -7.91203125E-02  4.45903603E-02  1.36870906E-17
  1.86102824E-16 -9.31496194E-02  5.24972393E-02  1.73380396E-15 -2.22412077E-16
 -2.63032235E-01  1.48238235E-01 -3.81140921E-15  1.75716420E-15  6.29020688E-01
 -3.54499016E-01 -1.51590369E-16  5.33876467E-03 -2.45770600E-16 -2.03111655E-17
 -9.47295511E-03 -8.43646510E-17 -1.23285430E-16 -1.69867575E-15  5.85013327E-17
 -3.66676564E-04  2.06687225E-04  8.54403929E-18 -1.23874270E-16 -1.51909178E-16
  4.24143451E-17 -3.67010424E-04  2.06875387E-04 -1.26672755E-18 -1.22517938E-17
  1.36945010E-16 -4.10670027E-02 -7.28694613E-02  1.70727443E-16 -5.05161382E-17
 -4.24152857E-02 -7.52624579E-02 -1.47420319E-15  1.27262423E-15 -1.40132733E-01
 -2.48651056E-01 -2.29284718E-15  1.65554842E-15  3.55397635E-01  6.30614797E-01
 -3.62810095E-17  8.92049748E-03 -6.49370457E-17  2.82146355E-17  5.02728635E-03
 -1.12737246E-17 -1.90010378E-17  1.25731756E-16 -4.10664983E-02 -7.28685660E-02
  7.45450312E-18  2.01453460E-16 -4.24148103E-02 -7.52616136E-02  9.93911615E-16
  1.05627061E-15 -1.40131193E-01 -2.48648323E-01  1.51880609E-16 -1.73263597E-16
  3.55392057E-01  6.30604897E-01 -1.58701658E-17 -8.92067350E-03  4.51591710E-17
  8.06535442E-17 -5.02738559E-03  1.22778710E-16 -1.65881051E-16  4.32297333E-15
 -2.56167581E-17  5.28474690E-04  9.37655672E-04 -2.65917382E-17 -3.78596553E-16
 -1.65075374E-15  6.89730744E-17  5.28291020E-04  9.37329756E-04 -9.67732566E-03
 -1.63309004E-02  9.83002768E-02  1.95508488E-16 -4.15196168E-16  5.73793236E-02
  9.58804933E-02 -1.86130259E-16  1.31550373E-16  1.25378941E-02  5.34423976E-01
  1.91600328E-15 -1.58903402E-15 -3.55885386E-01 -6.37357209E-01 -5.94170169E-15
  1.50972167E-15  2.58622890E-03  3.46958134E-16 -1.12629575E-03 -5.84310121E-03
  5.05792014E-16 -9.67728199E-03 -1.63308210E-02 -9.82950122E-02 -8.76941787E-16
 -3.36066048E-16  5.73785606E-02 -9.58737740E-02 -1.35251520E-15 -4.67972150E-17
  1.25356825E-02 -5.34404187E-01 -1.04325341E-15  3.35398375E-16 -3.55818054E-01
  6.37360391E-01  6.17412708E-15 -1.10099100E-15  2.58694218E-03  4.88233831E-17
 -1.12621839E-03 -5.84424299E-03 -2.22090863E-17 -1.79261077E-03  9.41956777E-02
  4.76138403E-01 -1.31062627E-02 -9.27195085E-17 -1.17740909E-16 -1.79734634E-03
  9.41896543E-02  4.76089117E-01  1.31057366E-02  3.76547747E-16  4.26225126E-16
  5.45382517E-17  9.12635593E-17 -5.01897117E-16  7.35667560E-02 -4.14626719E-02
 -2.84754817E-16 -3.48304172E-16  8.19844324E-02 -4.62070171E-02  7.49605753E-17
 -2.88443438E-15  2.80536598E-01 -1.58111623E-01 -3.77170849E-17  2.10992139E-15
 -9.33246512E-01  5.25982559E-01  1.34562466E-16  2.27923852E-04  2.14300961E-16