Title Card Required                                                     
FOpt      UM062X                                                      6-311+G(d,p)        
Number of atoms                            I                6
Info1-9                                    I   N=           9
          15          15           0           0           0         110
           2          18        -502
Full Title                                 C   N=           2
Title Card Required     
Route                                      C   N=           5
#p opt UM062X/6-311+G** nosymm int=superfine SCF=NoVarAcc   
Charge                                     I                1
Multiplicity                               I                2
Number of electrons                        I               15
Number of alpha electrons                  I                8
Number of beta electrons                   I                7
Number of basis functions                  I               68
Number of independent functions            I               68
Number of point charges in /Mol/           I                0
Number of translation vectors              I                0
Atomic numbers                             I   N=           6
           6           6           1           1           1           1
Nuclear charges                            R   N=           6
  6.00000000E+00  6.00000000E+00  1.00000000E+00  1.00000000E+00  1.00000000E+00
  1.00000000E+00
Current cartesian coordinates              R   N=          18
 -3.36565325E+00  0.00000000E+00  0.00000000E+00  3.36565325E+00  0.00000000E+00
  0.00000000E+00 -4.42014492E+00 -1.78093459E+00  1.24829397E-08 -4.42004377E+00
  1.78099375E+00  1.25922237E-08  4.42014494E+00  1.78093459E+00  3.97664403E-09
  4.42004379E+00 -1.78099376E+00  4.08588406E-09
Number of symbols in /Mol/                 I                0
Force Field                                I                0
Atom Types                                 C   N=           6
                                                            
            
Int Atom Types                             I   N=           6
           0           0           0           0           0           0
MM charges                                 R   N=           6
  0.00000000E+00  0.00000000E+00  0.00000000E+00  0.00000000E+00  0.00000000E+00
  0.00000000E+00
Integer atomic weights                     I   N=           6
          12          12           1           1           1           1
Real atomic weights                        R   N=           6
  1.20000000E+01  1.20000000E+01  1.00782504E+00  1.00782504E+00  1.00782504E+00
  1.00782504E+00
Atom fragment info                         I   N=           6
           0           0           0           0           0           0
Atom residue num                           I   N=           6
           0           0           0           0           0           0
Nuclear spins                              I   N=           6
           0           0           1           1           1           1
Nuclear ZEff                               R   N=           6
 -3.60000000E+00 -3.60000000E+00 -1.00000000E+00 -1.00000000E+00 -1.00000000E+00
 -1.00000000E+00
Nuclear ZNuc                               R   N=           6
  6.00000000E+00  6.00000000E+00  1.00000000E+00  1.00000000E+00  1.00000000E+00
  1.00000000E+00
Nuclear QMom                               R   N=           6
  0.00000000E+00  0.00000000E+00  0.00000000E+00  0.00000000E+00  0.00000000E+00
  0.00000000E+00
Nuclear GFac                               R   N=           6
  0.00000000E+00  0.00000000E+00  2.79284600E+00  2.79284600E+00  2.79284600E+00
  2.79284600E+00
MicOpt                                     I   N=           6
          -2          -2          -1          -1          -1          -1
Number of residues                         I                0
Number of secondary structures             I                0
Redundant internal dimensions              I   N=           4
          20          10           6           4
Redundant internal coordinate indices      I   N=          80
           1          -1           0           0           1          -2
           0           0           1          -3           0           0
           2          -1           0           0           2          -2
           0           0           2          -3           0           0
           1           3           0           0           1           4
           0           0           2           5           0           0
           2           6           0           0           2           1
           3           0           2           1           4           0
           3           1           4           0           1           2
           5           0           1           2           6           0
           5           2           6           0           3           1
           2           5           3           1           2           6
           4           1           2           5           4           1
           2           6
Redundant internal coordinates             R   N=          20
 -3.36565325E+00  0.00000000E+00  0.00000000E+00  3.36565325E+00  0.00000000E+00
  0.00000000E+00  2.06970546E+00  2.06970484E+00  2.06970547E+00  2.06970485E+00
  2.10538688E+00  2.10533026E+00  2.07246817E+00  2.10538688E+00  2.10533027E+00
  2.07246816E+00 -3.14159264E+00  0.00000000E+00 -0.00000000E+00  3.14159265E+00
ZRed-IntVec                                I   N=          20
          -1          -1          -1          -1          -1          -1
           0           0           0           0           0           0
           0           0           0           0           0           0
           0           0
ZRed-FPVec                                 R   N=          20
  0.00000000E+00  0.00000000E+00  0.00000000E+00  0.00000000E+00  0.00000000E+00
  0.00000000E+00  0.00000000E+00  0.00000000E+00  0.00000000E+00  0.00000000E+00
  0.00000000E+00  0.00000000E+00  0.00000000E+00  0.00000000E+00  0.00000000E+00
  0.00000000E+00  0.00000000E+00  0.00000000E+00  0.00000000E+00  0.00000000E+00
ZRed-Constraint1                           R   N=          20
 -3.36565325E+00  0.00000000E+00  0.00000000E+00  3.36565325E+00  0.00000000E+00
  0.00000000E+00  2.05067934E+00  2.05048469E+00  2.05067934E+00  2.05048469E+00
  1.98162443E+00  1.98155420E+00  2.32000667E+00  1.98162443E+00  1.98155420E+00
  2.32000667E+00  3.14159265E+00  0.00000000E+00  0.00000000E+00  3.14159265E+00
ZRed-Constraint2                           R   N=          20
 -3.36565325E+00  0.00000000E+00  0.00000000E+00  3.36565325E+00  0.00000000E+00
  0.00000000E+00  0.00000000E+00  0.00000000E+00  0.00000000E+00  0.00000000E+00
  0.00000000E+00  0.00000000E+00  0.00000000E+00  0.00000000E+00  0.00000000E+00
  0.00000000E+00  0.00000000E+00  0.00000000E+00  0.00000000E+00  0.00000000E+00
Number of contracted shells                I               28
Number of primitive shells                 I               50
Pure/Cartesian d shells                    I                0
Pure/Cartesian f shells                    I                0
Highest angular momentum                   I                2
Largest degree of contraction              I                6
Shell types                                I   N=          28
           0          -1          -1          -1          -1          -2
           0          -1          -1          -1          -1          -2
           0           0           0           1           0           0
           0           1           0           0           0           1
           0           0           0           1
Number of primitives per shell             I   N=          28
           6           3           1           1           1           1
           6           3           1           1           1           1
           3           1           1           1           3           1
           1           1           3           1           1           1
           3           1           1           1
Shell to atom map                          I   N=          28
           1           1           1           1           1           1
           2           2           2           2           2           2
           3           3           3           3           4           4
           4           4           5           5           5           5
           6           6           6           6
Primitive exponents                        R   N=          50
  4.56324000E+03  6.82024000E+02  1.54973000E+02  4.44553000E+01  1.30290000E+01
  1.82773000E+00  2.09642000E+01  4.80331000E+00  1.45933000E+00  4.83456000E-01
  1.45585000E-01  4.38000000E-02  6.26000000E-01  4.56324000E+03  6.82024000E+02
  1.54973000E+02  4.44553000E+01  1.30290000E+01  1.82773000E+00  2.09642000E+01
  4.80331000E+00  1.45933000E+00  4.83456000E-01  1.45585000E-01  4.38000000E-02
  6.26000000E-01  3.38650000E+01  5.09479000E+00  1.15879000E+00  3.25840000E-01
  1.02741000E-01  7.50000000E-01  3.38650000E+01  5.09479000E+00  1.15879000E+00
  3.25840000E-01  1.02741000E-01  7.50000000E-01  3.38650000E+01  5.09479000E+00
  1.15879000E+00  3.25840000E-01  1.02741000E-01  7.50000000E-01  3.38650000E+01
  5.09479000E+00  1.15879000E+00  3.25840000E-01  1.02741000E-01  7.50000000E-01
Contraction coefficients                   R   N=          50
  1.96665025E-03  1.52306019E-02  7.61269097E-02  2.60801033E-01  6.16462078E-01
  2.21006028E-01  1.14660081E-01  9.19999648E-01 -3.03068213E-03  1.00000000E+00
  1.00000000E+00  1.00000000E+00  1.00000000E+00  1.96665025E-03  1.52306019E-02
  7.61269097E-02  2.60801033E-01  6.16462078E-01  2.21006028E-01  1.14660081E-01
  9.19999648E-01 -3.03068213E-03  1.00000000E+00  1.00000000E+00  1.00000000E+00
  1.00000000E+00  2.54938145E-02  1.90373109E-01  8.52161486E-01  1.00000000E+00
  1.00000000E+00  1.00000000E+00  2.54938145E-02  1.90373109E-01  8.52161486E-01
  1.00000000E+00  1.00000000E+00  1.00000000E+00  2.54938145E-02  1.90373109E-01
  8.52161486E-01  1.00000000E+00  1.00000000E+00  1.00000000E+00  2.54938145E-02
  1.90373109E-01  8.52161486E-01  1.00000000E+00  1.00000000E+00  1.00000000E+00
P(S=P) Contraction coefficients            R   N=          50
  0.00000000E+00  0.00000000E+00  0.00000000E+00  0.00000000E+00  0.00000000E+00
  0.00000000E+00  4.02486927E-02  2.37593957E-01  8.15853851E-01  1.00000000E+00
  1.00000000E+00  1.00000000E+00  0.00000000E+00  0.00000000E+00  0.00000000E+00
  0.00000000E+00  0.00000000E+00  0.00000000E+00  0.00000000E+00  4.02486927E-02
  2.37593957E-01  8.15853851E-01  1.00000000E+00  1.00000000E+00  1.00000000E+00
  0.00000000E+00  0.00000000E+00  0.00000000E+00  0.00000000E+00  0.00000000E+00
  0.00000000E+00  0.00000000E+00  0.00000000E+00  0.00000000E+00  0.00000000E+00
  0.00000000E+00  0.00000000E+00  0.00000000E+00  0.00000000E+00  0.00000000E+00
  0.00000000E+00  0.00000000E+00  0.00000000E+00  0.00000000E+00  0.00000000E+00
  0.00000000E+00  0.00000000E+00  0.00000000E+00  0.00000000E+00  0.00000000E+00
Coordinates of each shell                  R   N=          84
 -3.36565325E+00  0.00000000E+00  0.00000000E+00 -3.36565325E+00  0.00000000E+00
  0.00000000E+00 -3.36565325E+00  0.00000000E+00  0.00000000E+00 -3.36565325E+00
  0.00000000E+00  0.00000000E+00 -3.36565325E+00  0.00000000E+00  0.00000000E+00
 -3.36565325E+00  0.00000000E+00  0.00000000E+00  3.36565325E+00  0.00000000E+00
  0.00000000E+00  3.36565325E+00  0.00000000E+00  0.00000000E+00  3.36565325E+00
  0.00000000E+00  0.00000000E+00  3.36565325E+00  0.00000000E+00  0.00000000E+00
  3.36565325E+00  0.00000000E+00  0.00000000E+00  3.36565325E+00  0.00000000E+00
  0.00000000E+00 -4.42014492E+00 -1.78093459E+00  1.24829397E-08 -4.42014492E+00
 -1.78093459E+00  1.24829397E-08 -4.42014492E+00 -1.78093459E+00  1.24829397E-08
 -4.42014492E+00 -1.78093459E+00  1.24829397E-08 -4.42004377E+00  1.78099375E+00
  1.25922237E-08 -4.42004377E+00  1.78099375E+00  1.25922237E-08 -4.42004377E+00
  1.78099375E+00  1.25922237E-08 -4.42004377E+00  1.78099375E+00  1.25922237E-08
  4.42014494E+00  1.78093459E+00  3.97664403E-09  4.42014494E+00  1.78093459E+00
  3.97664403E-09  4.42014494E+00  1.78093459E+00  3.97664403E-09  4.42014494E+00
  1.78093459E+00  3.97664403E-09  4.42004379E+00 -1.78099376E+00  4.08588406E-09
  4.42004379E+00 -1.78099376E+00  4.08588406E-09  4.42004379E+00 -1.78099376E+00
  4.08588406E-09  4.42004379E+00 -1.78099376E+00  4.08588406E-09
Num ILSW                                   I              100
ILSW                                       I   N=         100
           1           0           0           1           2           0
           0           0           0           0        4336          -1
           7           0           0           0           2           0
           0           0           0           0           1           0
           1           1           0           0           0           0
           0           0      100000           0          -1           0
           0           0           0           0           0           0
           0           0           0           1           0           0
           0 -2000000000           1           0           0           0
           0           0           4          52           0           0
           0           0          55           0           0           0
           0           0           0           6           0           1
           0           0           0           0           0           0
           0           0           0           0           0           0
           0           0           0           0           0           0
           0           0           0           0           0           0
           0           0           0           0
Num RLSW                                   I               52
RLSW                                       R   N=          52
  1.00000000E+00  1.00000000E+00  1.00000000E+00  1.00000000E+00  5.40000000E-01
  0.00000000E+00  0.00000000E+00  1.00000000E+00  0.00000000E+00  0.00000000E+00
  0.00000000E+00  0.00000000E+00  1.00000000E+00  0.00000000E+00  0.00000000E+00
  0.00000000E+00  0.00000000E+00  1.00000000E+00  0.00000000E+00  0.00000000E+00
  0.00000000E+00  0.00000000E+00  1.00000000E+00  0.00000000E+00  0.00000000E+00
  0.00000000E+00  0.00000000E+00  1.00000000E+00  0.00000000E+00  0.00000000E+00
  0.00000000E+00  0.00000000E+00  1.00000000E+00  0.00000000E+00  0.00000000E+00
  0.00000000E+00  0.00000000E+00  0.00000000E+00  1.00000000E+00  1.00000000E+00
  0.00000000E+00  1.00000000E+00  0.00000000E+00  0.00000000E+00  0.00000000E+00
  0.00000000E+00  0.00000000E+00  0.00000000E+00  0.00000000E+00  0.00000000E+00
  0.00000000E+00  0.00000000E+00
MxBond                                     I                3
NBond                                      I   N=           6
           3           3           1           1           1           1
IBond                                      I   N=          18
           2           3           4           1           5           6
           1           0           0           1           0           0
           2           0           0           2           0           0
RBond                                      R   N=          18
  1.00000000E-01  1.00000000E+00  1.00000000E+00  1.00000000E-01  1.00000000E+00
  1.00000000E+00  1.00000000E+00  0.00000000E+00  0.00000000E+00  1.00000000E+00
  0.00000000E+00  0.00000000E+00  1.00000000E+00  0.00000000E+00  0.00000000E+00
  1.00000000E+00  0.00000000E+00  0.00000000E+00
Virial Ratio                               R      2.004589789615926E+00
SCF Energy                                 R     -7.791577815795418E+01
Total Energy                               R     -7.791577815795418E+01
S**2                                       R      7.636215410629177E-01
S**2 after annihilation                    R      7.500172666846214E-01
RMS Force                                  R      7.067004019217426E-06
RMS Density                                R      5.070799031192580E-09
Job Status                                 I                1
Nuclear derivative order                   I                1
External E-field                           R   N=          35
  0.00000000E+00  0.00000000E+00  0.00000000E+00  0.00000000E+00  0.00000000E+00
  0.00000000E+00  0.00000000E+00  0.00000000E+00  0.00000000E+00  0.00000000E+00
  0.00000000E+00  0.00000000E+00  0.00000000E+00  0.00000000E+00  0.00000000E+00
  0.00000000E+00  0.00000000E+00  0.00000000E+00  0.00000000E+00  0.00000000E+00
  0.00000000E+00  0.00000000E+00  0.00000000E+00  0.00000000E+00  0.00000000E+00
  0.00000000E+00  0.00000000E+00  0.00000000E+00  0.00000000E+00  0.00000000E+00
  0.00000000E+00  0.00000000E+00  0.00000000E+00  0.00000000E+00  0.00000000E+00
IOpCl                                      I                1
IROHF                                      I                0
Alpha Orbital Energies                     R   N=          68
 -1.08893037E+01 -1.08893012E+01 -1.00219692E+00 -1.00063710E+00 -7.48768872E-01
 -7.47954870E-01 -5.90753690E-01 -5.64951069E-01 -3.22529097E-01 -3.16444111E-01
 -1.29279721E-01 -1.09191436E-01 -9.38466370E-02 -7.38879446E-02 -6.62895289E-02
 -5.37955366E-02 -4.38736829E-02 -1.73808406E-02 -6.92771802E-03  3.15551796E-04
  2.06834713E-02  6.29447971E-02  2.64693853E-01  2.73632037E-01  2.74828528E-01
  2.82140357E-01  3.38803206E-01  3.73379298E-01  3.97244459E-01  4.14335038E-01
  4.58749480E-01  4.87414923E-01  5.00345791E-01  5.57729465E-01  8.46060575E-01
  8.46063528E-01  9.31005088E-01  9.87019768E-01  9.90573825E-01  9.90952585E-01
  1.21080435E+00  1.24198826E+00  1.30137522E+00  1.30601815E+00  1.48285326E+00
  1.49252982E+00  1.57383209E+00  1.57477120E+00  1.71792624E+00  1.71793766E+00
  1.82146050E+00  1.83765264E+00  2.17134350E+00  2.20635861E+00  2.24560007E+00
  2.27940564E+00  2.28421986E+00  2.29030915E+00  2.41265685E+00  2.41452699E+00
  2.48441924E+00  2.50635430E+00  2.67195774E+00  2.76723095E+00  3.45679414E+00
  3.46640366E+00  2.35043822E+01  2.35093535E+01
Beta Orbital Energies                      R   N=          68
 -1.08810371E+01 -1.08810241E+01 -9.80215922E-01 -9.77253673E-01 -7.38453331E-01
 -7.37470424E-01 -4.84017878E-01 -3.52242684E-01 -3.03953066E-01 -2.96238580E-01
 -1.27301125E-01 -1.10093089E-01 -9.21991815E-02 -7.17140879E-02 -6.65271155E-02
 -4.58275717E-02 -3.82054042E-02 -1.45995887E-02 -6.73665562E-04  4.30185307E-03
  2.14767681E-02  7.04926049E-02  2.58086853E-01  2.72380936E-01  2.75715325E-01
  2.83693763E-01  3.60934325E-01  3.75079496E-01  4.02577535E-01  4.29897554E-01
  4.74189064E-01  5.00058852E-01  5.12609336E-01  5.76219460E-01  8.62350951E-01
  8.62362143E-01  9.59022477E-01  1.00772964E+00  1.01245116E+00  1.01843868E+00
  1.22468085E+00  1.25713484E+00  1.31532373E+00  1.32074441E+00  1.49617206E+00
  1.50644625E+00  1.58051923E+00  1.58181898E+00  1.72694296E+00  1.72698624E+00
  1.83628387E+00  1.85240168E+00  2.18663061E+00  2.22328727E+00  2.26795707E+00
  2.30634697E+00  2.31631895E+00  2.32591794E+00  2.43143093E+00  2.43248600E+00
  2.50058824E+00  2.52324612E+00  2.71696004E+00  2.81083143E+00  3.49456850E+00
  3.50392842E+00  2.35110181E+01  2.35160018E+01
Alpha MO coefficients                      R   N=        4624
  4.21490790E-01  3.46685623E-01 -5.28742131E-04  1.42355705E-08  9.41548527E-14
  8.41870553E-03 -1.39529424E-03  4.24382270E-08  2.00312088E-11 -2.76100874E-03
 -2.72794283E-05 -7.52018128E-09 -2.00469990E-12 -1.47460533E-04  7.13237090E-04
 -1.17663757E-08 -5.51332143E-12 -8.41288652E-04 -9.38011256E-12  7.84644930E-14
 -6.79946217E-04  3.89321654E-08 -3.75043141E-01 -3.08480651E-01 -4.75084339E-04
  1.25376657E-08  3.94667050E-13 -7.49537154E-03 -1.22464322E-03  3.80825593E-08
 -5.83565628E-12  2.46166230E-03 -4.90201179E-05 -9.23309940E-09  4.13695682E-13
  7.94835042E-05  6.63636380E-04 -1.32089402E-08  2.51974114E-12  7.48327695E-04
 -2.71217089E-12  6.87621339E-14  6.03878554E-04 -3.48218581E-08  2.32904305E-04
 -2.23437644E-03  1.70020046E-03 -7.54588019E-04 -1.21997458E-03  8.67620168E-12
  2.32902073E-04 -2.23437062E-03  1.70020317E-03 -7.54517775E-04  1.22001812E-03
  8.74301870E-12 -2.08388043E-04  1.99020130E-03 -1.50638794E-03 -6.68673896E-04
 -1.08466251E-03 -2.45109222E-12 -2.08386035E-04  1.99019583E-03 -1.50639900E-03
 -6.68610920E-04  1.08470101E-03 -2.51056980E-12  3.75043787E-01  3.08488284E-01
 -4.30828469E-04  1.37783174E-08  4.70259109E-14  7.45318772E-03 -1.38686670E-03
  3.50003669E-08  1.81763894E-11 -2.41449128E-03  1.88640437E-04  1.51760735E-08
 -2.38398755E-12 -5.76255468E-04  3.85160071E-04  1.30975609E-08 -4.40394997E-12
 -7.50751599E-04 -8.24427361E-12  6.96752590E-14 -6.14814961E-04  3.30935664E-08
  4.21491365E-01  3.46692415E-01  4.89364323E-04 -1.53395414E-08 -5.16137994E-13
  8.38117225E-03  1.53964056E-03 -3.96957200E-08  6.87708132E-12 -2.71903673E-03
 -1.84191075E-04 -1.41991624E-08 -1.08215342E-12 -5.89488826E-04 -4.65448666E-04
 -1.16411942E-08 -7.46770920E-13 -8.43445536E-04  2.90430535E-12 -7.86063135E-14
 -6.89677549E-04  3.73943110E-08  1.97349717E-04 -1.97052016E-03  1.56836419E-03
 -6.95178552E-04 -1.09304613E-03  7.83516769E-12  1.97347915E-04 -1.97051747E-03
  1.56829214E-03 -6.95120118E-04  1.09308694E-03  7.89571920E-12  2.23082433E-04
 -2.21686431E-03  1.75534722E-03  7.78172020E-04  1.22743444E-03  2.75524061E-12
  2.23080384E-04 -2.21686097E-03  1.75527597E-03  7.78105817E-04 -1.22748003E-03
  2.82290420E-12 -7.95269841E-02 -1.29012003E-01 -3.31149315E-02  9.47471937E-07
  3.90119989E-10  3.65078980E-01 -4.74584528E-02  1.37362037E-06  5.32633374E-10
  2.32498353E-01 -1.89826235E-02  4.28607400E-07  2.45681502E-10  2.23655408E-03
 -3.20114832E-03 -1.22454190E-07  3.94850647E-11 -5.19993192E-03 -6.98385895E-11
  1.43822461E-13 -3.51350771E-03  1.96493741E-07 -7.95197801E-02 -1.29000317E-01
  3.31118391E-02 -9.47386452E-07  1.31582099E-10  3.65045903E-01  4.74538713E-02
 -1.37349521E-06  1.80871698E-10  2.32477235E-01  1.89809492E-02 -4.28569785E-07
  9.95843332E-11  2.23750663E-03  3.20028398E-03  1.22454280E-07 -7.51191607E-12
 -5.19946557E-03  1.86313956E-11 -1.42227156E-13 -3.51315252E-03  1.96475180E-07
  7.71953877E-02  9.17929491E-02 -5.18387254E-03  5.57244490E-03  1.31937037E-02
 -6.68589167E-11  7.71954055E-02  9.17928393E-02 -5.18324221E-03  5.57171111E-03
 -1.31940059E-02 -6.75274445E-11  7.71883563E-02  9.17846197E-02 -5.18361495E-03
 -5.57194938E-03 -1.31925158E-02 -2.11911148E-11  7.71883741E-02  9.17845098E-02
 -5.18298466E-03 -5.57121565E-03  1.31928180E-02 -2.18567726E-11  7.95360242E-02
  1.29014826E-01  3.42209112E-02 -9.50995400E-07 -3.95297196E-10 -3.64922689E-01
  5.07101206E-02 -1.39186826E-06 -5.45134297E-10 -2.33449006E-01  1.85905563E-02
 -4.21728481E-07 -2.34692650E-10  1.04873266E-02  9.54189417E-03 -1.21168058E-09
 -4.13057227E-11  5.14299039E-03  7.24784008E-11 -1.54053993E-13  3.91922935E-03
 -2.04179838E-07 -7.95432173E-02 -1.29026495E-01  3.42239117E-02 -9.51081749E-07
  1.33112932E-10  3.64955686E-01  5.07144222E-02 -1.39199343E-06  1.84802747E-10
  2.33470063E-01  1.85922799E-02 -4.21767839E-07  8.88738370E-11 -1.04871220E-02
  9.54218386E-03 -1.20061888E-09  2.97864080E-11 -5.14346024E-03  1.96935166E-11
 -1.52343376E-13 -3.91954676E-03  2.04197527E-07 -7.77229405E-02 -9.21387564E-02
  2.81019271E-03 -5.47638355E-03 -1.31284197E-02  6.55905167E-11 -7.77229203E-02
 -9.21386522E-02  2.80979061E-03 -5.47563955E-03  1.31287105E-02  6.62557958E-11
  7.77299304E-02  9.21470740E-02 -2.81065847E-03 -5.47688802E-03 -1.31296141E-02
 -2.10641292E-11  7.77299102E-02  9.21469698E-02 -2.81025632E-03 -5.47614396E-03
  1.31299049E-02 -2.17266305E-11 -1.99093521E-09  1.37305835E-10  4.33281221E-06
  1.59078630E-01  4.80915478E-12 -3.28764144E-09  6.33015618E-06  2.36172414E-01
  6.92320203E-12 -2.96018402E-07  3.33164588E-06  1.17830781E-01  3.23295252E-12
  3.26713557E-07  1.37667296E-07 -2.03909388E-03 -4.44133466E-14  7.71590161E-09
 -6.43615707E-13  2.64802056E-10 -1.38349709E-06 -2.43664504E-02  1.98832736E-09
 -1.42029283E-10  4.33207688E-06  1.59053365E-01 -4.80535067E-12  3.31076022E-09
  6.32904975E-06  2.36135064E-01 -6.91781784E-12  2.95996932E-07  3.33111533E-06
  1.17811613E-01 -3.23343702E-12 -3.26712380E-07  1.37641044E-07 -2.03927732E-03
  4.62364073E-14 -7.71292207E-09 -6.48972559E-13  8.77301028E-11  1.38327772E-06
  2.43625152E-02 -1.05134130E-01 -1.49165944E-01 -3.54680367E-02 -8.39320861E-03
 -7.59347593E-03  9.24369346E-11  1.05134227E-01  1.49166166E-01  3.54681434E-02
  8.39276314E-03 -7.59396723E-03 -9.27803416E-11  1.05117450E-01  1.49142268E-01
  3.54632137E-02 -8.39189936E-03 -7.59227770E-03 -2.84613490E-11 -1.05117547E-01
 -1.49142490E-01 -3.54633204E-02  8.39145396E-03 -7.59276893E-03  2.88086224E-11
  1.54674407E-08  2.81636540E-08 -4.64338957E-06 -1.59459389E-01 -4.83279921E-12
 -1.41076551E-07 -6.98798401E-06 -2.35760969E-01 -6.96864214E-12  1.41364765E-07
 -3.35599361E-06 -1.21105312E-01 -3.32222655E-12 -6.77224766E-09 -1.66358646E-07
 -1.16259289E-03 -3.78351840E-14 -1.87304174E-08  6.42240783E-13 -2.67402409E-10
  1.38638005E-06  2.48640253E-02  1.54674744E-08  2.81631642E-08  4.64407464E-06
  1.59484554E-01 -4.83260403E-12 -1.41074627E-07  6.98898501E-06  2.35798333E-01
 -6.97098426E-12  1.41413335E-07  3.35652115E-06  1.21123974E-01 -3.32259926E-12
 -6.82394682E-09  1.66380613E-07  1.16227160E-03 -3.75147514E-14 -1.87315969E-08
 -6.46757401E-13  8.85343363E-11  1.38659921E-06  2.48678840E-02  1.05364854E-01
  1.49602858E-01  3.05682399E-02  8.26582881E-03  7.55701537E-03 -9.14046050E-11
 -1.05364744E-01 -1.49602563E-01 -3.05683815E-02 -8.26543678E-03  7.55746491E-03
  9.17396465E-11  1.05381499E-01  1.49626481E-01  3.05738703E-02 -8.26715691E-03
 -7.55821570E-03 -2.81372754E-11 -1.05381390E-01 -1.49626187E-01 -3.05740119E-02
  8.26676481E-03 -7.55866532E-03  2.84752772E-11 -2.89711583E-02 -4.89436920E-02
  1.86211434E-01 -5.54134217E-06 -1.79085860E-09  1.57474575E-01  2.82913704E-01
 -8.31745481E-06 -2.69878402E-09  1.85059694E-01  2.18275061E-01 -6.73692149E-06
 -2.03571820E-09  1.00495169E-02  1.10329224E-02 -6.80308142E-07 -6.16318843E-11
  1.16731733E-02  2.50578578E-10 -5.54102125E-13 -3.98466464E-03  3.23639991E-07
 -2.89709588E-02 -4.89433549E-02 -1.86210236E-01  5.54131000E-06 -5.24284105E-10
  1.57473473E-01 -2.82911934E-01  8.31740647E-06 -7.91439903E-10  1.85058510E-01
 -2.18273633E-01  6.73688335E-06 -5.71621408E-10  1.00493820E-02 -1.10328246E-02
  6.80307670E-07  1.87625993E-11  1.16730924E-02 -8.35761271E-11  5.48145217E-13
 -3.98462831E-03  3.23639263E-07 -4.75280627E-02 -7.68143888E-02 -2.57609550E-02
  7.76093390E-03 -8.99282049E-03 -6.58112774E-11 -4.75284224E-02 -7.68148657E-02
 -2.57600591E-02  7.76146503E-03  8.99238597E-03 -6.52570116E-11 -4.75277755E-02
 -7.68139376E-02 -2.57607902E-02 -7.76088572E-03  8.99276404E-03 -1.98632603E-11
 -4.75281352E-02 -7.68144145E-02 -2.57598943E-02 -7.76141685E-03 -8.99232953E-03
 -1.93107574E-11 -3.36506387E-02 -5.68116683E-02  1.96607378E-01 -5.31583381E-06
 -2.04964573E-09  1.83726561E-01  2.90958064E-01 -8.00701153E-06 -3.09851874E-09
  2.04340123E-01  2.42261596E-01 -6.46671379E-06 -2.45717106E-09  2.85387893E-02
  2.06495023E-02 -1.09026058E-07 -1.47081491E-10  1.39185151E-02  2.74248472E-10
 -5.97254430E-13 -6.94647344E-03  1.82951782E-07  3.36508138E-02  5.68119634E-02
  1.96608470E-01 -5.31586613E-06  5.82620017E-10 -1.83727492E-01  2.90959726E-01
 -8.00706004E-06  8.79318473E-10 -2.04341279E-01  2.42262933E-01 -6.46675376E-06
  6.44860692E-10 -2.85388652E-02  2.06495838E-02 -1.09030331E-07  7.64747787E-11
 -1.39185859E-02  9.70786211E-11 -5.91165625E-13  6.94650081E-03 -1.82953995E-07
 -4.77760042E-02 -7.55913169E-02 -3.04497983E-02  8.33917880E-03 -9.22744277E-03
 -8.31051766E-11 -4.77755445E-02 -7.55905359E-02 -3.04505121E-02  8.33966731E-03
  9.22696814E-03 -8.25309049E-11  4.77762873E-02  7.55917793E-02  3.04499657E-02
  8.33922623E-03 -9.22749537E-03  2.42101973E-11  4.77758275E-02  7.55909983E-02
  3.04506795E-02  8.33971475E-03  9.22702074E-03  2.36408011E-11  6.41133339E-11
  1.07176788E-10  1.89690784E-09 -5.55482194E-12  1.82999093E-01 -3.33869720E-10
  3.05474857E-09 -9.95653094E-12  2.93021799E-01 -4.80613965E-10  3.12150801E-09
 -1.52908274E-11  3.13351575E-01  7.51520521E-10  1.02895230E-09 -7.45266581E-12
  6.82888634E-02  1.30513680E-10 -7.87464179E-03  2.31096945E-07 -1.03953481E-10
  1.19950099E-12  9.09120325E-11  1.53710046E-10 -3.49865456E-10  5.50719922E-12
  1.82994827E-01 -5.22147158E-10 -6.34470485E-10  9.89011549E-12  2.93014959E-01
 -4.74973739E-10 -5.96869586E-10  1.51787167E-11  3.13344432E-01 -2.79125020E-10
  2.51175654E-11  7.41302707E-12  6.82871727E-02  1.62860219E-11  7.87442347E-03
 -2.31091867E-07 -4.47692943E-12  1.19767516E-12  7.67398366E-11  1.04129038E-10
 -1.24779368E-10  1.70102167E-10 -2.53003038E-12  1.58360356E-02  7.70956471E-11
  1.07308743E-10 -1.08914034E-10  1.70991443E-10  3.25349289E-13  1.58360403E-02
  7.41650601E-11  7.98086563E-11  6.45421991E-11 -3.68028685E-11 -5.72527501E-12
  1.58356640E-02  7.45107662E-11  8.30009502E-11  8.02638778E-11 -3.76930356E-11
  7.92394566E-12  1.58356687E-02 -3.84063413E-11 -6.39265250E-11 -2.01573573E-09
  5.50075884E-12 -1.87864315E-01  1.79094008E-10 -3.21802473E-09  1.04521382E-11
 -3.01264713E-01  4.21370703E-10 -3.37509234E-09  1.50886607E-11 -3.18668557E-01
 -1.13679167E-09 -1.26868032E-09  3.32584007E-12 -7.91049559E-02 -1.51925739E-10
  9.93798015E-03 -2.36386649E-07  1.20061997E-10 -1.24614193E-12 -2.58893786E-11
 -4.48224698E-11 -7.86987843E-10  5.46682640E-12  1.87868398E-01  1.67005352E-10
 -1.19076843E-09  1.03787032E-11  3.01271251E-01  8.20383599E-11 -1.30677626E-09