 Entering Gaussian System, Link 0=g16
 Initial command:
 /home/szhao/Apps/g16/l1.exe "/home/szhao/tmp/Gau-109212.inp" -scrdir="/home/szhao/tmp/"
 Default is to use a total of  16 processors:
                               16 via shared-memory
                                1 via Linda
 Entering Link 1 = /home/szhao/Apps/g16/l1.exe PID=    109213.
  
 Copyright (c) 1988,1990,1992,1993,1995,1998,2003,2009,2016,
            Gaussian, Inc.  All Rights Reserved.
  
 This is part of the Gaussian(R) 16 program.  It is based on
 the Gaussian(R) 09 system (copyright 2009, Gaussian, Inc.),
 the Gaussian(R) 03 system (copyright 2003, Gaussian, Inc.),
 the Gaussian(R) 98 system (copyright 1998, Gaussian, Inc.),
 the Gaussian(R) 94 system (copyright 1995, Gaussian, Inc.),
 the Gaussian 92(TM) system (copyright 1992, Gaussian, Inc.),
 the Gaussian 90(TM) system (copyright 1990, Gaussian, Inc.),
 the Gaussian 88(TM) system (copyright 1988, Gaussian, Inc.),
 the Gaussian 86(TM) system (copyright 1986, Carnegie Mellon
 University), and the Gaussian 82(TM) system (copyright 1983,
 Carnegie Mellon University). Gaussian is a federally registered
 trademark of Gaussian, Inc.
  
 This software contains proprietary and confidential information,
 including trade secrets, belonging to Gaussian, Inc.
  
 This software is provided under written license and may be
 used, copied, transmitted, or stored only in accord with that
 written license.
  
 The following legend is applicable only to US Government
 contracts under FAR:
  
                    RESTRICTED RIGHTS LEGEND
  
 Use, reproduction and disclosure by the US Government is
 subject to restrictions as set forth in subparagraphs (a)
 and (c) of the Commercial Computer Software - Restricted
 Rights clause in FAR 52.227-19.
  
 Gaussian, Inc.
 340 Quinnipiac St., Bldg. 40, Wallingford CT 06492
  
  
 ---------------------------------------------------------------
 Warning -- This program may not be used in any manner that
 competes with the business of Gaussian, Inc. or will provide
 assistance to any competitor of Gaussian, Inc.  The licensee
 of this program is prohibited from giving any competitor of
 Gaussian, Inc. access to this program.  By using this program,
 the user acknowledges that Gaussian, Inc. is engaged in the
 business of creating and licensing software in the field of
 computational chemistry and represents and warrants to the
 licensee that it is not a competitor of Gaussian, Inc. and that
 it will not use this program in any manner prohibited above.
 ---------------------------------------------------------------
  

 Cite this work as:
 Gaussian 16, Revision A.03,
 M. J. Frisch, G. W. Trucks, H. B. Schlegel, G. E. Scuseria, 
 M. A. Robb, J. R. Cheeseman, G. Scalmani, V. Barone, 
 G. A. Petersson, H. Nakatsuji, X. Li, M. Caricato, A. V. Marenich, 
 J. Bloino, B. G. Janesko, R. Gomperts, B. Mennucci, H. P. Hratchian, 
 J. V. Ortiz, A. F. Izmaylov, J. L. Sonnenberg, D. Williams-Young, 
 F. Ding, F. Lipparini, F. Egidi, J. Goings, B. Peng, A. Petrone, 
 T. Henderson, D. Ranasinghe, V. G. Zakrzewski, J. Gao, N. Rega, 
 G. Zheng, W. Liang, M. Hada, M. Ehara, K. Toyota, R. Fukuda, 
 J. Hasegawa, M. Ishida, T. Nakajima, Y. Honda, O. Kitao, H. Nakai, 
 T. Vreven, K. Throssell, J. A. Montgomery, Jr., J. E. Peralta, 
 F. Ogliaro, M. J. Bearpark, J. J. Heyd, E. N. Brothers, K. N. Kudin, 
 V. N. Staroverov, T. A. Keith, R. Kobayashi, J. Normand, 
 K. Raghavachari, A. P. Rendell, J. C. Burant, S. S. Iyengar, 
 J. Tomasi, M. Cossi, J. M. Millam, M. Klene, C. Adamo, R. Cammi, 
 J. W. Ochterski, R. L. Martin, K. Morokuma, O. Farkas, 
 J. B. Foresman, and D. J. Fox, Gaussian, Inc., Wallingford CT, 2016.
 
 ******************************************
 Gaussian 16:  ES64L-G16RevA.03 25-Dec-2016
                 3-Dec-2024 
 ******************************************
 %chk=opt.chk
 %mem=16GB
 %nprocshared=24
 Will use up to   24 processors via shared memory.
 ---------------------------------------------------------
 #p opt UM062X/6-311+G** nosymm int=superfine SCF=NoVarAcc
 ---------------------------------------------------------
 1/18=20,19=15,26=5,38=1/1,3;
 2/9=110,12=2,15=1,17=6,18=5,40=1/2;
 3/5=4,6=6,7=111,11=2,25=1,30=1,71=1,74=-55,75=-7,116=2/1,2,3;
 4//1;
 5/5=2,38=1/2;
 6/7=2,8=2,9=2,10=2,28=1/1;
 7/30=1/1,2,3,16;
 1/18=20,19=15,26=5/3(2);
 2/9=110,15=1/2;
 99//99;
 2/9=110,15=1/2;
 3/5=4,6=6,7=111,11=2,25=1,30=1,71=1,74=-55,75=-7,116=2/1,2,3;
 4/5=5,16=3,69=1/1;
 5/5=2,38=1/2;
 7/30=1/1,2,3,16;
 1/18=20,19=15,26=5/3(-5);
 2/9=110,15=1/2;
 6/7=2,8=2,9=2,10=2,19=2,28=1/1;
 99/9=1/99;
 Leave Link    1 at Tue Dec  3 17:41:02 2024, MaxMem=  2147483648 cpu:               0.6 elap:               0.0
 (Enter /home/szhao/Apps/g16/l101.exe)
 -------------------
 Title Card Required
 -------------------
 Symbolic Z-matrix:
 Charge =  0 Multiplicity = 1
 C                    -1   -6.5356    0.        0. 
 C                    -1    6.5356    0.        0. 
 H                    0    -6.98727  -0.97871   0. 
 H                    0    -6.98718   0.97861   0. 
 H                    0     6.98727   0.97871   0. 
 H                    0     6.98718  -0.97861   0. 
 
 Add virtual bond connecting atoms C2         and C1         Dist= 2.47D+01.
 ITRead=  2  2  0  0  0  0
 MicOpt= -2 -2 -1 -1 -1 -1
 NAtoms=      6 NQM=        4 NQMF=       2 NMMI=      0 NMMIF=      0
                NMic=       0 NMicF=      0.
                    Isotopes and Nuclear Properties:
 (Nuclear quadrupole moments (NQMom) in fm**2, nuclear magnetic moments (NMagM)
  in nuclear magnetons)

  Atom         1           2           3           4           5           6
 IAtWgt=          12          12           1           1           1           1
 AtmWgt=  12.0000000  12.0000000   1.0078250   1.0078250   1.0078250   1.0078250
 NucSpn=           0           0           1           1           1           1
 AtZEff=  -0.0000000  -0.0000000  -0.0000000  -0.0000000  -0.0000000  -0.0000000
 NQMom=    0.0000000   0.0000000   0.0000000   0.0000000   0.0000000   0.0000000
 NMagM=    0.0000000   0.0000000   2.7928460   2.7928460   2.7928460   2.7928460
 AtZNuc=   6.0000000   6.0000000   1.0000000   1.0000000   1.0000000   1.0000000
 Leave Link  101 at Tue Dec  3 17:41:03 2024, MaxMem=  2147483648 cpu:              11.5 elap:               0.5
 (Enter /home/szhao/Apps/g16/l103.exe)

 GradGradGradGradGradGradGradGradGradGradGradGradGradGradGradGradGradGrad
 Berny optimization.
 Initialization pass.
                           ----------------------------
                           !    Initial Parameters    !
                           ! (Angstroms and Degrees)  !
 --------------------------                            --------------------------
 ! Name  Definition              Value          Derivative Info.                !
 --------------------------------------------------------------------------------
 ! X1    R(1,-1)                -6.5356         Frozen                          !
 ! Y1    R(1,-2)                 0.0            Frozen                          !
 ! Z1    R(1,-3)                 0.0            Frozen                          !
 ! X2    R(2,-1)                 6.5356         Frozen                          !
 ! Y2    R(2,-2)                 0.0            Frozen                          !
 ! Z2    R(2,-3)                 0.0            Frozen                          !
 ! R1    R(1,3)                  1.0779         estimate D2E/DX2                !
 ! R2    R(1,4)                  1.0778         estimate D2E/DX2                !
 ! R3    R(2,5)                  1.0779         estimate D2E/DX2                !
 ! R4    R(2,6)                  1.0778         estimate D2E/DX2                !
 ! A1    A(2,1,3)              114.7731         estimate D2E/DX2                !
 ! A2    A(2,1,4)              114.7714         estimate D2E/DX2                !
 ! A3    A(3,1,4)              130.4555         estimate D2E/DX2                !
 ! A4    A(1,2,5)              114.7731         estimate D2E/DX2                !
 ! A5    A(1,2,6)              114.7714         estimate D2E/DX2                !
 ! A6    A(5,2,6)              130.4555         estimate D2E/DX2                !
 ! D1    D(3,1,2,5)            180.0            estimate D2E/DX2                !
 ! D2    D(3,1,2,6)              0.0            estimate D2E/DX2                !
 ! D3    D(4,1,2,5)              0.0            estimate D2E/DX2                !
 ! D4    D(4,1,2,6)            180.0            estimate D2E/DX2                !
 --------------------------------------------------------------------------------
 Trust Radius=3.00D-01 FncErr=1.00D-07 GrdErr=1.00D-07 EigMax=2.50D+02 EigMin=1.00D-04
 Number of steps in this run=     30 maximum allowed number of steps=    100.
 GradGradGradGradGradGradGradGradGradGradGradGradGradGradGradGradGradGrad

 Leave Link  103 at Tue Dec  3 17:41:03 2024, MaxMem=  2147483648 cpu:               0.2 elap:               0.0
 (Enter /home/szhao/Apps/g16/l202.exe)
                          Input orientation:                          
 ---------------------------------------------------------------------
 Center     Atomic      Atomic             Coordinates (Angstroms)
 Number     Number       Type             X           Y           Z
 ---------------------------------------------------------------------
      1          6           0       -6.535595    0.000000    0.000000
      2          6           0        6.535595    0.000000    0.000000
      3          1           0       -6.987265   -0.978710    0.000000
      4          1           0       -6.987181    0.978605    0.000000
      5          1           0        6.987265    0.978710    0.000000
      6          1           0        6.987181   -0.978605    0.000000
 ---------------------------------------------------------------------
                    Distance matrix (angstroms):
                    1          2          3          4          5
     1  C    0.000000
     2  C   13.071190   0.000000
     3  H    1.077905  13.558231   0.000000
     4  H    1.077774  13.558139   1.957315   0.000000
     5  H   13.558231   1.077905  14.110953  13.974446   0.000000
     6  H   13.558139   1.077774  13.974446  14.110757   1.957315
                    6
     6  H    0.000000
 Symmetry turned off by external request.
 Stoichiometry    C2H4
 Framework group  C2H[SGH(C2H4)]
 Deg. of freedom     5
 Full point group                 C2H     NOp   4
 Rotational constants (GHZ):         130.8912475           0.4135843           0.4122816
 Leave Link  202 at Tue Dec  3 17:41:03 2024, MaxMem=  2147483648 cpu:               0.2 elap:               0.0
 (Enter /home/szhao/Apps/g16/l301.exe)
 Standard basis: 6-311+G(d,p) (5D, 7F)
 Ernie: Thresh=  0.10000D-02 Tol=  0.10000D-05 Strict=F.
    68 basis functions,   104 primitive gaussians,    70 cartesian basis functions
     8 alpha electrons        8 beta electrons
       nuclear repulsion energy        14.8686735760 Hartrees.
 IExCor= 4336 DFT=T Ex+Corr=M062X ExCW=0 ScaHFX=  0.540000
 ScaDFX=  1.000000  1.000000  1.000000  1.000000 ScalE2=  1.000000  1.000000
 IRadAn=      7 IRanWt=     -1 IRanGd=            0 ICorTp=0 IEmpDi=  4
 NAtoms=    6 NActive=    6 NUniq=    6 SFac= 1.00D+00 NAtFMM=   60 NAOKFM=F Big=F
 Integral buffers will be    131072 words long.
 Raffenetti 2 integral format.
 Two-electron integral symmetry is turned off.
 Leave Link  301 at Tue Dec  3 17:41:03 2024, MaxMem=  2147483648 cpu:               1.0 elap:               0.1
 (Enter /home/szhao/Apps/g16/l302.exe)
 NPDir=0 NMtPBC=     1 NCelOv=     1 NCel=       1 NClECP=     1 NCelD=      1
         NCelK=      1 NCelE2=     1 NClLst=     1 CellRange=     0.0.
 One-electron integrals computed using PRISM.
 NBasis=    68 RedAO= T EigKep=  1.61D-02  NBF=    68
 NBsUse=    68 1.00D-06 EigRej= -1.00D+00 NBFU=    68
 Precomputing XC quadrature grid using
 IXCGrd= 4 IRadAn=           7 IRanWt=          -1 IRanGd=           0 AccXCQ= 0.00D+00.
 Generated NRdTot=       0 NPtTot=           0 NUsed=           0 NTot=          32
 NSgBfM=    41    41    41    41    41 MxSgAt=     6 MxSgA2=     6.
 Leave Link  302 at Tue Dec  3 17:41:03 2024, MaxMem=  2147483648 cpu:               2.7 elap:               0.1
 (Enter /home/szhao/Apps/g16/l303.exe)
 DipDrv:  MaxL=1.
 Leave Link  303 at Tue Dec  3 17:41:03 2024, MaxMem=  2147483648 cpu:               0.4 elap:               0.0
 (Enter /home/szhao/Apps/g16/l401.exe)
 ExpMin= 4.38D-02 ExpMax= 4.56D+03 ExpMxC= 6.82D+02 IAcc=3 IRadAn=         7 AccDes= 0.00D+00
 Harris functional with IExCor= 1009 and IRadAn=       7 diagonalized for initial guess.
 HarFok:  IExCor= 1009 AccDes= 0.00D+00 IRadAn=         7 IDoV= 1 UseB2=F ITyADJ=14
 ICtDFT=  3500011 ScaDFX=  1.000000  1.000000  1.000000  1.000000
 FoFCou: FMM=F IPFlag=           0 FMFlag=      100000 FMFlg1=           0
         NFxFlg=           0 DoJE=T BraDBF=F KetDBF=T FulRan=T
         wScrn=  0.000000 ICntrl=       500 IOpCl=  0 I1Cent=   200000004 NGrid=           0
         NMat0=    1 NMatS0=      1 NMatT0=    0 NMatD0=    1 NMtDS0=    0 NMtDT0=    0
 Symmetry not used in FoFCou.
 Harris En= -78.1761374855216    
 JPrj=0 DoOrth=F DoCkMO=F.
 Initial guess <Sx>= 0.0000 <Sy>= 0.0000 <Sz>= 0.0000 <S**2>=-0.0000 S=-0.0000
 Leave Link  401 at Tue Dec  3 17:41:03 2024, MaxMem=  2147483648 cpu:               4.4 elap:               0.2
 (Enter /home/szhao/Apps/g16/l502.exe)
 Keep R1 and R2 ints in memory in canonical form, NReq=27031774.
 FoFCou: FMM=F IPFlag=           0 FMFlag=           0 FMFlg1=           0
         NFxFlg=           0 DoJE=F BraDBF=F KetDBF=F FulRan=T
         wScrn=  0.000000 ICntrl=       600 IOpCl=  0 I1Cent=           0 NGrid=           0
         NMat0=    1 NMatS0=   2346 NMatT0=    0 NMatD0=    1 NMtDS0=    0 NMtDT0=    0
 Symmetry not used in FoFCou.
 Two-electron integral symmetry not used.
 UHF open shell SCF:
 Using DIIS extrapolation, IDIIS=  1040.
 NGot=  2147483648 LenX=  2141965410 LenY=  2141960069
 Requested convergence on RMS density matrix=1.00D-08 within 128 cycles.
 Requested convergence on MAX density matrix=1.00D-06.
 Requested convergence on             energy=1.00D-06.
 No special actions if energy rises.

 Cycle   1  Pass 1  IDiag  1:
 E= -78.1711043324013    
 DIIS: error= 2.63D-02 at cycle   1 NSaved=   1.
 NSaved= 1 IEnMin= 1 EnMin= -78.1711043324013     IErMin= 1 ErrMin= 2.63D-02
 ErrMax= 2.63D-02  0.00D+00 EMaxC= 1.00D-01 BMatC= 1.44D-01 BMatP= 1.44D-01
 IDIUse=3 WtCom= 7.37D-01 WtEn= 2.63D-01
 Coeff-Com:  0.100D+01
 Coeff-En:   0.100D+01
 Coeff:      0.100D+01
 Gap=     0.208 Goal=   None    Shift=    0.000
 Gap=     0.208 Goal=   None    Shift=    0.000
 GapD=    0.208 DampG=1.000 DampE=0.500 DampFc=0.5000 IDamp=-1.
 Damping current iteration by 5.00D-01
 RMSDP=3.13D-03 MaxDP=6.22D-02              OVMax= 1.05D-01

 Cycle   2  Pass 1  IDiag  1:
 E= -78.1902734764085     Delta-E=       -0.019169144007 Rises=F Damp=T
 DIIS: error= 8.29D-03 at cycle   2 NSaved=   2.
 NSaved= 2 IEnMin= 2 EnMin= -78.1902734764085     IErMin= 2 ErrMin= 8.29D-03
 ErrMax= 8.29D-03  0.00D+00 EMaxC= 1.00D-01 BMatC= 1.55D-02 BMatP= 1.44D-01
 IDIUse=3 WtCom= 9.17D-01 WtEn= 8.29D-02
 Coeff-Com: -0.294D+00 0.129D+01
 Coeff-En:   0.000D+00 0.100D+01
 Coeff:     -0.270D+00 0.127D+01
 Gap=     0.200 Goal=   None    Shift=    0.000
 Gap=     0.200 Goal=   None    Shift=    0.000
 RMSDP=6.76D-04 MaxDP=6.76D-03 DE=-1.92D-02 OVMax= 3.99D-02

 Cycle   3  Pass 1  IDiag  1:
 E= -78.2064342341623     Delta-E=       -0.016160757754 Rises=F Damp=F
 DIIS: error= 1.30D-03 at cycle   3 NSaved=   3.
 NSaved= 3 IEnMin= 3 EnMin= -78.2064342341623     IErMin= 3 ErrMin= 1.30D-03
 ErrMax= 1.30D-03  0.00D+00 EMaxC= 1.00D-01 BMatC= 2.79D-04 BMatP= 1.55D-02
 IDIUse=3 WtCom= 9.87D-01 WtEn= 1.30D-02
 Coeff-Com: -0.653D-01 0.142D+00 0.923D+00
 Coeff-En:   0.000D+00 0.000D+00 0.100D+01
 Coeff:     -0.645D-01 0.140D+00 0.924D+00
 Gap=     0.197 Goal=   None    Shift=    0.000
 Gap=     0.197 Goal=   None    Shift=    0.000
 RMSDP=9.45D-05 MaxDP=1.24D-03 DE=-1.62D-02 OVMax= 3.55D-03

 Cycle   4  Pass 1  IDiag  1:
 E= -78.2065119628377     Delta-E=       -0.000077728675 Rises=F Damp=F
 DIIS: error= 8.65D-05 at cycle   4 NSaved=   4.
 NSaved= 4 IEnMin= 4 EnMin= -78.2065119628377     IErMin= 4 ErrMin= 8.65D-05
 ErrMax= 8.65D-05  0.00D+00 EMaxC= 1.00D-01 BMatC= 2.55D-06 BMatP= 2.79D-04
 IDIUse=1 WtCom= 1.00D+00 WtEn= 0.00D+00
 Coeff-Com: -0.878D-03-0.112D-02 0.598D-01 0.942D+00
 Coeff:     -0.878D-03-0.112D-02 0.598D-01 0.942D+00
 Gap=     0.197 Goal=   None    Shift=    0.000
 Gap=     0.197 Goal=   None    Shift=    0.000
 RMSDP=1.73D-05 MaxDP=3.82D-04 DE=-7.77D-05 OVMax= 5.59D-04

 Cycle   5  Pass 1  IDiag  1:
 E= -78.2065131275941     Delta-E=       -0.000001164756 Rises=F Damp=F
 DIIS: error= 2.93D-05 at cycle   5 NSaved=   5.
 NSaved= 5 IEnMin= 5 EnMin= -78.2065131275941     IErMin= 5 ErrMin= 2.93D-05
 ErrMax= 2.93D-05  0.00D+00 EMaxC= 1.00D-01 BMatC= 1.13D-07 BMatP= 2.55D-06
 IDIUse=1 WtCom= 1.00D+00 WtEn= 0.00D+00
 Coeff-Com:  0.181D-02-0.350D-02-0.254D-01-0.156D+00 0.118D+01
 Coeff:      0.181D-02-0.350D-02-0.254D-01-0.156D+00 0.118D+01
 Gap=     0.197 Goal=   None    Shift=    0.000
 Gap=     0.197 Goal=   None    Shift=    0.000
 RMSDP=1.02D-05 MaxDP=1.54D-04 DE=-1.16D-06 OVMax= 2.93D-04

 Cycle   6  Pass 1  IDiag  1:
 E= -78.2065132737372     Delta-E=       -0.000000146143 Rises=F Damp=F
 DIIS: error= 5.38D-06 at cycle   6 NSaved=   6.
 NSaved= 6 IEnMin= 6 EnMin= -78.2065132737372     IErMin= 6 ErrMin= 5.38D-06
 ErrMax= 5.38D-06  0.00D+00 EMaxC= 1.00D-01 BMatC= 5.54D-09 BMatP= 1.13D-07
 IDIUse=1 WtCom= 1.00D+00 WtEn= 0.00D+00
 Coeff-Com: -0.243D-03 0.529D-03 0.267D-02-0.256D-01-0.166D+00 0.119D+01
 Coeff:     -0.243D-03 0.529D-03 0.267D-02-0.256D-01-0.166D+00 0.119D+01
 Gap=     0.197 Goal=   None    Shift=    0.000
 Gap=     0.197 Goal=   None    Shift=    0.000
 RMSDP=2.96D-06 MaxDP=5.80D-05 DE=-1.46D-07 OVMax= 7.14D-05

 Cycle   7  Pass 1  IDiag  1:
 E= -78.2065132803216     Delta-E=       -0.000000006584 Rises=F Damp=F
 DIIS: error= 5.00D-07 at cycle   7 NSaved=   7.
 NSaved= 7 IEnMin= 7 EnMin= -78.2065132803216     IErMin= 7 ErrMin= 5.00D-07
 ErrMax= 5.00D-07  0.00D+00 EMaxC= 1.00D-01 BMatC= 3.07D-11 BMatP= 5.54D-09
 IDIUse=1 WtCom= 1.00D+00 WtEn= 0.00D+00
 Coeff-Com: -0.109D-04 0.138D-04 0.749D-04 0.536D-02-0.300D-02-0.118D+00
 Coeff-Com:  0.112D+01
 Coeff:     -0.109D-04 0.138D-04 0.749D-04 0.536D-02-0.300D-02-0.118D+00
 Coeff:      0.112D+01
 Gap=     0.197 Goal=   None    Shift=    0.000
 Gap=     0.197 Goal=   None    Shift=    0.000
 RMSDP=3.05D-07 MaxDP=7.35D-06 DE=-6.58D-09 OVMax= 5.19D-06

 Cycle   8  Pass 1  IDiag  1:
 E= -78.2065132803568     Delta-E=       -0.000000000035 Rises=F Damp=F
 DIIS: error= 3.77D-08 at cycle   8 NSaved=   8.
 NSaved= 8 IEnMin= 8 EnMin= -78.2065132803568     IErMin= 8 ErrMin= 3.77D-08
 ErrMax= 3.77D-08  0.00D+00 EMaxC= 1.00D-01 BMatC= 2.19D-13 BMatP= 3.07D-11
 IDIUse=1 WtCom= 1.00D+00 WtEn= 0.00D+00
 Coeff-Com:  0.267D-05-0.486D-05-0.114D-04-0.393D-03 0.653D-03 0.471D-02
 Coeff-Com: -0.965D-01 0.109D+01
 Coeff:      0.267D-05-0.486D-05-0.114D-04-0.393D-03 0.653D-03 0.471D-02
 Coeff:     -0.965D-01 0.109D+01
 Gap=     0.197 Goal=   None    Shift=    0.000
 Gap=     0.197 Goal=   None    Shift=    0.000
 RMSDP=2.14D-08 MaxDP=4.31D-07 DE=-3.52D-11 OVMax= 3.21D-07

 Cycle   9  Pass 1  IDiag  1:
 E= -78.2065132803570     Delta-E=       -0.000000000000 Rises=F Damp=F
 DIIS: error= 5.96D-09 at cycle   9 NSaved=   9.
 NSaved= 9 IEnMin= 9 EnMin= -78.2065132803570     IErMin= 9 ErrMin= 5.96D-09
 ErrMax= 5.96D-09  0.00D+00 EMaxC= 1.00D-01 BMatC= 5.25D-15 BMatP= 2.19D-13
 IDIUse=1 WtCom= 1.00D+00 WtEn= 0.00D+00
 Coeff-Com: -0.847D-06 0.156D-05 0.345D-05 0.317D-04-0.594D-04-0.230D-03
 Coeff-Com:  0.130D-01-0.258D+00 0.124D+01
 Coeff:     -0.847D-06 0.156D-05 0.345D-05 0.317D-04-0.594D-04-0.230D-03
 Coeff:      0.130D-01-0.258D+00 0.124D+01
 Gap=     0.197 Goal=   None    Shift=    0.000
 Gap=     0.197 Goal=   None    Shift=    0.000
 RMSDP=2.75D-09 MaxDP=4.18D-08 DE=-1.99D-13 OVMax= 4.72D-08

 SCF Done:  E(UM062X) =  -78.2065132804     A.U. after    9 cycles
            NFock=  9  Conv=0.27D-08     -V/T= 2.0028
 <Sx>= 0.0000 <Sy>= 0.0000 <Sz>= 0.0000 <S**2>=-0.0000 S=-0.0000
 <L.S>=  0.00000000000    
 KE= 7.798680024128D+01 PE=-2.107822881980D+02 EE= 3.972030110031D+01
 Annihilation of the first spin contaminant:
 S**2 before annihilation    -0.0000,   after    -0.0000
 Leave Link  502 at Tue Dec  3 17:41:05 2024, MaxMem=  2147483648 cpu:              46.2 elap:               2.0
 (Enter /home/szhao/Apps/g16/l601.exe)
 Copying SCF densities to generalized density rwf, IOpCl= 1 IROHF=0.

 **********************************************************************

            Population analysis using the SCF density.

 **********************************************************************

 Alpha  occ. eigenvalues --  -10.59691 -10.59691  -0.74957  -0.74957  -0.52569
 Alpha  occ. eigenvalues --   -0.52569  -0.27832  -0.27832
 Alpha virt. eigenvalues --   -0.08157  -0.08157   0.03081   0.03081   0.05850
 Alpha virt. eigenvalues --    0.05850   0.08566   0.08566   0.09463   0.09469
 Alpha virt. eigenvalues --    0.16327   0.16327   0.20930   0.20930   0.43431
 Alpha virt. eigenvalues --    0.43431   0.46942   0.46942   0.58852   0.58852
 Alpha virt. eigenvalues --    0.61255   0.61257   0.67486   0.67487   0.72053
 Alpha virt. eigenvalues --    0.72054   1.06596   1.06596   1.25122   1.25122
 Alpha virt. eigenvalues --    1.26920   1.26920   1.37155   1.37155   1.53456
 Alpha virt. eigenvalues --    1.53456   1.73857   1.73857   1.80201   1.80202
 Alpha virt. eigenvalues --    1.95506   1.95506   2.01836   2.01836   2.38649
 Alpha virt. eigenvalues --    2.38649   2.52127   2.52127   2.57526   2.57526
 Alpha virt. eigenvalues --    2.66150   2.66151   2.75328   2.75328   2.95064
 Alpha virt. eigenvalues --    2.95066   3.69164   3.69164  23.84212  23.84212
  Beta  occ. eigenvalues --  -10.59691 -10.59691  -0.74957  -0.74957  -0.52569
  Beta  occ. eigenvalues --   -0.52569  -0.27832  -0.27832
  Beta virt. eigenvalues --   -0.08157  -0.08157   0.03081   0.03081   0.05850
  Beta virt. eigenvalues --    0.05850   0.08566   0.08566   0.09463   0.09469
  Beta virt. eigenvalues --    0.16327   0.16327   0.20930   0.20930   0.43431
  Beta virt. eigenvalues --    0.43431   0.46942   0.46942   0.58852   0.58852
  Beta virt. eigenvalues --    0.61255   0.61257   0.67486   0.67487   0.72053
  Beta virt. eigenvalues --    0.72054   1.06596   1.06596   1.25122   1.25122
  Beta virt. eigenvalues --    1.26920   1.26920   1.37155   1.37155   1.53456
  Beta virt. eigenvalues --    1.53456   1.73857   1.73857   1.80201   1.80202
  Beta virt. eigenvalues --    1.95506   1.95506   2.01836   2.01836   2.38649
  Beta virt. eigenvalues --    2.38649   2.52127   2.52127   2.57526   2.57526
  Beta virt. eigenvalues --    2.66150   2.66151   2.75328   2.75328   2.95064
  Beta virt. eigenvalues --    2.95066   3.69164   3.69164  23.84212  23.84212
          Condensed to atoms (all electrons):
               1          2          3          4          5          6
     1  C    5.616110   0.000000   0.349900   0.349904  -0.000000  -0.000000
     2  C    0.000000   5.616110  -0.000000  -0.000000   0.349900   0.349904
     3  H    0.349900  -0.000000   0.519871  -0.027728  -0.000000  -0.000000
     4  H    0.349904  -0.000000  -0.027728   0.519866  -0.000000  -0.000000
     5  H   -0.000000   0.349900  -0.000000  -0.000000   0.519871  -0.027728
     6  H   -0.000000   0.349904  -0.000000  -0.000000  -0.027728   0.519866
          Atomic-Atomic Spin Densities.
               1          2          3          4          5          6
     1  C    0.000000  -0.000000   0.000000  -0.000000  -0.000000   0.000000
     2  C   -0.000000  -0.000000  -0.000000   0.000000   0.000000  -0.000000
     3  H    0.000000  -0.000000  -0.000000   0.000000  -0.000000   0.000000
     4  H   -0.000000   0.000000   0.000000  -0.000000   0.000000  -0.000000
     5  H   -0.000000   0.000000  -0.000000   0.000000   0.000000   0.000000
     6  H    0.000000  -0.000000   0.000000  -0.000000   0.000000  -0.000000
 Mulliken charges and spin densities:
               1          2
     1  C   -0.315914   0.000000
     2  C   -0.315914  -0.000000
     3  H    0.157957  -0.000000
     4  H    0.157957  -0.000000
     5  H    0.157957   0.000000
     6  H    0.157957  -0.000000
 Sum of Mulliken charges =  -0.00000   0.00000
 Mulliken charges and spin densities with hydrogens summed into heavy atoms:
               1          2
     1  C   -0.000000   0.000000
     2  C   -0.000000   0.000000
 Electronic spatial extent (au):  <R**2>=           2538.4609
 Charge=             -0.0000 electrons
 Dipole moment (field-independent basis, Debye):
    X=              0.0000    Y=              0.0000    Z=             -0.0000  Tot=              0.0000
 Quadrupole moment (field-independent basis, Debye-Ang):
   XX=             29.2186   YY=            -12.3393   ZZ=            -12.8312
   XY=             -0.0005   XZ=              0.0000   YZ=              0.0000
 Traceless Quadrupole moment (field-independent basis, Debye-Ang):
   XX=             27.8693   YY=            -13.6886   ZZ=            -14.1806
   XY=             -0.0005   XZ=              0.0000   YZ=              0.0000
 Octapole moment (field-independent basis, Debye-Ang**2):
  XXX=              0.0000  YYY=              0.0000  ZZZ=             -0.0000  XYY=             -0.0000
  XXY=              0.0000  XXZ=             -0.0000  XZZ=              0.0000  YZZ=              0.0000
  YYZ=             -0.0000  XYZ=              0.0000
 Hexadecapole moment (field-independent basis, Debye-Ang**3):
 XXXX=          -1051.5153 YYYY=            -27.9681 ZZZZ=            -13.0341 XXXY=             -0.0091
 XXXZ=              0.0000 YYYX=             -0.0037 YYYZ=              0.0000 ZZZX=              0.0000
 ZZZY=             -0.0000 XXYY=           -517.9352 XXZZ=           -553.9145 YYZZ=             -7.8348
 XXYZ=              0.0000 YYXZ=             -0.0000 ZZXY=             -0.0034
 N-N= 1.486867357605D+01 E-N=-2.107822881051D+02  KE= 7.798680024128D+01
                          Isotropic Fermi Contact Couplings
        Atom                 a.u.       MegaHertz       Gauss      10(-4) cm-1
     1  C(13)             -0.00000      -0.00000      -0.00000      -0.00000
     2  C(13)             -0.00000      -0.00000      -0.00000      -0.00000
     3  H(1)              -0.00000      -0.00000      -0.00000      -0.00000
     4  H(1)              -0.00000      -0.00000      -0.00000      -0.00000
     5  H(1)              -0.00000      -0.00000      -0.00000      -0.00000
     6  H(1)              -0.00000      -0.00000      -0.00000      -0.00000
 --------------------------------------------------------
       Center         ----  Spin Dipole Couplings  ----
                      3XX-RR        3YY-RR        3ZZ-RR
 --------------------------------------------------------
     1   Atom        0.000000      0.000000      0.000000
     2   Atom        0.000000      0.000000      0.000000
     3   Atom        0.000000      0.000000      0.000000
     4   Atom        0.000000      0.000000      0.000000
     5   Atom        0.000000      0.000000      0.000000
     6   Atom        0.000000      0.000000      0.000000
 --------------------------------------------------------
                        XY            XZ            YZ
 --------------------------------------------------------
     1   Atom        0.000000      0.000000      0.000000
     2   Atom        0.000000      0.000000      0.000000
     3   Atom        0.000000      0.000000      0.000000
     4   Atom        0.000000      0.000000      0.000000
     5   Atom        0.000000      0.000000      0.000000
     6   Atom        0.000000      0.000000      0.000000
 --------------------------------------------------------


 ---------------------------------------------------------------------------------
              Anisotropic Spin Dipole Couplings in Principal Axis System
 ---------------------------------------------------------------------------------

       Atom             a.u.   MegaHertz   Gauss  10(-4) cm-1        Axes

              Baa     0.0000     0.000     0.000     0.000  1.0000  0.0000  0.0000
     1 C(13)  Bbb     0.0000     0.000     0.000     0.000 -0.0000  1.0000  0.0000
              Bcc     0.0000     0.000     0.000     0.000  0.0000  0.0000  1.0000
 
              Baa     0.0000     0.000     0.000     0.000  1.0000  0.0000  0.0000
     2 C(13)  Bbb     0.0000     0.000     0.000     0.000 -0.0000  1.0000  0.0000
              Bcc     0.0000     0.000     0.000     0.000  0.0000  0.0000  1.0000
 
              Baa     0.0000     0.000     0.000     0.000  1.0000  0.0000  0.0000
     3 H(1)   Bbb     0.0000     0.000     0.000     0.000 -0.0000  1.0000  0.0000
              Bcc     0.0000     0.000     0.000     0.000  0.0000  0.0000  1.0000
 
              Baa     0.0000     0.000     0.000     0.000  1.0000  0.0000  0.0000
     4 H(1)   Bbb     0.0000     0.000     0.000     0.000 -0.0000  1.0000  0.0000
              Bcc     0.0000     0.000     0.000     0.000  0.0000  0.0000  1.0000
 
              Baa     0.0000     0.000     0.000     0.000  1.0000  0.0000  0.0000
     5 H(1)   Bbb     0.0000     0.000     0.000     0.000 -0.0000  1.0000  0.0000
              Bcc     0.0000     0.000     0.000     0.000  0.0000  0.0000  1.0000
 
              Baa     0.0000     0.000     0.000     0.000  1.0000  0.0000  0.0000
     6 H(1)   Bbb     0.0000     0.000     0.000     0.000 -0.0000  1.0000  0.0000
              Bcc     0.0000     0.000     0.000     0.000  0.0000  0.0000  1.0000
 

 ---------------------------------------------------------------------------------

 No NMR shielding tensors so no spin-rotation constants.
 Leave Link  601 at Tue Dec  3 17:41:05 2024, MaxMem=  2147483648 cpu:               2.3 elap:               0.1
 (Enter /home/szhao/Apps/g16/l701.exe)
 ... and contract with generalized density number  0.
 Compute integral first derivatives.
 Leave Link  701 at Tue Dec  3 17:41:05 2024, MaxMem=  2147483648 cpu:               1.9 elap:               0.1
 (Enter /home/szhao/Apps/g16/l702.exe)
 L702 exits ... SP integral derivatives will be done elsewhere.
 Leave Link  702 at Tue Dec  3 17:41:05 2024, MaxMem=  2147483648 cpu:               0.5 elap:               0.0
 (Enter /home/szhao/Apps/g16/l703.exe)
 Integral derivatives from FoFJK, PRISM(SPDF).
 Compute integral first derivatives, UseDBF=F ICtDFT=           0.
 Calling FoFJK, ICntrl=      2127 FMM=F ISym2X=0 I1Cent= 0 IOpClX= 1 NMat=1 NMatS=1 NMatT=0.
 FoFJK:  IHMeth= 1 ICntrl=    2127 DoSepK=F KAlg= 0 I1Cent=           0 FoldK=F
 IRaf=         0 NMat=       1 IRICut=       1 DoRegI=T DoRafI=F ISym2E= 0 IDoP0=0 IntGTp=1.
 FoFCou: FMM=F IPFlag=           0 FMFlag=      100000 FMFlg1=         800
         NFxFlg=           0 DoJE=F BraDBF=F KetDBF=F FulRan=T
         wScrn=  0.000000 ICntrl=      2127 IOpCl=  1 I1Cent=           0 NGrid=           0
         NMat0=    1 NMatS0=      1 NMatT0=    0 NMatD0=    1 NMtDS0=    0 NMtDT0=    0
 Symmetry not used in FoFCou.
 Leave Link  703 at Tue Dec  3 17:41:06 2024, MaxMem=  2147483648 cpu:               9.5 elap:               0.4
 (Enter /home/szhao/Apps/g16/l716.exe)
 Dipole        = 2.30926389D-14 2.99760217D-14-5.48229058D-15
 -------------------------------------------------------------------
 Center     Atomic                   Forces (Hartrees/Bohr)
 Number     Number              X              Y              Z
 -------------------------------------------------------------------
      1        6          -0.000000000   -0.000000000   -0.000000000
      2        6          -0.000000000   -0.000000000   -0.000000000
      3        1          -0.026547847    0.003649472    0.000000000
      4        1          -0.026590746   -0.003563315   -0.000000000
      5        1           0.026547847   -0.003649472    0.000000000
      6        1           0.026590746    0.003563315    0.000000000
 -------------------------------------------------------------------
 Cartesian Forces:  Max     0.026590746 RMS     0.012639760
 Leave Link  716 at Tue Dec  3 17:41:06 2024, MaxMem=  2147483648 cpu:               0.6 elap:               0.0
 (Enter /home/szhao/Apps/g16/l103.exe)

 GradGradGradGradGradGradGradGradGradGradGradGradGradGradGradGradGradGrad
 Berny optimization.
 FormGI is forming the generalized inverse of G from B-inverse, IUseBI=4.
 Internal  Forces:  Max     0.053138592 RMS     0.021828497
 Search for a local minimum.
 Step number   1 out of a maximum of   30
 All quantities printed in internal units (Hartrees-Bohrs-Radians)
 RMS Force = .16652D-01 SwitMx=.10000D-02 MixMth= 1
 Mixed Optimization -- RFO/linear search
 Second derivative matrix not updated -- first step.
 The second derivative matrix:
                          X1        Y1        Z1        X2        Y2
           X1           0.50000
           Y1           0.00000   0.50000
           Z1           0.00000   0.00000   0.50000
           X2           0.00000   0.00000   0.00000   0.50000
           Y2           0.00000   0.00000   0.00000   0.00000   0.50000
           Z2           0.00000   0.00000   0.00000   0.00000   0.00000
           R1           0.00000   0.00000   0.00000   0.00000   0.00000
           R2           0.00000   0.00000   0.00000   0.00000   0.00000
           R3           0.00000   0.00000   0.00000   0.00000   0.00000
           R4           0.00000   0.00000   0.00000   0.00000   0.00000
           A1           0.00000   0.00000   0.00000   0.00000   0.00000
           A2           0.00000   0.00000   0.00000   0.00000   0.00000
           A3           0.00000   0.00000   0.00000   0.00000   0.00000
           A4           0.00000   0.00000   0.00000   0.00000   0.00000
           A5           0.00000   0.00000   0.00000   0.00000   0.00000
           A6           0.00000   0.00000   0.00000   0.00000   0.00000
           D1           0.00000   0.00000   0.00000   0.00000   0.00000
           D2           0.00000   0.00000   0.00000   0.00000   0.00000
           D3           0.00000   0.00000   0.00000   0.00000   0.00000
           D4           0.00000   0.00000   0.00000   0.00000   0.00000
                          Z2        R1        R2        R3        R4
           Z2           0.50000
           R1           0.00000   0.36249
           R2           0.00000   0.00000   0.36265
           R3           0.00000   0.00000   0.00000   0.36249
           R4           0.00000   0.00000   0.00000   0.00000   0.36265
           A1           0.00000   0.00000   0.00000   0.00000   0.00000
           A2           0.00000   0.00000   0.00000   0.00000   0.00000
           A3           0.00000   0.00000   0.00000   0.00000   0.00000
           A4           0.00000   0.00000   0.00000   0.00000   0.00000
           A5           0.00000   0.00000   0.00000   0.00000   0.00000
           A6           0.00000   0.00000   0.00000   0.00000   0.00000
           D1           0.00000   0.00000   0.00000   0.00000   0.00000
           D2           0.00000   0.00000   0.00000   0.00000   0.00000
           D3           0.00000   0.00000   0.00000   0.00000   0.00000
           D4           0.00000   0.00000   0.00000   0.00000   0.00000
                          A1        A2        A3        A4        A5
           A1           0.16000
           A2           0.00000   0.16000
           A3           0.00000   0.00000   0.16000
           A4           0.00000   0.00000   0.00000   0.16000
           A5           0.00000   0.00000   0.00000   0.00000   0.16000
           A6           0.00000   0.00000   0.00000   0.00000   0.00000
           D1           0.00000   0.00000   0.00000   0.00000   0.00000
           D2           0.00000   0.00000   0.00000   0.00000   0.00000
           D3           0.00000   0.00000   0.00000   0.00000   0.00000
           D4           0.00000   0.00000   0.00000   0.00000   0.00000
                          A6        D1        D2        D3        D4
           A6           0.16000
           D1           0.00000   0.00230
           D2           0.00000   0.00000   0.00230
           D3           0.00000   0.00000   0.00000   0.00230
           D4           0.00000   0.00000   0.00000   0.00000   0.00230
 ITU=  0
     Eigenvalues ---    0.00230   0.00230   0.00230   0.16000   0.16000
     Eigenvalues ---    0.16000   0.16000   0.36249   0.36249   0.36265
     Eigenvalues ---    0.362651000.000001000.000001000.000001000.00000
     Eigenvalues --- 1000.000001000.000001000.000001000.000001000.00000
 RFO step:  Lambda=-2.07556105D-02 EMin= 2.30000000D-03
 Linear search not attempted -- first point.
 Maximum step size (   0.300) exceeded in Quadratic search.
    -- Step size scaled by   0.893
 Iteration  1 RMS(Cart)=  0.07872305 RMS(Int)=  0.00341286
 Iteration  2 RMS(Cart)=  0.00344713 RMS(Int)=  0.00000275
 Iteration  3 RMS(Cart)=  0.00000324 RMS(Int)=  0.00000000
 Iteration  4 RMS(Cart)=  0.00000000 RMS(Int)=  0.00000000
 ITry= 1 IFail=0 DXMaxC= 1.65D-01 DCOld= 1.00D+10 DXMaxT= 3.00D-01 DXLimC= 3.00D+00 Rises=F
 Variable       Old X    -DE/DX   Delta X   Delta X   Delta X     New X
                                 (Linear)    (Quad)   (Total)
    X1      -12.35048  -0.05314   0.00000   0.00000   0.00000 -12.35048
    Y1        0.00000   0.00009   0.00000   0.00000   0.00000   0.00000
    Z1        0.00000  -0.00000   0.00000   0.00000   0.00000   0.00000
    X2       12.35048   0.05314   0.00000   0.00000   0.00000  12.35048
    Y2        0.00000  -0.00009   0.00000   0.00000   0.00000   0.00000
    Z2        0.00000   0.00000   0.00000   0.00000   0.00000   0.00000
    R1        2.03695   0.00781   0.00000   0.01819   0.01819   2.05514
    R2        2.03670   0.00791   0.00000   0.01841   0.01841   2.05511
    R3        2.03695   0.00781   0.00000   0.01819   0.01819   2.05514
    R4        2.03670   0.00791   0.00000   0.01841   0.01841   2.05511
    A1        2.00317   0.01741   0.00000   0.08596   0.08596   2.08912
    A2        2.00314   0.01740   0.00000   0.08596   0.08596   2.08909
    A3        2.27688  -0.03481   0.00000  -0.17191  -0.17191   2.10497
    A4        2.00317   0.01741   0.00000   0.08596   0.08596   2.08912
    A5        2.00314   0.01740   0.00000   0.08596   0.08596   2.08909
    A6        2.27688  -0.03481   0.00000  -0.17191  -0.17191   2.10497
    D1        3.14159   0.00000   0.00000  -0.00000   0.00000   3.14159
    D2        0.00000  -0.00000   0.00000  -0.00000   0.00000   0.00000
    D3        0.00000   0.00000   0.00000  -0.00000   0.00000   0.00000
    D4        3.14159  -0.00000   0.00000  -0.00000   0.00000   3.14159
         Item               Value     Threshold  Converged?
 Maximum Force            0.034810     0.000450     NO 
 RMS     Force            0.016652     0.000300     NO 
 Maximum Displacement     0.164730     0.001800     NO 
 RMS     Displacement     0.079048     0.001200     NO 
 Predicted change in Energy=-1.119226D-02
 Lowest energy point so far.  Saving SCF results.
 GradGradGradGradGradGradGradGradGradGradGradGradGradGradGradGradGradGrad

 Leave Link  103 at Tue Dec  3 17:41:06 2024, MaxMem=  2147483648 cpu:               0.3 elap:               0.0
 (Enter /home/szhao/Apps/g16/l202.exe)
                          Input orientation:                          
 ---------------------------------------------------------------------
 Center     Atomic      Atomic             Coordinates (Angstroms)
 Number     Number       Type             X           Y           Z
 ---------------------------------------------------------------------
      1          6           0       -6.535595    0.000000    0.000000
      2          6           0        6.535595    0.000000    0.000000
      3          1           0       -7.074389   -0.944684    0.000000
      4          1           0       -7.074352    0.944685   -0.000000
      5          1           0        7.074389    0.944684    0.000000
      6          1           0        7.074352   -0.944685   -0.000000
 ---------------------------------------------------------------------
                    Distance matrix (angstroms):
                    1          2          3          4          5
     1  C    0.000000
     2  C   13.071190   0.000000
     3  H    1.087532  13.642731   0.000000
     4  H    1.087515  13.642694   1.889369   0.000000
     5  H   13.642731   1.087532  14.274370  14.148742   0.000000
     6  H   13.642694   1.087515  14.148742  14.274297   1.889369
                    6
     6  H    0.000000
 Symmetry turned off by external request.
 Stoichiometry    C2H4
 Framework group  C2H[SGH(C2H4)]
 Deg. of freedom     5
 Full point group                 C2H     NOp   4
 Rotational constants (GHZ):         140.4748585           0.4119190           0.4107146
 Leave Link  202 at Tue Dec  3 17:41:06 2024, MaxMem=  2147483648 cpu:               0.2 elap:               0.0
 (Enter /home/szhao/Apps/g16/l301.exe)
 Standard basis: 6-311+G(d,p) (5D, 7F)
 Ernie: Thresh=  0.10000D-02 Tol=  0.10000D-05 Strict=F.
    68 basis functions,   104 primitive gaussians,    70 cartesian basis functions
     8 alpha electrons        8 beta electrons
       nuclear repulsion energy        14.7755984900 Hartrees.
 IExCor= 4336 DFT=T Ex+Corr=M062X ExCW=0 ScaHFX=  0.540000
 ScaDFX=  1.000000  1.000000  1.000000  1.000000 ScalE2=  1.000000  1.000000
 IRadAn=      7 IRanWt=     -1 IRanGd=            0 ICorTp=0 IEmpDi=  4
 NAtoms=    6 NActive=    6 NUniq=    6 SFac= 1.00D+00 NAtFMM=   60 NAOKFM=F Big=F
 Integral buffers will be    131072 words long.
 Raffenetti 2 integral format.
 Two-electron integral symmetry is turned off.
 Leave Link  301 at Tue Dec  3 17:41:06 2024, MaxMem=  2147483648 cpu:               0.8 elap:               0.0
 (Enter /home/szhao/Apps/g16/l302.exe)
 NPDir=0 NMtPBC=     1 NCelOv=     1 NCel=       1 NClECP=     1 NCelD=      1
         NCelK=      1 NCelE2=     1 NClLst=     1 CellRange=     0.0.
 One-electron integrals computed using PRISM.
 NBasis=    68 RedAO= T EigKep=  1.74D-02  NBF=    68
 NBsUse=    68 1.00D-06 EigRej= -1.00D+00 NBFU=    68
 Precomputing XC quadrature grid using
 IXCGrd= 4 IRadAn=           7 IRanWt=          -1 IRanGd=           0 AccXCQ= 0.00D+00.
 Generated NRdTot=       0 NPtTot=           0 NUsed=           0 NTot=          32
 NSgBfM=    41    41    41    41    41 MxSgAt=     6 MxSgA2=     6.
 Leave Link  302 at Tue Dec  3 17:41:06 2024, MaxMem=  2147483648 cpu:               2.9 elap:               0.1
 (Enter /home/szhao/Apps/g16/l303.exe)
 DipDrv:  MaxL=1.
 Leave Link  303 at Tue Dec  3 17:41:06 2024, MaxMem=  2147483648 cpu:               0.4 elap:               0.0
 (Enter /home/szhao/Apps/g16/l401.exe)
 Initial guess from the checkpoint file:  "opt.chk"
 B after Tr=     0.000000    0.000000   -0.000000
         Rot=    1.000000    0.000000   -0.000000    0.000001 Ang=   0.00 deg.
 Guess basis will be translated and rotated to current coordinates.
 JPrj=2 DoOrth=T DoCkMO=T.
 Initial guess <Sx>= 0.0000 <Sy>= 0.0000 <Sz>= 0.0000 <S**2>=-0.0000 S=-0.0000
 Generating alternative initial guess.
 ExpMin= 4.38D-02 ExpMax= 4.56D+03 ExpMxC= 6.82D+02 IAcc=3 IRadAn=         5 AccDes= 0.00D+00
 Harris functional with IExCor= 1009 and IRadAn=       5 diagonalized for initial guess.
 HarFok:  IExCor= 1009 AccDes= 0.00D+00 IRadAn=         5 IDoV= 1 UseB2=F ITyADJ=14
 ICtDFT=  3500011 ScaDFX=  1.000000  1.000000  1.000000  1.000000
 FoFCou: FMM=F IPFlag=           0 FMFlag=      100000 FMFlg1=           0
         NFxFlg=           0 DoJE=T BraDBF=F KetDBF=T FulRan=T
         wScrn=  0.000000 ICntrl=       500 IOpCl=  0 I1Cent=   200000004 NGrid=           0
         NMat0=    1 NMatS0=      1 NMatT0=    0 NMatD0=    1 NMtDS0=    0 NMtDT0=    0
 Symmetry not used in FoFCou.
 Harris En= -78.1902775543764    
 Leave Link  401 at Tue Dec  3 17:41:06 2024, MaxMem=  2147483648 cpu:               5.3 elap:               0.2
 (Enter /home/szhao/Apps/g16/l502.exe)
 Keep R1 and R2 ints in memory in canonical form, NReq=27031774.
 FoFCou: FMM=F IPFlag=           0 FMFlag=           0 FMFlg1=           0
         NFxFlg=           0 DoJE=F BraDBF=F KetDBF=F FulRan=T
         wScrn=  0.000000 ICntrl=       600 IOpCl=  0 I1Cent=           0 NGrid=           0
         NMat0=    1 NMatS0=   2346 NMatT0=    0 NMatD0=    1 NMtDS0=    0 NMtDT0=    0
 Symmetry not used in FoFCou.
 Two-electron integral symmetry not used.
 UHF open shell SCF:
 Using DIIS extrapolation, IDIIS=  1040.
 NGot=  2147483648 LenX=  2141965410 LenY=  2141960069
 Requested convergence on RMS density matrix=1.00D-08 within 128 cycles.
 Requested convergence on MAX density matrix=1.00D-06.
 Requested convergence on             energy=1.00D-06.
 No special actions if energy rises.

 Cycle   1  Pass 1  IDiag  1:
 E= -78.2205046293234    
 DIIS: error= 5.97D-03 at cycle   1 NSaved=   1.
 NSaved= 1 IEnMin= 1 EnMin= -78.2205046293234     IErMin= 1 ErrMin= 5.97D-03
 ErrMax= 5.97D-03  0.00D+00 EMaxC= 1.00D-01 BMatC= 6.54D-03 BMatP= 6.54D-03
 IDIUse=3 WtCom= 9.40D-01 WtEn= 5.97D-02
 Coeff-Com:  0.100D+01
 Coeff-En:   0.100D+01
 Coeff:      0.100D+01
 Gap=     0.525 Goal=   None    Shift=    0.000
 Gap=     0.525 Goal=   None    Shift=    0.000
 GapD=    0.525 DampG=2.000 DampE=1.000 DampFc=2.0000 IDamp=-1.
 RMSDP=8.46D-04 MaxDP=1.53D-02              OVMax= 2.10D-02

 Cycle   2  Pass 1  IDiag  1:
 E= -78.2229384945134     Delta-E=       -0.002433865190 Rises=F Damp=F
 DIIS: error= 9.92D-04 at cycle   2 NSaved=   2.
 NSaved= 2 IEnMin= 2 EnMin= -78.2229384945134     IErMin= 2 ErrMin= 9.92D-04
 ErrMax= 9.92D-04  0.00D+00 EMaxC= 1.00D-01 BMatC= 1.64D-04 BMatP= 6.54D-03
 IDIUse=3 WtCom= 9.90D-01 WtEn= 9.92D-03
 Coeff-Com: -0.135D+00 0.113D+01
 Coeff-En:   0.000D+00 0.100D+01
 Coeff:     -0.133D+00 0.113D+01
 Gap=     0.208 Goal=   None    Shift=    0.000
 Gap=     0.208 Goal=   None    Shift=    0.000
 RMSDP=3.29D-04 MaxDP=6.26D-03 DE=-2.43D-03 OVMax= 6.57D-03

 Cycle   3  Pass 1  IDiag  1:
 E= -78.2230666177901     Delta-E=       -0.000128123277 Rises=F Damp=F
 DIIS: error= 1.63D-04 at cycle   3 NSaved=   3.
 NSaved= 3 IEnMin= 3 EnMin= -78.2230666177901     IErMin= 3 ErrMin= 1.63D-04
 ErrMax= 1.63D-04  0.00D+00 EMaxC= 1.00D-01 BMatC= 4.72D-06 BMatP= 1.64D-04
 IDIUse=3 WtCom= 9.98D-01 WtEn= 1.63D-03
 Coeff-Com:  0.960D-02-0.182D+00 0.117D+01
 Coeff-En:   0.000D+00 0.000D+00 0.100D+01
 Coeff:      0.959D-02-0.182D+00 0.117D+01
 Gap=     0.208 Goal=   None    Shift=    0.000
 Gap=     0.208 Goal=   None    Shift=    0.000
 RMSDP=9.59D-05 MaxDP=2.05D-03 DE=-1.28D-04 OVMax= 1.44D-03

 Cycle   4  Pass 1  IDiag  1:
 E= -78.2230709155298     Delta-E=       -0.000004297740 Rises=F Damp=F
 DIIS: error= 7.99D-05 at cycle   4 NSaved=   4.
 NSaved= 4 IEnMin= 4 EnMin= -78.2230709155298     IErMin= 4 ErrMin= 7.99D-05
 ErrMax= 7.99D-05  0.00D+00 EMaxC= 1.00D-01 BMatC= 9.29D-07 BMatP= 4.72D-06
 IDIUse=1 WtCom= 1.00D+00 WtEn= 0.00D+00
 Coeff-Com:  0.868D-02-0.111D+00 0.428D+00 0.674D+00
 Coeff:      0.868D-02-0.111D+00 0.428D+00 0.674D+00
 Gap=     0.208 Goal=   None    Shift=    0.000
 Gap=     0.208 Goal=   None    Shift=    0.000
 RMSDP=1.12D-05 MaxDP=1.77D-04 DE=-4.30D-06 OVMax= 2.13D-04

 Cycle   5  Pass 1  IDiag  1:
 E= -78.2230712048652     Delta-E=       -0.000000289335 Rises=F Damp=F
 DIIS: error= 9.55D-06 at cycle   5 NSaved=   5.
 NSaved= 5 IEnMin= 5 EnMin= -78.2230712048652     IErMin= 5 ErrMin= 9.55D-06
 ErrMax= 9.55D-06  0.00D+00 EMaxC= 1.00D-01 BMatC= 9.40D-09 BMatP= 9.29D-07
 IDIUse=1 WtCom= 1.00D+00 WtEn= 0.00D+00
 Coeff-Com: -0.621D-03 0.110D-01-0.717D-01-0.421D-01 0.110D+01
 Coeff:     -0.621D-03 0.110D-01-0.717D-01-0.421D-01 0.110D+01
 Gap=     0.208 Goal=   None    Shift=    0.000
 Gap=     0.208 Goal=   None    Shift=    0.000
 RMSDP=5.00D-06 MaxDP=1.04D-04 DE=-2.89D-07 OVMax= 7.35D-05

 Cycle   6  Pass 1  IDiag  1:
 E= -78.2230712143990     Delta-E=       -0.000000009534 Rises=F Damp=F
 DIIS: error= 1.69D-06 at cycle   6 NSaved=   6.
 NSaved= 6 IEnMin= 6 EnMin= -78.2230712143990     IErMin= 6 ErrMin= 1.69D-06
 ErrMax= 1.69D-06  0.00D+00 EMaxC= 1.00D-01 BMatC= 3.81D-10 BMatP= 9.40D-09
 IDIUse=1 WtCom= 1.00D+00 WtEn= 0.00D+00
 Coeff-Com: -0.213D-03 0.280D-02-0.905D-02-0.226D-01-0.625D-03 0.103D+01
 Coeff:     -0.213D-03 0.280D-02-0.905D-02-0.226D-01-0.625D-03 0.103D+01
 Gap=     0.208 Goal=   None    Shift=    0.000
 Gap=     0.208 Goal=   None    Shift=    0.000
 RMSDP=4.43D-07 MaxDP=7.35D-06 DE=-9.53D-09 OVMax= 1.21D-05

 Cycle   7  Pass 1  IDiag  1:
 E= -78.2230712147431     Delta-E=       -0.000000000344 Rises=F Damp=F
 DIIS: error= 3.07D-07 at cycle   7 NSaved=   7.
 NSaved= 7 IEnMin= 7 EnMin= -78.2230712147431     IErMin= 7 ErrMin= 3.07D-07
 ErrMax= 3.07D-07  0.00D+00 EMaxC= 1.00D-01 BMatC= 1.64D-11 BMatP= 3.81D-10
 IDIUse=1 WtCom= 1.00D+00 WtEn= 0.00D+00
 Coeff-Com:  0.315D-04-0.559D-03 0.322D-02 0.130D-02-0.497D-01-0.734D-01
 Coeff-Com:  0.112D+01
 Coeff:      0.315D-04-0.559D-03 0.322D-02 0.130D-02-0.497D-01-0.734D-01
 Coeff:      0.112D+01
 Gap=     0.208 Goal=   None    Shift=    0.000
 Gap=     0.208 Goal=   None    Shift=    0.000
 RMSDP=1.03D-07 MaxDP=1.37D-06 DE=-3.44D-10 OVMax= 3.63D-06

 Cycle   8  Pass 1  IDiag  1:
 E= -78.2230712147619     Delta-E=       -0.000000000019 Rises=F Damp=F
 DIIS: error= 2.31D-08 at cycle   8 NSaved=   8.
 NSaved= 8 IEnMin= 8 EnMin= -78.2230712147619     IErMin= 8 ErrMin= 2.31D-08
 ErrMax= 2.31D-08  0.00D+00 EMaxC= 1.00D-01 BMatC= 1.23D-13 BMatP= 1.64D-11
 IDIUse=1 WtCom= 1.00D+00 WtEn= 0.00D+00
 Coeff-Com: -0.127D-05 0.315D-04-0.234D-03 0.164D-03 0.613D-02 0.493D-03
 Coeff-Com: -0.168D+00 0.116D+01
 Coeff:     -0.127D-05 0.315D-04-0.234D-03 0.164D-03 0.613D-02 0.493D-03
 Coeff:     -0.168D+00 0.116D+01
 Gap=     0.208 Goal=   None    Shift=    0.000
 Gap=     0.208 Goal=   None    Shift=    0.000
 RMSDP=1.96D-08 MaxDP=2.22D-07 DE=-1.89D-11 OVMax= 3.32D-07

 Cycle   9  Pass 1  IDiag  1:
 E= -78.2230712147621     Delta-E=       -0.000000000000 Rises=F Damp=F
 DIIS: error= 2.00D-09 at cycle   9 NSaved=   9.
 NSaved= 9 IEnMin= 9 EnMin= -78.2230712147621     IErMin= 9 ErrMin= 2.00D-09
 ErrMax= 2.00D-09  0.00D+00 EMaxC= 1.00D-01 BMatC= 8.15D-16 BMatP= 1.23D-13
 IDIUse=1 WtCom= 1.00D+00 WtEn= 0.00D+00
 Coeff-Com: -0.124D-06 0.573D-06 0.425D-05-0.296D-04-0.430D-03 0.505D-03
 Coeff-Com:  0.127D-01-0.141D+00 0.113D+01
 Coeff:     -0.124D-06 0.573D-06 0.425D-05-0.296D-04-0.430D-03 0.505D-03
 Coeff:      0.127D-01-0.141D+00 0.113D+01
 Gap=     0.208 Goal=   None    Shift=    0.000
 Gap=     0.208 Goal=   None    Shift=    0.000
 RMSDP=8.99D-10 MaxDP=1.31D-08 DE=-1.42D-13 OVMax= 2.40D-08

 SCF Done:  E(UM062X) =  -78.2230712148     A.U. after    9 cycles
            NFock=  9  Conv=0.90D-09     -V/T= 2.0030
 <Sx>= 0.0000 <Sy>= 0.0000 <Sz>= 0.0000 <S**2>=-0.0000 S=-0.0000
 <L.S>=  0.00000000000    
 KE= 7.798715491877D+01 PE=-2.106226675568D+02 EE= 3.963684293328D+01
 Annihilation of the first spin contaminant:
 S**2 before annihilation    -0.0000,   after     0.0000
 Leave Link  502 at Tue Dec  3 17:41:09 2024, MaxMem=  2147483648 cpu:              48.1 elap:               2.1
 (Enter /home/szhao/Apps/g16/l701.exe)
 ... and contract with generalized density number  0.
 Compute integral first derivatives.
 Leave Link  701 at Tue Dec  3 17:41:09 2024, MaxMem=  2147483648 cpu:               3.0 elap:               0.1
 (Enter /home/szhao/Apps/g16/l702.exe)
 L702 exits ... SP integral derivatives will be done elsewhere.
 Leave Link  702 at Tue Dec  3 17:41:09 2024, MaxMem=  2147483648 cpu:               0.4 elap:               0.0
 (Enter /home/szhao/Apps/g16/l703.exe)
 Integral derivatives from FoFJK, PRISM(SPDF).
 Compute integral first derivatives, UseDBF=F ICtDFT=           0.
 Calling FoFJK, ICntrl=      2127 FMM=F ISym2X=0 I1Cent= 0 IOpClX= 1 NMat=1 NMatS=1 NMatT=0.
 FoFJK:  IHMeth= 1 ICntrl=    2127 DoSepK=F KAlg= 0 I1Cent=           0 FoldK=F
 IRaf=         0 NMat=       1 IRICut=       1 DoRegI=T DoRafI=F ISym2E= 0 IDoP0=0 IntGTp=1.
 FoFCou: FMM=F IPFlag=           0 FMFlag=      100000 FMFlg1=         800
         NFxFlg=           0 DoJE=F BraDBF=F KetDBF=F FulRan=T
         wScrn=  0.000000 ICntrl=      2127 IOpCl=  1 I1Cent=           0 NGrid=           0
         NMat0=    1 NMatS0=      1 NMatT0=    0 NMatD0=    1 NMtDS0=    0 NMtDT0=    0
 Symmetry not used in FoFCou.
 Leave Link  703 at Tue Dec  3 17:41:09 2024, MaxMem=  2147483648 cpu:              10.0 elap:               0.4
 (Enter /home/szhao/Apps/g16/l716.exe)
 Dipole        =-8.52651283D-14 3.44391182D-13-6.89538363D-13
 -------------------------------------------------------------------
 Center     Atomic                   Forces (Hartrees/Bohr)
 Number     Number              X              Y              Z
 -------------------------------------------------------------------
      1        6          -0.000000000   -0.000000000   -0.000000000
      2        6          -0.000000000   -0.000000000   -0.000000000
      3        1          -0.019687504    0.004775834    0.000000000
      4        1          -0.019693697   -0.004765267   -0.000000000
      5        1           0.019687504   -0.004775834   -0.000000000
      6        1           0.019693697    0.004765267   -0.000000000
 -------------------------------------------------------------------
 Cartesian Forces:  Max     0.019693697 RMS     0.009550776
 Leave Link  716 at Tue Dec  3 17:41:09 2024, MaxMem=  2147483648 cpu:               0.5 elap:               0.0
 (Enter /home/szhao/Apps/g16/l103.exe)

 GradGradGradGradGradGradGradGradGradGradGradGradGradGradGradGradGradGrad
 Berny optimization.
 Using GEDIIS/GDIIS optimizer.
 FormGI is forming the generalized inverse of G from B-inverse, IUseBI=4.
 Internal  Forces:  Max     0.039381201 RMS     0.016373682
 Search for a local minimum.
 Step number   2 out of a maximum of   30
 All quantities printed in internal units (Hartrees-Bohrs-Radians)
 RMS Force = .12706D-01 SwitMx=.10000D-02 MixMth= 1
 Mixed Optimization -- RFO/linear search
 Update second derivatives using D2CorX and points    1    2
 DE= -1.66D-02 DEPred=-1.12D-02 R= 1.48D+00
 TightC=F SS=  1.41D+00  RLast= 3.00D-01 DXNew= 5.0454D-01 9.0000D-01
 Trust test= 1.48D+00 RLast= 3.00D-01 DXMaxT set to 5.05D-01
 The second derivative matrix:
                          X1        Y1        Z1        X2        Y2
           X1           0.54340
           Y1          -0.00024   0.50000
           Z1          -0.00000   0.00000   0.50000
           X2          -0.04340   0.00024   0.00000   0.54340
           Y2           0.00024  -0.00000  -0.00000  -0.00024   0.50000
           Z2          -0.00000   0.00000   0.00000   0.00000  -0.00000
           R1          -0.00696   0.00004   0.00000   0.00696  -0.00004
           R2          -0.00722   0.00004   0.00000   0.00722  -0.00004
           R3          -0.00696   0.00004   0.00000   0.00696  -0.00004
           R4          -0.00722   0.00004   0.00000   0.00722  -0.00004
           A1          -0.01283   0.00007   0.00000   0.01283  -0.00007
           A2          -0.01283   0.00007   0.00000   0.01283  -0.00007
           A3           0.02567  -0.00014  -0.00000  -0.02567   0.00014
           A4          -0.01283   0.00007   0.00000   0.01283  -0.00007
           A5          -0.01283   0.00007   0.00000   0.01283  -0.00007
           A6           0.02567  -0.00014  -0.00000  -0.02567   0.00014
           D1          -0.00000   0.00000   0.00000   0.00000  -0.00000
           D2           0.00000  -0.00000  -0.00000  -0.00000   0.00000
           D3          -0.00000   0.00000   0.00000   0.00000  -0.00000
           D4           0.00000  -0.00000  -0.00000  -0.00000   0.00000
                          Z2        R1        R2        R3        R4
           Z2           0.50000
           R1           0.00000   0.36064
           R2           0.00000  -0.00184   0.36081
           R3           0.00000  -0.00185  -0.00184   0.36064
           R4           0.00000  -0.00184  -0.00184  -0.00184   0.36081
           A1           0.00000  -0.00412  -0.00412  -0.00412  -0.00412
           A2           0.00000  -0.00412  -0.00412  -0.00412  -0.00412
           A3          -0.00000   0.00825   0.00824   0.00825   0.00824
           A4           0.00000  -0.00412  -0.00412  -0.00412  -0.00412
           A5           0.00000  -0.00412  -0.00412  -0.00412  -0.00412
           A6          -0.00000   0.00825   0.00824   0.00825   0.00824
           D1           0.00000   0.00000   0.00000   0.00000   0.00000
           D2          -0.00000  -0.00000  -0.00000  -0.00000  -0.00000
           D3           0.00000   0.00000   0.00000   0.00000   0.00000
           D4          -0.00000  -0.00000  -0.00000  -0.00000  -0.00000
                          A1        A2        A3        A4        A5
           A1           0.15090
           A2          -0.00910   0.15090
           A3           0.01819   0.01819   0.12362
           A4          -0.00910  -0.00910   0.01819   0.15090
           A5          -0.00910  -0.00910   0.01819  -0.00910   0.15090
           A6           0.01819   0.01819  -0.03638   0.01819   0.01819
           D1           0.00000   0.00000  -0.00000   0.00000   0.00000
           D2          -0.00000  -0.00000   0.00000  -0.00000  -0.00000
           D3           0.00000   0.00000  -0.00000   0.00000   0.00000
           D4          -0.00000  -0.00000   0.00000  -0.00000  -0.00000
                          A6        D1        D2        D3        D4
           A6           0.12362
           D1          -0.00000   0.00230
           D2           0.00000  -0.00000   0.00230
           D3          -0.00000   0.00000  -0.00000   0.00230
           D4           0.00000  -0.00000   0.00000  -0.00000   0.00230
 ITU=  1  0
 Use linear search instead of GDIIS.
     Eigenvalues ---    0.00230   0.00230   0.00230   0.04819   0.16000
     Eigenvalues ---    0.16000   0.16000   0.35785   0.36249   0.36257
     Eigenvalues ---    0.362651000.000001000.000001000.000001000.00000
     Eigenvalues --- 1000.000001000.000001000.000001000.000001000.00000
 RFO step:  Lambda=-3.44871732D-06 EMin= 2.30000000D-03
 Quartic linear search produced a step of  1.67496.
 Iteration  1 RMS(Cart)=  0.10627096 RMS(Int)=  0.02502497
 Iteration  2 RMS(Cart)=  0.03002230 RMS(Int)=  0.00048540
 Iteration  3 RMS(Cart)=  0.00049058 RMS(Int)=  0.00000005
 Iteration  4 RMS(Cart)=  0.00000006 RMS(Int)=  0.00000000
 ITry= 1 IFail=0 DXMaxC= 2.65D-01 DCOld= 1.00D+10 DXMaxT= 5.05D-01 DXLimC= 3.00D+00 Rises=F
 Variable       Old X    -DE/DX   Delta X   Delta X   Delta X     New X
                                 (Linear)    (Quad)   (Total)
    X1      -12.35048  -0.03938   0.00000   0.00000   0.00000 -12.35048
    Y1        0.00000   0.00001   0.00000   0.00000   0.00000   0.00000
    Z1        0.00000  -0.00000   0.00000   0.00000   0.00000   0.00000
    X2       12.35048   0.03938   0.00000   0.00000   0.00000  12.35048
    Y2        0.00000  -0.00001   0.00000   0.00000   0.00000   0.00000
    Z2        0.00000  -0.00000   0.00000   0.00000   0.00000   0.00000
    R1        2.05514   0.00561   0.03047   0.00144   0.03191   2.08705
    R2        2.05511   0.00562   0.03083   0.00104   0.03187   2.08698
    R3        2.05514   0.00561   0.03047   0.00144   0.03191   2.08705
    R4        2.05511   0.00562   0.03083   0.00104   0.03187   2.08698
    A1        2.08912   0.01334   0.14397  -0.00023   0.14374   2.23287
    A2        2.08909   0.01334   0.14397  -0.00023   0.14375   2.23284
    A3        2.10497  -0.02667  -0.28794   0.00046  -0.28749   1.81748
    A4        2.08912   0.01334   0.14397  -0.00023   0.14374   2.23287
    A5        2.08909   0.01334   0.14397  -0.00023   0.14375   2.23284
    A6        2.10497  -0.02667  -0.28794   0.00046  -0.28749   1.81748
    D1        3.14159  -0.00000   0.00000  -0.00000   0.00000   3.14159
    D2        0.00000   0.00000   0.00000   0.00000   0.00000   0.00000
    D3        0.00000  -0.00000   0.00000  -0.00000  -0.00000   0.00000
    D4        3.14159   0.00000   0.00000   0.00000   0.00000   3.14159
         Item               Value     Threshold  Converged?
 Maximum Force            0.026672     0.000450     NO 
 RMS     Force            0.012706     0.000300     NO 
 Maximum Displacement     0.264847     0.001800     NO 
 RMS     Displacement     0.133782     0.001200     NO 
 Predicted change in Energy=-1.760087D-02
 Lowest energy point so far.  Saving SCF results.
 GradGradGradGradGradGradGradGradGradGradGradGradGradGradGradGradGradGrad

 Leave Link  103 at Tue Dec  3 17:41:09 2024, MaxMem=  2147483648 cpu:               0.2 elap:               0.0
 (Enter /home/szhao/Apps/g16/l202.exe)
                          Input orientation:                          
 ---------------------------------------------------------------------
 Center     Atomic      Atomic             Coordinates (Angstroms)
 Number     Number       Type             X           Y           Z
 ---------------------------------------------------------------------
      1          6           0       -6.535595    0.000000    0.000000
      2          6           0        6.535595    0.000000    0.000000
      3          1           0       -7.214540   -0.871078    0.000000
      4          1           0       -7.214491    0.871068   -0.000000
      5          1           0        7.214540    0.871078   -0.000000
      6          1           0        7.214491   -0.871068   -0.000000
 ---------------------------------------------------------------------
                    Distance matrix (angstroms):
                    1          2          3          4          5
     1  C    0.000000
     2  C   13.071190   0.000000
     3  H    1.104420  13.777699   0.000000
     4  H    1.104381  13.777649   1.742146   0.000000
     5  H   13.777699   1.104420  14.533873  14.429031   0.000000
     6  H   13.777649   1.104381  14.429031  14.533772   1.742146
                    6
     6  H    0.000000
 Symmetry turned off by external request.
 Stoichiometry    C2H4
 Framework group  C2H[SGH(C2H4)]
 Deg. of freedom     5
 Full point group                 C2H     NOp   4
 Rotational constants (GHZ):         165.2202225           0.4092263           0.4082152
 Leave Link  202 at Tue Dec  3 17:41:09 2024, MaxMem=  2147483648 cpu:               0.2 elap:               0.0
 (Enter /home/szhao/Apps/g16/l301.exe)
 Standard basis: 6-311+G(d,p) (5D, 7F)
 Ernie: Thresh=  0.10000D-02 Tol=  0.10000D-05 Strict=F.
    68 basis functions,   104 primitive gaussians,    70 cartesian basis functions
     8 alpha electrons        8 beta electrons
       nuclear repulsion energy        14.6325819501 Hartrees.
 IExCor= 4336 DFT=T Ex+Corr=M062X ExCW=0 ScaHFX=  0.540000
 ScaDFX=  1.000000  1.000000  1.000000  1.000000 ScalE2=  1.000000  1.000000
 IRadAn=      7 IRanWt=     -1 IRanGd=            0 ICorTp=0 IEmpDi=  4
 NAtoms=    6 NActive=    6 NUniq=    6 SFac= 1.00D+00 NAtFMM=   60 NAOKFM=F Big=F
 Integral buffers will be    131072 words long.
 Raffenetti 2 integral format.
 Two-electron integral symmetry is turned off.
 Leave Link  301 at Tue Dec  3 17:41:09 2024, MaxMem=  2147483648 cpu:               0.7 elap:               0.1
 (Enter /home/szhao/Apps/g16/l302.exe)
 NPDir=0 NMtPBC=     1 NCelOv=     1 NCel=       1 NClECP=     1 NCelD=      1
         NCelK=      1 NCelE2=     1 NClLst=     1 CellRange=     0.0.
 One-electron integrals computed using PRISM.
 NBasis=    68 RedAO= T EigKep=  1.82D-02  NBF=    68
 NBsUse=    68 1.00D-06 EigRej= -1.00D+00 NBFU=    68
 Precomputing XC quadrature grid using
 IXCGrd= 4 IRadAn=           7 IRanWt=          -1 IRanGd=           0 AccXCQ= 0.00D+00.
 Generated NRdTot=       0 NPtTot=           0 NUsed=           0 NTot=          32
 NSgBfM=    39    39    39    39    39 MxSgAt=     6 MxSgA2=     6.
 Leave Link  302 at Tue Dec  3 17:41:10 2024, MaxMem=  2147483648 cpu:               4.3 elap:               0.2
 (Enter /home/szhao/Apps/g16/l303.exe)
 DipDrv:  MaxL=1.
 Leave Link  303 at Tue Dec  3 17:41:10 2024, MaxMem=  2147483648 cpu:               0.4 elap:               0.0
 (Enter /home/szhao/Apps/g16/l401.exe)
 Initial guess from the checkpoint file:  "opt.chk"
 B after Tr=    -0.000000    0.000000   -0.000000
         Rot=    1.000000   -0.000000   -0.000000   -0.000000 Ang=  -0.00 deg.
 Guess basis will be translated and rotated to current coordinates.
 JPrj=2 DoOrth=T DoCkMO=T.
 Initial guess <Sx>= 0.0000 <Sy>= 0.0000 <Sz>= 0.0000 <S**2>=-0.0000 S=-0.0000
 Generating alternative initial guess.
 ExpMin= 4.38D-02 ExpMax= 4.56D+03 ExpMxC= 6.82D+02 IAcc=3 IRadAn=         5 AccDes= 0.00D+00
 Harris functional with IExCor= 1009 and IRadAn=       5 diagonalized for initial guess.
 HarFok:  IExCor= 1009 AccDes= 0.00D+00 IRadAn=         5 IDoV= 1 UseB2=F ITyADJ=14
 ICtDFT=  3500011 ScaDFX=  1.000000  1.000000  1.000000  1.000000
 FoFCou: FMM=F IPFlag=           0 FMFlag=      100000 FMFlg1=           0
         NFxFlg=           0 DoJE=T BraDBF=F KetDBF=T FulRan=T
         wScrn=  0.000000 ICntrl=       500 IOpCl=  0 I1Cent=   200000004 NGrid=           0
         NMat0=    1 NMatS0=      1 NMatT0=    0 NMatD0=    1 NMtDS0=    0 NMtDT0=    0
 Symmetry not used in FoFCou.
 Harris En= -78.2000024813792    
 Leave Link  401 at Tue Dec  3 17:41:10 2024, MaxMem=  2147483648 cpu:               4.0 elap:               0.2
 (Enter /home/szhao/Apps/g16/l502.exe)
 Keep R1 and R2 ints in memory in canonical form, NReq=27031774.
 FoFCou: FMM=F IPFlag=           0 FMFlag=           0 FMFlg1=           0
         NFxFlg=           0 DoJE=F BraDBF=F KetDBF=F FulRan=T
         wScrn=  0.000000 ICntrl=       600 IOpCl=  0 I1Cent=           0 NGrid=           0
         NMat0=    1 NMatS0=   2346 NMatT0=    0 NMatD0=    1 NMtDS0=    0 NMtDT0=    0
 Symmetry not used in FoFCou.
 Two-electron integral symmetry not used.
 UHF open shell SCF:
 Using DIIS extrapolation, IDIIS=  1040.
 NGot=  2147483648 LenX=  2141965410 LenY=  2141960069
 Requested convergence on RMS density matrix=1.00D-08 within 128 cycles.
 Requested convergence on MAX density matrix=1.00D-06.
 Requested convergence on             energy=1.00D-06.
 No special actions if energy rises.

 Cycle   1  Pass 1  IDiag  1:
 E= -78.2314229768458    
 DIIS: error= 8.50D-03 at cycle   1 NSaved=   1.
 NSaved= 1 IEnMin= 1 EnMin= -78.2314229768458     IErMin= 1 ErrMin= 8.50D-03
 ErrMax= 8.50D-03  0.00D+00 EMaxC= 1.00D-01 BMatC= 1.55D-02 BMatP= 1.55D-02
 IDIUse=3 WtCom= 9.15D-01 WtEn= 8.50D-02
 Coeff-Com:  0.100D+01
 Coeff-En:   0.100D+01
 Coeff:      0.100D+01
 Gap=     0.538 Goal=   None    Shift=    0.000
 Gap=     0.538 Goal=   None    Shift=    0.000
 GapD=    0.538 DampG=2.000 DampE=1.000 DampFc=2.0000 IDamp=-1.
 RMSDP=1.53D-03 MaxDP=3.07D-02              OVMax= 2.98D-02

 Cycle   2  Pass 1  IDiag  1:
 E= -78.2371333040863     Delta-E=       -0.005710327240 Rises=F Damp=F
 DIIS: error= 1.31D-03 at cycle   2 NSaved=   2.
 NSaved= 2 IEnMin= 2 EnMin= -78.2371333040863     IErMin= 2 ErrMin= 1.31D-03
 ErrMax= 1.31D-03  0.00D+00 EMaxC= 1.00D-01 BMatC= 3.57D-04 BMatP= 1.55D-02
 IDIUse=3 WtCom= 9.87D-01 WtEn= 1.31D-02
 Coeff-Com: -0.120D+00 0.112D+01
 Coeff-En:   0.000D+00 0.100D+01
 Coeff:     -0.118D+00 0.112D+01
 Gap=     0.229 Goal=   None    Shift=    0.000
 Gap=     0.229 Goal=   None    Shift=    0.000
 RMSDP=4.52D-04 MaxDP=7.97D-03 DE=-5.71D-03 OVMax= 8.66D-03

 Cycle   3  Pass 1  IDiag  1:
 E= -78.2373716891178     Delta-E=       -0.000238385031 Rises=F Damp=F
 DIIS: error= 5.47D-04 at cycle   3 NSaved=   3.
 NSaved= 3 IEnMin= 3 EnMin= -78.2373716891178     IErMin= 3 ErrMin= 5.47D-04
 ErrMax= 5.47D-04  0.00D+00 EMaxC= 1.00D-01 BMatC= 3.02D-05 BMatP= 3.57D-04
 IDIUse=3 WtCom= 9.95D-01 WtEn= 5.47D-03
 Coeff-Com: -0.325D-01 0.199D+00 0.834D+00
 Coeff-En:   0.000D+00 0.000D+00 0.100D+01
 Coeff:     -0.323D-01 0.198D+00 0.835D+00
 Gap=     0.229 Goal=   None    Shift=    0.000
 Gap=     0.229 Goal=   None    Shift=    0.000
 RMSDP=9.84D-05 MaxDP=2.51D-03 DE=-2.38D-04 OVMax= 1.32D-03

 Cycle   4  Pass 1  IDiag  1:
 E= -78.2373820731670     Delta-E=       -0.000010384049 Rises=F Damp=F
 DIIS: error= 1.32D-04 at cycle   4 NSaved=   4.
 NSaved= 4 IEnMin= 4 EnMin= -78.2373820731670     IErMin= 4 ErrMin= 1.32D-04
 ErrMax= 1.32D-04  0.00D+00 EMaxC= 1.00D-01 BMatC= 4.19D-06 BMatP= 3.02D-05
 IDIUse=3 WtCom= 9.99D-01 WtEn= 1.32D-03
 Coeff-Com:  0.670D-02-0.924D-01 0.218D+00 0.868D+00
 Coeff-En:   0.000D+00 0.000D+00 0.000D+00 0.100D+01
 Coeff:      0.669D-02-0.923D-01 0.218D+00 0.868D+00
 Gap=     0.229 Goal=   None    Shift=    0.000
 Gap=     0.229 Goal=   None    Shift=    0.000
 RMSDP=3.07D-05 MaxDP=4.57D-04 DE=-1.04D-05 OVMax= 5.92D-04

 Cycle   5  Pass 1  IDiag  1:
 E= -78.2373835648187     Delta-E=       -0.000001491652 Rises=F Damp=F
 DIIS: error= 4.53D-06 at cycle   5 NSaved=   5.
 NSaved= 5 IEnMin= 5 EnMin= -78.2373835648187     IErMin= 5 ErrMin= 4.53D-06
 ErrMax= 4.53D-06  0.00D+00 EMaxC= 1.00D-01 BMatC= 3.64D-09 BMatP= 4.19D-06
 IDIUse=1 WtCom= 1.00D+00 WtEn= 0.00D+00
 Coeff-Com: -0.293D-03 0.578D-02-0.232D-01-0.731D-01 0.109D+01
 Coeff:     -0.293D-03 0.578D-02-0.232D-01-0.731D-01 0.109D+01
 Gap=     0.229 Goal=   None    Shift=    0.000
 Gap=     0.229 Goal=   None    Shift=    0.000
 RMSDP=3.56D-06 MaxDP=8.13D-05 DE=-1.49D-06 OVMax= 4.64D-05

 Cycle   6  Pass 1  IDiag  1:
 E= -78.2373835690539     Delta-E=       -0.000000004235 Rises=F Damp=F
 DIIS: error= 8.44D-07 at cycle   6 NSaved=   6.
 NSaved= 6 IEnMin= 6 EnMin= -78.2373835690539     IErMin= 6 ErrMin= 8.44D-07
 ErrMax= 8.44D-07  0.00D+00 EMaxC= 1.00D-01 BMatC= 1.35D-10 BMatP= 3.64D-09
 IDIUse=1 WtCom= 1.00D+00 WtEn= 0.00D+00
 Coeff-Com:  0.111D-04-0.499D-03 0.346D-02 0.690D-02-0.255D+00 0.125D+01
 Coeff:      0.111D-04-0.499D-03 0.346D-02 0.690D-02-0.255D+00 0.125D+01
 Gap=     0.229 Goal=   None    Shift=    0.000
 Gap=     0.229 Goal=   None    Shift=    0.000
 RMSDP=4.54D-07 MaxDP=9.74D-06 DE=-4.24D-09 OVMax= 1.02D-05

 Cycle   7  Pass 1  IDiag  1:
 E= -78.2373835692254     Delta-E=       -0.000000000171 Rises=F Damp=F
 DIIS: error= 1.18D-07 at cycle   7 NSaved=   7.
 NSaved= 7 IEnMin= 7 EnMin= -78.2373835692254     IErMin= 7 ErrMin= 1.18D-07
 ErrMax= 1.18D-07  0.00D+00 EMaxC= 1.00D-01 BMatC= 2.58D-12 BMatP= 1.35D-10
 IDIUse=1 WtCom= 1.00D+00 WtEn= 0.00D+00
 Coeff-Com:  0.194D-05 0.896D-06-0.214D-03-0.267D-04 0.268D-01-0.233D+00
 Coeff-Com:  0.121D+01
 Coeff:      0.194D-05 0.896D-06-0.214D-03-0.267D-04 0.268D-01-0.233D+00
 Coeff:      0.121D+01
 Gap=     0.229 Goal=   None    Shift=    0.000
 Gap=     0.229 Goal=   None    Shift=    0.000
 RMSDP=4.08D-08 MaxDP=5.27D-07 DE=-1.71D-10 OVMax= 1.43D-06

 Cycle   8  Pass 1  IDiag  1:
 E= -78.2373835692286     Delta-E=       -0.000000000003 Rises=F Damp=F
 DIIS: error= 1.87D-08 at cycle   8 NSaved=   8.
 NSaved= 8 IEnMin= 8 EnMin= -78.2373835692286     IErMin= 8 ErrMin= 1.87D-08
 ErrMax= 1.87D-08  0.00D+00 EMaxC= 1.00D-01 BMatC= 3.49D-14 BMatP= 2.58D-12
 IDIUse=1 WtCom= 1.00D+00 WtEn= 0.00D+00
 Coeff-Com:  0.941D-06-0.622D-05-0.266D-04 0.331D-04 0.532D-02-0.392D-01
 Coeff-Com:  0.108D+00 0.925D+00
 Coeff:      0.941D-06-0.622D-05-0.266D-04 0.331D-04 0.532D-02-0.392D-01
 Coeff:      0.108D+00 0.925D+00
 Gap=     0.229 Goal=   None    Shift=    0.000
 Gap=     0.229 Goal=   None    Shift=    0.000
 RMSDP=4.07D-09 MaxDP=6.20D-08 DE=-3.18D-12 OVMax= 8.13D-08

 SCF Done:  E(UM062X) =  -78.2373835692     A.U. after    8 cycles
            NFock=  8  Conv=0.41D-08     -V/T= 2.0034
 <Sx>= 0.0000 <Sy>= 0.0000 <Sz>= 0.0000 <S**2>=-0.0000 S=-0.0000
 <L.S>=  0.00000000000    
 KE= 7.797558779436D+01 PE=-2.103467373304D+02 EE= 3.950118401666D+01
 Annihilation of the first spin contaminant:
 S**2 before annihilation    -0.0000,   after     0.0000
 Leave Link  502 at Tue Dec  3 17:41:12 2024, MaxMem=  2147483648 cpu:              42.7 elap:               1.9
 (Enter /home/szhao/Apps/g16/l701.exe)
 ... and contract with generalized density number  0.
 Compute integral first derivatives.
 Leave Link  701 at Tue Dec  3 17:41:12 2024, MaxMem=  2147483648 cpu:               2.0 elap:               0.1
 (Enter /home/szhao/Apps/g16/l702.exe)
 L702 exits ... SP integral derivatives will be done elsewhere.
 Leave Link  702 at Tue Dec  3 17:41:12 2024, MaxMem=  2147483648 cpu:               0.4 elap:               0.0
 (Enter /home/szhao/Apps/g16/l703.exe)
 Integral derivatives from FoFJK, PRISM(SPDF).
 Compute integral first derivatives, UseDBF=F ICtDFT=           0.
 Calling FoFJK, ICntrl=      2127 FMM=F ISym2X=0 I1Cent= 0 IOpClX= 1 NMat=1 NMatS=1 NMatT=0.
 FoFJK:  IHMeth= 1 ICntrl=    2127 DoSepK=F KAlg= 0 I1Cent=           0 FoldK=F
 IRaf=         0 NMat=       1 IRICut=       1 DoRegI=T DoRafI=F ISym2E= 0 IDoP0=0 IntGTp=1.
 FoFCou: FMM=F IPFlag=           0 FMFlag=      100000 FMFlg1=         800
         NFxFlg=           0 DoJE=F BraDBF=F KetDBF=F FulRan=T
         wScrn=  0.000000 ICntrl=      2127 IOpCl=  1 I1Cent=           0 NGrid=           0
         NMat0=    1 NMatS0=      1 NMatT0=    0 NMatD0=    1 NMtDS0=    0 NMtDT0=    0
 Symmetry not used in FoFCou.
 Leave Link  703 at Tue Dec  3 17:41:12 2024, MaxMem=  2147483648 cpu:              10.1 elap:               0.4
 (Enter /home/szhao/Apps/g16/l716.exe)
 Dipole        =-1.70530257D-13 4.90718577D-13-2.98496562D-10
 -------------------------------------------------------------------
 Center     Atomic                   Forces (Hartrees/Bohr)
 Number     Number              X              Y              Z
 -------------------------------------------------------------------
      1        6          -0.000000000   -0.000000000   -0.000000000
      2        6          -0.000000000   -0.000000000   -0.000000000
      3        1          -0.003329059    0.000127479   -0.000000000
      4        1          -0.003343810   -0.000108612    0.000000000
      5        1           0.003329059   -0.000127479   -0.000000000
      6        1           0.003343810    0.000108612   -0.000000000
 -------------------------------------------------------------------
 Cartesian Forces:  Max     0.003343810 RMS     0.001573805
 Leave Link  716 at Tue Dec  3 17:41:12 2024, MaxMem=  2147483648 cpu:               0.6 elap:               0.0
 (Enter /home/szhao/Apps/g16/l103.exe)

 GradGradGradGradGradGradGradGradGradGradGradGradGradGradGradGradGradGrad
 Berny optimization.
 Using GEDIIS/GDIIS optimizer.
 FormGI is forming the generalized inverse of G from B-inverse, IUseBI=4.
 Internal  Forces:  Max     0.006672869 RMS     0.002709755
 Search for a local minimum.
 Step number   3 out of a maximum of   30
 All quantities printed in internal units (Hartrees-Bohrs-Radians)
 RMS Force = .20319D-02 SwitMx=.10000D-02 MixMth= 1
 Mixed Optimization -- RFO/linear search
 Update second derivatives using D2CorX and points    2    3
 DE= -1.43D-02 DEPred=-1.76D-02 R= 8.13D-01
 TightC=F SS=  1.41D+00  RLast= 5.02D-01 DXNew= 8.4853D-01 1.5060D+00
 Trust test= 8.13D-01 RLast= 5.02D-01 DXMaxT set to 8.49D-01
 The second derivative matrix:
                          X1        Y1        Z1        X2        Y2
           X1           0.55290
           Y1           0.00001   0.50000
           Z1           0.00000   0.00000   0.50000
           X2          -0.05290  -0.00001  -0.00000   0.55290
           Y2          -0.00001  -0.00000  -0.00000   0.00001   0.50000
           Z2          -0.00000  -0.00000  -0.00000   0.00000   0.00000
           R1          -0.00493  -0.00001  -0.00000   0.00493   0.00001
           R2          -0.00519  -0.00001  -0.00000   0.00519   0.00001
           R3          -0.00493  -0.00001  -0.00000   0.00493   0.00001
           R4          -0.00519  -0.00001  -0.00000   0.00519   0.00001
           A1          -0.01859  -0.00000  -0.00000   0.01859   0.00000
           A2          -0.01859  -0.00000  -0.00000   0.01859   0.00000
           A3           0.03718   0.00001   0.00000  -0.03718  -0.00001
           A4          -0.01859  -0.00000  -0.00000   0.01859   0.00000
           A5          -0.01859  -0.00000  -0.00000   0.01859   0.00000
           A6           0.03718   0.00001   0.00000  -0.03718  -0.00001
           D1           0.00000   0.00000   0.00000  -0.00000  -0.00000
           D2          -0.00000  -0.00000  -0.00000   0.00000   0.00000
           D3           0.00000   0.00000   0.00000  -0.00000  -0.00000
           D4          -0.00000  -0.00000  -0.00000   0.00000   0.00000
                          Z2        R1        R2        R3        R4
           Z2           0.50000
           R1           0.00000   0.35985
           R2           0.00000  -0.00264   0.36002
           R3           0.00000  -0.00264  -0.00264   0.35985
           R4           0.00000  -0.00264  -0.00263  -0.00264   0.36002
           A1           0.00000  -0.00439  -0.00439  -0.00439  -0.00439
           A2           0.00000  -0.00439  -0.00439  -0.00439  -0.00439
           A3          -0.00000   0.00878   0.00878   0.00878   0.00878
           A4           0.00000  -0.00439  -0.00439  -0.00439  -0.00439
           A5           0.00000  -0.00439  -0.00439  -0.00439  -0.00439
           A6          -0.00000   0.00878   0.00878   0.00878   0.00878
           D1          -0.00000  -0.00000  -0.00000  -0.00000  -0.00000
           D2           0.00000   0.00000   0.00000   0.00000   0.00000
           D3          -0.00000  -0.00000  -0.00000  -0.00000  -0.00000
           D4           0.00000   0.00000   0.00000   0.00000   0.00000
                          A1        A2        A3        A4        A5
           A1           0.15363
           A2          -0.00637   0.15363
           A3           0.01274   0.01274   0.13453
           A4          -0.00637  -0.00637   0.01274   0.15363
           A5          -0.00637  -0.00637   0.01274  -0.00637   0.15363
           A6           0.01274   0.01274  -0.02547   0.01274   0.01274
           D1          -0.00000  -0.00000   0.00000  -0.00000  -0.00000
           D2           0.00000   0.00000  -0.00000   0.00000   0.00000
           D3          -0.00000  -0.00000   0.00000  -0.00000  -0.00000
           D4           0.00000   0.00000  -0.00000   0.00000   0.00000
                          A6        D1        D2        D3        D4
           A6           0.13453
           D1           0.00000   0.00230
           D2          -0.00000  -0.00000   0.00230
           D3           0.00000   0.00000  -0.00000   0.00230
           D4          -0.00000  -0.00000   0.00000  -0.00000   0.00230
 ITU=  1  1  0
 Use linear search instead of GDIIS.
     Eigenvalues ---    0.00230   0.00230   0.00230   0.08018   0.16000
     Eigenvalues ---    0.16000   0.16000   0.35543   0.36249   0.36257
     Eigenvalues ---    0.362651000.000001000.000001000.000001000.00000
     Eigenvalues --- 1000.000001000.000001000.000001000.000001000.00000
 RFO step:  Lambda=-2.13542257D-05 EMin= 2.30000000D-03
 Quartic linear search produced a step of  0.13837.
 Iteration  1 RMS(Cart)=  0.01855426 RMS(Int)=  0.00018675
 Iteration  2 RMS(Cart)=  0.00019134 RMS(Int)=  0.00000001
 Iteration  3 RMS(Cart)=  0.00000001 RMS(Int)=  0.00000000
 ITry= 1 IFail=0 DXMaxC= 3.70D-02 DCOld= 1.00D+10 DXMaxT= 8.49D-01 DXLimC= 3.00D+00 Rises=F
 Variable       Old X    -DE/DX   Delta X   Delta X   Delta X     New X
                                 (Linear)    (Quad)   (Total)
    X1      -12.35048  -0.00667   0.00000   0.00000   0.00000 -12.35048
    Y1        0.00000   0.00002   0.00000   0.00000   0.00000   0.00000
    Z1        0.00000   0.00000   0.00000   0.00000   0.00000   0.00000
    X2       12.35048   0.00667   0.00000   0.00000   0.00000  12.35048
[...]
           A1          -0.02564   0.00006   0.00000   0.02564  -0.00006
           A2          -0.02564   0.00006   0.00000   0.02564  -0.00006
           A3           0.05128  -0.00013  -0.00000  -0.05128   0.00013
           A4          -0.02564   0.00006   0.00000   0.02564  -0.00006
           A5          -0.02564   0.00006   0.00000   0.02564  -0.00006
           A6           0.05128  -0.00013  -0.00000  -0.05128   0.00013
           D1          -0.00000   0.00000   0.00000   0.00000  -0.00000
           D2           0.00000  -0.00000  -0.00000  -0.00000   0.00000
           D3          -0.00000   0.00000   0.00000   0.00000  -0.00000
           D4           0.00000  -0.00000  -0.00000  -0.00000   0.00000
                          Z2        R1        R2        R3        R4
           Z2           0.50000
           R1           0.00000   0.35723
           R2           0.00000  -0.00528   0.35733
           R3           0.00000  -0.00525  -0.00528   0.35723
           R4           0.00000  -0.00528  -0.00531  -0.00528   0.35733
           A1           0.00000  -0.00498  -0.00499  -0.00498  -0.00499
           A2           0.00000  -0.00498  -0.00499  -0.00498  -0.00499
           A3          -0.00000   0.00996   0.00999   0.00996   0.00999
           A4           0.00000  -0.00498  -0.00499  -0.00498  -0.00499
           A5           0.00000  -0.00498  -0.00499  -0.00498  -0.00499
           A6          -0.00000   0.00996   0.00999   0.00996   0.00999
           D1           0.00000   0.00000   0.00000   0.00000   0.00000
           D2          -0.00000  -0.00000  -0.00000  -0.00000  -0.00000
           D3           0.00000   0.00000   0.00000   0.00000   0.00000
           D4          -0.00000  -0.00000  -0.00000  -0.00000  -0.00000
                          A1        A2        A3        A4        A5
           A1           0.15520
           A2          -0.00480   0.15520
           A3           0.00961   0.00961   0.14079
           A4          -0.00480  -0.00480   0.00961   0.15520
           A5          -0.00480  -0.00480   0.00961  -0.00480   0.15520
           A6           0.00961   0.00961  -0.01921   0.00961   0.00961
           D1           0.00000   0.00000  -0.00000   0.00000   0.00000
           D2          -0.00000  -0.00000   0.00000  -0.00000  -0.00000
           D3           0.00000   0.00000  -0.00000   0.00000   0.00000
           D4          -0.00000  -0.00000   0.00000  -0.00000  -0.00000
                          A6        D1        D2        D3        D4
           A6           0.14079
           D1          -0.00000   0.00230
           D2           0.00000  -0.00000   0.00230
           D3          -0.00000   0.00000  -0.00000   0.00230
           D4           0.00000  -0.00000   0.00000  -0.00000   0.00230
 ITU=  1  1  1  0
 Use linear search instead of GDIIS.
     Eigenvalues ---    0.00230   0.00230   0.00230   0.09747   0.16000
     Eigenvalues ---    0.16000   0.16000   0.34633   0.36249   0.36257
     Eigenvalues ---    0.362651000.000001000.000001000.000001000.00000
     Eigenvalues --- 1000.000001000.000001000.000001000.000001000.00000
 RFO step:  Lambda=-7.19243020D-07 EMin= 2.30000000D-03
 Quartic linear search produced a step of  0.04547.
 Iteration  1 RMS(Cart)=  0.00079404 RMS(Int)=  0.00000034
 Iteration  2 RMS(Cart)=  0.00000039 RMS(Int)=  0.00000000
 ITry= 1 IFail=0 DXMaxC= 1.78D-03 DCOld= 1.00D+10 DXMaxT= 8.49D-01 DXLimC= 3.00D+00 Rises=F
 Variable       Old X    -DE/DX   Delta X   Delta X   Delta X     New X
                                 (Linear)    (Quad)   (Total)
    X1      -12.35048  -0.00051   0.00000   0.00000   0.00000 -12.35048
    Y1        0.00000   0.00000   0.00000   0.00000   0.00000   0.00000
    Z1        0.00000  -0.00000   0.00000   0.00000   0.00000   0.00000
    X2       12.35048   0.00051   0.00000   0.00000   0.00000  12.35048
    Y2        0.00000  -0.00000   0.00000   0.00000   0.00000   0.00000
    Z2        0.00000  -0.00000   0.00000   0.00000   0.00000   0.00000
    R1        2.09525   0.00031   0.00037   0.00066   0.00104   2.09628
    R2        2.09524   0.00032   0.00038   0.00067   0.00105   2.09628
    R3        2.09525   0.00031   0.00037   0.00066   0.00104   2.09628
    R4        2.09524   0.00032   0.00038   0.00067   0.00105   2.09628
    A1        2.25235   0.00005   0.00089  -0.00020   0.00069   2.25304
    A2        2.25232   0.00005   0.00089  -0.00020   0.00069   2.25301
    A3        1.77851  -0.00010  -0.00177   0.00040  -0.00137   1.77714
    A4        2.25235   0.00005   0.00089  -0.00020   0.00069   2.25304
    A5        2.25232   0.00005   0.00089  -0.00020   0.00069   2.25301
    A6        1.77851  -0.00010  -0.00177   0.00040  -0.00137   1.77714
    D1        3.14159  -0.00000   0.00000  -0.00000   0.00000   3.14159
    D2       -0.00000   0.00000   0.00000   0.00000   0.00000   0.00000
    D3       -0.00000  -0.00000   0.00000  -0.00000   0.00000   0.00000
    D4        3.14159   0.00000   0.00000   0.00000   0.00000   3.14159
         Item               Value     Threshold  Converged?
 Maximum Force            0.000316     0.000450     YES
 RMS     Force            0.000175     0.000300     YES
 Maximum Displacement     0.001776     0.001800     YES
 RMS     Displacement     0.000794     0.001200     YES
 Predicted change in Energy=-8.704238D-07
 Optimization completed.
    -- Stationary point found.
                           ----------------------------
                           !   Optimized Parameters   !
                           ! (Angstroms and Degrees)  !
 --------------------------                            --------------------------
 ! Name  Definition              Value          Derivative Info.                !
 --------------------------------------------------------------------------------
 ! X1    R(1,-1)                -6.5356         -DE/DX =   -0.0005              !
 ! Y1    R(1,-2)                 0.0            -DE/DX =    0.0                 !
 ! Z1    R(1,-3)                 0.0            -DE/DX =    0.0                 !
 ! X2    R(2,-1)                 6.5356         -DE/DX =    0.0005              !
 ! Y2    R(2,-2)                 0.0            -DE/DX =    0.0                 !
 ! Z2    R(2,-3)                 0.0            -DE/DX =    0.0                 !
 ! R1    R(1,3)                  1.1088         -DE/DX =    0.0003              !
 ! R2    R(1,4)                  1.1088         -DE/DX =    0.0003              !
 ! R3    R(2,5)                  1.1088         -DE/DX =    0.0003              !
 ! R4    R(2,6)                  1.1088         -DE/DX =    0.0003              !
 ! A1    A(2,1,3)              129.0503         -DE/DX =    0.0001              !
 ! A2    A(2,1,4)              129.0486         -DE/DX =    0.0001              !
 ! A3    A(3,1,4)              101.901          -DE/DX =   -0.0001              !
 ! A4    A(1,2,5)              129.0503         -DE/DX =    0.0001              !
 ! A5    A(1,2,6)              129.0486         -DE/DX =    0.0001              !
 ! A6    A(5,2,6)              101.901          -DE/DX =   -0.0001              !
 ! D1    D(3,1,2,5)            180.0            -DE/DX =    0.0                 !
 ! D2    D(3,1,2,6)              0.0            -DE/DX =    0.0                 !
 ! D3    D(4,1,2,5)              0.0            -DE/DX =    0.0                 !
 ! D4    D(4,1,2,6)            180.0            -DE/DX =    0.0                 !
 --------------------------------------------------------------------------------
 Lowest energy point so far.  Saving SCF results.
 Largest change from initial coordinates is atom    3       0.273 Angstoms.
 GradGradGradGradGradGradGradGradGradGradGradGradGradGradGradGradGradGrad

 Leave Link  103 at Tue Dec  3 17:41:15 2024, MaxMem=  2147483648 cpu:               0.2 elap:               0.0
 (Enter /home/szhao/Apps/g16/l202.exe)
                          Input orientation:                          
 ---------------------------------------------------------------------
 Center     Atomic      Atomic             Coordinates (Angstroms)
 Number     Number       Type             X           Y           Z
 ---------------------------------------------------------------------
      1          6           0       -6.535595    0.000000    0.000000
      2          6           0        6.535595    0.000000    0.000000
      3          1           0       -7.234115   -0.861053   -0.000000
      4          1           0       -7.234086    0.861069    0.000000
      5          1           0        7.234115    0.861053    0.000000
      6          1           0        7.234086   -0.861069    0.000000
 ---------------------------------------------------------------------
                    Distance matrix (angstroms):
                    1          2          3          4          5
     1  C    0.000000
     2  C   13.071190   0.000000
     3  H    1.108757  13.796606   0.000000
     4  H    1.108752  13.796578   1.722122   0.000000
     5  H   13.796606   1.108757  14.570358  14.468202   0.000000
     6  H   13.796578   1.108752  14.468202  14.570305   1.722122
                    6
     6  H    0.000000
 Symmetry turned off by external request.
 Stoichiometry    C2H4
 Framework group  C2H[SGH(C2H4)]
 Deg. of freedom     5
 Full point group                 C2H     NOp   4
 Rotational constants (GHZ):         169.0846306           0.4088487           0.4078624
 Leave Link  202 at Tue Dec  3 17:41:15 2024, MaxMem=  2147483648 cpu:               0.2 elap:               0.0
 (Enter /home/szhao/Apps/g16/l601.exe)
 Copying SCF densities to generalized density rwf, IOpCl= 1 IROHF=0.

 **********************************************************************

            Population analysis using the SCF density.

 **********************************************************************

 Alpha  occ. eigenvalues --  -10.60795 -10.60795  -0.75720  -0.75720  -0.47602
 Alpha  occ. eigenvalues --   -0.47602  -0.31419  -0.31419
 Alpha virt. eigenvalues --   -0.08238  -0.08238   0.02381   0.02381   0.06623
 Alpha virt. eigenvalues --    0.06623   0.08565   0.08566   0.09222   0.09229
 Alpha virt. eigenvalues --    0.17639   0.17639   0.19512   0.19512   0.44142
 Alpha virt. eigenvalues --    0.44142   0.48514   0.48516   0.58782   0.58782
 Alpha virt. eigenvalues --    0.62343   0.62343   0.63529   0.63530   0.73014
 Alpha virt. eigenvalues --    0.73016   1.09178   1.09178   1.10405   1.10405
 Alpha virt. eigenvalues --    1.19256   1.19256   1.55347   1.55347   1.56738
 Alpha virt. eigenvalues --    1.56738   1.62930   1.62930   1.86615   1.86615
 Alpha virt. eigenvalues --    1.87888   1.87888   2.13522   2.13522   2.36615
 Alpha virt. eigenvalues --    2.36616   2.45290   2.45290   2.50159   2.50159
 Alpha virt. eigenvalues --    2.55720   2.55720   2.75075   2.75075   3.06739
 Alpha virt. eigenvalues --    3.06740   3.59176   3.59176  23.76980  23.76981
  Beta  occ. eigenvalues --  -10.60795 -10.60795  -0.75720  -0.75720  -0.47602
  Beta  occ. eigenvalues --   -0.47602  -0.31419  -0.31419
  Beta virt. eigenvalues --   -0.08238  -0.08238   0.02381   0.02381   0.06623
  Beta virt. eigenvalues --    0.06623   0.08565   0.08566   0.09222   0.09229
  Beta virt. eigenvalues --    0.17639   0.17639   0.19512   0.19512   0.44142
  Beta virt. eigenvalues --    0.44142   0.48514   0.48516   0.58782   0.58782
  Beta virt. eigenvalues --    0.62343   0.62343   0.63529   0.63530   0.73014
  Beta virt. eigenvalues --    0.73016   1.09178   1.09178   1.10405   1.10405
  Beta virt. eigenvalues --    1.19256   1.19256   1.55347   1.55347   1.56738
  Beta virt. eigenvalues --    1.56738   1.62930   1.62930   1.86615   1.86615
  Beta virt. eigenvalues --    1.87888   1.87888   2.13522   2.13522   2.36615
  Beta virt. eigenvalues --    2.36616   2.45290   2.45290   2.50159   2.50159
  Beta virt. eigenvalues --    2.55720   2.55720   2.75075   2.75075   3.06739
  Beta virt. eigenvalues --    3.06740   3.59176   3.59176  23.76980  23.76981
          Condensed to atoms (all electrons):
               1          2          3          4          5          6
     1  C    5.663717   0.000000   0.295415   0.295415  -0.000000  -0.000000
     2  C    0.000000   5.663717  -0.000000  -0.000000   0.295415   0.295415
     3  H    0.295415  -0.000000   0.612776  -0.035465  -0.000000  -0.000000
     4  H    0.295415  -0.000000  -0.035465   0.612776  -0.000000  -0.000000
     5  H   -0.000000   0.295415  -0.000000  -0.000000   0.612776  -0.035465
     6  H   -0.000000   0.295415  -0.000000  -0.000000  -0.035465   0.612776
          Atomic-Atomic Spin Densities.
               1          2          3          4          5          6
     1  C    0.000000   0.000000  -0.000000  -0.000000  -0.000000  -0.000000
     2  C    0.000000   0.000000  -0.000000   0.000000  -0.000000  -0.000000
     3  H   -0.000000  -0.000000   0.000000   0.000000  -0.000000  -0.000000
     4  H   -0.000000   0.000000   0.000000  -0.000000  -0.000000  -0.000000
     5  H   -0.000000  -0.000000  -0.000000  -0.000000   0.000000   0.000000
     6  H   -0.000000  -0.000000  -0.000000  -0.000000   0.000000   0.000000
 Mulliken charges and spin densities:
               1          2
     1  C   -0.254548  -0.000000
     2  C   -0.254548  -0.000000
     3  H    0.127273  -0.000000
     4  H    0.127274  -0.000000
     5  H    0.127273   0.000000
     6  H    0.127274  -0.000000
 Sum of Mulliken charges =  -0.00000  -0.00000
 Mulliken charges and spin densities with hydrogens summed into heavy atoms:
               1          2
     1  C   -0.000000  -0.000000
     2  C   -0.000000  -0.000000
 Electronic spatial extent (au):  <R**2>=           2581.7871
 Charge=             -0.0000 electrons
 Dipole moment (field-independent basis, Debye):
    X=              0.0000    Y=              0.0000    Z=              0.0000  Tot=              0.0000
 Quadrupole moment (field-independent basis, Debye-Ang):
   XX=             36.3981   YY=            -14.4544   ZZ=            -12.8726
   XY=             -0.0004   XZ=              0.0000   YZ=              0.0000
 Traceless Quadrupole moment (field-independent basis, Debye-Ang):
   XX=             33.3744   YY=            -17.4781   ZZ=            -15.8963
   XY=             -0.0004   XZ=              0.0000   YZ=              0.0000
 Octapole moment (field-independent basis, Debye-Ang**2):
  XXX=             -0.0000  YYY=              0.0000  ZZZ=             -0.0000  XYY=              0.0000
  XXY=              0.0000  XXZ=              0.0000  XZZ=             -0.0000  YZZ=             -0.0000
  YYZ=              0.0000  XYZ=              0.0000
 Hexadecapole moment (field-independent basis, Debye-Ang**3):
 XXXX=            -69.0488 YYYY=            -30.2496 ZZZZ=            -12.7017 XXXY=             -0.0122
 XXXZ=              0.0000 YYYX=             -0.0005 YYYZ=              0.0000 ZZZX=             -0.0000
 ZZZY=              0.0000 XXYY=           -620.2212 XXZZ=           -564.9955 YYZZ=             -7.5804
 XXYZ=              0.0000 YYXZ=              0.0000 ZZXY=             -0.0001
 N-N= 1.459284233865D+01 E-N=-2.102584376867D+02  KE= 7.796325868689D+01
                          Isotropic Fermi Contact Couplings
        Atom                 a.u.       MegaHertz       Gauss      10(-4) cm-1
     1  C(13)             -0.00000      -0.00000      -0.00000      -0.00000
     2  C(13)              0.00000       0.00000       0.00000       0.00000
     3  H(1)              -0.00000      -0.00000      -0.00000      -0.00000
     4  H(1)              -0.00000      -0.00000      -0.00000      -0.00000
     5  H(1)               0.00000       0.00000       0.00000       0.00000
     6  H(1)              -0.00000      -0.00000      -0.00000      -0.00000
 --------------------------------------------------------
       Center         ----  Spin Dipole Couplings  ----
                      3XX-RR        3YY-RR        3ZZ-RR
 --------------------------------------------------------
     1   Atom        0.000000      0.000000      0.000000
     2   Atom        0.000000      0.000000      0.000000
     3   Atom        0.000000      0.000000      0.000000
     4   Atom        0.000000      0.000000      0.000000
     5   Atom        0.000000      0.000000      0.000000
     6   Atom        0.000000      0.000000      0.000000
 --------------------------------------------------------
                        XY            XZ            YZ
 --------------------------------------------------------
     1   Atom        0.000000      0.000000      0.000000
     2   Atom        0.000000      0.000000      0.000000
     3   Atom        0.000000      0.000000      0.000000
     4   Atom        0.000000      0.000000      0.000000
     5   Atom        0.000000      0.000000      0.000000
     6   Atom        0.000000      0.000000      0.000000
 --------------------------------------------------------


 ---------------------------------------------------------------------------------
              Anisotropic Spin Dipole Couplings in Principal Axis System
 ---------------------------------------------------------------------------------

       Atom             a.u.   MegaHertz   Gauss  10(-4) cm-1        Axes

              Baa     0.0000     0.000     0.000     0.000  1.0000  0.0000  0.0000
     1 C(13)  Bbb     0.0000     0.000     0.000     0.000 -0.0000  1.0000  0.0000
              Bcc     0.0000     0.000     0.000     0.000  0.0000  0.0000  1.0000
 
              Baa     0.0000     0.000     0.000     0.000  1.0000  0.0000  0.0000
     2 C(13)  Bbb     0.0000     0.000     0.000     0.000 -0.0000  1.0000  0.0000
              Bcc     0.0000     0.000     0.000     0.000  0.0000  0.0000  1.0000
 
              Baa     0.0000     0.000     0.000     0.000  1.0000  0.0000  0.0000
     3 H(1)   Bbb     0.0000     0.000     0.000     0.000 -0.0000  1.0000  0.0000
              Bcc     0.0000     0.000     0.000     0.000  0.0000  0.0000  1.0000
 
              Baa     0.0000     0.000     0.000     0.000  1.0000  0.0000  0.0000
     4 H(1)   Bbb     0.0000     0.000     0.000     0.000 -0.0000  1.0000  0.0000
              Bcc     0.0000     0.000     0.000     0.000  0.0000  0.0000  1.0000
 
              Baa     0.0000     0.000     0.000     0.000  1.0000  0.0000  0.0000
     5 H(1)   Bbb     0.0000     0.000     0.000     0.000 -0.0000  1.0000  0.0000
              Bcc     0.0000     0.000     0.000     0.000  0.0000  0.0000  1.0000
 
              Baa     0.0000     0.000     0.000     0.000  1.0000  0.0000  0.0000
     6 H(1)   Bbb     0.0000     0.000     0.000     0.000 -0.0000  1.0000  0.0000
              Bcc     0.0000     0.000     0.000     0.000  0.0000  0.0000  1.0000
 

 ---------------------------------------------------------------------------------

 No NMR shielding tensors so no spin-rotation constants.
 Leave Link  601 at Tue Dec  3 17:41:16 2024, MaxMem=  2147483648 cpu:               2.1 elap:               0.1
 (Enter /home/szhao/Apps/g16/l9999.exe)
 1\1\GINC-NODE01\FOpt\UM062X\6-311+G(d,p)\C2H4\SZHAO\03-Dec-2024\0\\#p 
 opt UM062X/6-311+G** nosymm int=superfine SCF=NoVarAcc\\Title Card Req
 uired\\0,1\C,-6.535595,0.,0.\C,6.535595,0.,0.\H,-7.2341152196,-0.86105
 27982,0.\H,-7.2340864138,0.8610693874,0.0000000003\H,7.2341152196,0.86
 10527982,0.0000000001\H,7.2340864138,-0.8610693874,0.0000000004\\Versi
 on=ES64L-G16RevA.03\HF=-78.2376479\S2=0.\S2-1=0.\S2A=0.\RMSD=1.728e-09
 \RMSF=1.523e-04\Dipole=0.,0.,0.\Quadrupole=24.8130454,-12.9945396,-11.
 8185059,-0.0003063,0.,0.\PG=C02H [SGH(C2H4)]\\@


 LIFE IS SO UNCERTAIN - EAT DESSERT FIRST.
 Job cpu time:       0 days  0 hours  4 minutes 48.1 seconds.
 Elapsed time:       0 days  0 hours  0 minutes 13.2 seconds.
 File lengths (MBytes):  RWF=     10 Int=      0 D2E=      0 Chk=      2 Scr=      1
 Normal termination of Gaussian 16 at Tue Dec  3 17:41:16 2024.
