Title Card Required                                                     
FOpt      UM062X                                                      6-311+G(d,p)        
Number of atoms                            I                6
Info1-9                                    I   N=           9
          15          15           0           0           0         110
           2          18        -502
Full Title                                 C   N=           2
Title Card Required     
Route                                      C   N=           5
#p opt UM062X/6-311+G** nosymm int=superfine SCF=NoVarAcc   
Charge                                     I                0
Multiplicity                               I                1
Number of electrons                        I               16
Number of alpha electrons                  I                8
Number of beta electrons                   I                8
Number of basis functions                  I               68
Number of independent functions            I               68
Number of point charges in /Mol/           I                0
Number of translation vectors              I                0
Atomic numbers                             I   N=           6
           6           6           1           1           1           1
Nuclear charges                            R   N=           6
  6.00000000E+00  6.00000000E+00  1.00000000E+00  1.00000000E+00  1.00000000E+00
  1.00000000E+00
Current cartesian coordinates              R   N=          18
 -1.23504846E+01  0.00000000E+00  0.00000000E+00  1.23504846E+01  0.00000000E+00
  0.00000000E+00 -1.36704965E+01 -1.62715397E+00 -3.56768965E-11 -1.36704421E+01
  1.62718532E+00  5.01464379E-10  1.36704965E+01  1.62715397E+00  1.32516010E-10
  1.36704421E+01 -1.62718532E+00  6.69612175E-10
Number of symbols in /Mol/                 I                0
Force Field                                I                0
Atom Types                                 C   N=           6
                                                            
            
Int Atom Types                             I   N=           6
           0           0           0           0           0           0
MM charges                                 R   N=           6
  0.00000000E+00  0.00000000E+00  0.00000000E+00  0.00000000E+00  0.00000000E+00
  0.00000000E+00
Integer atomic weights                     I   N=           6
          12          12           1           1           1           1
Real atomic weights                        R   N=           6
  1.20000000E+01  1.20000000E+01  1.00782504E+00  1.00782504E+00  1.00782504E+00
  1.00782504E+00
Atom fragment info                         I   N=           6
           0           0           0           0           0           0
Atom residue num                           I   N=           6
           0           0           0           0           0           0
Nuclear spins                              I   N=           6
           0           0           1           1           1           1
Nuclear ZEff                               R   N=           6
 -3.60000000E+00 -3.60000000E+00 -1.00000000E+00 -1.00000000E+00 -1.00000000E+00
 -1.00000000E+00
Nuclear ZNuc                               R   N=           6
  6.00000000E+00  6.00000000E+00  1.00000000E+00  1.00000000E+00  1.00000000E+00
  1.00000000E+00
Nuclear QMom                               R   N=           6
  0.00000000E+00  0.00000000E+00  0.00000000E+00  0.00000000E+00  0.00000000E+00
  0.00000000E+00
Nuclear GFac                               R   N=           6
  0.00000000E+00  0.00000000E+00  2.79284600E+00  2.79284600E+00  2.79284600E+00
  2.79284600E+00
MicOpt                                     I   N=           6
          -2          -2          -1          -1          -1          -1
Number of residues                         I                0
Number of secondary structures             I                0
Redundant internal dimensions              I   N=           4
          20          10           6           4
Redundant internal coordinate indices      I   N=          80
           1          -1           0           0           1          -2
           0           0           1          -3           0           0
           2          -1           0           0           2          -2
           0           0           2          -3           0           0
           1           3           0           0           1           4
           0           0           2           5           0           0
           2           6           0           0           2           1
           3           0           2           1           4           0
           3           1           4           0           1           2
           5           0           1           2           6           0
           5           2           6           0           3           1
           2           5           3           1           2           6
           4           1           2           5           4           1
           2           6
Redundant internal coordinates             R   N=          20
 -1.23504846E+01  0.00000000E+00  0.00000000E+00  1.23504846E+01  0.00000000E+00
  0.00000000E+00  2.09524735E+00  2.09523740E+00  2.09524735E+00  2.09523740E+00
  2.25235327E+00  2.25232367E+00  1.77850837E+00  2.25235327E+00  2.25232367E+00
  1.77850837E+00  3.14159265E+00 -0.00000000E+00 -0.00000000E+00  3.14159265E+00
ZRed-IntVec                                I   N=          20
          -1          -1          -1          -1          -1          -1
           0           0           0           0           0           0
           0           0           0           0           0           0
           0           0
ZRed-FPVec                                 R   N=          20
  0.00000000E+00  0.00000000E+00  0.00000000E+00  0.00000000E+00  0.00000000E+00
  0.00000000E+00  0.00000000E+00  0.00000000E+00  0.00000000E+00  0.00000000E+00
  0.00000000E+00  0.00000000E+00  0.00000000E+00  0.00000000E+00  0.00000000E+00
  0.00000000E+00  0.00000000E+00  0.00000000E+00  0.00000000E+00  0.00000000E+00
ZRed-Constraint1                           R   N=          20
 -1.23504846E+01  0.00000000E+00  0.00000000E+00  1.23504846E+01  0.00000000E+00
  0.00000000E+00  2.03694512E+00  2.03669844E+00  2.03694512E+00  2.03669844E+00
  2.00316847E+00  2.00313852E+00  2.27687832E+00  2.00316847E+00  2.00313852E+00
  2.27687832E+00  3.14159265E+00  0.00000000E+00  0.00000000E+00  3.14159265E+00
ZRed-Constraint2                           R   N=          20
 -1.23504846E+01  0.00000000E+00  0.00000000E+00  1.23504846E+01  0.00000000E+00
  0.00000000E+00  0.00000000E+00  0.00000000E+00  0.00000000E+00  0.00000000E+00
  0.00000000E+00  0.00000000E+00  0.00000000E+00  0.00000000E+00  0.00000000E+00
  0.00000000E+00  0.00000000E+00  0.00000000E+00  0.00000000E+00  0.00000000E+00
Number of contracted shells                I               28
Number of primitive shells                 I               50
Pure/Cartesian d shells                    I                0
Pure/Cartesian f shells                    I                0
Highest angular momentum                   I                2
Largest degree of contraction              I                6
Shell types                                I   N=          28
           0          -1          -1          -1          -1          -2
           0          -1          -1          -1          -1          -2
           0           0           0           1           0           0
           0           1           0           0           0           1
           0           0           0           1
Number of primitives per shell             I   N=          28
           6           3           1           1           1           1
           6           3           1           1           1           1
           3           1           1           1           3           1
           1           1           3           1           1           1
           3           1           1           1
Shell to atom map                          I   N=          28
           1           1           1           1           1           1
           2           2           2           2           2           2
           3           3           3           3           4           4
           4           4           5           5           5           5
           6           6           6           6
Primitive exponents                        R   N=          50
  4.56324000E+03  6.82024000E+02  1.54973000E+02  4.44553000E+01  1.30290000E+01
  1.82773000E+00  2.09642000E+01  4.80331000E+00  1.45933000E+00  4.83456000E-01
  1.45585000E-01  4.38000000E-02  6.26000000E-01  4.56324000E+03  6.82024000E+02
  1.54973000E+02  4.44553000E+01  1.30290000E+01  1.82773000E+00  2.09642000E+01
  4.80331000E+00  1.45933000E+00  4.83456000E-01  1.45585000E-01  4.38000000E-02
  6.26000000E-01  3.38650000E+01  5.09479000E+00  1.15879000E+00  3.25840000E-01
  1.02741000E-01  7.50000000E-01  3.38650000E+01  5.09479000E+00  1.15879000E+00
  3.25840000E-01  1.02741000E-01  7.50000000E-01  3.38650000E+01  5.09479000E+00
  1.15879000E+00  3.25840000E-01  1.02741000E-01  7.50000000E-01  3.38650000E+01
  5.09479000E+00  1.15879000E+00  3.25840000E-01  1.02741000E-01  7.50000000E-01
Contraction coefficients                   R   N=          50
  1.96665025E-03  1.52306019E-02  7.61269097E-02  2.60801033E-01  6.16462078E-01
  2.21006028E-01  1.14660081E-01  9.19999648E-01 -3.03068213E-03  1.00000000E+00
  1.00000000E+00  1.00000000E+00  1.00000000E+00  1.96665025E-03  1.52306019E-02
  7.61269097E-02  2.60801033E-01  6.16462078E-01  2.21006028E-01  1.14660081E-01
  9.19999648E-01 -3.03068213E-03  1.00000000E+00  1.00000000E+00  1.00000000E+00
  1.00000000E+00  2.54938145E-02  1.90373109E-01  8.52161486E-01  1.00000000E+00
  1.00000000E+00  1.00000000E+00  2.54938145E-02  1.90373109E-01  8.52161486E-01
  1.00000000E+00  1.00000000E+00  1.00000000E+00  2.54938145E-02  1.90373109E-01
  8.52161486E-01  1.00000000E+00  1.00000000E+00  1.00000000E+00  2.54938145E-02
  1.90373109E-01  8.52161486E-01  1.00000000E+00  1.00000000E+00  1.00000000E+00
P(S=P) Contraction coefficients            R   N=          50
  0.00000000E+00  0.00000000E+00  0.00000000E+00  0.00000000E+00  0.00000000E+00
  0.00000000E+00  4.02486927E-02  2.37593957E-01  8.15853851E-01  1.00000000E+00
  1.00000000E+00  1.00000000E+00  0.00000000E+00  0.00000000E+00  0.00000000E+00
  0.00000000E+00  0.00000000E+00  0.00000000E+00  0.00000000E+00  4.02486927E-02
  2.37593957E-01  8.15853851E-01  1.00000000E+00  1.00000000E+00  1.00000000E+00
  0.00000000E+00  0.00000000E+00  0.00000000E+00  0.00000000E+00  0.00000000E+00
  0.00000000E+00  0.00000000E+00  0.00000000E+00  0.00000000E+00  0.00000000E+00
  0.00000000E+00  0.00000000E+00  0.00000000E+00  0.00000000E+00  0.00000000E+00
  0.00000000E+00  0.00000000E+00  0.00000000E+00  0.00000000E+00  0.00000000E+00
  0.00000000E+00  0.00000000E+00  0.00000000E+00  0.00000000E+00  0.00000000E+00
Coordinates of each shell                  R   N=          84
 -1.23504846E+01  0.00000000E+00  0.00000000E+00 -1.23504846E+01  0.00000000E+00
  0.00000000E+00 -1.23504846E+01  0.00000000E+00  0.00000000E+00 -1.23504846E+01
  0.00000000E+00  0.00000000E+00 -1.23504846E+01  0.00000000E+00  0.00000000E+00
 -1.23504846E+01  0.00000000E+00  0.00000000E+00  1.23504846E+01  0.00000000E+00
  0.00000000E+00  1.23504846E+01  0.00000000E+00  0.00000000E+00  1.23504846E+01
  0.00000000E+00  0.00000000E+00  1.23504846E+01  0.00000000E+00  0.00000000E+00
  1.23504846E+01  0.00000000E+00  0.00000000E+00  1.23504846E+01  0.00000000E+00
  0.00000000E+00 -1.36704965E+01 -1.62715397E+00 -3.56768965E-11 -1.36704965E+01
 -1.62715397E+00 -3.56768965E-11 -1.36704965E+01 -1.62715397E+00 -3.56768965E-11
 -1.36704965E+01 -1.62715397E+00 -3.56768965E-11 -1.36704421E+01  1.62718532E+00
  5.01464379E-10 -1.36704421E+01  1.62718532E+00  5.01464379E-10 -1.36704421E+01
  1.62718532E+00  5.01464379E-10 -1.36704421E+01  1.62718532E+00  5.01464379E-10
  1.36704965E+01  1.62715397E+00  1.32516010E-10  1.36704965E+01  1.62715397E+00
  1.32516010E-10  1.36704965E+01  1.62715397E+00  1.32516010E-10  1.36704965E+01
  1.62715397E+00  1.32516010E-10  1.36704421E+01 -1.62718532E+00  6.69612175E-10
  1.36704421E+01 -1.62718532E+00  6.69612175E-10  1.36704421E+01 -1.62718532E+00
  6.69612175E-10  1.36704421E+01 -1.62718532E+00  6.69612175E-10
Num ILSW                                   I              100
ILSW                                       I   N=         100
           1           0           0           0           2           0
           0           0           0           0        4336          -1
           7           0           0           0           2           0
           0           0           0           0           1           0
           1           1           0           0           0           0
           0           0      100000           0          -1           0
           0           0           0           0           0           0
           0           0           0           1           0           0
           0 -2000000000           1           0           0           0
           0           0           4          52           0           0
           0           0          55           0           0           0
           0           0           0           6           0           1
           0           0           0           0           0           0
           0           0           0           0           0           0
           0           0           0           0           0           0
           0           0           0           0           0           0
           0           0           0           0
Num RLSW                                   I               52
RLSW                                       R   N=          52
  1.00000000E+00  1.00000000E+00  1.00000000E+00  1.00000000E+00  5.40000000E-01
  0.00000000E+00  0.00000000E+00  1.00000000E+00  0.00000000E+00  0.00000000E+00
  0.00000000E+00  0.00000000E+00  1.00000000E+00  0.00000000E+00  0.00000000E+00
  0.00000000E+00  0.00000000E+00  1.00000000E+00  0.00000000E+00  0.00000000E+00
  0.00000000E+00  0.00000000E+00  1.00000000E+00  0.00000000E+00  0.00000000E+00
  0.00000000E+00  0.00000000E+00  1.00000000E+00  0.00000000E+00  0.00000000E+00
  0.00000000E+00  0.00000000E+00  1.00000000E+00  0.00000000E+00  0.00000000E+00
  0.00000000E+00  0.00000000E+00  0.00000000E+00  1.00000000E+00  1.00000000E+00
  0.00000000E+00  1.00000000E+00  0.00000000E+00  0.00000000E+00  0.00000000E+00
  0.00000000E+00  0.00000000E+00  0.00000000E+00  0.00000000E+00  0.00000000E+00
  0.00000000E+00  0.00000000E+00
MxBond                                     I                3
NBond                                      I   N=           6
           3           3           1           1           1           1
IBond                                      I   N=          18
           2           3           4           1           5           6
           1           0           0           1           0           0
           2           0           0           2           0           0
RBond                                      R   N=          18
  1.00000000E-01  1.00000000E+00  1.00000000E+00  1.00000000E-01  1.00000000E+00
  1.00000000E+00  1.00000000E+00  0.00000000E+00  0.00000000E+00  1.00000000E+00
  0.00000000E+00  0.00000000E+00  1.00000000E+00  0.00000000E+00  0.00000000E+00
  1.00000000E+00  0.00000000E+00  0.00000000E+00
Virial Ratio                               R      2.003519468315257E+00
SCF Energy                                 R     -7.823764790558853E+01
Total Energy                               R     -7.823764790558853E+01
S**2                                       R     -4.263256414560601E-14
S**2 after annihilation                    R      5.329070518200666E-14
RMS Force                                  R      1.522739307538550E-04
RMS Density                                R      1.728083936469946E-09
Job Status                                 I                1
Nuclear derivative order                   I                1
External E-field                           R   N=          35
  0.00000000E+00  0.00000000E+00  0.00000000E+00  0.00000000E+00  0.00000000E+00
  0.00000000E+00  0.00000000E+00  0.00000000E+00  0.00000000E+00  0.00000000E+00
  0.00000000E+00  0.00000000E+00  0.00000000E+00  0.00000000E+00  0.00000000E+00
  0.00000000E+00  0.00000000E+00  0.00000000E+00  0.00000000E+00  0.00000000E+00
  0.00000000E+00  0.00000000E+00  0.00000000E+00  0.00000000E+00  0.00000000E+00
  0.00000000E+00  0.00000000E+00  0.00000000E+00  0.00000000E+00  0.00000000E+00
  0.00000000E+00  0.00000000E+00  0.00000000E+00  0.00000000E+00  0.00000000E+00
IOpCl                                      I                1
IROHF                                      I                0
Alpha Orbital Energies                     R   N=          68
 -1.06079500E+01 -1.06079500E+01 -7.57199400E-01 -7.57199400E-01 -4.76015263E-01
 -4.76015263E-01 -3.14186558E-01 -3.14186489E-01 -8.23772437E-02 -8.23771636E-02
  2.38070173E-02  2.38110967E-02  6.62272940E-02  6.62305769E-02  8.56528909E-02
  8.56554489E-02  9.22208628E-02  9.22885153E-02  1.76387034E-01  1.76388194E-01
  1.95119910E-01  1.95122742E-01  4.41418617E-01  4.41421974E-01  4.85139034E-01
  4.85157631E-01  5.87818708E-01  5.87820149E-01  6.23428235E-01  6.23428291E-01
  6.35288293E-01  6.35299391E-01  7.30140729E-01  7.30158756E-01  1.09177558E+00
  1.09177614E+00  1.10404676E+00  1.10404676E+00  1.19256036E+00  1.19256038E+00
  1.55347066E+00  1.55347314E+00  1.56737788E+00  1.56737832E+00  1.62929567E+00
  1.62929649E+00  1.86614633E+00  1.86614633E+00  1.87887987E+00  1.87887996E+00
  2.13522005E+00  2.13522086E+00  2.36615392E+00  2.36615667E+00  2.45290121E+00
  2.45290263E+00  2.50158768E+00  2.50158790E+00  2.55719517E+00  2.55720113E+00
  2.75075137E+00  2.75075204E+00  3.06738940E+00  3.06740072E+00  3.59175741E+00
  3.59175741E+00  2.37698040E+01  2.37698071E+01
Beta Orbital Energies                      R   N=          68
 -1.06079500E+01 -1.06079500E+01 -7.57199400E-01 -7.57199400E-01 -4.76015263E-01
 -4.76015263E-01 -3.14186558E-01 -3.14186489E-01 -8.23772437E-02 -8.23771636E-02
  2.38070173E-02  2.38110967E-02  6.62272940E-02  6.62305769E-02  8.56528909E-02
  8.56554489E-02  9.22208628E-02  9.22885153E-02  1.76387034E-01  1.76388194E-01
  1.95119910E-01  1.95122742E-01  4.41418617E-01  4.41421974E-01  4.85139034E-01
  4.85157631E-01  5.87818708E-01  5.87820149E-01  6.23428235E-01  6.23428291E-01
  6.35288293E-01  6.35299391E-01  7.30140729E-01  7.30158756E-01  1.09177558E+00
  1.09177614E+00  1.10404676E+00  1.10404676E+00  1.19256036E+00  1.19256038E+00
  1.55347066E+00  1.55347314E+00  1.56737788E+00  1.56737832E+00  1.62929567E+00
  1.62929649E+00  1.86614633E+00  1.86614633E+00  1.87887987E+00  1.87887996E+00
  2.13522005E+00  2.13522086E+00  2.36615392E+00  2.36615667E+00  2.45290121E+00
  2.45290263E+00  2.50158768E+00  2.50158790E+00  2.55719517E+00  2.55720113E+00
  2.75075137E+00  2.75075204E+00  3.06738940E+00  3.06740072E+00  3.59175741E+00
  3.59175741E+00  2.37698040E+01  2.37698071E+01
Alpha MO coefficients                      R   N=        4624
  3.98869826E-01  3.28258597E-01 -1.50592925E-03  1.93845720E-08  2.65198305E-13
  7.74628461E-03 -1.18568079E-03  6.32989433E-08  2.14057452E-13 -2.70986444E-03
 -3.62036667E-05 -1.36425904E-09  2.16803999E-14 -4.98077049E-04  5.89893520E-04
 -1.52527027E-08 -1.07805419E-13 -7.01581683E-04 -2.02873118E-13  2.74271293E-13
 -2.53475232E-04 -1.66263496E-08 -3.98867262E-01 -3.28256487E-01 -1.50591957E-03
  1.93844481E-08 -3.83606642E-13 -7.74623480E-03 -1.18567317E-03  6.32985297E-08
 -3.84085921E-13  2.70984701E-03 -3.62034343E-05 -1.36425301E-09 -4.58486609E-15
  4.98073847E-04  5.89889728E-04 -1.52526019E-08  1.76881911E-13  7.01577171E-04
 -3.26198017E-13  2.89378784E-13  2.53473602E-04  1.66262388E-08  2.43997461E-04
 -1.93609114E-03  1.63770322E-03 -7.84317024E-04 -1.01270555E-03 -7.76262909E-14
  2.43987380E-04 -1.93616827E-03  1.63774929E-03 -7.84316434E-04  1.01276189E-03
  2.84125125E-13 -2.43995892E-04  1.93607869E-03 -1.63769269E-03 -7.84311981E-04
 -1.01269904E-03 -7.40932165E-14 -2.43985811E-04  1.93615582E-03 -1.63773876E-03
 -7.84311391E-04  1.01275538E-03 -3.80473226E-13  3.98867261E-01  3.28256490E-01
 -1.50591263E-03  1.93843164E-08  2.65307928E-13  7.74621092E-03 -1.18569557E-03
  6.32992614E-08  2.13555736E-13 -2.70977989E-03 -3.61473296E-05 -1.36451345E-09
  2.20775113E-14 -4.98033807E-04  5.89788510E-04 -1.52535937E-08 -1.08491670E-13
 -7.01575319E-04 -2.02012210E-13  2.72829517E-13 -2.53474958E-04 -1.66266235E-08
  3.98869826E-01  3.28258601E-01  1.50592231E-03 -1.93844361E-08  3.83509674E-13
  7.74626073E-03  1.18570319E-03 -6.32996856E-08  3.84032266E-13 -2.70979731E-03
  3.61475624E-05  1.36452854E-09  5.01195532E-15 -4.98037009E-04 -5.89792303E-04
  1.52536987E-08 -1.77195751E-13 -7.01579830E-04  3.26585416E-13 -2.89133014E-13
 -2.53476588E-04 -1.66267386E-08  2.43987536E-04 -1.93604279E-03  1.63761532E-03
 -7.84315487E-04 -1.01269904E-03 -7.75521476E-14  2.43977455E-04 -1.93611993E-03
  1.63766140E-03 -7.84314898E-04  1.01275539E-03  2.85286206E-13  2.43989105E-04
 -1.93605524E-03  1.63762585E-03  7.84320530E-04  1.01270556E-03  7.41825499E-14
  2.43979024E-04 -1.93613238E-03  1.63767193E-03  7.84319941E-04 -1.01276190E-03
  3.80073477E-13  7.40944725E-02  1.19248693E-01  4.81098814E-02 -1.27493710E-06
 -8.65870824E-12 -3.25418163E-01  7.17669758E-02 -1.71253651E-06 -1.20432666E-11
 -2.22373378E-01  3.19239645E-02 -6.89479158E-07 -5.83351896E-12 -4.29397048E-03
  2.15311547E-03 -2.72278869E-08 -1.37975484E-13  5.16078161E-03  1.56549456E-12
 -1.38560665E-12  8.32634939E-05  1.19315712E-07 -7.41045011E-02 -1.19264833E-01
  4.81163930E-02 -1.27510963E-06  1.42814020E-11  3.25462208E-01  7.17766893E-02
 -1.71276825E-06  2.07948475E-11  2.22403476E-01  3.19282853E-02 -6.89572457E-07
  9.67026622E-12  4.29455165E-03  2.15340687E-03 -2.72315753E-08  1.49651875E-13
 -5.16148011E-03  2.73745620E-12 -1.38868376E-12 -8.32747634E-05 -1.19331861E-07
 -8.08102789E-02 -9.78344167E-02 -5.88719861E-03 -6.69975713E-03 -1.18043311E-02
 -7.55772281E-13 -8.08113637E-02 -9.78354653E-02 -5.88728267E-03 -6.69948691E-03
  1.18046029E-02  3.02498304E-12  8.08212164E-02  9.78476584E-02  5.88799544E-03
 -6.70066393E-03 -1.18059288E-02 -1.52411576E-13  8.08223014E-02  9.78487071E-02
  5.88807951E-03 -6.70039367E-03  1.18062006E-02 -3.96061396E-12 -7.41045012E-02
 -1.19264834E-01 -4.81163963E-02  1.27510973E-06  8.65889623E-12  3.25462228E-01
 -7.17766748E-02  1.71276787E-06  1.20467152E-11  2.22403395E-01 -3.19283389E-02
  6.89572801E-07  5.83110103E-12  4.29448945E-03 -2.15326929E-03  2.72326595E-08
  1.39738542E-13 -5.16148192E-03 -1.56544699E-12  1.38471070E-12 -8.32742136E-05
 -1.19331617E-07 -7.40944727E-02 -1.19248694E-01  4.81098848E-02 -1.27493713E-06
  1.42781396E-11  3.25418183E-01  7.17669613E-02 -1.71253604E-06  2.07944833E-11
  2.22373298E-01  3.19240181E-02 -6.89479457E-07  9.66775912E-12  4.29390827E-03
  2.15297787E-03 -2.72289756E-08  1.50270583E-13 -5.16078342E-03  2.73771475E-12
 -1.38824203E-12 -8.32629441E-05 -1.19315468E-07  8.08212213E-02  9.78476246E-02
  5.88809614E-03  6.70066628E-03  1.18059286E-02  7.55213634E-13  8.08223063E-02
  9.78486734E-02  5.88818021E-03  6.70039603E-03 -1.18062004E-02 -3.02556294E-12
  8.08102838E-02  9.78343829E-02  5.88729932E-03 -6.69975949E-03 -1.18043309E-02
 -1.52309620E-13  8.08113687E-02  9.78354316E-02  5.88738338E-03 -6.69948927E-03
  1.18046027E-02 -3.96129492E-12  2.10505044E-07  3.52037647E-07  1.96022519E-06
  1.46164012E-01  2.38687133E-11 -9.93472694E-07  3.09818629E-06  2.17938949E-01
  3.55422652E-11 -1.88830900E-06  1.91158554E-06  1.18593152E-01  2.01236995E-11
 -2.47142911E-07  1.32164503E-08 -1.16181613E-03 -1.48452959E-12 -2.71336267E-08
 -5.22175459E-12  5.74843124E-12 -9.74952273E-07 -3.23488451E-02 -2.10962780E-07
 -3.52803141E-07  1.96448754E-06  1.46481841E-01 -2.41136949E-11  9.95632970E-07
  3.10492306E-06  2.18412850E-01 -3.58544388E-11  1.89241504E-06  1.91574214E-06
  1.18851028E-01 -1.99841257E-11  2.47680305E-07  1.32451856E-08 -1.16434246E-03
  8.18954307E-13  2.71926287E-08 -5.32116136E-12  9.42787411E-12  9.77072233E-07
  3.24191866E-02 -1.03738766E-01 -1.59602902E-01 -8.06231807E-02 -8.20340090E-03
 -3.20534795E-03  1.04282209E-12  1.03738520E-01  1.59602330E-01  8.06231831E-02
  8.20329195E-03 -3.20550937E-03 -1.98048654E-12  1.03964342E-01  1.59949953E-01
  8.07984932E-02 -8.22123892E-03 -3.21231787E-03 -1.88633268E-12 -1.03964096E-01
 -1.59949380E-01 -8.07984955E-02  8.22112973E-03 -3.21247964E-03  3.02643924E-12
  2.10962780E-07  3.52803142E-07  1.96448765E-06  1.46481841E-01  2.39211579E-11
 -9.95632996E-07  3.10492312E-06  2.18412850E-01  3.56192897E-11 -1.89241496E-06
  1.91574251E-06  1.18851029E-01  2.01687318E-11 -2.47680707E-07  1.32448922E-08
 -1.16434336E-03 -1.48743161E-12 -2.71926304E-08 -5.23289172E-12  5.76020527E-12
 -9.77072280E-07 -3.24191866E-02  2.10505043E-07  3.52037647E-07 -1.96022511E-06
 -1.46164012E-01  2.40615712E-11 -9.93472728E-07 -3.09818608E-06 -2.17938949E-01
  3.57766732E-11 -1.88830886E-06 -1.91158574E-06 -1.18593152E-01  1.99436934E-11
 -2.47143293E-07 -1.32161498E-08  1.16181703E-03 -8.18576087E-13 -2.71336304E-08
  5.31009859E-12 -9.40707583E-12 -9.74952239E-07 -3.23488451E-02 -1.03964342E-01
 -1.59949953E-01 -8.07984941E-02 -8.22123890E-03 -3.21231785E-03  1.04446310E-12
  1.03964096E-01  1.59949379E-01  8.07984965E-02  8.22112971E-03 -3.21247963E-03
 -1.98515938E-12 -1.03738766E-01 -1.59602902E-01 -8.06231817E-02  8.20340088E-03
  3.20534793E-03  1.88162989E-12  1.03738520E-01  1.59602329E-01  8.06231840E-02
 -8.20329192E-03  3.20550935E-03 -3.02015448E-12 -3.90228911E-02 -6.48149325E-02
  1.62027179E-01 -2.41988453E-06 -2.81979814E-11  1.88633749E-01  2.33598022E-01
 -3.34138795E-06 -4.14572829E-11  2.95306572E-01  2.12926821E-01 -2.98180165E-06
 -3.66297675E-11  4.22992724E-02  3.72570808E-02 -5.08865705E-07 -7.27985240E-12
  1.76310818E-02  8.26655984E-12 -2.21667225E-12 -1.66045417E-02  4.93995102E-07
 -3.90228951E-02 -6.48149392E-02 -1.62027195E-01  2.41988469E-06 -4.65158235E-11
  1.88633768E-01 -2.33598046E-01  3.34138814E-06 -6.66455433E-11  2.95306602E-01
 -2.12926843E-01  2.98180184E-06 -6.10671980E-11  4.22992768E-02 -3.72570847E-02
  5.08865751E-07 -9.43764612E-12  1.76310836E-02 -1.32862579E-11  2.24897678E-12
 -1.66045434E-02  4.93995130E-07 -4.88308878E-02 -9.03208915E-02 -6.06942546E-02
  7.27407121E-03 -9.88738559E-03 -2.44205891E-12 -4.88307268E-02 -9.03205365E-02
 -6.06938715E-02  7.27438604E-03  9.88719850E-03  3.79617382E-13 -4.88308929E-02
 -9.03209009E-02 -6.06942609E-02 -7.27407196E-03  9.88738662E-03 -3.58051335E-12
 -4.88307318E-02 -9.03205458E-02 -6.06938778E-02 -7.27438680E-03 -9.88719952E-03
 -3.53494799E-13 -3.90229173E-02 -6.48149548E-02  1.62027366E-01 -2.41988750E-06
 -2.81981637E-11  1.88633513E-01  2.33597821E-01 -3.34138010E-06 -4.14572900E-11
  2.95308486E-01  2.12928403E-01 -2.98181633E-06 -3.66317049E-11  4.22999183E-02
  3.72535955E-02 -5.08898390E-07 -7.27716024E-12  1.76311214E-02  8.26679585E-12
 -2.21663822E-12 -1.66045674E-02  4.93990570E-07  3.90229133E-02  6.48149481E-02
  1.62027349E-01 -2.41988715E-06  4.65146073E-11 -1.88633493E-01  2.33597796E-01
 -3.34137960E-06  6.66439859E-11 -2.95308456E-01  2.12928381E-01 -2.98181589E-06
  6.10691575E-11 -4.22999139E-02  3.72535916E-02 -5.08898333E-07  9.43881469E-12
 -1.76311196E-02  1.32861900E-11 -2.24919526E-12  1.66045657E-02 -4.93990495E-07
 -4.88309931E-02 -9.03203907E-02 -6.06960470E-02  7.27402133E-03 -9.88739378E-03
 -2.44203525E-12 -4.88308320E-02 -9.03200357E-02 -6.06956638E-02  7.27433616E-03
  9.88720669E-03  3.79505514E-13  4.88309880E-02  9.03203813E-02  6.06960407E-02
  7.27402058E-03 -9.88739276E-03  3.58024669E-12  4.88308269E-02  9.03200263E-02
  6.06956575E-02  7.27433541E-03  9.88720566E-03  3.53572658E-13  3.45165294E-14
  4.13473950E-14  2.85530517E-11 -2.63800914E-11  1.62097232E-01  2.22186880E-12
  4.62642900E-11 -4.19317538E-11  2.56298000E-01 -2.56716475E-11  6.35901372E-11
 -4.56692956E-11  3.02438854E-01 -3.23881303E-11  4.69940768E-11 -2.98617956E-11
  1.80555862E-01  6.55146056E-12 -1.72569726E-02  2.99021261E-07 -2.71300423E-12
  2.42804975E-12  3.97037504E-13  5.98631710E-13 -4.72286291E-11  2.65687944E-11
  1.62097233E-01 -1.08795427E-12 -7.56058432E-11  4.32142063E-11  2.56298002E-01
 -8.53918549E-12 -8.95047345E-11  4.93334278E-11  3.02438856E-01 -8.02925177E-12
 -5.75898748E-11  3.29219781E-11  1.80555863E-01  8.64426499E-12  1.72569727E-02
 -2.99021252E-07 -5.02231339E-12  3.27328230E-12  5.08119114E-13  2.03987014E-12
  3.47471782E-11  4.17694675E-12 -1.10524615E-12  1.63151272E-02  6.52504588E-13
  9.93886262E-13  2.65686769E-11  3.46464583E-12 -3.74872373E-12  1.63151936E-02
  8.23602093E-13  1.10699159E-12  5.15267838E-12 -4.68087794E-12  2.82426197E-12
  1.63151273E-02  1.11037413E-12  1.59227869E-12  9.61787918E-12 -5.23927979E-12
  3.24792091E-12  1.63151937E-02  3.42278095E-14  4.13312024E-14  2.85537885E-11
 -2.63794605E-11  1.62097454E-01  2.21998399E-12  4.62646469E-11 -4.19325571E-11
  2.56298027E-01 -2.56555351E-11  6.35923989E-11 -4.56673984E-11  3.02440238E-01
 -3.23826603E-11  4.69761320E-11 -2.98638622E-11  1.80553807E-01  6.55207934E-12
 -1.72569989E-02  2.99021783E-07 -2.71300961E-12  2.42864621E-12 -3.96754040E-13
 -5.98573121E-13  4.72296151E-11 -2.65684752E-11 -1.62097453E-01  1.08905616E-12
  7.56048987E-11 -4.32143969E-11 -2.56298026E-01  8.52436740E-12  8.95046439E-11