 Entering Gaussian System, Link 0=g16
 Initial command:
 /home/szhao/Apps/g16/l1.exe "/home/szhao/tmp/Gau-51217.inp" -scrdir="/home/szhao/tmp/"
 Default is to use a total of  16 processors:
                               16 via shared-memory
                                1 via Linda
 Entering Link 1 = /home/szhao/Apps/g16/l1.exe PID=     51243.
  
 Copyright (c) 1988,1990,1992,1993,1995,1998,2003,2009,2016,
            Gaussian, Inc.  All Rights Reserved.
  
 This is part of the Gaussian(R) 16 program.  It is based on
 the Gaussian(R) 09 system (copyright 2009, Gaussian, Inc.),
 the Gaussian(R) 03 system (copyright 2003, Gaussian, Inc.),
 the Gaussian(R) 98 system (copyright 1998, Gaussian, Inc.),
 the Gaussian(R) 94 system (copyright 1995, Gaussian, Inc.),
 the Gaussian 92(TM) system (copyright 1992, Gaussian, Inc.),
 the Gaussian 90(TM) system (copyright 1990, Gaussian, Inc.),
 the Gaussian 88(TM) system (copyright 1988, Gaussian, Inc.),
 the Gaussian 86(TM) system (copyright 1986, Carnegie Mellon
 University), and the Gaussian 82(TM) system (copyright 1983,
 Carnegie Mellon University). Gaussian is a federally registered
 trademark of Gaussian, Inc.
  
 This software contains proprietary and confidential information,
 including trade secrets, belonging to Gaussian, Inc.
  
 This software is provided under written license and may be
 used, copied, transmitted, or stored only in accord with that
 written license.
  
 The following legend is applicable only to US Government
 contracts under FAR:
  
                    RESTRICTED RIGHTS LEGEND
  
 Use, reproduction and disclosure by the US Government is
 subject to restrictions as set forth in subparagraphs (a)
 and (c) of the Commercial Computer Software - Restricted
 Rights clause in FAR 52.227-19.
  
 Gaussian, Inc.
 340 Quinnipiac St., Bldg. 40, Wallingford CT 06492
  
  
 ---------------------------------------------------------------
 Warning -- This program may not be used in any manner that
 competes with the business of Gaussian, Inc. or will provide
 assistance to any competitor of Gaussian, Inc.  The licensee
 of this program is prohibited from giving any competitor of
 Gaussian, Inc. access to this program.  By using this program,
 the user acknowledges that Gaussian, Inc. is engaged in the
 business of creating and licensing software in the field of
 computational chemistry and represents and warrants to the
 licensee that it is not a competitor of Gaussian, Inc. and that
 it will not use this program in any manner prohibited above.
 ---------------------------------------------------------------
  

 Cite this work as:
 Gaussian 16, Revision A.03,
 M. J. Frisch, G. W. Trucks, H. B. Schlegel, G. E. Scuseria, 
 M. A. Robb, J. R. Cheeseman, G. Scalmani, V. Barone, 
 G. A. Petersson, H. Nakatsuji, X. Li, M. Caricato, A. V. Marenich, 
 J. Bloino, B. G. Janesko, R. Gomperts, B. Mennucci, H. P. Hratchian, 
 J. V. Ortiz, A. F. Izmaylov, J. L. Sonnenberg, D. Williams-Young, 
 F. Ding, F. Lipparini, F. Egidi, J. Goings, B. Peng, A. Petrone, 
 T. Henderson, D. Ranasinghe, V. G. Zakrzewski, J. Gao, N. Rega, 
 G. Zheng, W. Liang, M. Hada, M. Ehara, K. Toyota, R. Fukuda, 
 J. Hasegawa, M. Ishida, T. Nakajima, Y. Honda, O. Kitao, H. Nakai, 
 T. Vreven, K. Throssell, J. A. Montgomery, Jr., J. E. Peralta, 
 F. Ogliaro, M. J. Bearpark, J. J. Heyd, E. N. Brothers, K. N. Kudin, 
 V. N. Staroverov, T. A. Keith, R. Kobayashi, J. Normand, 
 K. Raghavachari, A. P. Rendell, J. C. Burant, S. S. Iyengar, 
 J. Tomasi, M. Cossi, J. M. Millam, M. Klene, C. Adamo, R. Cammi, 
 J. W. Ochterski, R. L. Martin, K. Morokuma, O. Farkas, 
 J. B. Foresman, and D. J. Fox, Gaussian, Inc., Wallingford CT, 2016.
 
 ******************************************
 Gaussian 16:  ES64L-G16RevA.03 25-Dec-2016
                20-Mar-2025 
 ******************************************
 %chk=opt.chk
 %mem=24GB
 %nprocshared=28
 Will use up to   28 processors via shared memory.
 ---------------------------------------------------------------------
 #p opt UM062X/6-311+G** nosymm int=superfine SCF=(Tight,MaxCycle=200)
 ---------------------------------------------------------------------
 1/18=20,19=15,26=5,38=1/1,3;
 2/9=110,12=2,15=1,17=6,18=5,40=1/2;
 3/5=4,6=6,7=111,11=2,25=1,30=1,71=1,74=-55,75=-7,116=2/1,2,3;
 4//1;
 5/5=2,7=200,32=2,38=5/2;
 6/7=2,8=2,9=2,10=2,28=1/1;
 7/30=1/1,2,3,16;
 1/18=20,19=15,26=5/3(2);
 2/9=110,15=1/2;
 99//99;
 2/9=110,15=1/2;
 3/5=4,6=6,7=111,11=2,25=1,30=1,71=1,74=-55,75=-7,116=2/1,2,3;
 4/5=5,16=3,69=1/1;
 5/5=2,7=200,32=2,38=5/2;
 7/30=1/1,2,3,16;
 1/18=20,19=15,26=5/3(-5);
 2/9=110,15=1/2;
 6/7=2,8=2,9=2,10=2,19=2,28=1/1;
 99/9=1/99;
 Leave Link    1 at Thu Mar 20 16:18:06 2025, MaxMem=  3221225472 cpu:               3.5 elap:               0.2
 (Enter /home/szhao/Apps/g16/l101.exe)
 -------------------
 Title Card Required
 -------------------
 Symbolic Z-matrix:
 Charge =  1 Multiplicity = 2
 C                    -1   -1.02724   0.        0. 
 C                    -1    1.02724   0.        0. 
 C                    0     0.00001  -2.15642   0.00036 
 C                    0     0.00001  -3.53177   0.00057 
 C                    0    -0.95771  -4.32428   0.27971 
 C                    0    -1.02642  -1.48111   0.2612 
 C                    0     0.5575   -5.72059  -0.16373 
 H                    0     1.07506  -6.59818  -0.31972 
 C                    0    -1.24681   0.83924   1.1605 
 C                    0    -0.5577   -5.72054   0.16439 
 H                    0    -1.07534  -6.59809   0.32024 
 C                    0     0.95764  -4.32436  -0.2788 
 C                    0     1.0264   -1.48116  -0.26092 
 C                    0     1.4157    2.2544   -1.16869 
 C                    0    -1.24622   0.30603  -1.40737 
 C                    0    -1.59918   2.91081   2.39777 
 H                    0    -1.73444   3.98261   2.37971 
 C                    0    -1.95046  -3.6642    0.5763 
 H                    0    -2.72565  -4.19797   0.80626 
 C                    0    -1.31596   1.60942  -1.98927 
 C                    0     1.97457  -2.23543  -0.55534 
 H                    0     2.77459  -1.73401  -0.73946 
 C                    0     1.24638   0.30612   1.40731 
 C                    0     1.316     1.60951   1.98921 
 C                    0     1.95033  -3.66436  -0.57587 
 H                    0     2.72543  -4.19818  -0.80609 
 C                    0    -1.41629   2.25427   1.16871 
 C                    0    -1.24002   0.19488   2.42776 
 H                    0    -1.08407  -0.86727   2.47573 
 C                    0     1.35999  -0.78817   2.31079 
 H                    0     1.34381  -1.80013   1.93766 
 C                    0    -1.61179   2.24306   3.60206 
 H                    0    -1.75934   2.7823    4.52521 
 C                    0    -1.97466  -2.23528   0.55555 
 H                    0    -2.77471  -1.73379   0.73936 
 C                    0    -1.43869   1.73854  -3.38704 
 H                    0    -1.47303   2.73907  -3.80158 
 C                    0     1.24675   0.83929  -1.16052 
 C                    0    -1.37728   3.13329   0.02989 
 H                    0    -1.41862   4.18685   0.28739 
 C                    0    -1.54062   0.65295  -4.22299 
 H                    0    -1.65095   0.79239  -5.2892 
 C                    0    -1.30902   2.8645   -1.2869 
 H                    0    -1.29845   3.73279  -1.93871 
 C                    0     1.43932   1.73861   3.38692 
 H                    0     1.47361   2.73914   3.80146 
 C                    0    -1.42018   0.86413   3.61171 
 H                    0    -1.40454   0.31624   4.54595 
 C                    0    -1.35943  -0.78826  -2.31093 
 H                    0    -1.34327  -1.80023  -1.93785 
 C                    0     1.54177   0.65303   4.22278 
 H                    0     1.65253   0.79245   5.28892 
 C                    0     1.59856   2.91107  -2.39768 
 H                    0     1.73338   3.98295  -2.37956 
 C                    0     1.51544  -0.62739   3.66585 
 H                    0     1.61448  -1.50257   4.29316 
 C                    0     1.61166   2.24335  -3.60198 
 H                    0     1.75922   2.78268  -4.52509 
 C                    0     1.37601   3.13344  -0.0299 
 H                    0     1.41653   4.18703  -0.28744 
 C                    0    -1.51441  -0.62747  -3.66607 
 H                    0    -1.61316  -1.50265  -4.29345 
 C                    0     1.30814   2.8646    1.28691 
 H                    0     1.29708   3.73287   1.93873 
 C                    0     1.24026   0.19499  -2.42782 
 H                    0     1.0845   -0.86718  -2.4759 
 C                    0     1.42045   0.86436  -3.61171 
 H                    0     1.40512   0.31649  -4.54597 
 
 ITRead=  2  2  0  0  0  0  0  0  0  0  0  0  0  0  0  0  0  0  0  0
 ITRead=  0  0  0  0  0  0  0  0  0  0  0  0  0  0  0  0  0  0  0  0
 ITRead=  0  0  0  0  0  0  0  0  0  0  0  0  0  0  0  0  0  0  0  0
 ITRead=  0  0  0  0  0  0  0  0
 MicOpt= -2 -2 -1 -1 -1 -1 -1 -1 -1 -1 -1 -1 -1 -1 -1 -1 -1 -1 -1 -1
 MicOpt= -1 -1 -1 -1 -1 -1 -1 -1 -1 -1 -1 -1 -1 -1 -1 -1 -1 -1 -1 -1
 MicOpt= -1 -1 -1 -1 -1 -1 -1 -1 -1 -1 -1 -1 -1 -1 -1 -1 -1 -1 -1 -1
 MicOpt= -1 -1 -1 -1 -1 -1 -1 -1
 NAtoms=     68 NQM=       66 NQMF=       2 NMMI=      0 NMMIF=      0
                NMic=       0 NMicF=      0.
                    Isotopes and Nuclear Properties:
 (Nuclear quadrupole moments (NQMom) in fm**2, nuclear magnetic moments (NMagM)
  in nuclear magnetons)

  Atom         1           2           3           4           5           6           7           8           9          10
 IAtWgt=          12          12          12          12          12          12          12           1          12          12
 AtmWgt=  12.0000000  12.0000000  12.0000000  12.0000000  12.0000000  12.0000000  12.0000000   1.0078250  12.0000000  12.0000000
 NucSpn=           0           0           0           0           0           0           0           1           0           0
 AtZEff=  -0.0000000  -0.0000000  -0.0000000  -0.0000000  -0.0000000  -0.0000000  -0.0000000  -0.0000000  -0.0000000  -0.0000000
 NQMom=    0.0000000   0.0000000   0.0000000   0.0000000   0.0000000   0.0000000   0.0000000   0.0000000   0.0000000   0.0000000
 NMagM=    0.0000000   0.0000000   0.0000000   0.0000000   0.0000000   0.0000000   0.0000000   2.7928460   0.0000000   0.0000000
 AtZNuc=   6.0000000   6.0000000   6.0000000   6.0000000   6.0000000   6.0000000   6.0000000   1.0000000   6.0000000   6.0000000

  Atom        11          12          13          14          15          16          17          18          19          20
 IAtWgt=           1          12          12          12          12          12           1          12           1          12
 AtmWgt=   1.0078250  12.0000000  12.0000000  12.0000000  12.0000000  12.0000000   1.0078250  12.0000000   1.0078250  12.0000000
 NucSpn=           1           0           0           0           0           0           1           0           1           0
 AtZEff=  -0.0000000  -0.0000000  -0.0000000  -0.0000000  -0.0000000  -0.0000000  -0.0000000  -0.0000000  -0.0000000  -0.0000000
 NQMom=    0.0000000   0.0000000   0.0000000   0.0000000   0.0000000   0.0000000   0.0000000   0.0000000   0.0000000   0.0000000
 NMagM=    2.7928460   0.0000000   0.0000000   0.0000000   0.0000000   0.0000000   2.7928460   0.0000000   2.7928460   0.0000000
 AtZNuc=   1.0000000   6.0000000   6.0000000   6.0000000   6.0000000   6.0000000   1.0000000   6.0000000   1.0000000   6.0000000

  Atom        21          22          23          24          25          26          27          28          29          30
 IAtWgt=          12           1          12          12          12           1          12          12           1          12
 AtmWgt=  12.0000000   1.0078250  12.0000000  12.0000000  12.0000000   1.0078250  12.0000000  12.0000000   1.0078250  12.0000000
 NucSpn=           0           1           0           0           0           1           0           0           1           0
 AtZEff=  -0.0000000  -0.0000000  -0.0000000  -0.0000000  -0.0000000  -0.0000000  -0.0000000  -0.0000000  -0.0000000  -0.0000000
 NQMom=    0.0000000   0.0000000   0.0000000   0.0000000   0.0000000   0.0000000   0.0000000   0.0000000   0.0000000   0.0000000
 NMagM=    0.0000000   2.7928460   0.0000000   0.0000000   0.0000000   2.7928460   0.0000000   0.0000000   2.7928460   0.0000000
 AtZNuc=   6.0000000   1.0000000   6.0000000   6.0000000   6.0000000   1.0000000   6.0000000   6.0000000   1.0000000   6.0000000

  Atom        31          32          33          34          35          36          37          38          39          40
 IAtWgt=           1          12           1          12           1          12           1          12          12           1
 AtmWgt=   1.0078250  12.0000000   1.0078250  12.0000000   1.0078250  12.0000000   1.0078250  12.0000000  12.0000000   1.0078250
 NucSpn=           1           0           1           0           1           0           1           0           0           1
 AtZEff=  -0.0000000  -0.0000000  -0.0000000  -0.0000000  -0.0000000  -0.0000000  -0.0000000  -0.0000000  -0.0000000  -0.0000000
 NQMom=    0.0000000   0.0000000   0.0000000   0.0000000   0.0000000   0.0000000   0.0000000   0.0000000   0.0000000   0.0000000
 NMagM=    2.7928460   0.0000000   2.7928460   0.0000000   2.7928460   0.0000000   2.7928460   0.0000000   0.0000000   2.7928460
 AtZNuc=   1.0000000   6.0000000   1.0000000   6.0000000   1.0000000   6.0000000   1.0000000   6.0000000   6.0000000   1.0000000

  Atom        41          42          43          44          45          46          47          48          49          50
 IAtWgt=          12           1          12           1          12           1          12           1          12           1
 AtmWgt=  12.0000000   1.0078250  12.0000000   1.0078250  12.0000000   1.0078250  12.0000000   1.0078250  12.0000000   1.0078250
 NucSpn=           0           1           0           1           0           1           0           1           0           1
 AtZEff=  -0.0000000  -0.0000000  -0.0000000  -0.0000000  -0.0000000  -0.0000000  -0.0000000  -0.0000000  -0.0000000  -0.0000000
 NQMom=    0.0000000   0.0000000   0.0000000   0.0000000   0.0000000   0.0000000   0.0000000   0.0000000   0.0000000   0.0000000
 NMagM=    0.0000000   2.7928460   0.0000000   2.7928460   0.0000000   2.7928460   0.0000000   2.7928460   0.0000000   2.7928460
 AtZNuc=   6.0000000   1.0000000   6.0000000   1.0000000   6.0000000   1.0000000   6.0000000   1.0000000   6.0000000   1.0000000

  Atom        51          52          53          54          55          56          57          58          59          60
 IAtWgt=          12           1          12           1          12           1          12           1          12           1
 AtmWgt=  12.0000000   1.0078250  12.0000000   1.0078250  12.0000000   1.0078250  12.0000000   1.0078250  12.0000000   1.0078250
 NucSpn=           0           1           0           1           0           1           0           1           0           1
 AtZEff=  -0.0000000  -0.0000000  -0.0000000  -0.0000000  -0.0000000  -0.0000000  -0.0000000  -0.0000000  -0.0000000  -0.0000000
 NQMom=    0.0000000   0.0000000   0.0000000   0.0000000   0.0000000   0.0000000   0.0000000   0.0000000   0.0000000   0.0000000
 NMagM=    0.0000000   2.7928460   0.0000000   2.7928460   0.0000000   2.7928460   0.0000000   2.7928460   0.0000000   2.7928460
 AtZNuc=   6.0000000   1.0000000   6.0000000   1.0000000   6.0000000   1.0000000   6.0000000   1.0000000   6.0000000   1.0000000

  Atom        61          62          63          64          65          66          67          68
 IAtWgt=          12           1          12           1          12           1          12           1
 AtmWgt=  12.0000000   1.0078250  12.0000000   1.0078250  12.0000000   1.0078250  12.0000000   1.0078250
 NucSpn=           0           1           0           1           0           1           0           1
 AtZEff=  -0.0000000  -0.0000000  -0.0000000  -0.0000000  -0.0000000  -0.0000000  -0.0000000  -0.0000000
 NQMom=    0.0000000   0.0000000   0.0000000   0.0000000   0.0000000   0.0000000   0.0000000   0.0000000
 NMagM=    0.0000000   2.7928460   0.0000000   2.7928460   0.0000000   2.7928460   0.0000000   2.7928460
 AtZNuc=   6.0000000   1.0000000   6.0000000   1.0000000   6.0000000   1.0000000   6.0000000   1.0000000
 Leave Link  101 at Thu Mar 20 16:18:07 2025, MaxMem=  3221225472 cpu:              18.4 elap:               0.8
 (Enter /home/szhao/Apps/g16/l103.exe)

 GradGradGradGradGradGradGradGradGradGradGradGradGradGradGradGradGradGrad
 Berny optimization.
 Initialization pass.
                           ----------------------------
                           !    Initial Parameters    !
                           ! (Angstroms and Degrees)  !
 --------------------------                            --------------------------
 ! Name  Definition              Value          Derivative Info.                !
 --------------------------------------------------------------------------------
 ! X1    R(1,-1)                -1.0272         Frozen                          !
 ! Y1    R(1,-2)                 0.0            Frozen                          !
 ! Z1    R(1,-3)                 0.0            Frozen                          !
 ! X2    R(2,-1)                 1.0272         Frozen                          !
 ! Y2    R(2,-2)                 0.0            Frozen                          !
 ! Z2    R(2,-3)                 0.0            Frozen                          !
 ! R1    R(1,6)                  1.504          estimate D2E/DX2                !
 ! R2    R(1,9)                  1.4489         estimate D2E/DX2                !
 ! R3    R(1,15)                 1.4568         estimate D2E/DX2                !
 ! R4    R(2,13)                 1.504          estimate D2E/DX2                !
 ! R5    R(2,23)                 1.4568         estimate D2E/DX2                !
 ! R6    R(2,38)                 1.4489         estimate D2E/DX2                !
 ! R7    R(3,4)                  1.3754         estimate D2E/DX2                !
 ! R8    R(3,6)                  1.256          estimate D2E/DX2                !
 ! R9    R(3,13)                 1.2561         estimate D2E/DX2                !
 ! R10   R(4,5)                  1.2741         estimate D2E/DX2                !
 ! R11   R(4,12)                 1.2741         estimate D2E/DX2                !
 ! R12   R(5,10)                 1.457          estimate D2E/DX2                !
 ! R13   R(5,18)                 1.2285         estimate D2E/DX2                !
 ! R14   R(6,34)                 1.2468         estimate D2E/DX2                !
 ! R15   R(7,8)                  1.0307         estimate D2E/DX2                !
 ! R16   R(7,10)                 1.1625         estimate D2E/DX2                !
 ! R17   R(7,12)                 1.457          estimate D2E/DX2                !
 ! R18   R(9,27)                 1.4252         estimate D2E/DX2                !
 ! R19   R(9,28)                 1.4217         estimate D2E/DX2                !
 ! R20   R(10,11)                1.0307         estimate D2E/DX2                !
 ! R21   R(12,25)                1.2285         estimate D2E/DX2                !
 ! R22   R(13,21)                1.2468         estimate D2E/DX2                !
 ! R23   R(14,38)                1.4252         estimate D2E/DX2                !
 ! R24   R(14,53)                1.4054         estimate D2E/DX2                !
 ! R25   R(14,59)                1.4391         estimate D2E/DX2                !
 ! R26   R(15,20)                1.4291         estimate D2E/DX2                !
 ! R27   R(15,49)                1.4236         estimate D2E/DX2                !
 ! R28   R(16,17)                1.0805         estimate D2E/DX2                !
 ! R29   R(16,27)                1.4054         estimate D2E/DX2                !
 ! R30   R(16,32)                1.3771         estimate D2E/DX2                !
 ! R31   R(18,19)                0.9689         estimate D2E/DX2                !
 ! R32   R(18,34)                1.4293         estimate D2E/DX2                !
 ! R33   R(20,36)                1.4091         estimate D2E/DX2                !
 ! R34   R(20,43)                1.4383         estimate D2E/DX2                !
 ! R35   R(21,22)                0.962          estimate D2E/DX2                !
 ! R36   R(21,25)                1.4293         estimate D2E/DX2                !
 ! R37   R(23,24)                1.4291         estimate D2E/DX2                !
 ! R38   R(23,30)                1.4236         estimate D2E/DX2                !
 ! R39   R(24,45)                1.4091         estimate D2E/DX2                !
 ! R40   R(24,63)                1.4382         estimate D2E/DX2                !
 ! R41   R(25,26)                0.9689         estimate D2E/DX2                !
 ! R42   R(27,39)                1.4391         estimate D2E/DX2                !
 ! R43   R(28,29)                1.0746         estimate D2E/DX2                !
 ! R44   R(28,47)                1.3719         estimate D2E/DX2                !
 ! R45   R(30,31)                1.0787         estimate D2E/DX2                !
 ! R46   R(30,55)                1.3734         estimate D2E/DX2                !
 ! R47   R(32,33)                1.0792         estimate D2E/DX2                !
 ! R48   R(32,47)                1.3922         estimate D2E/DX2                !
 ! R49   R(34,35)                0.962          estimate D2E/DX2                !
 ! R50   R(36,37)                1.0836         estimate D2E/DX2                !
 ! R51   R(36,41)                1.3739         estimate D2E/DX2                !
 ! R52   R(38,65)                1.4217         estimate D2E/DX2                !
 ! R53   R(39,40)                1.0854         estimate D2E/DX2                !
 ! R54   R(39,43)                1.3457         estimate D2E/DX2                !
 ! R55   R(41,42)                1.0809         estimate D2E/DX2                !
 ! R56   R(41,61)                1.3965         estimate D2E/DX2                !
 ! R57   R(43,44)                1.0858         estimate D2E/DX2                !
 ! R58   R(45,46)                1.0836         estimate D2E/DX2                !
 ! R59   R(45,51)                1.3739         estimate D2E/DX2                !
 ! R60   R(47,48)                1.0832         estimate D2E/DX2                !
 ! R61   R(49,50)                1.0787         estimate D2E/DX2                !
 ! R62   R(49,61)                1.3734         estimate D2E/DX2                !
 ! R63   R(51,52)                1.0809         estimate D2E/DX2                !
 ! R64   R(51,55)                1.3965         estimate D2E/DX2                !
 ! R65   R(53,54)                1.0805         estimate D2E/DX2                !
 ! R66   R(53,57)                1.3771         estimate D2E/DX2                !
 ! R67   R(55,56)                1.0813         estimate D2E/DX2                !
 ! R68   R(57,58)                1.0792         estimate D2E/DX2                !
 ! R69   R(57,67)                1.3922         estimate D2E/DX2                !
 ! R70   R(59,60)                1.0854         estimate D2E/DX2                !
 ! R71   R(59,63)                1.3457         estimate D2E/DX2                !
 ! R72   R(61,62)                1.0813         estimate D2E/DX2                !
 ! R73   R(63,64)                1.0858         estimate D2E/DX2                !
 ! R74   R(65,66)                1.0746         estimate D2E/DX2                !
 ! R75   R(65,67)                1.3719         estimate D2E/DX2                !
 ! R76   R(67,68)                1.0832         estimate D2E/DX2                !
 ! A1    A(6,1,9)              115.5567         estimate D2E/DX2                !
 ! A2    A(6,1,15)             112.0083         estimate D2E/DX2                !
 ! A3    A(9,1,15)             128.9993         estimate D2E/DX2                !
 ! A4    A(13,2,23)            112.0012         estimate D2E/DX2                !
 ! A5    A(13,2,38)            115.5684         estimate D2E/DX2                !
 ! A6    A(23,2,38)            128.9936         estimate D2E/DX2                !
 ! A7    A(4,3,6)              122.5217         estimate D2E/DX2                !
 ! A8    A(4,3,13)             122.5221         estimate D2E/DX2                !
 ! A9    A(6,3,13)             114.9562         estimate D2E/DX2                !
 ! A10   A(3,4,5)              128.4673         estimate D2E/DX2                !
 ! A11   A(3,4,12)             128.4663         estimate D2E/DX2                !
 ! A12   A(5,4,12)             103.0664         estimate D2E/DX2                !
 ! A13   A(4,5,10)             111.863          estimate D2E/DX2                !
 ! A14   A(4,5,18)             109.0343         estimate D2E/DX2                !
 ! A15   A(10,5,18)            139.1008         estimate D2E/DX2                !
 ! A16   A(1,6,3)              119.5942         estimate D2E/DX2                !
 ! A17   A(1,6,34)             129.514          estimate D2E/DX2                !
 ! A18   A(3,6,34)             110.2011         estimate D2E/DX2                !
 ! A19   A(8,7,10)             121.6327         estimate D2E/DX2                !
 ! A20   A(8,7,12)             131.7651         estimate D2E/DX2                !
 ! A21   A(10,7,12)            106.6021         estimate D2E/DX2                !
 ! A22   A(1,9,27)             126.7088         estimate D2E/DX2                !
 ! A23   A(1,9,28)             116.7885         estimate D2E/DX2                !
 ! A24   A(27,9,28)            116.4518         estimate D2E/DX2                !
 ! A25   A(5,10,7)             106.6041         estimate D2E/DX2                !
 ! A26   A(5,10,11)            131.7645         estimate D2E/DX2                !
 ! A27   A(7,10,11)            121.6312         estimate D2E/DX2                !
 ! A28   A(4,12,7)             111.864          estimate D2E/DX2                !
 ! A29   A(4,12,25)            109.0354         estimate D2E/DX2                !
 ! A30   A(7,12,25)            139.0985         estimate D2E/DX2                !
 ! A31   A(2,13,3)             119.5913         estimate D2E/DX2                !
 ! A32   A(2,13,21)            129.5173         estimate D2E/DX2                !
 ! A33   A(3,13,21)            110.2001         estimate D2E/DX2                !
 ! A34   A(38,14,53)           118.9724         estimate D2E/DX2                !
 ! A35   A(38,14,59)           126.7758         estimate D2E/DX2                !
 ! A36   A(53,14,59)           114.2159         estimate D2E/DX2                !
 ! A37   A(1,15,20)            126.3199         estimate D2E/DX2                !
 ! A38   A(1,15,49)            117.6217         estimate D2E/DX2                !
 ! A39   A(20,15,49)           116.0232         estimate D2E/DX2                !
 ! A40   A(17,16,27)           117.7167         estimate D2E/DX2                !
 ! A41   A(17,16,32)           119.6357         estimate D2E/DX2                !
 ! A42   A(27,16,32)           122.6476         estimate D2E/DX2                !
 ! A43   A(5,18,19)            114.07           estimate D2E/DX2                !
 ! A44   A(5,18,34)            123.1846         estimate D2E/DX2                !
 ! A45   A(19,18,34)           122.7302         estimate D2E/DX2                !
 ! A46   A(15,20,36)           119.4549         estimate D2E/DX2                !
 ! A47   A(15,20,43)           126.6411         estimate D2E/DX2                !
 ! A48   A(36,20,43)           113.8841         estimate D2E/DX2                !
 ! A49   A(13,21,22)           111.2424         estimate D2E/DX2                !
 ! A50   A(13,21,25)           126.5333         estimate D2E/DX2                !
 ! A51   A(22,21,25)           122.1725         estimate D2E/DX2                !
 ! A52   A(2,23,24)            126.3228         estimate D2E/DX2                !
 ! A53   A(2,23,30)            117.6174         estimate D2E/DX2                !
 ! A54   A(24,23,30)           116.0249         estimate D2E/DX2                !
 ! A55   A(23,24,45)           119.4547         estimate D2E/DX2                !
 ! A56   A(23,24,63)           126.6413         estimate D2E/DX2                !
 ! A57   A(45,24,63)           113.8842         estimate D2E/DX2                !
 ! A58   A(12,25,21)           123.1835         estimate D2E/DX2                !
 ! A59   A(12,25,26)           114.072          estimate D2E/DX2                !
 ! A60   A(21,25,26)           122.7293         estimate D2E/DX2                !
 ! A61   A(9,27,16)            118.9704         estimate D2E/DX2                !
 ! A62   A(9,27,39)            126.7746         estimate D2E/DX2                !
 ! A63   A(16,27,39)           114.2192         estimate D2E/DX2                !
 ! A64   A(9,28,29)            119.2396         estimate D2E/DX2                !
 ! A65   A(9,28,47)            123.1979         estimate D2E/DX2                !
 ! A66   A(29,28,47)           117.5622         estimate D2E/DX2                !
 ! A67   A(23,30,31)           120.0269         estimate D2E/DX2                !
 ! A68   A(23,30,55)           123.0394         estimate D2E/DX2                !
 ! A69   A(31,30,55)           116.9246         estimate D2E/DX2                !
 ! A70   A(16,32,33)           120.4649         estimate D2E/DX2                !
 ! A71   A(16,32,47)           119.0173         estimate D2E/DX2                !
 ! A72   A(33,32,47)           120.5156         estimate D2E/DX2                !
 ! A73   A(6,34,18)            126.532          estimate D2E/DX2                !
 ! A74   A(6,34,35)            111.2416         estimate D2E/DX2                !
 ! A75   A(18,34,35)           122.1743         estimate D2E/DX2                !
 ! A76   A(20,36,37)           117.8317         estimate D2E/DX2                !
 ! A77   A(20,36,41)           122.5215         estimate D2E/DX2                !
 ! A78   A(37,36,41)           119.6344         estimate D2E/DX2                !
 ! A79   A(2,38,14)            126.7054         estimate D2E/DX2                !
 ! A80   A(2,38,65)            116.7932         estimate D2E/DX2                !
 ! A81   A(14,38,65)           116.4501         estimate D2E/DX2                !
 ! A82   A(27,39,40)           113.8368         estimate D2E/DX2                !
 ! A83   A(27,39,43)           130.8217         estimate D2E/DX2                !
 ! A84   A(40,39,43)           115.3393         estimate D2E/DX2                !
 ! A85   A(36,41,42)           120.3843         estimate D2E/DX2                !
 ! A86   A(36,41,61)           118.7117         estimate D2E/DX2                !
 ! A87   A(42,41,61)           120.8998         estimate D2E/DX2                !
 ! A88   A(20,43,39)           130.6867         estimate D2E/DX2                !
 ! A89   A(20,43,44)           113.8745         estimate D2E/DX2                !
 ! A90   A(39,43,44)           115.3527         estimate D2E/DX2                !
 ! A91   A(24,45,46)           117.8316         estimate D2E/DX2                !
 ! A92   A(24,45,51)           122.5206         estimate D2E/DX2                !
 ! A93   A(46,45,51)           119.6356         estimate D2E/DX2                !
 ! A94   A(28,47,32)           119.6873         estimate D2E/DX2                !
 ! A95   A(28,47,48)           119.7161         estimate D2E/DX2                !
 ! A96   A(32,47,48)           120.5949         estimate D2E/DX2                !
 ! A97   A(15,49,50)           120.0274         estimate D2E/DX2                !
 ! A98   A(15,49,61)           123.0404         estimate D2E/DX2                !
 ! A99   A(50,49,61)           116.9232         estimate D2E/DX2                !
 ! A100  A(45,51,52)           120.3837         estimate D2E/DX2                !
 ! A101  A(45,51,55)           118.7127         estimate D2E/DX2                !
 ! A102  A(52,51,55)           120.8995         estimate D2E/DX2                !
 ! A103  A(14,53,54)           117.7171         estimate D2E/DX2                !
 ! A104  A(14,53,57)           122.6463         estimate D2E/DX2                !
 ! A105  A(54,53,57)           119.6365         estimate D2E/DX2                !
 ! A106  A(30,55,51)           120.1943         estimate D2E/DX2                !
 ! A107  A(30,55,56)           119.2093         estimate D2E/DX2                !
 ! A108  A(51,55,56)           120.5963         estimate D2E/DX2                !
 ! A109  A(53,57,58)           120.4644         estimate D2E/DX2                !
 ! A110  A(53,57,67)           119.0172         estimate D2E/DX2                !
 ! A111  A(58,57,67)           120.5162         estimate D2E/DX2                !
 ! A112  A(14,59,60)           113.8365         estimate D2E/DX2                !
 ! A113  A(14,59,63)           130.8201         estimate D2E/DX2                !
 ! A114  A(60,59,63)           115.3411         estimate D2E/DX2                !
 ! A115  A(41,61,49)           120.1943         estimate D2E/DX2                !
 ! A116  A(41,61,62)           120.5954         estimate D2E/DX2                !
 ! A117  A(49,61,62)           119.2101         estimate D2E/DX2                !
 ! A118  A(24,63,59)           130.6842         estimate D2E/DX2                !
 ! A119  A(24,63,64)           113.8761         estimate D2E/DX2                !
 ! A120  A(59,63,64)           115.3537         estimate D2E/DX2                !
 ! A121  A(38,65,66)           119.2412         estimate D2E/DX2                !
 ! A122  A(38,65,67)           123.1975         estimate D2E/DX2                !
 ! A123  A(66,65,67)           117.5609         estimate D2E/DX2                !
 ! A124  A(57,67,65)           119.6886         estimate D2E/DX2                !
 ! A125  A(57,67,68)           120.595          estimate D2E/DX2                !
 ! A126  A(65,67,68)           119.7148         estimate D2E/DX2                !
 ! D1    D(9,1,6,3)           -119.6899         estimate D2E/DX2                !
 ! D2    D(9,1,6,34)            70.8362         estimate D2E/DX2                !
 ! D3    D(15,1,6,3)            79.2836         estimate D2E/DX2                !
 ! D4    D(15,1,6,34)          -90.1903         estimate D2E/DX2                !
 ! D5    D(6,1,9,27)          -173.7815         estimate D2E/DX2                !
 ! D6    D(6,1,9,28)             8.9203         estimate D2E/DX2                !
 ! D7    D(15,1,9,27)          -16.6038         estimate D2E/DX2                !
 ! D8    D(15,1,9,28)          166.0979         estimate D2E/DX2                !
 ! D9    D(6,1,15,20)          179.4057         estimate D2E/DX2                !
 ! D10   D(6,1,15,49)           -2.8465         estimate D2E/DX2                !
 ! D11   D(9,1,15,20)           21.5801         estimate D2E/DX2                !
 ! D12   D(9,1,15,49)         -160.6721         estimate D2E/DX2                !
 ! D13   D(23,2,13,3)           79.274          estimate D2E/DX2                !
 ! D14   D(23,2,13,21)         -90.1962         estimate D2E/DX2                !
 ! D15   D(38,2,13,3)         -119.7033         estimate D2E/DX2                !
 ! D16   D(38,2,13,21)          70.8265         estimate D2E/DX2                !
 ! D17   D(13,2,23,24)         179.4164         estimate D2E/DX2                !
 ! D18   D(13,2,23,30)          -2.8312         estimate D2E/DX2                !
 ! D19   D(38,2,23,24)          21.5913         estimate D2E/DX2                !
 ! D20   D(38,2,23,30)        -160.6563         estimate D2E/DX2                !
 ! D21   D(13,2,38,14)        -173.8065         estimate D2E/DX2                !
 ! D22   D(13,2,38,65)           8.9063         estimate D2E/DX2                !
 ! D23   D(23,2,38,14)         -16.6328         estimate D2E/DX2                !
 ! D24   D(23,2,38,65)         166.0799         estimate D2E/DX2                !
 ! D25   D(6,3,4,5)             -1.9779         estimate D2E/DX2                !
 ! D26   D(6,3,4,12)           177.9937         estimate D2E/DX2                !
 ! D27   D(13,3,4,5)           178.034          estimate D2E/DX2                !
 ! D28   D(13,3,4,12)           -1.9944         estimate D2E/DX2                !
 ! D29   D(4,3,6,1)           -168.8398         estimate D2E/DX2                !
 ! D30   D(4,3,6,34)             2.5233         estimate D2E/DX2                !
 ! D31   D(13,3,6,1)            11.1491         estimate D2E/DX2                !
 ! D32   D(13,3,6,34)         -177.4878         estimate D2E/DX2                !
 ! D33   D(4,3,13,2)          -168.8321         estimate D2E/DX2                !
 ! D34   D(4,3,13,21)            2.5284         estimate D2E/DX2                !
 ! D35   D(6,3,13,2)            11.1789         estimate D2E/DX2                !
 ! D36   D(6,3,13,21)         -177.4606         estimate D2E/DX2                !
 ! D37   D(3,4,5,10)          -179.9596         estimate D2E/DX2                !
 ! D38   D(3,4,5,18)            -0.3545         estimate D2E/DX2                !
 ! D39   D(12,4,5,10)            0.0632         estimate D2E/DX2                !
 ! D40   D(12,4,5,18)          179.6683         estimate D2E/DX2                !
 ! D41   D(3,4,12,7)          -179.9212         estimate D2E/DX2                !
 ! D42   D(3,4,12,25)           -0.3428         estimate D2E/DX2                !
 ! D43   D(5,4,12,7)             0.056          estimate D2E/DX2                !
 ! D44   D(5,4,12,25)          179.6344         estimate D2E/DX2                !
 ! D45   D(4,5,10,7)            -0.1857         estimate D2E/DX2                !
 ! D46   D(4,5,10,11)          179.6673         estimate D2E/DX2                !
 ! D47   D(18,5,10,7)         -179.6156         estimate D2E/DX2                !
 ! D48   D(18,5,10,11)           0.2375         estimate D2E/DX2                !
 ! D49   D(4,5,18,19)         -179.7831         estimate D2E/DX2                !
 ! D50   D(4,5,18,34)            1.603          estimate D2E/DX2                !
 ! D51   D(10,5,18,19)          -0.3428         estimate D2E/DX2                !
 ! D52   D(10,5,18,34)        -178.9567         estimate D2E/DX2                !
 ! D53   D(1,6,34,18)          168.919          estimate D2E/DX2                !
 ! D54   D(1,6,34,35)           -8.4859         estimate D2E/DX2                !
 ! D55   D(3,6,34,18)           -1.3361         estimate D2E/DX2                !
 ! D56   D(3,6,34,35)         -178.7409         estimate D2E/DX2                !
 ! D57   D(8,7,10,5)          -179.6738         estimate D2E/DX2                !
 ! D58   D(8,7,10,11)            0.4549         estimate D2E/DX2                !
 ! D59   D(12,7,10,5)            0.1981         estimate D2E/DX2                !
 ! D60   D(12,7,10,11)        -179.6732         estimate D2E/DX2                !
 ! D61   D(8,7,12,4)           179.6728         estimate D2E/DX2                !
 ! D62   D(8,7,12,25)            0.2815         estimate D2E/DX2                !
 ! D63   D(10,7,12,4)           -0.181          estimate D2E/DX2                !
 ! D64   D(10,7,12,25)        -179.5723         estimate D2E/DX2                !
 ! D65   D(1,9,27,16)         -178.9885         estimate D2E/DX2                !
 ! D66   D(1,9,27,39)           -1.2984         estimate D2E/DX2                !
 ! D67   D(28,9,27,16)          -1.6824         estimate D2E/DX2                !
 ! D68   D(28,9,27,39)         176.0078         estimate D2E/DX2                !
 ! D69   D(1,9,28,29)           -0.4963         estimate D2E/DX2                !
 ! D70   D(1,9,28,47)          179.296          estimate D2E/DX2                !
 ! D71   D(27,9,28,29)        -178.0772         estimate D2E/DX2                !
 ! D72   D(27,9,28,47)           1.7151         estimate D2E/DX2                !
 ! D73   D(4,12,25,21)           1.6039         estimate D2E/DX2                !
 ! D74   D(4,12,25,26)        -179.7795         estimate D2E/DX2                !
 ! D75   D(7,12,25,21)        -178.9936         estimate D2E/DX2                !
 ! D76   D(7,12,25,26)          -0.3771         estimate D2E/DX2                !
 ! D77   D(2,13,21,22)          -8.4887         estimate D2E/DX2                !
 ! D78   D(2,13,21,25)         168.9221         estimate D2E/DX2                !
 ! D79   D(3,13,21,22)        -178.7401         estimate D2E/DX2                !
 ! D80   D(3,13,21,25)          -1.3292         estimate D2E/DX2                !
 ! D81   D(53,14,38,2)        -178.9857         estimate D2E/DX2                !
 ! D82   D(53,14,38,65)         -1.6903         estimate D2E/DX2                !
 ! D83   D(59,14,38,2)          -1.3031         estimate D2E/DX2                !
 ! D84   D(59,14,38,65)        175.9923         estimate D2E/DX2                !
 ! D85   D(38,14,53,54)       -179.4714         estimate D2E/DX2                !
 ! D86   D(38,14,53,57)          0.4984         estimate D2E/DX2                !
 ! D87   D(59,14,53,54)          2.5637         estimate D2E/DX2                !
 ! D88   D(59,14,53,57)       -177.4664         estimate D2E/DX2                !
 ! D89   D(38,14,59,60)       -173.3283         estimate D2E/DX2                !
 ! D90   D(38,14,59,63)          7.2558         estimate D2E/DX2                !
 ! D91   D(53,14,59,60)          4.4488         estimate D2E/DX2                !
 ! D92   D(53,14,59,63)       -174.9671         estimate D2E/DX2                !
 ! D93   D(1,15,20,36)         175.4835         estimate D2E/DX2                !
 ! D94   D(1,15,20,43)          -6.2493         estimate D2E/DX2                !
 ! D95   D(49,15,20,36)         -2.2959         estimate D2E/DX2                !
 ! D96   D(49,15,20,43)        175.9714         estimate D2E/DX2                !
 ! D97   D(1,15,49,50)           3.7408         estimate D2E/DX2                !
 ! D98   D(1,15,49,61)        -177.3896         estimate D2E/DX2                !
 ! D99   D(20,15,49,50)       -178.2785         estimate D2E/DX2                !
 ! D100  D(20,15,49,61)          0.5912         estimate D2E/DX2                !
 ! D101  D(17,16,27,9)        -179.4692         estimate D2E/DX2                !
 ! D102  D(17,16,27,39)          2.5594         estimate D2E/DX2                !
 ! D103  D(32,16,27,9)           0.4998         estimate D2E/DX2                !
 ! D104  D(32,16,27,39)       -177.4716         estimate D2E/DX2                !
 ! D105  D(17,16,32,33)          0.2316         estimate D2E/DX2                !
 ! D106  D(17,16,32,47)       -179.2327         estimate D2E/DX2                !
 ! D107  D(27,16,32,33)       -179.7368         estimate D2E/DX2                !
 ! D108  D(27,16,32,47)          0.7989         estimate D2E/DX2                !
 ! D109  D(5,18,34,6)           -0.8936         estimate D2E/DX2                !
 ! D110  D(5,18,34,35)         176.2485         estimate D2E/DX2                !
 ! D111  D(19,18,34,6)        -179.3892         estimate D2E/DX2                !
 ! D112  D(19,18,34,35)         -2.247          estimate D2E/DX2                !
 ! D113  D(15,20,36,37)       -179.0215         estimate D2E/DX2                !
 ! D114  D(15,20,36,41)          2.2608         estimate D2E/DX2                !
 ! D115  D(43,20,36,37)          2.499          estimate D2E/DX2                !
 ! D116  D(43,20,36,41)       -176.2186         estimate D2E/DX2                !
 ! D117  D(15,20,43,39)         -7.7674         estimate D2E/DX2                !
 ! D118  D(15,20,43,44)        175.8195         estimate D2E/DX2                !
 ! D119  D(36,20,43,39)        170.5825         estimate D2E/DX2                !
 ! D120  D(36,20,43,44)         -5.8306         estimate D2E/DX2                !
 ! D121  D(13,21,25,12)         -0.9047         estimate D2E/DX2                !
 ! D122  D(13,21,25,26)       -179.4031         estimate D2E/DX2                !
 ! D123  D(22,21,25,12)        176.2441         estimate D2E/DX2                !
 ! D124  D(22,21,25,26)         -2.2543         estimate D2E/DX2                !
 ! D125  D(2,23,24,45)         175.5019         estimate D2E/DX2                !
 ! D126  D(2,23,24,63)          -6.219          estimate D2E/DX2                !
 ! D127  D(30,23,24,45)         -2.2819         estimate D2E/DX2                !
 ! D128  D(30,23,24,63)        175.9972         estimate D2E/DX2                !
 ! D129  D(2,23,30,31)           3.7294         estimate D2E/DX2                !
 ! D130  D(2,23,30,55)        -177.4037         estimate D2E/DX2                !
 ! D131  D(24,23,30,31)       -178.2857         estimate D2E/DX2                !
 ! D132  D(24,23,30,55)          0.5812         estimate D2E/DX2                !
 ! D133  D(23,24,45,46)       -179.0257         estimate D2E/DX2                !
 ! D134  D(23,24,45,51)          2.2529         estimate D2E/DX2                !
 ! D135  D(63,24,45,46)          2.4844         estimate D2E/DX2                !
 ! D136  D(63,24,45,51)       -176.237          estimate D2E/DX2                !
 ! D137  D(23,24,63,59)         -7.7974         estimate D2E/DX2                !
 ! D138  D(23,24,63,64)        175.7858         estimate D2E/DX2                !
 ! D139  D(45,24,63,59)        170.5638         estimate D2E/DX2                !
 ! D140  D(45,24,63,64)         -5.853          estimate D2E/DX2                !
 ! D141  D(9,27,39,40)        -173.3576         estimate D2E/DX2                !
 ! D142  D(9,27,39,43)           7.2166         estimate D2E/DX2                !
 ! D143  D(16,27,39,40)          4.4266         estimate D2E/DX2                !
 ! D144  D(16,27,39,43)       -174.9992         estimate D2E/DX2                !
 ! D145  D(9,28,47,32)          -0.4687         estimate D2E/DX2                !
 ! D146  D(9,28,47,48)         179.9966         estimate D2E/DX2                !
 ! D147  D(29,28,47,32)        179.3269         estimate D2E/DX2                !
 ! D148  D(29,28,47,48)         -0.2078         estimate D2E/DX2                !
 ! D149  D(23,30,55,51)          1.2957         estimate D2E/DX2                !
 ! D150  D(23,30,55,56)       -178.8417         estimate D2E/DX2                !
 ! D151  D(31,30,55,51)       -179.8046         estimate D2E/DX2                !
 ! D152  D(31,30,55,56)          0.0581         estimate D2E/DX2                !
 ! D153  D(16,32,47,28)         -0.8191         estimate D2E/DX2                !
 ! D154  D(16,32,47,48)        178.7115         estimate D2E/DX2                !
 ! D155  D(33,32,47,28)        179.7169         estimate D2E/DX2                !
 ! D156  D(33,32,47,48)         -0.7525         estimate D2E/DX2                !
 ! D157  D(20,36,41,42)        178.916          estimate D2E/DX2                !
 ! D158  D(20,36,41,61)         -0.3476         estimate D2E/DX2                !
 ! D159  D(37,36,41,42)          0.2207         estimate D2E/DX2                !
 ! D160  D(37,36,41,61)       -179.0429         estimate D2E/DX2                !
 ! D161  D(2,38,65,66)          -0.4924         estimate D2E/DX2                !
 ! D162  D(2,38,65,67)         179.2981         estimate D2E/DX2                !
 ! D163  D(14,38,65,66)       -178.0634         estimate D2E/DX2                !
 ! D164  D(14,38,65,67)          1.727          estimate D2E/DX2                !
 ! D165  D(27,39,43,20)          3.3274         estimate D2E/DX2                !
 ! D166  D(27,39,43,44)        179.6979         estimate D2E/DX2                !
 ! D167  D(40,39,43,20)       -176.0914         estimate D2E/DX2                !
 ! D168  D(40,39,43,44)          0.279          estimate D2E/DX2                !
 ! D169  D(36,41,61,49)         -1.4274         estimate D2E/DX2                !
 ! D170  D(36,41,61,62)        178.7139         estimate D2E/DX2                !
 ! D171  D(42,41,61,49)        179.313          estimate D2E/DX2                !
 ! D172  D(42,41,61,62)         -0.5457         estimate D2E/DX2                !
 ! D173  D(24,45,51,52)        178.9162         estimate D2E/DX2                !
 ! D174  D(24,45,51,55)         -0.3509         estimate D2E/DX2                !
 ! D175  D(46,45,51,52)          0.2171         estimate D2E/DX2                !
 ! D176  D(46,45,51,55)       -179.05           estimate D2E/DX2                !
 ! D177  D(15,49,61,41)          1.2966         estimate D2E/DX2                !
 ! D178  D(15,49,61,62)       -178.8427         estimate D2E/DX2                !
 ! D179  D(50,49,61,41)       -179.8009         estimate D2E/DX2                !
 ! D180  D(50,49,61,62)          0.0598         estimate D2E/DX2                !
 ! D181  D(45,51,55,30)         -1.4196         estimate D2E/DX2                !
 ! D182  D(45,51,55,56)        178.7197         estimate D2E/DX2                !
 ! D183  D(52,51,55,30)        179.3172         estimate D2E/DX2                !
 ! D184  D(52,51,55,56)         -0.5435         estimate D2E/DX2                !
 ! D185  D(14,53,57,58)       -179.7337         estimate D2E/DX2                !
 ! D186  D(14,53,57,67)          0.8063         estimate D2E/DX2                !
 ! D187  D(54,53,57,58)          0.2355         estimate D2E/DX2                !
 ! D188  D(54,53,57,67)       -179.2244         estimate D2E/DX2                !
 ! D189  D(53,57,67,65)         -0.8226         estimate D2E/DX2                !
 ! D190  D(53,57,67,68)        178.7062         estimate D2E/DX2                !
 ! D191  D(58,57,67,65)        179.7177         estimate D2E/DX2                !
 ! D192  D(58,57,67,68)         -0.7535         estimate D2E/DX2                !
 ! D193  D(14,59,63,24)          3.3101         estimate D2E/DX2                !
 ! D194  D(14,59,63,64)        179.6843         estimate D2E/DX2                !
 ! D195  D(60,59,63,24)       -176.0988         estimate D2E/DX2                !
 ! D196  D(60,59,63,64)          0.2754         estimate D2E/DX2                !
 ! D197  D(38,65,67,57)         -0.4751         estimate D2E/DX2                !
 ! D198  D(38,65,67,68)        179.9919         estimate D2E/DX2                !
 ! D199  D(66,65,67,57)        179.3187         estimate D2E/DX2                !
 ! D200  D(66,65,67,68)         -0.2143         estimate D2E/DX2                !
 --------------------------------------------------------------------------------
 Trust Radius=3.00D-01 FncErr=1.00D-07 GrdErr=1.00D-07 EigMax=2.50D+02 EigMin=1.00D-04
 Number of steps in this run=    408 maximum allowed number of steps=    408.
 GradGradGradGradGradGradGradGradGradGradGradGradGradGradGradGradGradGrad

 Leave Link  103 at Thu Mar 20 16:18:08 2025, MaxMem=  3221225472 cpu:               1.3 elap:               0.2
 (Enter /home/szhao/Apps/g16/l202.exe)
 Symmetry turned off by external request.
 Stoichiometry    C42H26(1+,2)
 Framework group  C1[X(C42H26)]
 Deg. of freedom   198
 Full point group                 C1      NOp   1
                          Input orientation:                          
 ---------------------------------------------------------------------
 Center     Atomic      Atomic             Coordinates (Angstroms)
 Number     Number       Type             X           Y           Z
 ---------------------------------------------------------------------
      1          6           0       -1.027237    0.000000    0.000000
      2          6           0        1.027237    0.000000    0.000000
      3          6           0        0.000008   -2.156416    0.000355
      4          6           0        0.000014   -3.531766    0.000572
      5          6           0       -0.957706   -4.324275    0.279708
      6          6           0       -1.026421   -1.481108    0.261201
      7          6           0        0.557500   -5.720587   -0.163727
      8          1           0        1.075060   -6.598181   -0.319721
      9          6           0       -1.246811    0.839244    1.160498
     10          6           0       -0.557698   -5.720540    0.164390
     11          1           0       -1.075341   -6.598092    0.320240
     12          6           0        0.957642   -4.324357   -0.278799
     13          6           0        1.026399   -1.481156   -0.260923
     14          6           0        1.415700    2.254404   -1.168689
     15          6           0       -1.246223    0.306033   -1.407366
     16          6           0       -1.599183    2.910805    2.397767
     17          1           0       -1.734444    3.982610    2.379711
     18          6           0       -1.950462   -3.664203    0.576303
     19          1           0       -2.725647   -4.197970    0.806257
     20          6           0       -1.315963    1.609421   -1.989266
     21          6           0        1.974567   -2.235427   -0.555335
     22          1           0        2.774595   -1.734010   -0.739463
     23          6           0        1.246382    0.306120    1.407309
     24          6           0        1.316003    1.609506    1.989211
     25          6           0        1.950328   -3.664360   -0.575872
     26          1           0        2.725432   -4.198179   -0.806088
     27          6           0       -1.416290    2.254266    1.168712
     28          6           0       -1.240019    0.194879    2.427762
     29          1           0       -1.084068   -0.867270    2.475726
     30          6           0        1.359994   -0.788171    2.310789
     31          1           0        1.343814   -1.800133    1.937664
     32          6           0       -1.611789    2.243057    3.602064
     33          1           0       -1.759343    2.782303    4.525214
     34          6           0       -1.974661   -2.235275    0.555550
     35          1           0       -2.774709   -1.733791    0.739359
     36          6           0       -1.438695    1.738536   -3.387037
     37          1           0       -1.473025    2.739066   -3.801578
     38          6           0        1.246755    0.839286   -1.160522
     39          6           0       -1.377277    3.133288    0.029890
     40          1           0       -1.418620    4.186851    0.287387
     41          6           0       -1.540623    0.652952   -4.222989
     42          1           0       -1.650955    0.792388   -5.289197
     43          6           0       -1.309015    2.864495   -1.286901
     44          1           0       -1.298445    3.732788   -1.938709
     45          6           0        1.439317    1.738613    3.386916
     46          1           0        1.473613    2.739143    3.801464
     47          6           0       -1.420178    0.864129    3.611714
     48          1           0       -1.404538    0.316243    4.545949
     49          6           0       -1.359434   -0.788256   -2.310932
     50          1           0       -1.343267   -1.800227   -1.937847
     51          6           0        1.541766    0.653030    4.222776
     52          1           0        1.652532    0.792454    5.288923
     53          6           0        1.598562    2.911069   -2.397679
     54          1           0        1.733375    3.982952   -2.379560
     55          6           0        1.515436   -0.627389    3.665852
     56          1           0        1.614485   -1.502574    4.293162
     57          6           0        1.611663    2.243353   -3.601984
     58          1           0        1.759223    2.782679   -4.525085
     59          6           0        1.376009    3.133437   -0.029900
     60          1           0        1.416525    4.187033   -0.287444
     61          6           0       -1.514411   -0.627466   -3.666072
     62          1           0       -1.613156   -1.502652   -4.293450
     63          6           0        1.308144    2.864600    1.286907
     64          1           0        1.297080    3.732873    1.938729
     65          6           0        1.240260    0.194993   -2.427823
     66          1           0        1.084496   -0.867180   -2.475903
     67          6           0        1.420452    0.864356   -3.611710
     68          1           0        1.405119    0.316494   -4.545967
 ---------------------------------------------------------------------
 Rotational constants (GHZ):           0.1411372           0.1177339           0.0862397
 Leave Link  202 at Thu Mar 20 16:18:09 2025, MaxMem=  3221225472 cpu:               0.4 elap:               0.0
 (Enter /home/szhao/Apps/g16/l301.exe)
 Standard basis: 6-311+G(d,p) (5D, 7F)
 Ernie: Thresh=  0.10000D-02 Tol=  0.10000D-05 Strict=F.
  1080 basis functions,  1720 primitive gaussians,  1122 cartesian basis functions
   139 alpha electrons      138 beta electrons
       nuclear repulsion energy      5095.3031418705 Hartrees.
 IExCor= 4336 DFT=T Ex+Corr=M062X ExCW=0 ScaHFX=  0.540000
 ScaDFX=  1.000000  1.000000  1.000000  1.000000 ScalE2=  1.000000  1.000000
 IRadAn=      7 IRanWt=     -1 IRanGd=            0 ICorTp=0 IEmpDi=  4
 NAtoms=   68 NActive=   68 NUniq=   68 SFac= 1.00D+00 NAtFMM=   60 NAOKFM=T Big=T
 Integral buffers will be    131072 words long.
 Raffenetti 2 integral format.
 Two-electron integral symmetry is turned off.
 Leave Link  301 at Thu Mar 20 16:18:10 2025, MaxMem=  3221225472 cpu:               3.8 elap:               0.2
 (Enter /home/szhao/Apps/g16/l302.exe)
 NPDir=0 NMtPBC=     1 NCelOv=     1 NCel=       1 NClECP=     1 NCelD=      1
         NCelK=      1 NCelE2=     1 NClLst=     1 CellRange=     0.0.
 One-electron integrals computed using PRISM.
 NBasis=  1080 RedAO= T EigKep=  1.17D-06  NBF=  1080
 NBsUse=  1049 1.00D-06 EigRej=  8.40D-07 NBFU=  1049
 Precomputing XC quadrature grid using
 IXCGrd= 4 IRadAn=           7 IRanWt=          -1 IRanGd=           0 AccXCQ= 0.00D+00.
 Generated NRdTot=       0 NPtTot=           0 NUsed=           0 NTot=          32
 NSgBfM=  1116  1116  1116  1116  1116 MxSgAt=    68 MxSgA2=    68.
 Leave Link  302 at Thu Mar 20 16:18:13 2025, MaxMem=  3221225472 cpu:              82.7 elap:               3.1
 (Enter /home/szhao/Apps/g16/l303.exe)
 DipDrv:  MaxL=1.
 Leave Link  303 at Thu Mar 20 16:18:15 2025, MaxMem=  3221225472 cpu:               7.8 elap:               0.3
 (Enter /home/szhao/Apps/g16/l401.exe)
 ExpMin= 4.38D-02 ExpMax= 4.56D+03 ExpMxC= 6.82D+02 IAcc=3 IRadAn=         7 AccDes= 0.00D+00
 Harris functional with IExCor= 1009 and IRadAn=       7 diagonalized for initial guess.
 HarFok:  IExCor= 1009 AccDes= 0.00D+00 IRadAn=         7 IDoV= 1 UseB2=F ITyADJ=14
 ICtDFT=  3500011 ScaDFX=  1.000000  1.000000  1.000000  1.000000
 FoFCou: FMM=F IPFlag=           0 FMFlag=      100000 FMFlg1=        2001
         NFxFlg=           0 DoJE=T BraDBF=F KetDBF=T FulRan=T
         wScrn=  0.000000 ICntrl=       500 IOpCl=  0 I1Cent=   200000004 NGrid=           0
         NMat0=    1 NMatS0=      1 NMatT0=    0 NMatD0=    1 NMtDS0=    0 NMtDT0=    0
 Symmetry not used in FoFCou.
 Harris En= -1614.49645084632    
 JPrj=0 DoOrth=F DoCkMO=F.
 Initial guess <Sx>= 0.0000 <Sy>= 0.0000 <Sz>= 0.5000 <S**2>= 0.7500 S= 0.5000
 Leave Link  401 at Thu Mar 20 16:18:40 2025, MaxMem=  3221225472 cpu:             695.9 elap:              25.0
 (Enter /home/szhao/Apps/g16/l502.exe)
 Two-electron integral symmetry not used.
 UHF open shell SCF:
 Using DIIS extrapolation, IDIIS=  1040.
 NGot=  3221225472 LenX=  3218668534 LenY=  3217408528
 Requested convergence on RMS density matrix=1.00D-08 within 200 cycles.
 Requested convergence on MAX density matrix=1.00D-06.
 Requested convergence on             energy=1.00D-06.
 No special actions if energy rises.
 Fock matrices will be formed incrementally for  20 cycles.

 Cycle   1  Pass 1  IDiag  1:
 FoFJK:  IHMeth= 1 ICntrl=       0 DoSepK=F KAlg= 0 I1Cent=           0 FoldK=F
 IRaf= 930000000 NMat=       1 IRICut=       1 DoRegI=T DoRafI=F ISym2E= 0 IDoP0=0 IntGTp=1.
 FoFCou: FMM=T IPFlag=           0 FMFlag=      100000 FMFlg1=        2001
         NFxFlg=           0 DoJE=F BraDBF=F KetDBF=F FulRan=T
         wScrn=  0.000000 ICntrl=         0 IOpCl=  1 I1Cent=           0 NGrid=           0
         NMat0=    1 NMatS0=      1 NMatT0=    0 NMatD0=    1 NMtDS0=    0 NMtDT0=    0
 Symmetry not used in FoFCou.
 FMM levels:  10  Number of levels for PrismC:   9
 E= -1614.15449612688    
 DIIS: error= 2.34D-02 at cycle   1 NSaved=   1.
 NSaved= 1 IEnMin= 1 EnMin= -1614.15449612688     IErMin= 1 ErrMin= 2.34D-02
 ErrMax= 2.34D-02  0.00D+00 EMaxC= 1.00D-01 BMatC= 4.79D+00 BMatP= 4.79D+00
 IDIUse=3 WtCom= 7.66D-01 WtEn= 2.34D-01
 Coeff-Com:  0.100D+01
 Coeff-En:   0.100D+01
 Coeff:      0.100D+01
 Gap=     0.200 Goal=   None    Shift=    0.000
 Gap=     0.085 Goal=   None    Shift=    0.000
 GapD=    0.085 DampG=0.500 DampE=0.500 DampFc=0.2500 IDamp=-1.
 Damping current iteration by 2.50D-01
 RMSDP=2.08D-02 MaxDP=1.53D+00              OVMax= 1.87D-01

 Cycle   2  Pass 1  IDiag  1:
 RMSU=  5.10D-03    CP:  9.78D-01
 E= -1614.47525360219     Delta-E=       -0.320757475311 Rises=F Damp=T
 DIIS: error= 1.46D-02 at cycle   2 NSaved=   2.
 NSaved= 2 IEnMin= 2 EnMin= -1614.47525360219     IErMin= 2 ErrMin= 1.46D-02
 ErrMax= 1.46D-02  0.00D+00 EMaxC= 1.00D-01 BMatC= 1.86D+00 BMatP= 4.79D+00
 IDIUse=3 WtCom= 8.54D-01 WtEn= 1.46D-01
 Coeff-Com: -0.132D+01 0.232D+01
 Coeff-En:   0.000D+00 0.100D+01
 Coeff:     -0.112D+01 0.212D+01
 Gap=     0.251 Goal=   None    Shift=    0.000
 Gap=     0.157 Goal=   None    Shift=    0.000
 RMSDP=1.13D-02 MaxDP=9.51D-01 DE=-3.21D-01 OVMax= 1.83D-01

 Cycle   3  Pass 1  IDiag  1:
 RMSU=  9.86D-03    CP:  8.60D-01  1.41D+00
 E= -1614.98204838663     Delta-E=       -0.506794784435 Rises=F Damp=F
 DIIS: error= 1.71D-02 at cycle   3 NSaved=   3.
 NSaved= 3 IEnMin= 3 EnMin= -1614.98204838663     IErMin= 2 ErrMin= 1.46D-02
 ErrMax= 1.71D-02  0.00D+00 EMaxC= 1.00D-01 BMatC= 5.91D-01 BMatP= 1.86D+00
 IDIUse=3 WtCom= 8.29D-01 WtEn= 1.71D-01
 Coeff-Com: -0.829D+00 0.135D+01 0.483D+00
 Coeff-En:   0.000D+00 0.000D+00 0.100D+01
 Coeff:     -0.687D+00 0.112D+01 0.571D+00
 Gap=     0.203 Goal=   None    Shift=    0.000
 Gap=     0.110 Goal=   None    Shift=    0.000
 RMSDP=9.97D-03 MaxDP=7.65D-01 DE=-5.07D-01 OVMax= 1.27D-01

 Cycle   4  Pass 1  IDiag  1:
 RMSU=  6.94D-03    CP:  8.53D-01  2.07D+00  3.63D-01
 E= -1615.06310971579     Delta-E=       -0.081061329166 Rises=F Damp=F
 DIIS: error= 1.03D-02 at cycle   4 NSaved=   4.
 NSaved= 4 IEnMin= 4 EnMin= -1615.06310971579     IErMin= 4 ErrMin= 1.03D-02
 ErrMax= 1.03D-02  0.00D+00 EMaxC= 1.00D-01 BMatC= 2.63D-01 BMatP= 5.91D-01
 IDIUse=3 WtCom= 8.97D-01 WtEn= 1.03D-01
 Coeff-Com: -0.242D+00 0.382D+00 0.402D+00 0.458D+00
 Coeff-En:   0.000D+00 0.000D+00 0.352D+00 0.648D+00
 Coeff:     -0.217D+00 0.342D+00 0.396D+00 0.478D+00
 Gap=     0.187 Goal=   None    Shift=    0.000
 Gap=     0.110 Goal=   None    Shift=    0.000
 RMSDP=6.10D-03 MaxDP=6.16D-01 DE=-8.11D-02 OVMax= 6.54D-02

 Cycle   5  Pass 1  IDiag  1:
 RMSU=  1.77D-03    CP:  8.03D-01  1.71D+00  5.76D-01  3.31D-01
 E= -1615.12742136410     Delta-E=       -0.064311648311 Rises=F Damp=F
 DIIS: error= 1.76D-03 at cycle   5 NSaved=   5.
 NSaved= 5 IEnMin= 5 EnMin= -1615.12742136410     IErMin= 5 ErrMin= 1.76D-03
 ErrMax= 1.76D-03  0.00D+00 EMaxC= 1.00D-01 BMatC= 7.83D-03 BMatP= 2.63D-01
 IDIUse=3 WtCom= 9.82D-01 WtEn= 1.76D-02
 Coeff-Com: -0.570D-01 0.867D-01 0.172D+00 0.257D+00 0.542D+00
 Coeff-En:   0.000D+00 0.000D+00 0.000D+00 0.000D+00 0.100D+01
 Coeff:     -0.560D-01 0.852D-01 0.169D+00 0.252D+00 0.550D+00
 Gap=     0.182 Goal=   None    Shift=    0.000
 Gap=     0.109 Goal=   None    Shift=    0.000
 RMSDP=1.02D-03 MaxDP=6.46D-02 DE=-6.43D-02 OVMax= 1.28D-02

 Cycle   6  Pass 1  IDiag  1:
 RMSU=  6.24D-04    CP:  8.16D-01  1.73D+00  5.76D-01  3.86D-01  7.70D-01
 E= -1615.12917335353     Delta-E=       -0.001751989425 Rises=F Damp=F
 DIIS: error= 7.52D-04 at cycle   6 NSaved=   6.
 NSaved= 6 IEnMin= 6 EnMin= -1615.12917335353     IErMin= 6 ErrMin= 7.52D-04
 ErrMax= 7.52D-04  0.00D+00 EMaxC= 1.00D-01 BMatC= 8.47D-04 BMatP= 7.83D-03
 IDIUse=3 WtCom= 9.92D-01 WtEn= 7.52D-03
 Coeff-Com: -0.505D-02 0.630D-02 0.383D-01 0.685D-01 0.288D+00 0.604D+00
 Coeff-En:   0.000D+00 0.000D+00 0.000D+00 0.000D+00 0.607D-01 0.939D+00
 Coeff:     -0.502D-02 0.626D-02 0.380D-01 0.680D-01 0.287D+00 0.606D+00
 Gap=     0.183 Goal=   None    Shift=    0.000
 Gap=     0.110 Goal=   None    Shift=    0.000
 RMSDP=3.52D-04 MaxDP=2.46D-02 DE=-1.75D-03 OVMax= 7.38D-03

 Cycle   7  Pass 1  IDiag  1:
 RMSU=  2.65D-04    CP:  8.17D-01  1.74D+00  5.78D-01  3.96D-01  8.26D-01
                    CP:  7.06D-01
 E= -1615.12936965185     Delta-E=       -0.000196298323 Rises=F Damp=F
 DIIS: error= 3.13D-04 at cycle   7 NSaved=   7.
 NSaved= 7 IEnMin= 7 EnMin= -1615.12936965185     IErMin= 7 ErrMin= 3.13D-04
 ErrMax= 3.13D-04  0.00D+00 EMaxC= 1.00D-01 BMatC= 1.72D-04 BMatP= 8.47D-04
 IDIUse=3 WtCom= 9.97D-01 WtEn= 3.13D-03
 Coeff-Com:  0.336D-02-0.591D-02 0.153D-03 0.634D-02 0.102D+00 0.372D+00
 Coeff-Com:  0.522D+00
 Coeff-En:   0.000D+00 0.000D+00 0.000D+00 0.000D+00 0.000D+00 0.112D+00
 Coeff-En:   0.888D+00
 Coeff:      0.335D-02-0.589D-02 0.153D-03 0.632D-02 0.102D+00 0.371D+00
 Coeff:      0.523D+00
 Gap=     0.183 Goal=   None    Shift=    0.000
 Gap=     0.110 Goal=   None    Shift=    0.000
 RMSDP=1.14D-04 MaxDP=7.76D-03 DE=-1.96D-04 OVMax= 2.23D-03

 Cycle   8  Pass 1  IDiag  1:
 RMSU=  6.04D-05    CP:  8.17D-01  1.73D+00  5.76D-01  3.91D-01  8.16D-01
                    CP:  8.10D-01  8.21D-01
 E= -1615.12941783981     Delta-E=       -0.000048187955 Rises=F Damp=F
 DIIS: error= 7.74D-05 at cycle   8 NSaved=   8.
 NSaved= 8 IEnMin= 8 EnMin= -1615.12941783981     IErMin= 8 ErrMin= 7.74D-05
 ErrMax= 7.74D-05  0.00D+00 EMaxC= 1.00D-01 BMatC= 6.65D-06 BMatP= 1.72D-04
 IDIUse=1 WtCom= 1.00D+00 WtEn= 0.00D+00
 Coeff-Com:  0.112D-02-0.175D-02-0.621D-02-0.928D-02-0.145D-01 0.216D-01
 Coeff-Com:  0.147D+00 0.862D+00
 Coeff:      0.112D-02-0.175D-02-0.621D-02-0.928D-02-0.145D-01 0.216D-01
 Coeff:      0.147D+00 0.862D+00
 Gap=     0.183 Goal=   None    Shift=    0.000
 Gap=     0.110 Goal=   None    Shift=    0.000
 RMSDP=4.73D-05 MaxDP=2.89D-03 DE=-4.82D-05 OVMax= 1.57D-03

 Cycle   9  Pass 1  IDiag  1:
 RMSU=  3.42D-05    CP:  8.16D-01  1.73D+00  5.75D-01  3.90D-01  8.21D-01
                    CP:  8.10D-01  8.69D-01  1.39D+00
 E= -1615.12942280177     Delta-E=       -0.000004961958 Rises=F Damp=F
 DIIS: error= 3.32D-05 at cycle   9 NSaved=   9.
 NSaved= 9 IEnMin= 9 EnMin= -1615.12942280177     IErMin= 9 ErrMin= 3.32D-05
 ErrMax= 3.32D-05  0.00D+00 EMaxC= 1.00D-01 BMatC= 1.72D-06 BMatP= 6.65D-06
 IDIUse=1 WtCom= 1.00D+00 WtEn= 0.00D+00
 Coeff-Com:  0.733D-05 0.183D-04-0.243D-02-0.404D-02-0.180D-01-0.352D-01
 Coeff-Com: -0.250D-01 0.317D+00 0.767D+00
 Coeff:      0.733D-05 0.183D-04-0.243D-02-0.404D-02-0.180D-01-0.352D-01
 Coeff:     -0.250D-01 0.317D+00 0.767D+00
 Gap=     0.183 Goal=   None    Shift=    0.000
 Gap=     0.110 Goal=   None    Shift=    0.000
 RMSDP=2.70D-05 MaxDP=1.82D-03 DE=-4.96D-06 OVMax= 8.77D-04

 Cycle  10  Pass 1  IDiag  1:
 RMSU=  1.64D-05    CP:  8.16D-01  1.73D+00  5.76D-01  3.89D-01  8.21D-01
                    CP:  8.19D-01  9.02D-01  1.59D+00  1.26D+00
 E= -1615.12942425321     Delta-E=       -0.000001451443 Rises=F Damp=F
 DIIS: error= 2.17D-05 at cycle  10 NSaved=  10.
 NSaved=10 IEnMin=10 EnMin= -1615.12942425321     IErMin=10 ErrMin= 2.17D-05
 ErrMax= 2.17D-05  0.00D+00 EMaxC= 1.00D-01 BMatC= 4.91D-07 BMatP= 1.72D-06
 IDIUse=1 WtCom= 1.00D+00 WtEn= 0.00D+00
 Coeff-Com: -0.384D-03 0.588D-03 0.107D-02 0.192D-02-0.139D-02-0.140D-01
 Coeff-Com: -0.636D-01-0.169D+00 0.198D+00 0.105D+01
 Coeff:     -0.384D-03 0.588D-03 0.107D-02 0.192D-02-0.139D-02-0.140D-01
 Coeff:     -0.636D-01-0.169D+00 0.198D+00 0.105D+01
 Gap=     0.183 Goal=   None    Shift=    0.000
 Gap=     0.110 Goal=   None    Shift=    0.000
 RMSDP=2.05D-05 MaxDP=1.07D-03 DE=-1.45D-06 OVMax= 9.29D-04

 Cycle  11  Pass 1  IDiag  1:
 RMSU=  6.93D-06    CP:  8.16D-01  1.73D+00  5.75D-01  3.90D-01  8.19D-01
                    CP:  8.24D-01  9.05D-01  1.80D+00  1.62D+00  1.35D+00
 E= -1615.12942498200     Delta-E=       -0.000000728786 Rises=F Damp=F
 DIIS: error= 1.44D-05 at cycle  11 NSaved=  11.
 NSaved=11 IEnMin=11 EnMin= -1615.12942498200     IErMin=11 ErrMin= 1.44D-05
 ErrMax= 1.44D-05  0.00D+00 EMaxC= 1.00D-01 BMatC= 1.51D-07 BMatP= 4.91D-07
 IDIUse=1 WtCom= 1.00D+00 WtEn= 0.00D+00
 Coeff-Com: -0.169D-03 0.255D-03 0.875D-03 0.167D-02 0.254D-02 0.167D-02
 Coeff-Com: -0.258D-01-0.125D+00-0.578D-01 0.456D+00 0.746D+00
 Coeff:     -0.169D-03 0.255D-03 0.875D-03 0.167D-02 0.254D-02 0.167D-02
 Coeff:     -0.258D-01-0.125D+00-0.578D-01 0.456D+00 0.746D+00
 Gap=     0.183 Goal=   None    Shift=    0.000
 Gap=     0.110 Goal=   None    Shift=    0.000
 RMSDP=7.07D-06 MaxDP=3.51D-04 DE=-7.29D-07 OVMax= 4.52D-04

 Cycle  12  Pass 1  IDiag  1:
 RMSU=  2.92D-06    CP:  8.16D-01  1.73D+00  5.75D-01  3.90D-01  8.19D-01
                    CP:  8.25D-01  9.03D-01  1.86D+00  1.70D+00  1.44D+00
                    CP:  1.57D+00
 E= -1615.12942516244     Delta-E=       -0.000000180439 Rises=F Damp=F
 DIIS: error= 9.05D-06 at cycle  12 NSaved=  12.
 NSaved=12 IEnMin=12 EnMin= -1615.12942516244     IErMin=12 ErrMin= 9.05D-06
 ErrMax= 9.05D-06  0.00D+00 EMaxC= 1.00D-01 BMatC= 4.87D-08 BMatP= 1.51D-07
 IDIUse=1 WtCom= 1.00D+00 WtEn= 0.00D+00
 Coeff-Com:  0.108D-03-0.164D-03-0.261D-03-0.339D-03 0.116D-02 0.821D-02
 Coeff-Com:  0.195D-01 0.529D-01-0.112D+00-0.376D+00 0.183D+00 0.122D+01
 Coeff:      0.108D-03-0.164D-03-0.261D-03-0.339D-03 0.116D-02 0.821D-02
 Coeff:      0.195D-01 0.529D-01-0.112D+00-0.376D+00 0.183D+00 0.122D+01
 Gap=     0.183 Goal=   None    Shift=    0.000
 Gap=     0.110 Goal=   None    Shift=    0.000
 RMSDP=7.21D-06 MaxDP=5.12D-04 DE=-1.80D-07 OVMax= 5.00D-04

 Cycle  13  Pass 1  IDiag  1:
 RMSU=  2.03D-06    CP:  8.16D-01  1.73D+00  5.75D-01  3.90D-01  8.18D-01
                    CP:  8.27D-01  9.02D-01  1.89D+00  1.75D+00  1.56D+00
                    CP:  2.29D+00  1.68D+00
 E= -1615.12942527213     Delta-E=       -0.000000109692 Rises=F Damp=F
 DIIS: error= 3.86D-06 at cycle  13 NSaved=  13.
 NSaved=13 IEnMin=13 EnMin= -1615.12942527213     IErMin=13 ErrMin= 3.86D-06
 ErrMax= 3.86D-06  0.00D+00 EMaxC= 1.00D-01 BMatC= 1.11D-08 BMatP= 4.87D-08
 IDIUse=1 WtCom= 1.00D+00 WtEn= 0.00D+00
 Coeff-Com:  0.721D-04-0.112D-03-0.321D-03-0.531D-03-0.353D-03 0.256D-02
 Coeff-Com:  0.114D-01 0.504D-01-0.200D-01-0.233D+00-0.114D+00 0.382D+00
 Coeff-Com:  0.922D+00
 Coeff:      0.721D-04-0.112D-03-0.321D-03-0.531D-03-0.353D-03 0.256D-02
 Coeff:      0.114D-01 0.504D-01-0.200D-01-0.233D+00-0.114D+00 0.382D+00
 Coeff:      0.922D+00
 Gap=     0.183 Goal=   None    Shift=    0.000
 Gap=     0.110 Goal=   None    Shift=    0.000
 RMSDP=2.91D-06 MaxDP=1.46D-04 DE=-1.10D-07 OVMax= 2.02D-04

 Cycle  14  Pass 1  IDiag  1:
 RMSU=  9.49D-07    CP:  8.16D-01  1.73D+00  5.75D-01  3.90D-01  8.18D-01
                    CP:  8.28D-01  8.99D-01  1.89D+00  1.76D+00  1.58D+00
                    CP:  2.59D+00  2.04D+00  1.40D+00
 E= -1615.12942529273     Delta-E=       -0.000000020605 Rises=F Damp=F
 DIIS: error= 1.61D-06 at cycle  14 NSaved=  14.
 NSaved=14 IEnMin=14 EnMin= -1615.12942529273     IErMin=14 ErrMin= 1.61D-06
 ErrMax= 1.61D-06  0.00D+00 EMaxC= 1.00D-01 BMatC= 3.75D-09 BMatP= 1.11D-08
 IDIUse=1 WtCom= 1.00D+00 WtEn= 0.00D+00
 Coeff-Com: -0.105D-04 0.132D-04-0.688D-04-0.144D-03-0.621D-03-0.161D-02
 Coeff-Com: -0.165D-02 0.705D-02 0.292D-01 0.146D-01-0.113D+00-0.254D+00
 Coeff-Com:  0.430D+00 0.891D+00
 Coeff:     -0.105D-04 0.132D-04-0.688D-04-0.144D-03-0.621D-03-0.161D-02
 Coeff:     -0.165D-02 0.705D-02 0.292D-01 0.146D-01-0.113D+00-0.254D+00
 Coeff:      0.430D+00 0.891D+00
 Gap=     0.183 Goal=   None    Shift=    0.000
 Gap=     0.110 Goal=   None    Shift=    0.000
 RMSDP=1.77D-06 MaxDP=9.21D-05 DE=-2.06D-08 OVMax= 1.08D-04

 Cycle  15  Pass 1  IDiag  1:
 RMSU=  6.48D-07    CP:  8.16D-01  1.73D+00  5.75D-01  3.90D-01  8.17D-01
                    CP:  8.28D-01  8.98D-01  1.89D+00  1.76D+00  1.58D+00
                    CP:  2.73D+00  2.25D+00  1.81D+00  1.25D+00
 E= -1615.12942529811     Delta-E=       -0.000000005379 Rises=F Damp=F
 DIIS: error= 4.82D-07 at cycle  15 NSaved=  15.
 NSaved=15 IEnMin=15 EnMin= -1615.12942529811     IErMin=15 ErrMin= 4.82D-07
 ErrMax= 4.82D-07  0.00D+00 EMaxC= 1.00D-01 BMatC= 4.89D-10 BMatP= 3.75D-09
 IDIUse=1 WtCom= 1.00D+00 WtEn= 0.00D+00
 Coeff-Com: -0.159D-04 0.237D-04 0.477D-04 0.771D-04-0.892D-04-0.999D-03
 Coeff-Com: -0.301D-02-0.959D-02 0.109D-01 0.538D-01 0.472D-02-0.141D+00
 Coeff-Com: -0.102D+00 0.212D+00 0.976D+00
 Coeff:     -0.159D-04 0.237D-04 0.477D-04 0.771D-04-0.892D-04-0.999D-03
 Coeff:     -0.301D-02-0.959D-02 0.109D-01 0.538D-01 0.472D-02-0.141D+00
 Coeff:     -0.102D+00 0.212D+00 0.976D+00
 Gap=     0.183 Goal=   None    Shift=    0.000
 Gap=     0.110 Goal=   None    Shift=    0.000
 RMSDP=5.36D-07 MaxDP=4.14D-05 DE=-5.38D-09 OVMax= 3.41D-05

 Cycle  16  Pass 1  IDiag  1:
 RMSU=  2.63D-07    CP:  8.16D-01  1.73D+00  5.75D-01  3.90D-01  8.17D-01
                    CP:  8.28D-01  8.98D-01  1.89D+00  1.76D+00  1.59D+00
                    CP:  2.75D+00  2.29D+00  1.93D+00  1.57D+00  1.22D+00
 E= -1615.12942529883     Delta-E=       -0.000000000715 Rises=F Damp=F
 DIIS: error= 2.84D-07 at cycle  16 NSaved=  16.
 NSaved=16 IEnMin=16 EnMin= -1615.12942529883     IErMin=16 ErrMin= 2.84D-07
 ErrMax= 2.84D-07  0.00D+00 EMaxC= 1.00D-01 BMatC= 1.06D-10 BMatP= 4.89D-10
 IDIUse=1 WtCom= 1.00D+00 WtEn= 0.00D+00
 Coeff-Com: -0.320D-05 0.541D-05 0.271D-04 0.493D-04 0.729D-04-0.456D-04
 Coeff-Com: -0.705D-03-0.408D-02-0.961D-03 0.145D-01 0.212D-01-0.517D-02
 Coeff-Com: -0.994D-01-0.781D-01 0.297D+00 0.855D+00
 Coeff:     -0.320D-05 0.541D-05 0.271D-04 0.493D-04 0.729D-04-0.456D-04
 Coeff:     -0.705D-03-0.408D-02-0.961D-03 0.145D-01 0.212D-01-0.517D-02
 Coeff:     -0.994D-01-0.781D-01 0.297D+00 0.855D+00
 Gap=     0.183 Goal=   None    Shift=    0.000
 Gap=     0.110 Goal=   None    Shift=    0.000
 RMSDP=2.02D-07 MaxDP=1.47D-05 DE=-7.15D-10 OVMax= 8.13D-06

 Cycle  17  Pass 1  IDiag  1:
 RMSU=  1.11D-07    CP:  8.16D-01  1.73D+00  5.75D-01  3.90D-01  8.17D-01
                    CP:  8.28D-01  8.98D-01  1.89D+00  1.76D+00  1.59D+00
                    CP:  2.74D+00  2.28D+00  1.96D+00  1.65D+00  1.38D+00
                    CP:  1.26D+00
 E= -1615.12942529901     Delta-E=       -0.000000000182 Rises=F Damp=F
 DIIS: error= 1.67D-07 at cycle  17 NSaved=  17.
 NSaved=17 IEnMin=17 EnMin= -1615.12942529901     IErMin=17 ErrMin= 1.67D-07
 ErrMax= 1.67D-07  0.00D+00 EMaxC= 1.00D-01 BMatC= 3.32D-11 BMatP= 1.06D-10
 IDIUse=1 WtCom= 1.00D+00 WtEn= 0.00D+00
 Coeff-Com:  0.316D-05-0.435D-05-0.212D-05-0.753D-06 0.550D-04 0.272D-03
 Coeff-Com:  0.554D-03 0.115D-02-0.325D-02-0.924D-02 0.714D-02 0.357D-01
 Coeff-Com: -0.104D-01-0.886D-01-0.149D+00 0.342D+00 0.874D+00
 Coeff:      0.316D-05-0.435D-05-0.212D-05-0.753D-06 0.550D-04 0.272D-03
 Coeff:      0.554D-03 0.115D-02-0.325D-02-0.924D-02 0.714D-02 0.357D-01
 Coeff:     -0.104D-01-0.886D-01-0.149D+00 0.342D+00 0.874D+00
 Gap=     0.183 Goal=   None    Shift=    0.000
 Gap=     0.110 Goal=   None    Shift=    0.000
 RMSDP=1.10D-07 MaxDP=9.64D-06 DE=-1.82D-10 OVMax= 3.39D-06

 Cycle  18  Pass 1  IDiag  1:
 RMSU=  5.41D-08    CP:  8.16D-01  1.73D+00  5.75D-01  3.90D-01  8.17D-01
                    CP:  8.28D-01  8.98D-01  1.89D+00  1.76D+00  1.59D+00
                    CP:  2.74D+00  2.27D+00  1.97D+00  1.68D+00  1.44D+00
                    CP:  1.51D+00  1.20D+00
 E= -1615.12942529900     Delta-E=        0.000000000006 Rises=F Damp=F
 DIIS: error= 7.94D-08 at cycle  18 NSaved=  18.
 NSaved=18 IEnMin=17 EnMin= -1615.12942529901     IErMin=18 ErrMin= 7.94D-08
 ErrMax= 7.94D-08  0.00D+00 EMaxC= 1.00D-01 BMatC= 7.75D-12 BMatP= 3.32D-11
 IDIUse=1 WtCom= 1.00D+00 WtEn= 0.00D+00
 Coeff-Com:  0.146D-05-0.224D-05-0.554D-05-0.818D-05 0.615D-05 0.104D-03
 Coeff-Com:  0.295D-03 0.109D-02-0.971D-03-0.545D-02-0.167D-02 0.129D-01
 Coeff-Com:  0.159D-01-0.151D-01-0.109D+00-0.573D-01 0.286D+00 0.874D+00
 Coeff:      0.146D-05-0.224D-05-0.554D-05-0.818D-05 0.615D-05 0.104D-03
 Coeff:      0.295D-03 0.109D-02-0.971D-03-0.545D-02-0.167D-02 0.129D-01
 Coeff:      0.159D-01-0.151D-01-0.109D+00-0.573D-01 0.286D+00 0.874D+00
 Gap=     0.183 Goal=   None    Shift=    0.000
 Gap=     0.110 Goal=   None    Shift=    0.000
 RMSDP=5.16D-08 MaxDP=5.15D-06 DE= 6.37D-12 OVMax= 1.81D-06

 Cycle  19  Pass 1  IDiag  1:
 RMSU=  3.05D-08    CP:  8.16D-01  1.73D+00  5.75D-01  3.90D-01  8.17D-01
                    CP:  8.28D-01  8.98D-01  1.89D+00  1.76D+00  1.59D+00
                    CP:  2.74D+00  2.27D+00  1.97D+00  1.68D+00  1.45D+00
                    CP:  1.59D+00  1.40D+00  1.34D+00
 E= -1615.12942529906     Delta-E=       -0.000000000060 Rises=F Damp=F
 DIIS: error= 4.53D-08 at cycle  19 NSaved=  19.
 NSaved=19 IEnMin=19 EnMin= -1615.12942529906     IErMin=19 ErrMin= 4.53D-08
 ErrMax= 4.53D-08  0.00D+00 EMaxC= 1.00D-01 BMatC= 3.62D-12 BMatP= 7.75D-12
 IDIUse=1 WtCom= 1.00D+00 WtEn= 0.00D+00
 Coeff-Com: -0.424D-06 0.457D-06-0.232D-05-0.388D-05-0.142D-04-0.288D-04
 Coeff-Com: -0.229D-04 0.224D-03 0.460D-03 0.749D-04-0.326D-02-0.417D-02
 Coeff-Com:  0.122D-01 0.188D-01-0.114D-01-0.142D+00-0.124D+00 0.483D+00
 Coeff-Com:  0.770D+00
 Coeff:     -0.424D-06 0.457D-06-0.232D-05-0.388D-05-0.142D-04-0.288D-04
 Coeff:     -0.229D-04 0.224D-03 0.460D-03 0.749D-04-0.326D-02-0.417D-02
 Coeff:      0.122D-01 0.188D-01-0.114D-01-0.142D+00-0.124D+00 0.483D+00
 Coeff:      0.770D+00
 Gap=     0.183 Goal=   None    Shift=    0.000
 Gap=     0.110 Goal=   None    Shift=    0.000
 RMSDP=3.31D-08 MaxDP=1.95D-06 DE=-6.00D-11 OVMax= 1.23D-06

 Cycle  20  Pass 1  IDiag  1:
 RMSU=  1.93D-08    CP:  8.16D-01  1.73D+00  5.75D-01  3.90D-01  8.17D-01
                    CP:  8.28D-01  8.98D-01  1.89D+00  1.76D+00  1.59D+00
                    CP:  2.74D+00  2.27D+00  1.97D+00  1.68D+00  1.45D+00
                    CP:  1.61D+00  1.47D+00  1.73D+00  9.56D-01
 E= -1615.12942529899     Delta-E=        0.000000000067 Rises=F Damp=F
 DIIS: error= 2.49D-08 at cycle  20 NSaved=  20.
 NSaved=20 IEnMin=19 EnMin= -1615.12942529906     IErMin=20 ErrMin= 2.49D-08
 ErrMax= 2.49D-08  0.00D+00 EMaxC= 1.00D-01 BMatC= 1.16D-12 BMatP= 3.62D-12
 IDIUse=1 WtCom= 1.00D+00 WtEn= 0.00D+00
 Coeff-Com: -0.725D-06 0.992D-06 0.283D-06 0.228D-06-0.109D-04-0.504D-04
 Coeff-Com: -0.112D-03-0.211D-03 0.585D-03 0.184D-02-0.139D-02-0.656D-02
 Coeff-Com:  0.209D-02 0.145D-01 0.299D-01-0.625D-01-0.162D+00-0.106D-01
 Coeff-Com:  0.421D+00 0.774D+00
 Coeff:     -0.725D-06 0.992D-06 0.283D-06 0.228D-06-0.109D-04-0.504D-04
 Coeff:     -0.112D-03-0.211D-03 0.585D-03 0.184D-02-0.139D-02-0.656D-02
 Coeff:      0.209D-02 0.145D-01 0.299D-01-0.625D-01-0.162D+00-0.106D-01
 Coeff:      0.421D+00 0.774D+00
 Gap=     0.183 Goal=   None    Shift=    0.000
 Gap=     0.110 Goal=   None    Shift=    0.000
 RMSDP=2.12D-08 MaxDP=1.15D-06 DE= 6.73D-11 OVMax= 8.29D-07

 Cycle  21  Pass 1  IDiag  1:
 Restarting incremental Fock formation.
 E= -1615.12942529903     Delta-E=       -0.000000000035 Rises=F Damp=F
 DIIS: error= 1.85D-08 at cycle  21 NSaved=  20.
 NSaved=20 IEnMin=18 EnMin= -1615.12942529906     IErMin=20 ErrMin= 1.85D-08
 ErrMax= 1.85D-08  0.00D+00 EMaxC= 1.00D-01 BMatC= 3.09D-13 BMatP= 1.16D-12
 IDIUse=1 WtCom= 1.00D+00 WtEn= 0.00D+00
 Coeff-Com:  0.229D-07 0.664D-06 0.111D-05 0.191D-06-0.867D-05-0.337D-04
 Coeff-Com: -0.144D-03 0.670D-04 0.636D-03 0.585D-03-0.973D-03-0.335D-02
[...]
     6 C(13)  Bbb    -0.0050    -0.666    -0.238    -0.222  0.8857 -0.3634 -0.2890
              Bcc     0.0162     2.169     0.774     0.724  0.3666  0.9293 -0.0451
 
              Baa    -0.0009    -0.127    -0.045    -0.042  0.9199  0.1367 -0.3676
     7 C(13)  Bbb     0.0002     0.026     0.009     0.009 -0.1327  0.9905  0.0362
              Bcc     0.0007     0.101     0.036     0.034  0.3690  0.0155  0.9293
 
              Baa    -0.0004    -0.187    -0.067    -0.062  0.9588  0.1997 -0.2019
     8 H(1)   Bbb    -0.0003    -0.160    -0.057    -0.053  0.2114 -0.0271  0.9770
              Bcc     0.0006     0.346     0.124     0.116 -0.1896  0.9795  0.0682
 
              Baa    -0.0373    -5.001    -1.784    -1.668  0.1734 -0.3569  0.9179
     9 C(13)  Bbb    -0.0309    -4.147    -1.480    -1.383 -0.0296  0.9297  0.3671
              Bcc     0.0682     9.148     3.264     3.051  0.9844  0.0908 -0.1507
 
              Baa    -0.0009    -0.127    -0.045    -0.042  0.9199 -0.1374 -0.3673
    10 C(13)  Bbb     0.0002     0.026     0.009     0.009  0.1339  0.9904 -0.0352
              Bcc     0.0008     0.101     0.036     0.034  0.3686 -0.0168  0.9294
 
              Baa    -0.0004    -0.187    -0.067    -0.062  0.9588 -0.2003 -0.2015
    11 H(1)   Bbb    -0.0003    -0.160    -0.057    -0.053  0.2113  0.0288  0.9770
              Bcc     0.0006     0.346     0.124     0.116  0.1899  0.9793 -0.0699
 
              Baa    -0.0038    -0.505    -0.180    -0.168  0.9454  0.0890 -0.3135
    12 C(13)  Bbb    -0.0019    -0.252    -0.090    -0.084 -0.1073  0.9934 -0.0416
              Bcc     0.0056     0.756     0.270     0.252  0.3077  0.0730  0.9487
 
              Baa    -0.0112    -1.502    -0.536    -0.501  0.2854  0.0683  0.9560
    13 C(13)  Bbb    -0.0050    -0.666    -0.237    -0.222  0.8854  0.3631 -0.2903
              Bcc     0.0162     2.168     0.773     0.723 -0.3669  0.9293  0.0432
 
              Baa    -0.0442    -5.933    -2.117    -1.979 -0.0710  0.2533  0.9648
    14 C(13)  Bbb    -0.0425    -5.708    -2.037    -1.904  0.1566  0.9581 -0.2400
              Bcc     0.0867    11.641     4.154     3.883  0.9851 -0.1341  0.1077
 
              Baa    -0.0169    -2.268    -0.809    -0.757 -0.2945  0.4665  0.8340
    15 C(13)  Bbb    -0.0132    -1.767    -0.631    -0.590  0.1500  0.8845 -0.4418
              Bcc     0.0301     4.036     1.440     1.346  0.9438  0.0050  0.3305
 
              Baa    -0.0109    -1.463    -0.522    -0.488 -0.0748  0.7070 -0.7032
    16 C(13)  Bbb    -0.0058    -0.776    -0.277    -0.259 -0.0748  0.6992  0.7110
              Bcc     0.0167     2.239     0.799     0.747  0.9944  0.1058  0.0006
 
              Baa    -0.0024    -1.254    -0.448    -0.418  0.5095 -0.2183  0.8323
    17 H(1)   Bbb    -0.0019    -1.016    -0.363    -0.339  0.8032  0.4677 -0.3690
              Bcc     0.0043     2.271     0.810     0.757 -0.3088  0.8565  0.4136
 
              Baa    -0.0046    -0.614    -0.219    -0.205  0.3145  0.0342  0.9486
    18 C(13)  Bbb     0.0004     0.053     0.019     0.018  0.9173 -0.2682 -0.2944
              Bcc     0.0042     0.561     0.200     0.187  0.2444  0.9627 -0.1158
 
              Baa    -0.0006    -0.323    -0.115    -0.108  0.2155  0.0457  0.9754
    19 H(1)   Bbb    -0.0003    -0.172    -0.061    -0.057  0.8896 -0.4212 -0.1768
              Bcc     0.0009     0.495     0.177     0.165  0.4028  0.9058 -0.1314
 
              Baa    -0.0269    -3.611    -1.289    -1.205  0.0232  0.9933  0.1129
    20 C(13)  Bbb    -0.0245    -3.288    -1.173    -1.097  0.1663 -0.1152  0.9793
              Bcc     0.0514     6.899     2.462     2.301  0.9858 -0.0039 -0.1678
 
              Baa    -0.0076    -1.021    -0.364    -0.341  0.7395  0.6722 -0.0371
    21 C(13)  Bbb    -0.0050    -0.671    -0.239    -0.224 -0.5755  0.6026 -0.5528
              Bcc     0.0126     1.692     0.604     0.564 -0.3492  0.4301  0.8325
 
              Baa    -0.0016    -0.833    -0.297    -0.278  0.3935  0.0816  0.9157
    22 H(1)   Bbb    -0.0004    -0.237    -0.085    -0.079  0.4313  0.8633 -0.2623
              Bcc     0.0020     1.069     0.382     0.357  0.8119 -0.4981 -0.3045
 
              Baa    -0.0169    -2.271    -0.810    -0.757 -0.2939 -0.4657  0.8348
    23 C(13)  Bbb    -0.0132    -1.769    -0.631    -0.590 -0.1501  0.8850  0.4408
              Bcc     0.0301     4.040     1.442     1.348  0.9440 -0.0042  0.3300
 
              Baa    -0.0269    -3.613    -1.289    -1.205 -0.0242  0.9932 -0.1142
    24 C(13)  Bbb    -0.0245    -3.290    -1.174    -1.097  0.1665  0.1167  0.9791
              Bcc     0.0514     6.903     2.463     2.303  0.9857  0.0047 -0.1682
 
              Baa    -0.0046    -0.614    -0.219    -0.205  0.3153 -0.0328  0.9484
    25 C(13)  Bbb     0.0004     0.053     0.019     0.018  0.9170  0.2677 -0.2956
              Bcc     0.0042     0.561     0.200     0.187 -0.2441  0.9630  0.1145
 
              Baa    -0.0006    -0.323    -0.115    -0.108  0.2155 -0.0439  0.9755
    26 H(1)   Bbb    -0.0003    -0.172    -0.061    -0.057  0.8896  0.4208 -0.1776
              Bcc     0.0009     0.495     0.177     0.165 -0.4027  0.9061  0.1298
 
              Baa    -0.0443    -5.942    -2.120    -1.982 -0.0703 -0.2524  0.9651
    27 C(13)  Bbb    -0.0426    -5.716    -2.040    -1.907 -0.1578  0.9581  0.2390
              Bcc     0.0869    11.657     4.160     3.888  0.9850  0.1355  0.1072
 
              Baa    -0.0225    -3.014    -1.076    -1.005  0.9903  0.1317  0.0437
    28 C(13)  Bbb     0.0086     1.152     0.411     0.384 -0.1365  0.9812  0.1363
              Bcc     0.0139     1.862     0.664     0.621 -0.0250 -0.1409  0.9897
 
              Baa    -0.0020    -1.053    -0.376    -0.351  0.9635  0.0209  0.2669
    29 H(1)   Bbb    -0.0014    -0.769    -0.274    -0.257 -0.1149  0.9327  0.3418
              Bcc     0.0034     1.822     0.650     0.608 -0.2418 -0.3600  0.9011
 
              Baa    -0.0052    -0.704    -0.251    -0.235  0.9927 -0.1148 -0.0366
    30 C(13)  Bbb    -0.0001    -0.020    -0.007    -0.007  0.1075  0.7070  0.6989
              Bcc     0.0054     0.723     0.258     0.241 -0.0544 -0.6978  0.7142
 
              Baa    -0.0016    -0.857    -0.306    -0.286  0.9471  0.2029 -0.2487
    31 H(1)   Bbb    -0.0013    -0.711    -0.254    -0.237  0.0917  0.5715  0.8155
              Bcc     0.0029     1.568     0.559     0.523 -0.3076  0.7951 -0.5227
 
              Baa    -0.0128    -1.717    -0.613    -0.573 -0.0068  0.7316 -0.6817
    32 C(13)  Bbb    -0.0105    -1.414    -0.504    -0.472 -0.1214  0.6761  0.7268
              Bcc     0.0233     3.131     1.117     1.044  0.9926  0.0877  0.0842
 
              Baa    -0.0027    -1.415    -0.505    -0.472  0.1094 -0.6822  0.7230
    33 H(1)   Bbb    -0.0015    -0.784    -0.280    -0.261  0.9636  0.2512  0.0912
              Bcc     0.0041     2.199     0.785     0.734 -0.2439  0.6867  0.6848
 
              Baa    -0.0076    -1.021    -0.364    -0.341  0.7395 -0.6722 -0.0351
    34 C(13)  Bbb    -0.0050    -0.671    -0.239    -0.224  0.5750  0.6038  0.5521
              Bcc     0.0126     1.692     0.604     0.564 -0.3500 -0.4285  0.8330
 
              Baa    -0.0016    -0.833    -0.297    -0.278  0.3931 -0.0797  0.9161
    35 H(1)   Bbb    -0.0004    -0.237    -0.084    -0.079 -0.4316  0.8637  0.2603
              Bcc     0.0020     1.070     0.382     0.357  0.8119  0.4977 -0.3051
 
              Baa    -0.0025    -0.335    -0.120    -0.112 -0.0045  0.9964  0.0845
    36 C(13)  Bbb     0.0000     0.005     0.002     0.002  0.7935  0.0550 -0.6061
              Bcc     0.0025     0.330     0.118     0.110  0.6086 -0.0643  0.7909
 
              Baa    -0.0016    -0.862    -0.308    -0.288  0.3297  0.9227  0.1999
    37 H(1)   Bbb    -0.0012    -0.615    -0.219    -0.205  0.8918 -0.2349 -0.3868
              Bcc     0.0028     1.477     0.527     0.493  0.3099 -0.3058  0.9002
 
              Baa    -0.0373    -5.002    -1.785    -1.668  0.1732  0.3594  0.9170
    38 C(13)  Bbb    -0.0309    -4.148    -1.480    -1.384  0.0290  0.9288 -0.3695
              Bcc     0.0682     9.150     3.265     3.052  0.9845 -0.0905 -0.1504
 
              Baa    -0.0425    -5.697    -2.033    -1.900 -0.0078  0.9807 -0.1953
    39 C(13)  Bbb    -0.0387    -5.198    -1.855    -1.734 -0.1204  0.1930  0.9738
              Bcc     0.0812    10.895     3.888     3.634  0.9927  0.0311  0.1166
 
              Baa    -0.0062    -3.326    -1.187    -1.109 -0.1368 -0.3100  0.9408
    40 H(1)   Bbb    -0.0012    -0.666    -0.238    -0.222  0.9743  0.1293  0.1843
              Bcc     0.0075     3.992     1.424     1.332 -0.1788  0.9419  0.2844
 
              Baa    -0.0079    -1.057    -0.377    -0.353  0.0152  0.9973 -0.0713
    41 C(13)  Bbb    -0.0052    -0.697    -0.249    -0.233  0.1680  0.0678  0.9835
              Bcc     0.0131     1.754     0.626     0.585  0.9857 -0.0269 -0.1665
 
              Baa    -0.0016    -0.853    -0.304    -0.284 -0.0942  0.9833  0.1557
    42 H(1)   Bbb    -0.0006    -0.332    -0.118    -0.111  0.9607  0.1307 -0.2448
              Bcc     0.0022     1.185     0.423     0.395  0.2611 -0.1265  0.9570
 
              Baa    -0.0350    -4.700    -1.677    -1.568  0.0601  0.9831 -0.1730
    43 C(13)  Bbb    -0.0302    -4.059    -1.448    -1.354  0.0861  0.1676  0.9821
              Bcc     0.0653     8.759     3.125     2.922  0.9945 -0.0739 -0.0746
 
              Baa    -0.0054    -2.902    -1.036    -0.968  0.1441  0.8032  0.5780
    44 H(1)   Bbb    -0.0020    -1.052    -0.375    -0.351  0.9800 -0.0349 -0.1958
              Bcc     0.0074     3.954     1.411     1.319  0.1371 -0.5947  0.7922
 
              Baa    -0.0025    -0.335    -0.120    -0.112  0.0056  0.9962 -0.0874
    45 C(13)  Bbb     0.0000     0.005     0.002     0.002  0.7933 -0.0576 -0.6060
              Bcc     0.0025     0.330     0.118     0.110  0.6087  0.0659  0.7906
 
              Baa    -0.0016    -0.862    -0.308    -0.288 -0.3303  0.9221 -0.2017
    46 H(1)   Bbb    -0.0012    -0.615    -0.219    -0.205  0.8915  0.2346 -0.3876
              Bcc     0.0028     1.477     0.527     0.493  0.3101  0.3079  0.8995
 
              Baa    -0.0376    -5.039    -1.798    -1.681 -0.2391  0.8546  0.4610
    47 C(13)  Bbb    -0.0338    -4.540    -1.620    -1.514 -0.0114 -0.4772  0.8787
              Bcc     0.0714     9.579     3.418     3.195  0.9709  0.2048  0.1238
 
              Baa    -0.0056    -2.993    -1.068    -0.998 -0.1506  0.8443  0.5142
    48 H(1)   Bbb    -0.0012    -0.616    -0.220    -0.206  0.9883  0.1158  0.0994
              Bcc     0.0068     3.610     1.288     1.204 -0.0244 -0.5232  0.8519
 
              Baa    -0.0052    -0.701    -0.250    -0.234  0.9927  0.1149 -0.0363
    49 C(13)  Bbb    -0.0001    -0.020    -0.007    -0.007 -0.1073  0.7060 -0.7001
              Bcc     0.0054     0.721     0.257     0.241 -0.0548  0.6989  0.7132
 
              Baa    -0.0016    -0.857    -0.306    -0.286  0.9472 -0.2024 -0.2488
    50 H(1)   Bbb    -0.0013    -0.711    -0.254    -0.237  0.0926 -0.5700  0.8164
              Bcc     0.0029     1.568     0.560     0.523  0.3071  0.7963  0.5211
 
              Baa    -0.0079    -1.057    -0.377    -0.352 -0.0156  0.9975  0.0691
    51 C(13)  Bbb    -0.0052    -0.697    -0.249    -0.233  0.1686 -0.0655  0.9835
              Bcc     0.0131     1.754     0.626     0.585  0.9856  0.0270 -0.1671
 
              Baa    -0.0016    -0.852    -0.304    -0.284  0.0936  0.9830 -0.1579
    52 H(1)   Bbb    -0.0006    -0.332    -0.119    -0.111  0.9607 -0.1308 -0.2448
              Bcc     0.0022     1.185     0.423     0.395  0.2613  0.1288  0.9566
 
              Baa    -0.0109    -1.463    -0.522    -0.488  0.0738  0.7087  0.7017
    53 C(13)  Bbb    -0.0058    -0.777    -0.277    -0.259 -0.0752 -0.6976  0.7125
              Bcc     0.0167     2.240     0.799     0.747  0.9944 -0.1054  0.0018
 
              Baa    -0.0024    -1.254    -0.447    -0.418  0.5096  0.2202  0.8318
    54 H(1)   Bbb    -0.0019    -1.016    -0.362    -0.339  0.8033 -0.4680 -0.3683
              Bcc     0.0043     2.270     0.810     0.757  0.3082  0.8559 -0.4154
 
              Baa    -0.0088    -1.181    -0.421    -0.394  0.2102  0.6741  0.7081
    55 C(13)  Bbb    -0.0065    -0.868    -0.310    -0.290 -0.2795  0.7355 -0.6172
              Bcc     0.0153     2.049     0.731     0.684  0.9369  0.0682 -0.3430
 
              Baa    -0.0015    -0.806    -0.288    -0.269  0.2108  0.5127  0.8323
    56 H(1)   Bbb    -0.0009    -0.465    -0.166    -0.155  0.9423  0.1199 -0.3125
              Bcc     0.0024     1.271     0.453     0.424 -0.2601  0.8501 -0.4579
 
              Baa    -0.0128    -1.714    -0.612    -0.572  0.0059  0.7331  0.6800
    57 C(13)  Bbb    -0.0105    -1.411    -0.503    -0.471 -0.1211 -0.6745  0.7283
              Bcc     0.0233     3.125     1.115     1.042  0.9926 -0.0866  0.0848
 
              Baa    -0.0026    -1.414    -0.504    -0.471  0.1087  0.6836  0.7217
    58 H(1)   Bbb    -0.0015    -0.784    -0.280    -0.261  0.9638 -0.2504  0.0920
              Bcc     0.0041     2.197     0.784     0.733 -0.2436 -0.6855  0.6861
 
              Baa    -0.0425    -5.708    -2.037    -1.904  0.0063  0.9809  0.1942
    59 C(13)  Bbb    -0.0388    -5.210    -1.859    -1.738 -0.1202 -0.1921  0.9740
              Bcc     0.0814    10.918     3.896     3.642  0.9927 -0.0295  0.1167
 
              Baa    -0.0062    -3.332    -1.189    -1.112 -0.1370  0.3117  0.9402
    60 H(1)   Bbb    -0.0012    -0.665    -0.237    -0.222  0.9746 -0.1275  0.1843
              Bcc     0.0075     3.997     1.426     1.333  0.1774  0.9416 -0.2863
 
              Baa    -0.0088    -1.180    -0.421    -0.394  0.2102 -0.6727  0.7094
    61 C(13)  Bbb    -0.0065    -0.867    -0.309    -0.289  0.2787  0.7367  0.6161
              Bcc     0.0152     2.046     0.730     0.683  0.9371 -0.0682 -0.3424
 
              Baa    -0.0015    -0.806    -0.287    -0.269  0.2105 -0.5109  0.8335
    62 H(1)   Bbb    -0.0009    -0.464    -0.166    -0.155  0.9426 -0.1202 -0.3117
              Bcc     0.0024     1.270     0.453     0.424  0.2594  0.8512  0.4563
 
              Baa    -0.0350    -4.698    -1.676    -1.567 -0.0612  0.9833  0.1714
    63 C(13)  Bbb    -0.0302    -4.057    -1.448    -1.353  0.0867 -0.1659  0.9823
              Bcc     0.0652     8.755     3.124     2.920  0.9943  0.0750 -0.0751
 
              Baa    -0.0054    -2.902    -1.035    -0.968 -0.1456  0.8020 -0.5793
    64 H(1)   Bbb    -0.0020    -1.052    -0.375    -0.351  0.9799  0.0360 -0.1964
              Bcc     0.0074     3.954     1.411     1.319  0.1367  0.5962  0.7911
 
              Baa    -0.0225    -3.016    -1.076    -1.006  0.9904 -0.1311  0.0441
    65 C(13)  Bbb     0.0086     1.152     0.411     0.384  0.1360  0.9810 -0.1382
              Bcc     0.0139     1.864     0.665     0.622 -0.0252  0.1429  0.9894
 
              Baa    -0.0020    -1.053    -0.376    -0.351  0.9636 -0.0191  0.2668
    66 H(1)   Bbb    -0.0014    -0.769    -0.274    -0.256  0.1137  0.9321 -0.3439
              Bcc     0.0034     1.822     0.650     0.608 -0.2421  0.3617  0.9003
 
              Baa    -0.0376    -5.040    -1.798    -1.681  0.2386  0.8539 -0.4625
    67 C(13)  Bbb    -0.0338    -4.541    -1.620    -1.515 -0.0121  0.4788  0.8778
              Bcc     0.0714     9.580     3.418     3.196  0.9710 -0.2039  0.1246
 
              Baa    -0.0056    -2.994    -1.068    -0.999  0.1504  0.8434 -0.5158
    68 H(1)   Bbb    -0.0012    -0.616    -0.220    -0.206  0.9883 -0.1150  0.1000
              Bcc     0.0068     3.610     1.288     1.204 -0.0250  0.5248  0.8508
 

 ---------------------------------------------------------------------------------

 No NMR shielding tensors so no spin-rotation constants.
 Leave Link  601 at Fri Mar 21 14:08:01 2025, MaxMem=  3221225472 cpu:              25.0 elap:               1.0
 (Enter /home/szhao/Apps/g16/l9999.exe)
 1\1\GINC-NODE01\FOpt\UM062X\6-311+G(d,p)\C42H26(1+,2)\SZHAO\21-Mar-202
 5\0\\#p opt UM062X/6-311+G** nosymm int=superfine SCF=(Tight,MaxCycle=
 200)\\Title Card Required\\1,2\C,-1.027223209,0.,0.\C,1.027223209,0.,0
 .\C,0.0000021231,-2.1846287512,0.0026818263\C,-0.0000640623,-3.5502296
 899,0.0041289702\C,-1.1198699232,-4.3278460051,0.3448808526\C,-1.16373
 69234,-1.4759535854,0.3274640963\C,0.6494621842,-5.725777434,-0.193473
 9265\H,1.2469641817,-6.6069451743,-0.3790554706\C,-1.4116374267,0.9045
 282203,1.1105996927\C,-0.650388803,-5.7253008038,0.2042769722\H,-1.248
 2034864,-6.6060277948,0.3909418137\C,1.1194126559,-4.3286663356,-0.335
 8729746\C,1.16362685,-1.4766884853,-0.3242340285\C,1.6182948099,2.3123
 520405,-1.0339688965\C,-1.4203408395,0.219379474,-1.434049609\C,-1.858
 448514,3.0477025383,2.2185994346\H,-2.0179238984,4.1161426044,2.130966
 1757\C,-2.2649225535,-3.6408010752,0.6980465928\H,-3.1756475391,-4.158
 8355554,0.9768920404\C,-1.5448248289,1.4821568333,-2.0829577641\C,2.28
 20847025,-2.20773191,-0.6736447788\H,3.2125361885,-1.701815257,-0.9091
 18256\C,1.4205918284,0.2225072003,1.4335169512\C,1.5444229299,1.486681
 071,2.0798275921\C,2.2643024424,-3.6424530422,-0.6911499095\H,3.174714
 838,-4.1611406468,-0.9698014741\C,-1.619747116,2.3141593341,1.02925152
 45\C,-1.4500140645,0.3341389941,2.4026713721\H,-1.271258328,-0.7240864
 6,2.5171569666\C,1.6032596637,-0.9102419601,2.2629156784\H,1.559009033
 1,-1.9044660923,1.8486295216\C,-1.8942234074,2.4541401049,3.4559251273
 \H,-2.0794691664,3.0441490911,4.344981338\C,-2.2824908149,-2.206124813
 9,0.6777452978\H,-3.2130384682,-1.6996066269,0.9115356313\C,-1.7681718
 645,1.5393341317,-3.4772694695\H,-1.8375512802,2.5172411273,-3.9393366
 031\C,1.4113938518,0.9023791295,-1.1124674147\C,-1.5712311378,3.122588
 9324,-0.1546316537\H,-1.6136333196,4.1901726999,0.0387066447\C,-1.9251
 568905,0.4105234127,-4.2465980946\H,-2.1104868929,0.4880793443,-5.3106
 968036\C,-1.5002759152,2.7749093245,-1.4580105786\H,-1.493920724,3.604
 7533267,-2.1581498124\C,1.7683659382,1.5468669918,3.4739197136\H,1.837
 2370222,2.5257714796,3.9339443145\C,-1.682750278,1.0734146252,3.543371
 7861\H,-1.691489915,0.5774591267,4.5065338743\C,-1.6019352974,-0.91518
 60393,-2.2611896946\H,-1.5572239492,-1.9085261976,-1.8448289673\C,1.92
 64831389,0.4197424721,4.2454689351\H,2.1122821327,0.4995811817,5.30931
 66668\C,1.8567285415,3.0436721277,-2.2247256303\H,2.0152645911,4.11242
 50117,-2.1392249674\C,1.8584876895,-0.8228422122,3.6186058082\H,2.0022
 47476,-1.7337122563,4.1869824059\C,1.8934164623,2.4476074046,-3.460819
 8975\H,2.0784497452,3.0359473875,-4.3510258522\C,1.5686220736,3.123181
 3392,0.1482187635\H,1.6096299193,4.1904174989,-0.0473396687\C,-1.85667
 19647,-0.830727006,-3.6171679121\H,-1.9996230222,-1.7428502112,-4.1837
 359382\C,1.4982015638,2.7781138627,1.4523251075\H,1.4908858175,3.60938
 01254,2.1507632515\C,1.4504915009,0.3294111313,-2.4033713642\H,1.27246
 24349,-0.7291452079,-2.5158012681\C,1.6830356025,1.0665535924,-3.54550
 19117\H,1.6923789361,0.5686547349,-4.5076564502\\Version=ES64L-G16RevA
 .03\HF=-1615.5593158\S2=0.758628\S2-1=0.\S2A=0.750064\RMSD=6.378e-09\R
 MSF=4.461e-06\Dipole=-0.0002894,1.379686,-0.0016681\Quadrupole=-23.163
 9308,12.7249313,10.4389995,-0.0123821,-1.3351598,0.0048073\PG=C01 [X(C
 42H26)]\\@


 THE TEST OF A FIRST RATE INTELLIGENCE IS THE ABILITY TO HOLD TWO OPPOSED
 IDEAS IN THE MIND AT THE SAME TIME, AND STILL RETAIN THE ABILITY TO FUNCTION.
 ONE SHOULD, FOR EXAMPLE, BE ABLE TO SEE THAT THINGS ARE HOPELESS AND YET BE
 DETERMINED TO MAKE THEM OTHERWISE.

                                                       -- F. SCOTT FITZGERALD
 Job cpu time:      25 days  9 hours 11 minutes 32.2 seconds.
 Elapsed time:       0 days 21 hours 49 minutes 33.2 seconds.
 File lengths (MBytes):  RWF=   1238 Int=      0 D2E=      0 Chk=    136 Scr=      1
 Normal termination of Gaussian 16 at Fri Mar 21 14:08:02 2025.
