Title Card Required                                                     
Force     UM062X                                                      6-311+G(d,p)        
Number of atoms                            I                6
Info1-9                                    I   N=           9
          15          15           0           0           0         100
           5          18        -502
Full Title                                 C   N=           2
Title Card Required     
Route                                      C   N=           4
#p UM062X/6-311+G** force int=superfine         
Charge                                     I                1
Multiplicity                               I                2
Number of electrons                        I               15
Number of alpha electrons                  I                8
Number of beta electrons                   I                7
Number of basis functions                  I               68
Number of independent functions            I               68
Number of point charges in /Mol/           I                0
Number of translation vectors              I                0
Atomic numbers                             I   N=           6
           6           6           1           1           1           1
Nuclear charges                            R   N=           6
  6.00000000E+00  6.00000000E+00  1.00000000E+00  1.00000000E+00  1.00000000E+00
  1.00000000E+00
Current cartesian coordinates              R   N=          18
  1.26699423E-22  1.44269818E+00  0.00000000E+00 -1.76679782E-16 -1.44269818E+00
  0.00000000E+00 -1.78545671E+00  2.45282105E+00  0.00000000E+00  1.78540568E+00
  2.45290797E+00  0.00000000E+00  1.78545671E+00 -2.45282105E+00  0.00000000E+00
 -1.78540568E+00 -2.45290797E+00  0.00000000E+00
Number of symbols in /Mol/                 I                0
Force Field                                I                0
Atom Types                                 C   N=           6
                                                            
            
Int Atom Types                             I   N=           6
           0           0           0           0           0           0
MM charges                                 R   N=           6
  0.00000000E+00  0.00000000E+00  0.00000000E+00  0.00000000E+00  0.00000000E+00
  0.00000000E+00
Integer atomic weights                     I   N=           6
          12          12           1           1           1           1
Real atomic weights                        R   N=           6
  1.20000000E+01  1.20000000E+01  1.00782504E+00  1.00782504E+00  1.00782504E+00
  1.00782504E+00
Atom fragment info                         I   N=           6
           0           0           0           0           0           0
Atom residue num                           I   N=           6
           0           0           0           0           0           0
Nuclear spins                              I   N=           6
           0           0           1           1           1           1
Nuclear ZEff                               R   N=           6
 -3.60000000E+00 -3.60000000E+00 -1.00000000E+00 -1.00000000E+00 -1.00000000E+00
 -1.00000000E+00
Nuclear ZNuc                               R   N=           6
  6.00000000E+00  6.00000000E+00  1.00000000E+00  1.00000000E+00  1.00000000E+00
  1.00000000E+00
Nuclear QMom                               R   N=           6
  0.00000000E+00  0.00000000E+00  0.00000000E+00  0.00000000E+00  0.00000000E+00
  0.00000000E+00
Nuclear GFac                               R   N=           6
  0.00000000E+00  0.00000000E+00  2.79284600E+00  2.79284600E+00  2.79284600E+00
  2.79284600E+00
MicOpt                                     I   N=           6
          -1          -1          -1          -1          -1          -1
Number of residues                         I                0
Number of secondary structures             I                0
SymInf integers                            I   N=          26
           2           4           1           1           1          -1
          -1           1           1           1          -1          -1
          -1          -1           0           0           0           0
           0           0           0           0           0           0
           0           0
RotTr to input orientation                 R   N=          12
 -2.39081548E-17  1.00000000E+00  0.00000000E+00 -1.00000000E+00 -2.39081256E-17
  0.00000000E+00  0.00000000E+00  0.00000000E+00  1.00000000E+00  5.55111512E-17
  0.00000000E+00  0.00000000E+00
Number of contracted shells                I               28
Number of primitive shells                 I               50
Pure/Cartesian d shells                    I                0
Pure/Cartesian f shells                    I                0
Highest angular momentum                   I                2
Largest degree of contraction              I                6
Shell types                                I   N=          28
           0          -1          -1          -1          -1          -2
           0          -1          -1          -1          -1          -2
           0           0           0           1           0           0
           0           1           0           0           0           1
           0           0           0           1
Number of primitives per shell             I   N=          28
           6           3           1           1           1           1
           6           3           1           1           1           1
           3           1           1           1           3           1
           1           1           3           1           1           1
           3           1           1           1
Shell to atom map                          I   N=          28
           1           1           1           1           1           1
           2           2           2           2           2           2
           3           3           3           3           4           4
           4           4           5           5           5           5
           6           6           6           6
Primitive exponents                        R   N=          50
  4.56324000E+03  6.82024000E+02  1.54973000E+02  4.44553000E+01  1.30290000E+01
  1.82773000E+00  2.09642000E+01  4.80331000E+00  1.45933000E+00  4.83456000E-01
  1.45585000E-01  4.38000000E-02  6.26000000E-01  4.56324000E+03  6.82024000E+02
  1.54973000E+02  4.44553000E+01  1.30290000E+01  1.82773000E+00  2.09642000E+01
  4.80331000E+00  1.45933000E+00  4.83456000E-01  1.45585000E-01  4.38000000E-02
  6.26000000E-01  3.38650000E+01  5.09479000E+00  1.15879000E+00  3.25840000E-01
  1.02741000E-01  7.50000000E-01  3.38650000E+01  5.09479000E+00  1.15879000E+00
  3.25840000E-01  1.02741000E-01  7.50000000E-01  3.38650000E+01  5.09479000E+00
  1.15879000E+00  3.25840000E-01  1.02741000E-01  7.50000000E-01  3.38650000E+01
  5.09479000E+00  1.15879000E+00  3.25840000E-01  1.02741000E-01  7.50000000E-01
Contraction coefficients                   R   N=          50
  1.96665025E-03  1.52306019E-02  7.61269097E-02  2.60801033E-01  6.16462078E-01
  2.21006028E-01  1.14660081E-01  9.19999648E-01 -3.03068213E-03  1.00000000E+00
  1.00000000E+00  1.00000000E+00  1.00000000E+00  1.96665025E-03  1.52306019E-02
  7.61269097E-02  2.60801033E-01  6.16462078E-01  2.21006028E-01  1.14660081E-01
  9.19999648E-01 -3.03068213E-03  1.00000000E+00  1.00000000E+00  1.00000000E+00
  1.00000000E+00  2.54938145E-02  1.90373109E-01  8.52161486E-01  1.00000000E+00
  1.00000000E+00  1.00000000E+00  2.54938145E-02  1.90373109E-01  8.52161486E-01
  1.00000000E+00  1.00000000E+00  1.00000000E+00  2.54938145E-02  1.90373109E-01
  8.52161486E-01  1.00000000E+00  1.00000000E+00  1.00000000E+00  2.54938145E-02
  1.90373109E-01  8.52161486E-01  1.00000000E+00  1.00000000E+00  1.00000000E+00
P(S=P) Contraction coefficients            R   N=          50
  0.00000000E+00  0.00000000E+00  0.00000000E+00  0.00000000E+00  0.00000000E+00
  0.00000000E+00  4.02486927E-02  2.37593957E-01  8.15853851E-01  1.00000000E+00
  1.00000000E+00  1.00000000E+00  0.00000000E+00  0.00000000E+00  0.00000000E+00
  0.00000000E+00  0.00000000E+00  0.00000000E+00  0.00000000E+00  4.02486927E-02
  2.37593957E-01  8.15853851E-01  1.00000000E+00  1.00000000E+00  1.00000000E+00
  0.00000000E+00  0.00000000E+00  0.00000000E+00  0.00000000E+00  0.00000000E+00
  0.00000000E+00  0.00000000E+00  0.00000000E+00  0.00000000E+00  0.00000000E+00
  0.00000000E+00  0.00000000E+00  0.00000000E+00  0.00000000E+00  0.00000000E+00
  0.00000000E+00  0.00000000E+00  0.00000000E+00  0.00000000E+00  0.00000000E+00
  0.00000000E+00  0.00000000E+00  0.00000000E+00  0.00000000E+00  0.00000000E+00
Coordinates of each shell                  R   N=          84
  8.44662820E-23  1.44269818E+00  0.00000000E+00  8.44662820E-23  1.44269818E+00
  0.00000000E+00  8.44662820E-23  1.44269818E+00  0.00000000E+00  8.44662820E-23
  1.44269818E+00  0.00000000E+00  8.44662820E-23  1.44269818E+00  0.00000000E+00
  8.44662820E-23  1.44269818E+00  0.00000000E+00 -1.76679740E-16 -1.44269818E+00
  0.00000000E+00 -1.76679740E-16 -1.44269818E+00  0.00000000E+00 -1.76679740E-16
 -1.44269818E+00  0.00000000E+00 -1.76679740E-16 -1.44269818E+00  0.00000000E+00
 -1.76679740E-16 -1.44269818E+00  0.00000000E+00 -1.76679740E-16 -1.44269818E+00
  0.00000000E+00 -1.78545671E+00  2.45282105E+00  0.00000000E+00 -1.78545671E+00
  2.45282105E+00  0.00000000E+00 -1.78545671E+00  2.45282105E+00  0.00000000E+00
 -1.78545671E+00  2.45282105E+00  0.00000000E+00  1.78540568E+00  2.45290797E+00
  0.00000000E+00  1.78540568E+00  2.45290797E+00  0.00000000E+00  1.78540568E+00
  2.45290797E+00  0.00000000E+00  1.78540568E+00  2.45290797E+00  0.00000000E+00
  1.78545671E+00 -2.45282105E+00  0.00000000E+00  1.78545671E+00 -2.45282105E+00
  0.00000000E+00  1.78545671E+00 -2.45282105E+00  0.00000000E+00  1.78545671E+00
 -2.45282105E+00  0.00000000E+00 -1.78540568E+00 -2.45290797E+00  0.00000000E+00
 -1.78540568E+00 -2.45290797E+00  0.00000000E+00 -1.78540568E+00 -2.45290797E+00
  0.00000000E+00 -1.78540568E+00 -2.45290797E+00  0.00000000E+00
Num ILSW                                   I              100
ILSW                                       I   N=         100
           1           0           0           0           2           0
           0           0           0           0        4336          -1
           7           0           0           0           2           0
           0           0           0           0           1           0
           1           0           0           0           0           0
           0           0      100000           0          -1           0
           0           0           0           0           0           0
           0           0           0           1           0           0
           0 -2000000000           1           0           0           0
           0           0           4          52           0           0
           0           0          55           0           0           0
           0           0           0           6           0           1
           0           0           0           0           0           0
           0           0           0           0           0           0
           0           0           0           0           0           0
           0           0           0           0           0           0
           0           0           0           0
Num RLSW                                   I               52
RLSW                                       R   N=          52
  1.00000000E+00  1.00000000E+00  1.00000000E+00  1.00000000E+00  5.40000000E-01
  0.00000000E+00  0.00000000E+00  1.00000000E+00  0.00000000E+00  0.00000000E+00
  0.00000000E+00  0.00000000E+00  1.00000000E+00  0.00000000E+00  0.00000000E+00
  0.00000000E+00  0.00000000E+00  1.00000000E+00  0.00000000E+00  0.00000000E+00
  0.00000000E+00  0.00000000E+00  1.00000000E+00  0.00000000E+00  0.00000000E+00
  0.00000000E+00  0.00000000E+00  1.00000000E+00  0.00000000E+00  0.00000000E+00
  0.00000000E+00  0.00000000E+00  1.00000000E+00  0.00000000E+00  0.00000000E+00
  0.00000000E+00  0.00000000E+00  0.00000000E+00  1.00000000E+00  1.00000000E+00
  0.00000000E+00  1.00000000E+00  0.00000000E+00  0.00000000E+00  0.00000000E+00
  0.00000000E+00  0.00000000E+00  0.00000000E+00  0.00000000E+00  0.00000000E+00
  0.00000000E+00  0.00000000E+00
MxBond                                     I                3
NBond                                      I   N=           6
           3           3           1           1           1           1
IBond                                      I   N=          18
           2           3           4           1           5           6
           1           0           0           1           0           0
           2           0           0           2           0           0
RBond                                      R   N=          18
  1.00000000E+00  1.00000000E+00  1.00000000E+00  1.00000000E+00  1.00000000E+00
  1.00000000E+00  1.00000000E+00  0.00000000E+00  0.00000000E+00  1.00000000E+00
  0.00000000E+00  0.00000000E+00  1.00000000E+00  0.00000000E+00  0.00000000E+00
  1.00000000E+00  0.00000000E+00  0.00000000E+00
Virial Ratio                               R      2.006767978270243E+00
SCF Energy                                 R     -7.817547425384882E+01
Total Energy                               R     -7.817547425384882E+01
S**2                                       R      7.524489404870343E-01
S**2 after annihilation                    R      7.500047756886781E-01
RMS Force                                  R      2.463355625137095E-02
RMS Density                                R      1.767374615359908E-09
Job Status                                 I                1
Nuclear derivative order                   I                1
External E-field                           R   N=          35
  0.00000000E+00  0.00000000E+00  0.00000000E+00  0.00000000E+00  0.00000000E+00
  0.00000000E+00  0.00000000E+00  0.00000000E+00  0.00000000E+00  0.00000000E+00
  0.00000000E+00  0.00000000E+00  0.00000000E+00  0.00000000E+00  0.00000000E+00
  0.00000000E+00  0.00000000E+00  0.00000000E+00  0.00000000E+00  0.00000000E+00
  0.00000000E+00  0.00000000E+00  0.00000000E+00  0.00000000E+00  0.00000000E+00
  0.00000000E+00  0.00000000E+00  0.00000000E+00  0.00000000E+00  0.00000000E+00
  0.00000000E+00  0.00000000E+00  0.00000000E+00  0.00000000E+00  0.00000000E+00
IOpCl                                      I                1
IROHF                                      I                0
Alpha Orbital Energies                     R   N=          68
 -1.09036473E+01 -1.09031514E+01 -1.15229502E+00 -9.82656240E-01 -8.35476941E-01
 -7.71904146E-01 -7.41263476E-01 -6.40647735E-01 -3.13053252E-01 -1.46050318E-01
 -1.30484265E-01 -1.19662393E-01 -9.36630057E-02 -7.64319234E-02 -7.03756778E-02
 -4.70943010E-02 -4.55176552E-02 -2.16931821E-02 -1.15586808E-02 -4.96561134E-03
  4.17823978E-02  1.03611478E-01  1.96613974E-01  2.31761301E-01  2.73668803E-01
  3.02379133E-01  3.23050201E-01  3.75117510E-01  4.15664344E-01  4.33957411E-01
  4.60449687E-01  4.78898994E-01  5.55506150E-01  5.82793697E-01  7.60932417E-01
  7.79684227E-01  8.48436117E-01  1.15386751E+00  1.15902904E+00  1.18058819E+00
  1.23147291E+00  1.29515067E+00  1.33545820E+00  1.33873933E+00  1.48172036E+00
  1.58568649E+00  1.66847809E+00  1.68910206E+00  1.73342578E+00  1.82475177E+00
  1.83197456E+00  1.88693532E+00  2.14540888E+00  2.17720786E+00  2.27090567E+00
  2.32218821E+00  2.39171928E+00  2.40298814E+00  2.42423791E+00  2.50904702E+00
  2.54840244E+00  2.67128908E+00  2.80402095E+00  3.42088952E+00  3.51967326E+00
  3.80600343E+00  2.35481439E+01  2.35482057E+01
Beta Orbital Energies                      R   N=          68
 -1.09013873E+01 -1.09010118E+01 -1.11489732E+00 -9.62852662E-01 -8.25816481E-01
 -7.61765446E-01 -7.37880823E-01 -4.04413402E-01 -2.38263555E-01 -1.63381564E-01
 -1.28408866E-01 -1.22104710E-01 -9.70875478E-02 -8.44999281E-02 -7.09249158E-02
 -4.71935146E-02 -3.88141856E-02 -1.62221187E-02 -1.48829414E-02  1.04429995E-02
  4.79563658E-02  1.08343019E-01  1.91197853E-01  2.26823928E-01  2.82004776E-01
  3.14817059E-01  3.18679297E-01  3.63033262E-01  4.28546602E-01  4.47178239E-01
  4.71250046E-01  4.87612014E-01  5.29662957E-01  5.72459686E-01  7.94997600E-01
  8.18646234E-01  8.73877404E-01  1.17266202E+00  1.18973596E+00  1.19218089E+00
  1.27129351E+00  1.32365509E+00  1.34985850E+00  1.35071447E+00  1.49665657E+00
  1.60708249E+00  1.69632865E+00  1.71887875E+00  1.74865633E+00  1.84552133E+00
  1.84785471E+00  1.92062074E+00  2.17852102E+00  2.21250003E+00  2.28102265E+00
  2.32882658E+00  2.41025295E+00  2.42415739E+00  2.46211795E+00  2.53095298E+00
  2.59457112E+00  2.71134620E+00  2.82682668E+00  3.46919327E+00  3.56787563E+00
  3.86480532E+00  2.35615081E+01  2.35619419E+01
Alpha MO coefficients                      R   N=        4624
  3.98979359E-01  3.27962989E-01  1.40891515E-08 -7.46637674E-04  0.00000000E+00
  8.51955315E-03 -2.92546876E-08  1.67159169E-03  0.00000000E+00 -2.18479035E-03
  4.60615848E-08  6.96479736E-05  0.00000000E+00 -6.10135574E-04 -3.28675165E-08
 -5.87725334E-04  0.00000000E+00 -7.07815251E-04  0.00000000E+00  0.00000000E+00
  8.90081920E-04  7.41094965E-08  3.98979359E-01  3.27962989E-01 -1.40891515E-08
  7.46637674E-04  0.00000000E+00  8.51955315E-03  2.92546876E-08 -1.67159169E-03
  0.00000000E+00 -2.18479035E-03 -4.60615848E-08 -6.96479736E-05  0.00000000E+00
 -6.10135574E-04  3.28675165E-08  5.87725334E-04  0.00000000E+00 -7.07815251E-04
  0.00000000E+00  0.00000000E+00  8.90081920E-04  7.41094965E-08  1.60704494E-04
 -2.37506103E-03  1.57942188E-03 -1.27310292E-03  7.22752568E-04  0.00000000E+00
  1.60705659E-04 -2.37516216E-03  1.57947040E-03  1.27309322E-03  7.22828268E-04
  0.00000000E+00  1.60704494E-04 -2.37506103E-03  1.57942188E-03  1.27310292E-03
 -7.22752568E-04  0.00000000E+00  1.60705659E-04 -2.37516216E-03  1.57947040E-03
 -1.27309322E-03 -7.22828268E-04  0.00000000E+00  3.99016700E-01  3.28055994E-01
  6.37338699E-09 -1.45229403E-04  0.00000000E+00  7.97744847E-03 -1.58143562E-08
  5.62033626E-04  0.00000000E+00 -4.03265126E-03  3.89921576E-09  9.92087185E-04
  0.00000000E+00  3.15689637E-03  8.21804521E-09 -1.43870353E-03  0.00000000E+00
 -9.07693705E-04  0.00000000E+00  0.00000000E+00  8.44969243E-05  3.18498525E-08
 -3.99016700E-01 -3.28055994E-01  6.37338699E-09 -1.45229403E-04  0.00000000E+00
 -7.97744847E-03 -1.58143562E-08  5.62033626E-04  0.00000000E+00  4.03265126E-03
  3.89921576E-09  9.92087185E-04  0.00000000E+00 -3.15689637E-03  8.21804521E-09
 -1.43870353E-03  0.00000000E+00  9.07693705E-04  0.00000000E+00  0.00000000E+00
 -8.44969243E-05 -3.18498525E-08  2.29242765E-04 -1.70339873E-03  1.32264206E-03
 -1.02972567E-03  4.67247138E-04  0.00000000E+00  2.29232892E-04 -1.70342295E-03
  1.32264674E-03  1.02971939E-03  4.67287235E-04  0.00000000E+00 -2.29242765E-04
  1.70339873E-03 -1.32264206E-03 -1.02972567E-03  4.67247138E-04  0.00000000E+00
 -2.29232892E-04  1.70342295E-03 -1.32264674E-03  1.02971939E-03  4.67287235E-04
  0.00000000E+00 -8.38173511E-02 -1.36125631E-01 -4.38319132E-07 -3.58614533E-02
  0.00000000E+00  3.69600137E-01 -4.00976997E-07 -6.05756356E-02  0.00000000E+00
  2.13633048E-01 -3.44971141E-07 -1.82476577E-02  0.00000000E+00  8.70739441E-05
  1.54208650E-07  9.89752046E-03  0.00000000E+00 -6.22821655E-03  0.00000000E+00
  0.00000000E+00 -8.17071426E-03  2.54669361E-07 -8.38173511E-02 -1.36125631E-01
  4.38319132E-07  3.58614533E-02  0.00000000E+00  3.69600137E-01  4.00976997E-07
  6.05756356E-02  0.00000000E+00  2.13633048E-01  3.44971141E-07  1.82476577E-02
  0.00000000E+00  8.70739441E-05 -1.54208650E-07 -9.89752046E-03  0.00000000E+00
 -6.22821655E-03  0.00000000E+00  0.00000000E+00 -8.17071426E-03  2.54669361E-07
  5.37243235E-02  5.73811556E-02 -9.81948221E-03  9.41401518E-03 -6.16516483E-03
  0.00000000E+00  5.37235491E-02  5.73807749E-02 -9.81963538E-03 -9.41350934E-03
 -6.16549049E-03  0.00000000E+00  5.37243235E-02  5.73811556E-02 -9.81948221E-03
 -9.41401518E-03  6.16516483E-03  0.00000000E+00  5.37235491E-02  5.73807749E-02
 -9.81963538E-03  9.41350934E-03  6.16549049E-03  0.00000000E+00 -7.30925268E-02
 -1.19806403E-01 -4.26569343E-07  6.77699052E-02  0.00000000E+00  3.32919384E-01
 -6.30146598E-07  1.00663513E-01  0.00000000E+00  2.66992802E-01 -4.77609387E-07
  2.52797244E-02  0.00000000E+00 -6.52787226E-02 -2.09300811E-08  2.25167269E-02
  0.00000000E+00 -1.21351755E-03  0.00000000E+00  0.00000000E+00  1.16756449E-02
  4.94380661E-07  7.30925268E-02  1.19806403E-01 -4.26569343E-07  6.77699052E-02
  0.00000000E+00 -3.32919384E-01 -6.30146598E-07  1.00663513E-01  0.00000000E+00
 -2.66992802E-01 -4.77609387E-07  2.52797244E-02  0.00000000E+00  6.52787226E-02
 -2.09300811E-08  2.25167269E-02  0.00000000E+00  1.21351755E-03  0.00000000E+00
  0.00000000E+00 -1.16756449E-02 -4.94380661E-07  8.57329015E-02  1.00901082E-01
 -2.82700379E-03  1.34184248E-02 -4.72214890E-03  0.00000000E+00  8.57344365E-02
  1.00903185E-01 -2.82697629E-03 -1.34184377E-02 -4.72290661E-03  0.00000000E+00
 -8.57329015E-02 -1.00901082E-01  2.82700379E-03  1.34184248E-02 -4.72214890E-03
  0.00000000E+00 -8.57344365E-02 -1.00903185E-01  2.82697629E-03 -1.34184377E-02
 -4.72290661E-03  0.00000000E+00  3.01196546E-08  6.21560745E-08  1.58495078E-01
  1.55327473E-06  0.00000000E+00 -1.18086701E-07  2.38110452E-01  1.70314925E-06
  0.00000000E+00 -1.97540912E-06  1.41931721E-01  2.11771641E-06  0.00000000E+00
 -6.40054618E-06  4.21721927E-03  1.98670776E-06  0.00000000E+00  1.44143122E-07
  0.00000000E+00  0.00000000E+00 -9.58742534E-07 -1.74480761E-03 -3.01196546E-08
 -6.21560745E-08  1.58495078E-01  1.55327473E-06  0.00000000E+00  1.18086701E-07
  2.38110452E-01  1.70314925E-06  0.00000000E+00  1.97540912E-06  1.41931721E-01
  2.11771641E-06  0.00000000E+00  6.40054618E-06  4.21721927E-03  1.98670776E-06
  0.00000000E+00 -1.44143122E-07  0.00000000E+00  0.00000000E+00  9.58742534E-07
  1.74480761E-03 -9.67313197E-02 -1.20643129E-01  1.18643343E-03 -9.35780359E-03
  8.60951685E-03  0.00000000E+00  9.67298080E-02  1.20641516E-01 -1.18616391E-03
 -9.35751915E-03 -8.61018776E-03  0.00000000E+00  9.67313197E-02  1.20643129E-01
 -1.18643343E-03 -9.35780359E-03  8.60951685E-03  0.00000000E+00 -9.67298080E-02
 -1.20641516E-01  1.18616391E-03 -9.35751915E-03 -8.61018776E-03  0.00000000E+00
  7.39214259E-04  1.37601273E-03  1.75079382E-05  1.91237057E-01  0.00000000E+00
 -1.06322266E-02  2.52493447E-05  2.94121004E-01  0.00000000E+00  2.23178431E-02
  1.99030445E-05  1.47207860E-01  0.00000000E+00  3.19825998E-03  3.39325907E-06
 -1.04507381E-02  0.00000000E+00  1.27129687E-03  0.00000000E+00  0.00000000E+00
  2.09294285E-02  3.40502317E-06  7.39214259E-04  1.37601273E-03 -1.75079382E-05
 -1.91237057E-01  0.00000000E+00 -1.06322266E-02 -2.52493447E-05 -2.94121004E-01
  0.00000000E+00  2.23178431E-02 -1.99030445E-05 -1.47207860E-01  0.00000000E+00
  3.19825998E-03 -3.39325907E-06  1.04507381E-02  0.00000000E+00  1.27129687E-03
  0.00000000E+00  0.00000000E+00  2.09294285E-02  3.40502317E-06  7.27968530E-02
  1.02110367E-01  1.91373798E-02  1.07211224E-02  2.28091647E-03  0.00000000E+00
  7.28259769E-02  1.02148217E-01  1.91373839E-02 -1.07235136E-02  2.27786366E-03
  0.00000000E+00  7.27968530E-02  1.02110367E-01  1.91373798E-02 -1.07211224E-02
 -2.28091647E-03  0.00000000E+00  7.28259769E-02  1.02148217E-01  1.91373839E-02
  1.07235136E-02 -2.27786366E-03  0.00000000E+00 -6.81415336E-07 -1.16230224E-06
  1.59715133E-01 -2.23246652E-05  0.00000000E+00  4.37082256E-06  2.36515909E-01
 -3.48215473E-05  0.00000000E+00  1.11530531E-06  1.72721116E-01 -1.73786692E-05
  0.00000000E+00 -4.73283317E-08  1.58343892E-02  2.03517547E-06  0.00000000E+00
 -2.66525602E-08  0.00000000E+00  0.00000000E+00 -3.61863004E-06  2.72263354E-02
 -6.81415336E-07 -1.16230224E-06 -1.59715133E-01  2.23246652E-05  0.00000000E+00
  4.37082256E-06 -2.36515909E-01  3.48215473E-05  0.00000000E+00  1.11530531E-06
 -1.72721116E-01  1.73786692E-05  0.00000000E+00 -4.73283317E-08 -1.58343892E-02
 -2.03517547E-06  0.00000000E+00 -2.66525602E-08  0.00000000E+00  0.00000000E+00
 -3.61863004E-06  2.72263354E-02 -1.12781960E-01 -1.52693644E-01 -1.70194936E-02
 -7.29702916E-03  9.02997802E-03  0.00000000E+00  1.12763294E-01  1.52666633E-01
  1.70122435E-02 -7.29373049E-03 -9.03112083E-03  0.00000000E+00 -1.12781960E-01
 -1.52693644E-01 -1.70194936E-02  7.29702916E-03 -9.02997802E-03  0.00000000E+00
  1.12763294E-01  1.52666633E-01  1.70122435E-02  7.29373049E-03  9.03112083E-03
  0.00000000E+00  0.00000000E+00  0.00000000E+00  0.00000000E+00  0.00000000E+00
  1.85956595E-01  0.00000000E+00  0.00000000E+00  0.00000000E+00  3.11804462E-01
  0.00000000E+00  0.00000000E+00  0.00000000E+00  2.50127091E-01  0.00000000E+00
  0.00000000E+00  0.00000000E+00 -2.74449176E-03  0.00000000E+00 -7.73601706E-08
 -2.79857615E-02  0.00000000E+00  0.00000000E+00  0.00000000E+00  0.00000000E+00
  0.00000000E+00  0.00000000E+00  1.85956595E-01  0.00000000E+00  0.00000000E+00
  0.00000000E+00  3.11804462E-01  0.00000000E+00  0.00000000E+00  0.00000000E+00
  2.50127091E-01  0.00000000E+00  0.00000000E+00  0.00000000E+00 -2.74449176E-03
  0.00000000E+00  7.73601706E-08  2.79857615E-02  0.00000000E+00  0.00000000E+00
  0.00000000E+00  0.00000000E+00  0.00000000E+00  0.00000000E+00  0.00000000E+00
  1.01343561E-02  0.00000000E+00  0.00000000E+00  0.00000000E+00  0.00000000E+00
  0.00000000E+00  1.01344191E-02  0.00000000E+00  0.00000000E+00  0.00000000E+00
  0.00000000E+00  0.00000000E+00  1.01343561E-02  0.00000000E+00  0.00000000E+00
  0.00000000E+00  0.00000000E+00  0.00000000E+00  1.01344191E-02  0.00000000E+00
  0.00000000E+00  0.00000000E+00  0.00000000E+00  2.07094452E-01  0.00000000E+00
  0.00000000E+00  0.00000000E+00  3.38281265E-01  0.00000000E+00  0.00000000E+00
  0.00000000E+00  4.33204548E-01  0.00000000E+00  0.00000000E+00  0.00000000E+00
  1.08374153E-01  0.00000000E+00 -8.44207389E-08  2.15639054E-02  0.00000000E+00
  0.00000000E+00  0.00000000E+00  0.00000000E+00  0.00000000E+00  0.00000000E+00
 -2.07094452E-01  0.00000000E+00  0.00000000E+00  0.00000000E+00 -3.38281265E-01
  0.00000000E+00  0.00000000E+00  0.00000000E+00 -4.33204548E-01  0.00000000E+00
  0.00000000E+00  0.00000000E+00 -1.08374153E-01  0.00000000E+00 -8.44207389E-08
  2.15639054E-02  0.00000000E+00  0.00000000E+00  0.00000000E+00  0.00000000E+00
  0.00000000E+00  0.00000000E+00  0.00000000E+00  1.79793946E-02  0.00000000E+00
  0.00000000E+00  0.00000000E+00  0.00000000E+00  0.00000000E+00  1.79797672E-02
  0.00000000E+00  0.00000000E+00  0.00000000E+00  0.00000000E+00  0.00000000E+00
 -1.79793946E-02  0.00000000E+00  0.00000000E+00  0.00000000E+00  0.00000000E+00
  0.00000000E+00 -1.79797672E-02  3.10804740E-02  5.38588612E-02  1.43045059E-06
 -4.33847002E-02  0.00000000E+00 -1.69962335E-01  1.55660316E-06 -6.31581962E-02
  0.00000000E+00 -6.71338973E-01  1.63898057E-05 -1.98523152E-01  0.00000000E+00
  8.36164760E-01  2.52183927E-05  1.22207236E-01  0.00000000E+00  1.07501018E-02
  0.00000000E+00  0.00000000E+00  5.71374465E-03 -4.56532725E-07  3.10804740E-02
  5.38588612E-02 -1.43045059E-06  4.33847002E-02  0.00000000E+00 -1.69962335E-01
 -1.55660316E-06  6.31581962E-02  0.00000000E+00 -6.71338973E-01 -1.63898057E-05
  1.98523152E-01  0.00000000E+00  8.36164760E-01 -2.52183927E-05 -1.22207236E-01
  0.00000000E+00  1.07501018E-02  0.00000000E+00  0.00000000E+00  5.71374465E-03
 -4.56532725E-07 -1.15990282E-03  9.92737883E-02  6.27057340E-03 -8.71144111E-03
 -1.48294099E-03  0.00000000E+00 -1.16092628E-03  9.92706647E-02  6.23787487E-03
  8.71146263E-03 -1.48251556E-03  0.00000000E+00 -1.15990282E-03  9.92737883E-02
  6.27057340E-03  8.71144111E-03  1.48294099E-03  0.00000000E+00 -1.16092628E-03
  9.92706647E-02  6.23787487E-03 -8.71146263E-03  1.48251556E-03  0.00000000E+00
 -4.09579481E-02 -7.08945617E-02  5.74573190E-06 -1.76793785E-02  0.00000000E+00
  2.17046734E-01  9.52539655E-06 -3.72499857E-02  0.00000000E+00  7.78156850E-01
  2.59979231E-05 -1.19343685E-01  0.00000000E+00  3.29721346E+00 -1.71651924E-05
 -1.60978374E+00  0.00000000E+00  1.02817925E-02  0.00000000E+00  0.00000000E+00
  1.58383030E-02 -1.88019749E-06  4.09579481E-02  7.08945617E-02  5.74573190E-06
 -1.76793785E-02  0.00000000E+00 -2.17046734E-01  9.52539655E-06 -3.72499857E-02
  0.00000000E+00 -7.78156850E-01  2.59979231E-05 -1.19343685E-01  0.00000000E+00
 -3.29721346E+00 -1.71651924E-05 -1.60978374E+00  0.00000000E+00 -1.02817925E-02
  0.00000000E+00  0.00000000E+00 -1.58383030E-02  1.88019749E-06 -1.18526454E-02
 -8.53687148E-02 -1.09212493E-01  3.66675023E-03 -1.30361687E-02  0.00000000E+00
 -1.18575179E-02 -8.53935188E-02 -1.09248279E-01 -3.66710408E-03 -1.30376901E-02
  0.00000000E+00  1.18526454E-02  8.53687148E-02  1.09212493E-01  3.66675023E-03
 -1.30361687E-02  0.00000000E+00  1.18575179E-02  8.53935188E-02  1.09248279E-01
 -3.66710408E-03 -1.30376901E-02  0.00000000E+00 -1.56944913E-06 -2.74203933E-06
 -8.46849371E-02 -3.06594650E-07  0.00000000E+00  8.38048567E-06 -1.39225120E-01
 -8.41618913E-07  0.00000000E+00  3.40728791E-05 -3.09687390E-01 -1.04843802E-05
  0.00000000E+00  6.60359531E-06  5.95205859E-01 -3.56245123E-05  0.00000000E+00
 -3.13070141E-08  0.00000000E+00  0.00000000E+00  9.12467451E-07  1.46292725E-02
  1.56944913E-06  2.74203933E-06 -8.46849371E-02 -3.06594650E-07  0.00000000E+00
 -8.38048567E-06 -1.39225120E-01 -8.41618913E-07  0.00000000E+00 -3.40728791E-05
 -3.09687390E-01 -1.04843802E-05  0.00000000E+00 -6.60359531E-06  5.95205859E-01
 -3.56245123E-05  0.00000000E+00  3.13070141E-08  0.00000000E+00  0.00000000E+00