Title Card Required                                                     
FOpt      UM062X                                                      6-311+G(d,p)        
Number of atoms                            I                4
Info1-9                                    I   N=           9
          13          13           0           0           0         110
           2          18        -502
Full Title                                 C   N=           2
Title Card Required     
Route                                      C   N=           5
#p opt UM062X/6-311+G** nosymm int=superfine SCF=NoVarAcc   
Charge                                     I                1
Multiplicity                               I                2
Number of electrons                        I               13
Number of alpha electrons                  I                7
Number of beta electrons                   I                6
Number of basis functions                  I               56
Number of independent functions            I               56
Number of point charges in /Mol/           I                0
Number of translation vectors              I                0
Atomic numbers                             I   N=           4
           6           6           1           1
Nuclear charges                            R   N=           4
  6.00000000E+00  6.00000000E+00  1.00000000E+00  1.00000000E+00
Current cartesian coordinates              R   N=          12
 -1.48951237E+01  0.00000000E+00  0.00000000E+00  1.48951237E+01  0.00000000E+00
  0.00000000E+00 -1.70079338E+01 -4.05804178E-13  5.29339913E-12  1.70079321E+01
 -4.07674186E-13 -1.60489106E-13
Number of symbols in /Mol/                 I                0
Force Field                                I                0
Atom Types                                 C   N=           4
                                                
Int Atom Types                             I   N=           4
           0           0           0           0
MM charges                                 R   N=           4
  0.00000000E+00  0.00000000E+00  0.00000000E+00  0.00000000E+00
Integer atomic weights                     I   N=           4
          12          12           1           1
Real atomic weights                        R   N=           4
  1.20000000E+01  1.20000000E+01  1.00782504E+00  1.00782504E+00
Atom fragment info                         I   N=           4
           0           0           0           0
Atom residue num                           I   N=           4
           0           0           0           0
Nuclear spins                              I   N=           4
           0           0           1           1
Nuclear ZEff                               R   N=           4
 -3.60000000E+00 -3.60000000E+00 -1.00000000E+00 -1.00000000E+00
Nuclear ZNuc                               R   N=           4
  6.00000000E+00  6.00000000E+00  1.00000000E+00  1.00000000E+00
Nuclear QMom                               R   N=           4
  0.00000000E+00  0.00000000E+00  0.00000000E+00  0.00000000E+00
Nuclear GFac                               R   N=           4
  0.00000000E+00  0.00000000E+00  2.79284600E+00  2.79284600E+00
MicOpt                                     I   N=           4
          -2          -2          -1          -1
Number of residues                         I                0
Number of secondary structures             I                0
Redundant internal dimensions              I   N=           4
          12           8           4           0
Redundant internal coordinate indices      I   N=          48
           1          -1           0           0           1          -2
           0           0           1          -3           0           0
           2          -1           0           0           2          -2
           0           0           2          -3           0           0
           1           3           0           0           2           4
           0           0           2           1           3          -4
           1           2           4          -4           2           1
           3          -8           1           2           4          -8
Redundant internal coordinates             R   N=          12
 -1.48951237E+01  0.00000000E+00  0.00000000E+00  1.48951237E+01  0.00000000E+00
  0.00000000E+00  2.11281010E+00  2.11280841E+00  3.14159265E+00  3.14159264E+00
  3.14159265E+00  3.14159267E+00
ZRed-IntVec                                I   N=          12
          -1          -1          -1          -1          -1          -1
           0           0           0           0           0           0
ZRed-FPVec                                 R   N=          12
  0.00000000E+00  0.00000000E+00  0.00000000E+00  0.00000000E+00  0.00000000E+00
  0.00000000E+00  0.00000000E+00  0.00000000E+00  0.00000000E+00  0.00000000E+00
  0.00000000E+00  0.00000000E+00
ZRed-Constraint1                           R   N=          12
 -1.48951237E+01  0.00000000E+00  0.00000000E+00  1.48951237E+01  0.00000000E+00
  0.00000000E+00  2.08057524E+00  2.08053366E+00  3.14159264E+00  3.14159265E+00
  3.14159264E+00  3.14159265E+00
ZRed-Constraint2                           R   N=          12
 -1.48951237E+01  0.00000000E+00  0.00000000E+00  1.48951237E+01  0.00000000E+00
  0.00000000E+00  0.00000000E+00  0.00000000E+00  0.00000000E+00  0.00000000E+00
  0.00000000E+00  0.00000000E+00
Number of contracted shells                I               20
Number of primitive shells                 I               38
Pure/Cartesian d shells                    I                0
Pure/Cartesian f shells                    I                0
Highest angular momentum                   I                2
Largest degree of contraction              I                6
Shell types                                I   N=          20
           0          -1          -1          -1          -1          -2
           0          -1          -1          -1          -1          -2
           0           0           0           1           0           0
           0           1
Number of primitives per shell             I   N=          20
           6           3           1           1           1           1
           6           3           1           1           1           1
           3           1           1           1           3           1
           1           1
Shell to atom map                          I   N=          20
           1           1           1           1           1           1
           2           2           2           2           2           2
           3           3           3           3           4           4
           4           4
Primitive exponents                        R   N=          38
  4.56324000E+03  6.82024000E+02  1.54973000E+02  4.44553000E+01  1.30290000E+01
  1.82773000E+00  2.09642000E+01  4.80331000E+00  1.45933000E+00  4.83456000E-01
  1.45585000E-01  4.38000000E-02  6.26000000E-01  4.56324000E+03  6.82024000E+02
  1.54973000E+02  4.44553000E+01  1.30290000E+01  1.82773000E+00  2.09642000E+01
  4.80331000E+00  1.45933000E+00  4.83456000E-01  1.45585000E-01  4.38000000E-02
  6.26000000E-01  3.38650000E+01  5.09479000E+00  1.15879000E+00  3.25840000E-01
  1.02741000E-01  7.50000000E-01  3.38650000E+01  5.09479000E+00  1.15879000E+00
  3.25840000E-01  1.02741000E-01  7.50000000E-01
Contraction coefficients                   R   N=          38
  1.96665025E-03  1.52306019E-02  7.61269097E-02  2.60801033E-01  6.16462078E-01
  2.21006028E-01  1.14660081E-01  9.19999648E-01 -3.03068213E-03  1.00000000E+00
  1.00000000E+00  1.00000000E+00  1.00000000E+00  1.96665025E-03  1.52306019E-02
  7.61269097E-02  2.60801033E-01  6.16462078E-01  2.21006028E-01  1.14660081E-01
  9.19999648E-01 -3.03068213E-03  1.00000000E+00  1.00000000E+00  1.00000000E+00
  1.00000000E+00  2.54938145E-02  1.90373109E-01  8.52161486E-01  1.00000000E+00
  1.00000000E+00  1.00000000E+00  2.54938145E-02  1.90373109E-01  8.52161486E-01
  1.00000000E+00  1.00000000E+00  1.00000000E+00
P(S=P) Contraction coefficients            R   N=          38
  0.00000000E+00  0.00000000E+00  0.00000000E+00  0.00000000E+00  0.00000000E+00
  0.00000000E+00  4.02486927E-02  2.37593957E-01  8.15853851E-01  1.00000000E+00
  1.00000000E+00  1.00000000E+00  0.00000000E+00  0.00000000E+00  0.00000000E+00
  0.00000000E+00  0.00000000E+00  0.00000000E+00  0.00000000E+00  4.02486927E-02
  2.37593957E-01  8.15853851E-01  1.00000000E+00  1.00000000E+00  1.00000000E+00
  0.00000000E+00  0.00000000E+00  0.00000000E+00  0.00000000E+00  0.00000000E+00
  0.00000000E+00  0.00000000E+00  0.00000000E+00  0.00000000E+00  0.00000000E+00
  0.00000000E+00  0.00000000E+00  0.00000000E+00
Coordinates of each shell                  R   N=          60
 -1.48951237E+01  0.00000000E+00  0.00000000E+00 -1.48951237E+01  0.00000000E+00
  0.00000000E+00 -1.48951237E+01  0.00000000E+00  0.00000000E+00 -1.48951237E+01
  0.00000000E+00  0.00000000E+00 -1.48951237E+01  0.00000000E+00  0.00000000E+00
 -1.48951237E+01  0.00000000E+00  0.00000000E+00  1.48951237E+01  0.00000000E+00
  0.00000000E+00  1.48951237E+01  0.00000000E+00  0.00000000E+00  1.48951237E+01
  0.00000000E+00  0.00000000E+00  1.48951237E+01  0.00000000E+00  0.00000000E+00
  1.48951237E+01  0.00000000E+00  0.00000000E+00  1.48951237E+01  0.00000000E+00
  0.00000000E+00 -1.70079338E+01 -4.05804178E-13  5.29339913E-12 -1.70079338E+01
 -4.05804178E-13  5.29339913E-12 -1.70079338E+01 -4.05804178E-13  5.29339913E-12
 -1.70079338E+01 -4.05804178E-13  5.29339913E-12  1.70079321E+01 -4.07674186E-13
 -1.60489106E-13  1.70079321E+01 -4.07674186E-13 -1.60489106E-13  1.70079321E+01
 -4.07674186E-13 -1.60489106E-13  1.70079321E+01 -4.07674186E-13 -1.60489106E-13
Num ILSW                                   I              100
ILSW                                       I   N=         100
           1           0           0           0           2           0
           0           0           0           0        4336          -1
           7           0           0           0           2           0
           0           0           0           0           1           0
           1           1           0           0           0           0
           0           0      100000           0          -1           0
           0           0           0           0           0           0
           0           0           0           1           0           0
           0 -2000000000           1           0           0           0
           0           0           4          52           0           0
           0           0          55           0           0           0
           0           0           0           4           0           1
           0           0           0           0           0           0
           0           0           0           0           0           0
           0           0           0           0           0           0
           0           0           0           0           0           0
           0           0           0           0
Num RLSW                                   I               52
RLSW                                       R   N=          52
  1.00000000E+00  1.00000000E+00  1.00000000E+00  1.00000000E+00  5.40000000E-01
  0.00000000E+00  0.00000000E+00  1.00000000E+00  0.00000000E+00  0.00000000E+00
  0.00000000E+00  0.00000000E+00  1.00000000E+00  0.00000000E+00  0.00000000E+00
  0.00000000E+00  0.00000000E+00  1.00000000E+00  0.00000000E+00  0.00000000E+00
  0.00000000E+00  0.00000000E+00  1.00000000E+00  0.00000000E+00  0.00000000E+00
  0.00000000E+00  0.00000000E+00  1.00000000E+00  0.00000000E+00  0.00000000E+00
  0.00000000E+00  0.00000000E+00  1.00000000E+00  0.00000000E+00  0.00000000E+00
  0.00000000E+00  0.00000000E+00  0.00000000E+00  1.00000000E+00  1.00000000E+00
  0.00000000E+00  1.00000000E+00  0.00000000E+00  0.00000000E+00  0.00000000E+00
  0.00000000E+00  0.00000000E+00  0.00000000E+00  0.00000000E+00  0.00000000E+00
  0.00000000E+00  0.00000000E+00
MxBond                                     I                2
NBond                                      I   N=           4
           2           2           1           1
IBond                                      I   N=           8
           2           3           1           4           1           0
           2           0
RBond                                      R   N=           8
  1.00000000E-01  1.00000000E+00  1.00000000E-01  1.00000000E+00  1.00000000E+00
  0.00000000E+00  1.00000000E+00  0.00000000E+00
Virial Ratio                               R      2.002699980821294E+00
SCF Energy                                 R     -7.658509314615966E+01
Total Energy                               R     -7.658509314615966E+01
S**2                                       R      7.512986604468717E-01
S**2 after annihilation                    R      7.500012134998657E-01
RMS Force                                  R      1.424408718011875E-04
RMS Density                                R      6.748050275410728E-10
Job Status                                 I                1
Nuclear derivative order                   I                1
External E-field                           R   N=          35
  0.00000000E+00  0.00000000E+00  0.00000000E+00  0.00000000E+00  0.00000000E+00
  0.00000000E+00  0.00000000E+00  0.00000000E+00  0.00000000E+00  0.00000000E+00
  0.00000000E+00  0.00000000E+00  0.00000000E+00  0.00000000E+00  0.00000000E+00
  0.00000000E+00  0.00000000E+00  0.00000000E+00  0.00000000E+00  0.00000000E+00
  0.00000000E+00  0.00000000E+00  0.00000000E+00  0.00000000E+00  0.00000000E+00
  0.00000000E+00  0.00000000E+00  0.00000000E+00  0.00000000E+00  0.00000000E+00
  0.00000000E+00  0.00000000E+00  0.00000000E+00  0.00000000E+00  0.00000000E+00
IOpCl                                      I                1
IROHF                                      I                0
Alpha Orbital Energies                     R   N=          56
 -1.09075011E+01 -1.09075009E+01 -9.45497912E-01 -9.45485958E-01 -5.95582224E-01
 -5.95577621E-01 -4.15871052E-01 -3.97838968E-01 -2.94825490E-01 -2.94825463E-01
 -8.53265424E-02 -8.53223796E-02 -3.19217939E-02 -3.19217469E-02 -3.02449022E-02
 -3.02447989E-02 -2.91361920E-02 -2.91339789E-02  2.89573818E-02  2.89590336E-02
  3.11524142E-01  3.11526562E-01  4.04530347E-01  4.04530416E-01  4.13605594E-01
  4.13605635E-01  4.40042767E-01  4.40043091E-01  5.06855760E-01  5.06858502E-01
  9.29968007E-01  9.29968083E-01  9.31894467E-01  9.31911344E-01  1.11468817E+00
  1.11469656E+00  1.12502790E+00  1.12503614E+00  1.39001796E+00  1.39001877E+00
  1.66284890E+00  1.66284956E+00  1.66562858E+00  1.66563015E+00  2.19354541E+00
  2.19354622E+00  2.31340713E+00  2.31340719E+00  2.47611415E+00  2.47611427E+00
  2.49044694E+00  2.49044703E+00  2.96982283E+00  2.96982333E+00  2.32756911E+01
  2.32756924E+01
Beta Orbital Energies                      R   N=          56
 -1.09033564E+01 -1.09033563E+01 -9.21887976E-01 -9.21887753E-01 -5.81652921E-01
 -5.81652908E-01 -2.76008580E-01 -2.76008528E-01 -2.59685298E-01 -2.59685242E-01
 -8.73038440E-02 -8.73038149E-02 -2.92940723E-02 -2.92937922E-02 -2.39504035E-02
 -2.39503831E-02 -1.46881788E-02 -1.46881547E-02  4.69958304E-02  4.69961227E-02
  3.04944179E-01  3.04944401E-01  4.09159927E-01  4.09159966E-01  4.11727261E-01
  4.11727302E-01  4.69942103E-01  4.69942340E-01  5.28024517E-01  5.28024946E-01
  1.00094497E+00  1.00094524E+00  1.00996967E+00  1.00996995E+00  1.14730536E+00
  1.14730539E+00  1.14740716E+00  1.14740719E+00  1.39402613E+00  1.39402653E+00
  1.67997324E+00  1.67997392E+00  1.68674682E+00  1.68674751E+00  2.35142916E+00
  2.35142955E+00  2.36076388E+00  2.36076575E+00  2.50223021E+00  2.50223030E+00
  2.52578966E+00  2.52578976E+00  3.06294263E+00  3.06294393E+00  2.32888002E+01
  2.32888016E+01
Alpha MO coefficients                      R   N=        3136
  5.15823675E-01  4.24973537E-01 -1.86008093E-03 -3.99863850E-15 -1.79672679E-15
  8.54709395E-03 -1.08050662E-03  6.63370572E-15  1.70913381E-14 -3.62485901E-03
 -6.80543418E-05 -2.50930354E-15 -7.71709780E-15  3.96789715E-04  5.90458756E-04
  1.22180086E-15  1.11006094E-15 -4.31690447E-04  1.74525569E-14  1.54146062E-05
  7.69557448E-04  6.43236862E-15  2.28133711E-01  1.87953351E-01  8.22658965E-04
 -2.82539819E-16  8.94242622E-17  3.78012533E-03  4.77884079E-04  5.97632873E-16
  1.32313721E-15 -1.60309084E-03  3.01202171E-05 -1.03306661E-16 -4.49325350E-16
  1.75524367E-04 -2.61140426E-04 -1.37100912E-17  2.46412123E-16 -1.90938530E-04
 -1.99518904E-15  6.79381976E-06  3.40334390E-04 -9.60987900E-16  3.37336881E-04
 -2.40274559E-03  1.99824128E-03 -1.69013933E-03 -1.30304319E-15  1.53299342E-14
  1.49196501E-04 -1.06269327E-03  8.83734094E-04  7.47506075E-04 -2.97837463E-16
 -1.63142337E-16 -2.28133719E-01 -1.87953365E-01  8.22660005E-04  1.99942080E-15
  7.81398751E-16 -3.78014187E-03  4.77872401E-04 -2.88697455E-15 -7.74451617E-15
  1.60328417E-03  3.00659412E-05  3.58826889E-16  3.70959829E-15 -1.75432570E-04
 -2.61146909E-04  8.09794440E-17 -7.07552607E-16  1.90908638E-04 -7.70684802E-15
 -6.85597186E-06 -3.40380735E-04 -2.88824957E-15  5.15823679E-01  4.24973542E-01
  1.86008152E-03 -8.45054008E-16 -2.11516500E-16  8.54711249E-03  1.08051470E-03
  1.90226563E-15  3.33207150E-15 -3.62494247E-03  6.80300832E-05 -9.51777435E-16
 -9.56571923E-16  3.96744451E-04 -5.90463465E-04  5.87102269E-16  2.88479556E-16
 -4.31688340E-04 -4.62512187E-15  1.54483712E-05  7.69579274E-04 -1.90975118E-15
 -1.49189741E-04  1.06263075E-03 -8.83813215E-04  7.47494529E-04  5.07407245E-16
 -6.82143895E-15  3.37331871E-04 -2.40273635E-03  1.99828659E-03  1.69014450E-03
 -9.75567277E-16 -2.41031765E-16 -7.90299609E-02 -1.29019742E-01 -5.59276344E-02
  1.59441395E-13  6.05670143E-13  3.80475138E-01 -8.57993802E-02  2.96884527E-13
  9.76352397E-13  2.40296321E-01 -3.20227398E-02  1.18226681E-13  2.86591406E-13
 -5.41746505E-03 -2.27003434E-03 -1.42295559E-14  1.98306542E-15 -4.42719429E-03
  3.73536716E-13 -3.00680530E-04  7.24107824E-03  1.04291497E-13 -8.04278732E-02
 -1.31301891E-01  5.69170708E-02  4.23154086E-14  1.25368857E-13  3.87205138E-01
  8.73172253E-02  9.05606455E-14  2.89359602E-13  2.44546425E-01  3.25891418E-02
  4.25043256E-14  7.88156119E-14 -5.51347254E-03  2.31017715E-03 -6.81955674E-15
 -4.18528663E-16 -4.50537339E-03 -4.58221534E-14 -3.06055516E-04  7.36929831E-03
 -1.99467045E-14  9.76673773E-02  1.21435110E-01 -1.98288523E-03  1.67114799E-02
 -7.94461114E-14  3.24279886E-16  9.93951559E-02  1.23583369E-01 -2.01782885E-03
 -1.70071073E-02 -5.24420556E-14 -9.80991306E-14 -8.04275063E-02 -1.31301428E-01
 -5.69200318E-02  1.62298926E-13  6.15996047E-13  3.87207336E-01 -8.73212086E-02
  3.01897326E-13  9.94342253E-13  2.44533919E-01 -3.25866958E-02  1.20347330E-13
  2.92549070E-13 -5.52409852E-03 -2.30946980E-03 -1.44753411E-14  1.42241141E-15
 -4.50457351E-03  3.79910645E-13 -3.03141193E-04  7.37160467E-03  1.06101809E-13
  7.90295515E-02  1.29019204E-01 -5.59308375E-02 -4.16865961E-14 -1.23031962E-13
 -3.80477082E-01 -8.58036200E-02 -8.80233271E-14 -2.85175880E-13 -2.40283197E-01
 -3.20202606E-02 -4.15728078E-14 -7.77389614E-14  5.42825928E-03 -2.26931740E-03
  6.73656851E-15  3.89633415E-16  4.42614850E-03  4.46677048E-14  2.97927578E-04
 -7.24360948E-03  1.94806801E-14  9.93973577E-02  1.23591336E-01 -2.00950557E-03
  1.70079092E-02 -8.08782051E-14  5.21988131E-17 -9.76698746E-02 -1.21443390E-01
  1.97444908E-03  1.67123133E-02  5.14724393E-14  9.65663188E-14 -4.26427242E-02
 -7.10940793E-02  1.65798836E-01  1.18837209E-12  3.52021922E-12  2.20357053E-01
  2.45279044E-01  1.89467032E-12  5.81177678E-12  2.63455092E-01  1.40228828E-01
  1.26288889E-12  4.05553788E-12  1.80443196E-02 -2.19560373E-03 -1.28221577E-14
 -1.66601727E-14  1.48612501E-02  8.41108501E-14 -4.90756128E-06 -2.57473206E-02
  5.42313529E-14 -4.28528419E-02 -7.14443900E-02 -1.66615663E-01  3.56459015E-13
  9.01067023E-13  2.21442848E-01 -2.46487394E-01  5.26011554E-13  1.37568919E-12
  2.64753310E-01 -1.40919605E-01  3.91805778E-13  9.70074152E-13  1.81331853E-02
  2.20642353E-03 -1.57150220E-14 -3.10003467E-15  1.49344747E-02 -7.25010218E-14
 -4.92328366E-06 -2.58741655E-02 -2.18288255E-14 -9.51684577E-02 -1.71604752E-01
 -7.88817006E-02 -7.87082534E-03  7.88822735E-14  1.63566162E-13 -9.56372673E-02
 -1.72450062E-01 -7.92702865E-02  7.90958601E-03  2.12808829E-14  8.81718366E-14
 -4.28549791E-02 -7.14480117E-02  1.66614853E-01  1.19380793E-12  3.53798542E-12
  2.21456630E-01  2.46486447E-01  1.90208184E-12  5.84140748E-12  2.64752831E-01
  1.40924095E-01  1.26872673E-12  4.07630938E-12  1.81216342E-02 -2.20569118E-03
 -1.33164345E-14 -1.65851484E-14  1.49352946E-02  8.45317598E-14 -2.80966683E-06
 -2.58725920E-02  5.43636848E-14  4.26449240E-02  7.10978087E-02  1.65798057E-01
 -3.50533138E-13 -8.99801247E-13 -2.20371161E-01  2.45278050E-01 -5.15606563E-13
 -1.37232115E-12 -2.63455206E-01  1.40233165E-01 -3.83509351E-13 -9.69437378E-13
 -1.80327648E-02 -2.19488109E-03  1.62119126E-14  2.89976409E-15 -1.48620861E-02
  7.15150035E-14  2.78747996E-06  2.57457545E-02  2.19565907E-14 -9.56348639E-02
 -1.72443703E-01 -7.92635446E-02 -7.90871438E-03  7.90743795E-14  1.64363507E-13
  9.51659838E-02  1.71598211E-01  7.88749365E-02 -7.86992765E-03 -2.10405493E-14
 -8.77171547E-14 -1.44703871E-13 -2.37233732E-13  3.33695574E-13  1.85008015E-01
 -9.55495120E-02  8.76568451E-13  5.96914387E-13  2.91241457E-01 -1.50415256E-01
 -1.15703857E-12  1.77290207E-12  2.63422446E-01 -1.36048137E-01 -1.72497897E-12
  1.17074379E-12  2.17824054E-02 -1.12498532E-02 -9.53681031E-14  8.72046852E-03
  2.63545160E-13 -3.43503934E-13 -1.68851670E-02 -2.78443652E-14 -5.53788811E-14
 -8.38580408E-14  1.84984862E-01 -9.55942809E-02  2.62339991E-13  9.25259118E-14
  2.91205020E-01 -1.50485737E-01 -4.42928465E-13 -4.60133429E-13  2.63389493E-01
 -1.36111887E-01 -1.01040973E-12 -6.44456494E-13  2.17796789E-02 -1.12551240E-02
 -8.20785568E-14 -8.72456246E-03  6.42312005E-14  2.92678018E-15  1.68830692E-02
 -1.98895562E-13 -2.71534138E-13  4.07316914E-12  3.20861299E-13  1.45518092E-02
 -7.51548574E-03  5.24734718E-14 -7.42202468E-13  2.19918800E-12  3.46044208E-14
  1.45500001E-02 -7.51901323E-03 -1.46062511E-13 -2.39519570E-13  3.38046367E-13
  1.84998505E-01 -9.55445000E-02  8.83939187E-13  6.02276599E-13  2.91222486E-01
 -1.50405296E-01 -1.14832309E-12  1.77578367E-12  2.63407327E-01 -1.36040174E-01
 -1.72949054E-12  1.16737127E-12  2.18048170E-02 -1.12614045E-02 -9.42445062E-14
  8.79668928E-03  2.63218236E-13 -3.44473510E-13 -1.70327659E-02  2.81574244E-14
  5.58181614E-14  8.45799095E-14 -1.84975374E-01  9.55892777E-02 -2.63654391E-13
 -9.15624144E-14 -2.91186084E-01  1.50475791E-01  4.41409076E-13  4.62113779E-13
 -2.63374405E-01  1.36103937E-01  1.01508128E-12  6.44955623E-13 -2.18020902E-02
  1.12666821E-02  8.18618093E-14  8.80081994E-03 -6.44338597E-14 -2.54826096E-15
 -1.70306516E-02 -2.01120910E-13 -2.80314843E-13  4.07581494E-12  3.20570595E-13
  1.46255663E-02 -7.55357008E-03 -5.18984625E-14  7.43744422E-13 -2.20375879E-12
 -3.43642919E-14 -1.46237496E-02  7.55711629E-03  1.11585637E-12  1.78884406E-12
 -2.63450073E-12  1.25249712E-01  2.42514033E-01 -4.67077418E-12 -4.89092007E-12
  2.02374969E-01  3.91848082E-01 -7.06247312E-12 -4.00943994E-12  1.93265704E-01
  3.74211216E-01 -2.42019427E-12 -6.69275066E-13  3.66460728E-02  7.09561326E-02
 -1.70709586E-13 -2.20544774E-02  3.45284582E-13  1.01093883E-12 -1.13904289E-02
  4.59903735E-14  7.27489155E-14  9.50697039E-14  2.04303293E-02  3.95344946E-02
 -1.34656429E-13  1.81452126E-13  3.30107495E-02  6.38788427E-02 -8.08501832E-13
 -2.14020529E-13  3.15248821E-02  6.10037143E-02 -5.85608559E-13 -2.56231474E-13
  5.97761700E-03  1.15673048E-02  1.11218175E-14  3.59531039E-03  1.58347998E-14
  9.79850223E-15  1.85797176E-03  2.24020843E-12  1.59409317E-12  3.77002711E-12
 -8.59583776E-13  1.10582375E-02  2.14115501E-02  9.71504649E-14  1.23128983E-13
  1.25495518E-12 -1.11353204E-14  1.80378443E-03  3.49049989E-03 -1.82102720E-13
 -2.91927298E-13  4.29774628E-13 -2.04206570E-02 -3.95395257E-02  7.62093062E-13
  7.97777244E-13 -3.29951283E-02 -6.38869732E-02  1.15481059E-12  6.53563971E-13
 -3.15099534E-02 -6.10114360E-02  3.92076601E-13  1.08296284E-13 -5.97473091E-03
 -1.15686186E-02  2.75375669E-14  3.59576552E-03 -5.59667900E-14 -1.65031318E-13
  1.85709003E-03  2.82437949E-13  4.46629933E-13  5.83805379E-13  1.25308386E-01
  2.42483709E-01 -8.28599693E-13  1.11397268E-12  2.02469776E-01  3.91799089E-01
 -4.95084645E-12 -1.30325779E-12  1.93356257E-01  3.74164449E-01 -3.58636597E-12
 -1.56925961E-12  3.66632360E-02  7.09472451E-02  6.75772706E-14  2.20517357E-02
  9.61769318E-14  6.06776054E-14  1.13957728E-02 -3.65551885E-13 -2.60069400E-13
 -6.16677587E-13  1.40210382E-13 -1.80293119E-03 -3.49094360E-03  5.95786371E-13
  7.47681311E-13  7.68716738E-12 -6.72652893E-14  1.10634268E-02  2.14088898E-02
  2.56089767E-02  4.28942460E-02  4.95540645E-02  2.88122398E-15 -1.17177528E-13
 -1.25308139E-01  1.04341968E-01 -8.46032905E-14 -2.38941407E-13 -5.16813945E-01
  1.26718353E-01  7.48491713E-14 -2.74497896E-13  9.56595851E-01 -3.82404603E-01
 -4.61063613E-14  1.05028927E-12  5.53813514E-03  5.63522677E-14 -1.53286543E-03
 -1.17685236E-02  1.23532171E-14  2.53630711E-02  4.24823692E-02 -4.90779997E-02
  9.28848705E-15 -3.62577085E-14 -1.24105032E-01 -1.03339807E-01 -6.63431230E-14
  3.63669154E-14 -5.11850652E-01 -1.25500633E-01  7.01764110E-14 -2.17364012E-13
  9.47411439E-01  3.78732817E-01 -5.93647506E-15  2.61933885E-13  5.48560418E-03
  5.25976127E-15 -1.51869500E-03 -1.16552114E-02 -1.40874594E-14 -6.85193473E-04
  1.32299344E-01 -9.10169331E-02 -4.42255524E-03  7.73008328E-14 -1.00184029E-13
 -6.78762367E-04  1.31028702E-01 -9.01447108E-02  4.38003747E-03  7.87815425E-14
  6.37607936E-14 -2.53612795E-02 -4.24791847E-02 -4.90846475E-02 -2.88614818E-15
  1.16290243E-13  1.24089473E-01 -1.03348768E-01  8.36980386E-14  2.36340344E-13
  5.11867333E-01 -1.25535051E-01 -7.39783541E-14  2.71466587E-13 -9.47371916E-01
  3.78757721E-01  4.51969032E-14 -1.03803710E-12 -5.48641337E-03 -5.60720024E-14
  1.51528492E-03  1.16539818E-02 -1.25840971E-14  2.56071689E-02  4.28910478E-02
 -4.95603130E-02  8.99792141E-15 -3.76773119E-14 -1.25292722E-01 -1.04350543E-01
 -6.82539623E-14  3.49005812E-14 -5.16829439E-01 -1.26751232E-01  7.15215310E-14
 -2.19237477E-13  9.56558267E-01  3.82430141E-01 -4.53454467E-15  2.64687612E-13
  5.54026096E-03  5.23285827E-15 -1.53053025E-03 -1.17666626E-02 -1.36133676E-14
  6.77121429E-04 -1.31043020E-01  9.01038941E-02  4.37970810E-03 -7.69821799E-14
  9.89688817E-14 -6.83836229E-04  1.32313278E-01 -9.09792619E-02  4.42211993E-03
  7.99130640E-14  6.38646949E-14  9.39535693E-13  1.59005789E-12 -5.52895723E-12
 -4.86824599E-02 -9.42625795E-02 -5.17817271E-12 -4.58773071E-12 -5.47628107E-02
 -1.06035473E-01 -1.53355215E-11 -2.44695872E-11 -1.74334194E-01 -3.37560562E-01
  4.32989238E-11  6.09475442E-11  4.76792516E-01  9.23203765E-01 -4.13775309E-13
  7.73599559E-03 -1.64745142E-13  4.13936399E-13  3.99534282E-03  1.22757638E-13
  2.15068096E-13  1.15570144E-12 -2.75235726E-02 -5.32615862E-02 -8.65558927E-13
  9.92584357E-13 -3.09612276E-02 -5.99136883E-02 -1.08130972E-13  5.98829465E-12
 -9.85631919E-02 -1.90733241E-01  1.02796828E-11 -8.01825745E-12  2.69563807E-01
  5.21641627E-01 -5.00022241E-14 -4.37110916E-03 -2.73881670E-14  4.23682603E-14
 -2.25884803E-03  5.17688850E-13 -1.68819022E-12 -1.08853295E-11  1.12737088E-12
  1.61372996E-03  3.12464037E-03 -9.76957889E-14 -4.82338778E-13 -8.17111712E-12
 -1.94244836E-13  9.12347344E-04  1.76551789E-03 -5.36004636E-13 -9.06959984E-13
  3.14758094E-12  2.75106716E-02  5.32682012E-02  2.95067572E-12  2.61216401E-12
  3.09466941E-02  5.99210962E-02  8.76005905E-12  1.39297364E-11  9.85170685E-02
  1.90757061E-01 -2.46443583E-11 -3.47300279E-11 -2.69437700E-01 -5.21706818E-01
  2.35797757E-13 -4.37164464E-03  9.33830221E-14 -2.36924160E-13 -2.25778533E-03
  2.16229667E-13  3.78895744E-13  2.03917158E-12 -4.87052364E-02 -9.42507801E-02
 -1.52625762E-12  1.75062118E-12 -5.47884321E-02 -1.06022191E-01 -1.77965311E-13
  1.05703963E-11 -1.74415804E-01 -3.37518403E-01  1.81537384E-11 -1.41256743E-11
  4.77015715E-01  9.23088484E-01 -8.79442024E-14 -7.73503774E-03 -4.78973167E-14
  7.44317503E-14 -3.99721752E-03 -2.97605548E-13  9.61331394E-13  6.15173361E-12
 -6.40683055E-13 -9.11929134E-04 -1.76575414E-03 -1.73633362E-13 -8.49645268E-13
 -1.44515533E-11 -3.42953721E-13  1.61447984E-03  3.12424050E-03 -3.56570632E-13
 -5.93860300E-13  1.68613825E-12 -7.51870742E-02  3.88306114E-02  1.73907001E-12
  1.41754407E-12 -7.10675883E-02  3.67029193E-02  6.93089682E-12  7.03541246E-12
 -2.83489851E-01  1.46410017E-01 -1.19350646E-11 -2.15807034E-11  8.04010173E-01
 -4.15234874E-01  1.97906773E-13 -3.04742840E-03 -5.57628332E-14 -1.68964367E-13
  5.90075347E-03 -5.81754907E-14 -9.75629213E-14 -3.71484267E-13 -6.53901988E-02
  3.37910105E-02  3.25891061E-13 -3.50691786E-13 -6.18070165E-02  3.19392144E-02
  6.44980574E-13 -1.82004409E-12 -2.46552898E-01  1.27409227E-01 -2.96593226E-12
  3.50658978E-12  6.99255830E-01 -3.61348186E-01  4.32818507E-14  2.65189086E-03
 -9.91116075E-15 -3.63315990E-14 -5.13182851E-03 -3.71342237E-13  4.14210682E-13
 -9.09256809E-13 -3.11642584E-13  4.23004238E-03 -2.18462852E-03 -2.71809435E-14
  2.38790835E-13  1.33514329E-12  3.49179092E-14  3.67898660E-03 -1.90116014E-03
  2.93574656E-13  4.89026589E-13 -1.39022084E-12  6.54045515E-02 -3.37783965E-02
 -1.43216392E-12 -1.16732607E-12  6.18244259E-02 -3.19292811E-02 -5.72604610E-12
 -5.78462481E-12  2.46592640E-01 -1.27354237E-01  9.80001908E-12  1.78344051E-11
 -6.99342494E-01  3.61178764E-01 -1.65735565E-13  2.65117476E-03  4.95352346E-14