 Entering Gaussian System, Link 0=g16
 Initial command:
 /home/szhao/Apps/g16/l1.exe "/home/szhao/tmp/Gau-98168.inp" -scrdir="/home/szhao/tmp/"
 Default is to use a total of  16 processors:
                               16 via shared-memory
                                1 via Linda
 Entering Link 1 = /home/szhao/Apps/g16/l1.exe PID=     98170.
  
 Copyright (c) 1988,1990,1992,1993,1995,1998,2003,2009,2016,
            Gaussian, Inc.  All Rights Reserved.
  
 This is part of the Gaussian(R) 16 program.  It is based on
 the Gaussian(R) 09 system (copyright 2009, Gaussian, Inc.),
 the Gaussian(R) 03 system (copyright 2003, Gaussian, Inc.),
 the Gaussian(R) 98 system (copyright 1998, Gaussian, Inc.),
 the Gaussian(R) 94 system (copyright 1995, Gaussian, Inc.),
 the Gaussian 92(TM) system (copyright 1992, Gaussian, Inc.),
 the Gaussian 90(TM) system (copyright 1990, Gaussian, Inc.),
 the Gaussian 88(TM) system (copyright 1988, Gaussian, Inc.),
 the Gaussian 86(TM) system (copyright 1986, Carnegie Mellon
 University), and the Gaussian 82(TM) system (copyright 1983,
 Carnegie Mellon University). Gaussian is a federally registered
 trademark of Gaussian, Inc.
  
 This software contains proprietary and confidential information,
 including trade secrets, belonging to Gaussian, Inc.
  
 This software is provided under written license and may be
 used, copied, transmitted, or stored only in accord with that
 written license.
  
 The following legend is applicable only to US Government
 contracts under FAR:
  
                    RESTRICTED RIGHTS LEGEND
  
 Use, reproduction and disclosure by the US Government is
 subject to restrictions as set forth in subparagraphs (a)
 and (c) of the Commercial Computer Software - Restricted
 Rights clause in FAR 52.227-19.
  
 Gaussian, Inc.
 340 Quinnipiac St., Bldg. 40, Wallingford CT 06492
  
  
 ---------------------------------------------------------------
 Warning -- This program may not be used in any manner that
 competes with the business of Gaussian, Inc. or will provide
 assistance to any competitor of Gaussian, Inc.  The licensee
 of this program is prohibited from giving any competitor of
 Gaussian, Inc. access to this program.  By using this program,
 the user acknowledges that Gaussian, Inc. is engaged in the
 business of creating and licensing software in the field of
 computational chemistry and represents and warrants to the
 licensee that it is not a competitor of Gaussian, Inc. and that
 it will not use this program in any manner prohibited above.
 ---------------------------------------------------------------
  

 Cite this work as:
 Gaussian 16, Revision A.03,
 M. J. Frisch, G. W. Trucks, H. B. Schlegel, G. E. Scuseria, 
 M. A. Robb, J. R. Cheeseman, G. Scalmani, V. Barone, 
 G. A. Petersson, H. Nakatsuji, X. Li, M. Caricato, A. V. Marenich, 
 J. Bloino, B. G. Janesko, R. Gomperts, B. Mennucci, H. P. Hratchian, 
 J. V. Ortiz, A. F. Izmaylov, J. L. Sonnenberg, D. Williams-Young, 
 F. Ding, F. Lipparini, F. Egidi, J. Goings, B. Peng, A. Petrone, 
 T. Henderson, D. Ranasinghe, V. G. Zakrzewski, J. Gao, N. Rega, 
 G. Zheng, W. Liang, M. Hada, M. Ehara, K. Toyota, R. Fukuda, 
 J. Hasegawa, M. Ishida, T. Nakajima, Y. Honda, O. Kitao, H. Nakai, 
 T. Vreven, K. Throssell, J. A. Montgomery, Jr., J. E. Peralta, 
 F. Ogliaro, M. J. Bearpark, J. J. Heyd, E. N. Brothers, K. N. Kudin, 
 V. N. Staroverov, T. A. Keith, R. Kobayashi, J. Normand, 
 K. Raghavachari, A. P. Rendell, J. C. Burant, S. S. Iyengar, 
 J. Tomasi, M. Cossi, J. M. Millam, M. Klene, C. Adamo, R. Cammi, 
 J. W. Ochterski, R. L. Martin, K. Morokuma, O. Farkas, 
 J. B. Foresman, and D. J. Fox, Gaussian, Inc., Wallingford CT, 2016.
 
 ******************************************
 Gaussian 16:  ES64L-G16RevA.03 25-Dec-2016
                19-Nov-2024 
 ******************************************
 %chk=opt.chk
 %mem=8GB
 %nprocshared=24
 Will use up to   24 processors via shared memory.
 --------------------------------------------
 #p opt UM062X/6-311+G** nosymm int=superfine
 --------------------------------------------
 1/18=20,19=15,26=5,38=1/1,3;
 2/9=110,12=2,15=1,17=6,18=5,40=1/2;
 3/5=4,6=6,7=111,11=2,25=1,30=1,71=1,74=-55,75=-7,116=2/1,2,3;
 4//1;
 5/5=2,38=5/2;
 6/7=2,8=2,9=2,10=2,28=1/1;
 7/30=1/1,2,3,16;
 1/18=20,19=15,26=5/3(2);
 2/9=110,15=1/2;
 99//99;
 2/9=110,15=1/2;
 3/5=4,6=6,7=111,11=2,25=1,30=1,71=1,74=-55,75=-7,116=2/1,2,3;
 4/5=5,16=3,69=1/1;
 5/5=2,38=5/2;
 7/30=1/1,2,3,16;
 1/18=20,19=15,26=5/3(-5);
 2/9=110,15=1/2;
 6/7=2,8=2,9=2,10=2,19=2,28=1/1;
 99/9=1/99;
 Leave Link    1 at Tue Nov 19 12:02:59 2024, MaxMem=  1073741824 cpu:               0.8 elap:               0.0
 (Enter /home/szhao/Apps/g16/l101.exe)
 -------------------
 Title Card Required
 -------------------
 Symbolic Z-matrix:
 Charge =  0 Multiplicity = 1
 C                    -1   -0.96207   0.        0. 
 C                    -1    0.96217   0.        0. 
 H                    0     1.46024  -0.88075   0.50965 
 H                    0    -1.45989  -0.88202  -0.50795 
 H                    0     1.45998   0.88201   0.50792 
 H                    0     1.45999  -0.00087  -1.01782 
 H                    0    -1.46014   0.88074  -0.50968 
 H                    0    -1.4599    0.00086   1.01779 
 
 Add virtual bond connecting atoms C2         and C1         Dist= 3.64D+00.
 ITRead=  2  2  0  0  0  0  0  0
 MicOpt= -2 -2 -1 -1 -1 -1 -1 -1
 NAtoms=      8 NQM=        6 NQMF=       2 NMMI=      0 NMMIF=      0
                NMic=       0 NMicF=      0.
                    Isotopes and Nuclear Properties:
 (Nuclear quadrupole moments (NQMom) in fm**2, nuclear magnetic moments (NMagM)
  in nuclear magnetons)

  Atom         1           2           3           4           5           6           7           8
 IAtWgt=          12          12           1           1           1           1           1           1
 AtmWgt=  12.0000000  12.0000000   1.0078250   1.0078250   1.0078250   1.0078250   1.0078250   1.0078250
 NucSpn=           0           0           1           1           1           1           1           1
 AtZEff=  -0.0000000  -0.0000000  -0.0000000  -0.0000000  -0.0000000  -0.0000000  -0.0000000  -0.0000000
 NQMom=    0.0000000   0.0000000   0.0000000   0.0000000   0.0000000   0.0000000   0.0000000   0.0000000
 NMagM=    0.0000000   0.0000000   2.7928460   2.7928460   2.7928460   2.7928460   2.7928460   2.7928460
 AtZNuc=   6.0000000   6.0000000   1.0000000   1.0000000   1.0000000   1.0000000   1.0000000   1.0000000
 Leave Link  101 at Tue Nov 19 12:03:00 2024, MaxMem=  1073741824 cpu:              11.9 elap:               0.5
 (Enter /home/szhao/Apps/g16/l103.exe)

 GradGradGradGradGradGradGradGradGradGradGradGradGradGradGradGradGradGrad
 Berny optimization.
 Initialization pass.
                           ----------------------------
                           !    Initial Parameters    !
                           ! (Angstroms and Degrees)  !
 --------------------------                            --------------------------
 ! Name  Definition              Value          Derivative Info.                !
 --------------------------------------------------------------------------------
 ! X1    R(1,-1)                -0.9621         Frozen                          !
 ! Y1    R(1,-2)                 0.0            Frozen                          !
 ! Z1    R(1,-3)                 0.0            Frozen                          !
 ! X2    R(2,-1)                 0.9622         Frozen                          !
 ! Y2    R(2,-2)                 0.0            Frozen                          !
 ! Z2    R(2,-3)                 0.0            Frozen                          !
 ! R1    R(1,4)                  1.133          estimate D2E/DX2                !
 ! R2    R(1,7)                  1.1329         estimate D2E/DX2                !
 ! R3    R(1,8)                  1.133          estimate D2E/DX2                !
 ! R4    R(2,3)                  1.1329         estimate D2E/DX2                !
 ! R5    R(2,5)                  1.133          estimate D2E/DX2                !
 ! R6    R(2,6)                  1.133          estimate D2E/DX2                !
 ! A1    A(2,1,4)              116.0631         estimate D2E/DX2                !
 ! A2    A(2,1,7)              116.0801         estimate D2E/DX2                !
 ! A3    A(2,1,8)              116.0644         estimate D2E/DX2                !
 ! A4    A(4,1,7)              102.1415         estimate D2E/DX2                !
 ! A5    A(4,1,8)              102.1373         estimate D2E/DX2                !
 ! A6    A(7,1,8)              102.1439         estimate D2E/DX2                !
 ! A7    A(1,2,3)              116.0802         estimate D2E/DX2                !
 ! A8    A(1,2,5)              116.0636         estimate D2E/DX2                !
 ! A9    A(1,2,6)              116.0637         estimate D2E/DX2                !
 ! A10   A(3,2,5)              102.1435         estimate D2E/DX2                !
 ! A11   A(3,2,6)              102.1424         estimate D2E/DX2                !
 ! A12   A(5,2,6)              102.137          estimate D2E/DX2                !
 ! D1    D(4,1,2,3)            -59.9932         estimate D2E/DX2                !
 ! D2    D(4,1,2,5)            179.9987         estimate D2E/DX2                !
 ! D3    D(4,1,2,6)             60.0135         estimate D2E/DX2                !
 ! D4    D(7,1,2,3)           -179.9981         estimate D2E/DX2                !
 ! D5    D(7,1,2,5)             59.9938         estimate D2E/DX2                !
 ! D6    D(7,1,2,6)            -59.9914         estimate D2E/DX2                !
 ! D7    D(8,1,2,3)             59.9926         estimate D2E/DX2                !
 ! D8    D(8,1,2,5)            -60.0156         estimate D2E/DX2                !
 ! D9    D(8,1,2,6)            179.9993         estimate D2E/DX2                !
 --------------------------------------------------------------------------------
 Trust Radius=3.00D-01 FncErr=1.00D-07 GrdErr=1.00D-07 EigMax=2.50D+02 EigMin=1.00D-04
 Number of steps in this run=     43 maximum allowed number of steps=    100.
 GradGradGradGradGradGradGradGradGradGradGradGradGradGradGradGradGradGrad

 Leave Link  103 at Tue Nov 19 12:03:00 2024, MaxMem=  1073741824 cpu:               0.4 elap:               0.0
 (Enter /home/szhao/Apps/g16/l202.exe)
                          Input orientation:                          
 ---------------------------------------------------------------------
 Center     Atomic      Atomic             Coordinates (Angstroms)
 Number     Number       Type             X           Y           Z
 ---------------------------------------------------------------------
      1          6           0       -0.962069    0.000000    0.000000
      2          6           0        0.962168    0.000000    0.000000
      3          1           0        1.460238   -0.880754    0.509649
      4          1           0       -1.459886   -0.882021   -0.507950
      5          1           0        1.459982    0.882009    0.507916
      6          1           0        1.459994   -0.000873   -1.017819
      7          1           0       -1.460141    0.880742   -0.509681
      8          1           0       -1.459895    0.000860    1.017787
 ---------------------------------------------------------------------
                    Distance matrix (angstroms):
                    1          2          3          4          5
     1  C    0.000000
     2  C    1.924237   0.000000
     3  H    2.627364   1.132936   0.000000
     4  H    1.133047   2.627227   3.092351   0.000000
     5  H    2.627214   1.133022   1.762764   3.559413   0.000000
     6  H    2.627231   1.133043   1.762767   3.092262   1.762767
     7  H    1.132942   2.627367   3.559567   1.762764   3.092349
     8  H    1.133014   2.627219   3.092349   1.762768   3.092261
                    6          7          8
     6  H    0.000000
     7  H    3.092351   0.000000
     8  H    3.559416   1.762768   0.000000
 Symmetry turned off by external request.
 This structure is nearly, but not quite of a higher symmetry.
 Consider Symm=Loose if the higher symmetry is desired.
 Stoichiometry    C2H6
 Framework group  C1[X(C2H6)]
 Deg. of freedom    18
 Full point group                 C1      NOp   1
 Rotational constants (GHZ):          80.6886616          13.2167203          13.2167140
 Leave Link  202 at Tue Nov 19 12:03:00 2024, MaxMem=  1073741824 cpu:               0.1 elap:               0.0
 (Enter /home/szhao/Apps/g16/l301.exe)
 Standard basis: 6-311+G(d,p) (5D, 7F)
 Ernie: Thresh=  0.10000D-02 Tol=  0.10000D-05 Strict=F.
    80 basis functions,   120 primitive gaussians,    82 cartesian basis functions
     9 alpha electrons        9 beta electrons
       nuclear repulsion energy        37.2392787258 Hartrees.
 IExCor= 4336 DFT=T Ex+Corr=M062X ExCW=0 ScaHFX=  0.540000
 ScaDFX=  1.000000  1.000000  1.000000  1.000000 ScalE2=  1.000000  1.000000
 IRadAn=      7 IRanWt=     -1 IRanGd=            0 ICorTp=0 IEmpDi=  4
 NAtoms=    8 NActive=    8 NUniq=    8 SFac= 1.00D+00 NAtFMM=   60 NAOKFM=F Big=F
 Integral buffers will be    131072 words long.
 Raffenetti 2 integral format.
 Two-electron integral symmetry is turned off.
 Leave Link  301 at Tue Nov 19 12:03:00 2024, MaxMem=  1073741824 cpu:               1.3 elap:               0.1
 (Enter /home/szhao/Apps/g16/l302.exe)
 NPDir=0 NMtPBC=     1 NCelOv=     1 NCel=       1 NClECP=     1 NCelD=      1
         NCelK=      1 NCelE2=     1 NClLst=     1 CellRange=     0.0.
 One-electron integrals computed using PRISM.
 NBasis=    80 RedAO= T EigKep=  6.66D-04  NBF=    80
 NBsUse=    80 1.00D-06 EigRej= -1.00D+00 NBFU=    80
 Precomputing XC quadrature grid using
 IXCGrd= 4 IRadAn=           7 IRanWt=          -1 IRanGd=           0 AccXCQ= 0.00D+00.
 Generated NRdTot=       0 NPtTot=           0 NUsed=           0 NTot=          32
 NSgBfM=    82    82    82    82    82 MxSgAt=     8 MxSgA2=     8.
 Leave Link  302 at Tue Nov 19 12:03:01 2024, MaxMem=  1073741824 cpu:               3.8 elap:               0.2
 (Enter /home/szhao/Apps/g16/l303.exe)
 DipDrv:  MaxL=1.
 Leave Link  303 at Tue Nov 19 12:03:01 2024, MaxMem=  1073741824 cpu:               1.0 elap:               0.1
 (Enter /home/szhao/Apps/g16/l401.exe)
 ExpMin= 4.38D-02 ExpMax= 4.56D+03 ExpMxC= 6.82D+02 IAcc=3 IRadAn=         7 AccDes= 0.00D+00
 Harris functional with IExCor= 1009 and IRadAn=       7 diagonalized for initial guess.
 HarFok:  IExCor= 1009 AccDes= 0.00D+00 IRadAn=         7 IDoV= 1 UseB2=F ITyADJ=14
 ICtDFT=  3500011 ScaDFX=  1.000000  1.000000  1.000000  1.000000
 FoFCou: FMM=F IPFlag=           0 FMFlag=      100000 FMFlg1=           0
         NFxFlg=           0 DoJE=T BraDBF=F KetDBF=T FulRan=T
         wScrn=  0.000000 ICntrl=       500 IOpCl=  0 I1Cent=   200000004 NGrid=           0
         NMat0=    1 NMatS0=      1 NMatT0=    0 NMatD0=    1 NMtDS0=    0 NMtDT0=    0
 Symmetry not used in FoFCou.
 Harris En= -79.7341887588373    
 JPrj=0 DoOrth=F DoCkMO=F.
 Initial guess <Sx>= 0.0000 <Sy>= 0.0000 <Sz>= 0.0000 <S**2>=-0.0000 S=-0.0000
 Leave Link  401 at Tue Nov 19 12:03:01 2024, MaxMem=  1073741824 cpu:               7.1 elap:               0.3
 (Enter /home/szhao/Apps/g16/l502.exe)
 Keep R1 and R2 ints in memory in canonical form, NReq=32326806.
 FoFCou: FMM=F IPFlag=           0 FMFlag=           0 FMFlg1=           0
         NFxFlg=           0 DoJE=F BraDBF=F KetDBF=F FulRan=T
         wScrn=  0.000000 ICntrl=       600 IOpCl=  0 I1Cent=           0 NGrid=           0
         NMat0=    1 NMatS0=   3240 NMatT0=    0 NMatD0=    1 NMtDS0=    0 NMtDT0=    0
 Symmetry not used in FoFCou.
 Two-electron integral symmetry not used.
 UHF open shell SCF:
 Using DIIS extrapolation, IDIIS=  1040.
 NGot=  1073741824 LenX=  1063224738 LenY=  1063217573
 Requested convergence on RMS density matrix=1.00D-08 within 128 cycles.
 Requested convergence on MAX density matrix=1.00D-06.
 Requested convergence on             energy=1.00D-06.
 No special actions if energy rises.

 Cycle   1  Pass 1  IDiag  1:
 E= -79.6489885540059    
 DIIS: error= 3.84D-02 at cycle   1 NSaved=   1.
 NSaved= 1 IEnMin= 1 EnMin= -79.6489885540059     IErMin= 1 ErrMin= 3.84D-02
 ErrMax= 3.84D-02  0.00D+00 EMaxC= 1.00D-01 BMatC= 3.29D-01 BMatP= 3.29D-01
 IDIUse=3 WtCom= 6.16D-01 WtEn= 3.84D-01
 Coeff-Com:  0.100D+01
 Coeff-En:   0.100D+01
 Coeff:      0.100D+01
 Gap=     0.460 Goal=   None    Shift=    0.000
 Gap=     0.460 Goal=   None    Shift=    0.000
 GapD=    0.460 DampG=2.000 DampE=0.500 DampFc=1.0000 IDamp=-1.
 RMSDP=3.86D-03 MaxDP=8.41D-02              OVMax= 1.26D-01

 Cycle   2  Pass 1  IDiag  1:
 E= -79.6728113424307     Delta-E=       -0.023822788425 Rises=F Damp=F
 DIIS: error= 3.71D-02 at cycle   2 NSaved=   2.
 NSaved= 2 IEnMin= 2 EnMin= -79.6728113424307     IErMin= 2 ErrMin= 3.71D-02
 ErrMax= 3.71D-02  0.00D+00 EMaxC= 1.00D-01 BMatC= 2.13D-01 BMatP= 3.29D-01
 IDIUse=3 WtCom= 6.29D-01 WtEn= 3.71D-01
 Coeff-Com:  0.442D+00 0.558D+00
 Coeff-En:   0.401D+00 0.599D+00
 Coeff:      0.427D+00 0.573D+00
 Gap=     0.421 Goal=   None    Shift=    0.000
 Gap=     0.421 Goal=   None    Shift=    0.000
 RMSDP=1.89D-03 MaxDP=4.40D-02 DE=-2.38D-02 OVMax= 6.45D-02

 Cycle   3  Pass 1  IDiag  1:
 E= -79.7291915981171     Delta-E=       -0.056380255686 Rises=F Damp=F
 DIIS: error= 4.54D-03 at cycle   3 NSaved=   3.
 NSaved= 3 IEnMin= 3 EnMin= -79.7291915981171     IErMin= 3 ErrMin= 4.54D-03
 ErrMax= 4.54D-03  0.00D+00 EMaxC= 1.00D-01 BMatC= 3.15D-03 BMatP= 2.13D-01
 IDIUse=3 WtCom= 9.55D-01 WtEn= 4.54D-02
 Coeff-Com:  0.508D-01 0.142D+00 0.807D+00
 Coeff-En:   0.000D+00 0.000D+00 0.100D+01
 Coeff:      0.485D-01 0.135D+00 0.816D+00
 Gap=     0.409 Goal=   None    Shift=    0.000
 Gap=     0.409 Goal=   None    Shift=    0.000
 RMSDP=2.18D-04 MaxDP=3.31D-03 DE=-5.64D-02 OVMax= 7.83D-03

 Cycle   4  Pass 1  IDiag  1:
 E= -79.7299908477246     Delta-E=       -0.000799249607 Rises=F Damp=F
 DIIS: error= 7.30D-04 at cycle   4 NSaved=   4.
 NSaved= 4 IEnMin= 4 EnMin= -79.7299908477246     IErMin= 4 ErrMin= 7.30D-04
 ErrMax= 7.30D-04  0.00D+00 EMaxC= 1.00D-01 BMatC= 4.20D-05 BMatP= 3.15D-03
 IDIUse=3 WtCom= 9.93D-01 WtEn= 7.30D-03
 Coeff-Com: -0.223D-02 0.761D-02 0.147D+00 0.848D+00
 Coeff-En:   0.000D+00 0.000D+00 0.000D+00 0.100D+01
 Coeff:     -0.222D-02 0.756D-02 0.146D+00 0.849D+00
 Gap=     0.410 Goal=   None    Shift=    0.000
 Gap=     0.410 Goal=   None    Shift=    0.000
 RMSDP=2.78D-05 MaxDP=2.90D-04 DE=-7.99D-04 OVMax= 1.21D-03

 Cycle   5  Pass 1  IDiag  1:
 E= -79.7300014364558     Delta-E=       -0.000010588731 Rises=F Damp=F
 DIIS: error= 3.01D-05 at cycle   5 NSaved=   5.
 NSaved= 5 IEnMin= 5 EnMin= -79.7300014364558     IErMin= 5 ErrMin= 3.01D-05
 ErrMax= 3.01D-05  0.00D+00 EMaxC= 1.00D-01 BMatC= 1.47D-07 BMatP= 4.20D-05
 IDIUse=1 WtCom= 1.00D+00 WtEn= 0.00D+00
 Coeff-Com: -0.217D-03-0.153D-02-0.144D-01-0.127D-01 0.103D+01
 Coeff:     -0.217D-03-0.153D-02-0.144D-01-0.127D-01 0.103D+01
 Gap=     0.410 Goal=   None    Shift=    0.000
 Gap=     0.410 Goal=   None    Shift=    0.000
 RMSDP=2.85D-06 MaxDP=3.06D-05 DE=-1.06D-05 OVMax= 1.14D-04

 Cycle   6  Pass 1  IDiag  1:
 E= -79.7300014888351     Delta-E=       -0.000000052379 Rises=F Damp=F
 DIIS: error= 5.17D-06 at cycle   6 NSaved=   6.
 NSaved= 6 IEnMin= 6 EnMin= -79.7300014888351     IErMin= 6 ErrMin= 5.17D-06
 ErrMax= 5.17D-06  0.00D+00 EMaxC= 1.00D-01 BMatC= 2.44D-09 BMatP= 1.47D-07
 IDIUse=1 WtCom= 1.00D+00 WtEn= 0.00D+00
 Coeff-Com:  0.405D-04 0.885D-04 0.134D-02-0.897D-03-0.186D+00 0.119D+01
 Coeff:      0.405D-04 0.885D-04 0.134D-02-0.897D-03-0.186D+00 0.119D+01
 Gap=     0.410 Goal=   None    Shift=    0.000
 Gap=     0.410 Goal=   None    Shift=    0.000
 RMSDP=5.98D-07 MaxDP=7.52D-06 DE=-5.24D-08 OVMax= 3.06D-05

 Cycle   7  Pass 1  IDiag  1:
 E= -79.7300014901853     Delta-E=       -0.000000001350 Rises=F Damp=F
 DIIS: error= 2.23D-07 at cycle   7 NSaved=   7.
 NSaved= 7 IEnMin= 7 EnMin= -79.7300014901853     IErMin= 7 ErrMin= 2.23D-07
 ErrMax= 2.23D-07  0.00D+00 EMaxC= 1.00D-01 BMatC= 9.00D-12 BMatP= 2.44D-09
 IDIUse=1 WtCom= 1.00D+00 WtEn= 0.00D+00
 Coeff-Com: -0.274D-05 0.299D-05-0.351D-04 0.143D-03 0.687D-02-0.914D-01
 Coeff-Com:  0.108D+01
 Coeff:     -0.274D-05 0.299D-05-0.351D-04 0.143D-03 0.687D-02-0.914D-01
 Coeff:      0.108D+01
 Gap=     0.410 Goal=   None    Shift=    0.000
 Gap=     0.410 Goal=   None    Shift=    0.000
 RMSDP=5.14D-08 MaxDP=5.52D-07 DE=-1.35D-09 OVMax= 2.19D-06

 Cycle   8  Pass 1  IDiag  1:
 E= -79.7300014901924     Delta-E=       -0.000000000007 Rises=F Damp=F
 DIIS: error= 2.74D-08 at cycle   8 NSaved=   8.
 NSaved= 8 IEnMin= 8 EnMin= -79.7300014901924     IErMin= 8 ErrMin= 2.74D-08
 ErrMax= 2.74D-08  0.00D+00 EMaxC= 1.00D-01 BMatC= 1.16D-13 BMatP= 9.00D-12
 IDIUse=1 WtCom= 1.00D+00 WtEn= 0.00D+00
 Coeff-Com:  0.118D-06-0.109D-05-0.645D-05-0.259D-04 0.608D-03-0.369D-03
 Coeff-Com: -0.981D-01 0.110D+01
 Coeff:      0.118D-06-0.109D-05-0.645D-05-0.259D-04 0.608D-03-0.369D-03
 Coeff:     -0.981D-01 0.110D+01
 Gap=     0.410 Goal=   None    Shift=    0.000
 Gap=     0.410 Goal=   None    Shift=    0.000
 RMSDP=5.29D-09 MaxDP=6.61D-08 DE=-7.13D-12 OVMax= 2.68D-07

 SCF Done:  E(UM062X) =  -79.7300014902     A.U. after    8 cycles
            NFock=  8  Conv=0.53D-08     -V/T= 2.0132
 <Sx>= 0.0000 <Sy>= 0.0000 <Sz>= 0.0000 <S**2>=-0.0000 S=-0.0000
 <L.S>=  0.00000000000    
 KE= 7.868839469607D+01 PE=-2.579951056407D+02 EE= 6.233743072863D+01
 Annihilation of the first spin contaminant:
 S**2 before annihilation    -0.0000,   after     0.0000
 Leave Link  502 at Tue Nov 19 12:03:05 2024, MaxMem=  1073741824 cpu:              86.0 elap:               3.9
 (Enter /home/szhao/Apps/g16/l601.exe)
 Copying SCF densities to generalized density rwf, IOpCl= 1 IROHF=0.

 **********************************************************************

            Population analysis using the SCF density.

 **********************************************************************

 Alpha  occ. eigenvalues --  -10.56401 -10.56390  -0.78693  -0.72445  -0.45895
 Alpha  occ. eigenvalues --   -0.45893  -0.41670  -0.41667  -0.38888
 Alpha virt. eigenvalues --    0.02080   0.02133   0.06318   0.06318   0.08534
 Alpha virt. eigenvalues --    0.08535   0.09651   0.11657   0.14224   0.18224
 Alpha virt. eigenvalues --    0.18225   0.19007   0.19012   0.23935   0.26647
 Alpha virt. eigenvalues --    0.40839   0.40841   0.52752   0.52757   0.53059
 Alpha virt. eigenvalues --    0.53901   0.61318   0.61323   0.65501   0.65504
 Alpha virt. eigenvalues --    0.68042   0.76472   0.85389   0.95268   1.02299
 Alpha virt. eigenvalues --    1.02301   1.18106   1.18113   1.31291   1.52316
 Alpha virt. eigenvalues --    1.52336   1.57221   1.57222   1.62633   1.62634
 Alpha virt. eigenvalues --    1.63713   1.63719   1.76055   1.77203   1.77212
 Alpha virt. eigenvalues --    2.05179   2.09109   2.09114   2.18295   2.18306
 Alpha virt. eigenvalues --    2.22192   2.31309   2.37041   2.47939   2.47941
 Alpha virt. eigenvalues --    2.50723   2.50736   2.54949   2.54958   2.63295
 Alpha virt. eigenvalues --    2.63303   2.70548   2.83331   2.90976   3.61553
 Alpha virt. eigenvalues --    3.67584   3.67599   3.69291   3.69310  23.86982
 Alpha virt. eigenvalues --   23.91391
  Beta  occ. eigenvalues --  -10.56401 -10.56390  -0.78693  -0.72445  -0.45895
  Beta  occ. eigenvalues --   -0.45893  -0.41670  -0.41667  -0.38888
  Beta virt. eigenvalues --    0.02080   0.02133   0.06318   0.06318   0.08534
  Beta virt. eigenvalues --    0.08535   0.09651   0.11657   0.14224   0.18224
  Beta virt. eigenvalues --    0.18225   0.19007   0.19012   0.23935   0.26647
  Beta virt. eigenvalues --    0.40839   0.40841   0.52752   0.52757   0.53059
  Beta virt. eigenvalues --    0.53901   0.61318   0.61323   0.65501   0.65504
  Beta virt. eigenvalues --    0.68042   0.76472   0.85389   0.95268   1.02299
  Beta virt. eigenvalues --    1.02301   1.18106   1.18113   1.31291   1.52316
  Beta virt. eigenvalues --    1.52336   1.57221   1.57222   1.62633   1.62634
  Beta virt. eigenvalues --    1.63713   1.63719   1.76055   1.77203   1.77212
  Beta virt. eigenvalues --    2.05179   2.09109   2.09114   2.18295   2.18306
  Beta virt. eigenvalues --    2.22192   2.31309   2.37041   2.47939   2.47941
  Beta virt. eigenvalues --    2.50723   2.50736   2.54949   2.54958   2.63295
  Beta virt. eigenvalues --    2.63303   2.70548   2.83331   2.90976   3.61553
  Beta virt. eigenvalues --    3.67584   3.67599   3.69291   3.69310  23.86982
  Beta virt. eigenvalues --   23.91391
          Condensed to atoms (all electrons):
               1          2          3          4          5          6
     1  C    5.129936   0.249890  -0.020703   0.391251  -0.020732  -0.020733
     2  C    0.249890   5.129935   0.391237  -0.020734   0.391250   0.391250
     3  H   -0.020703   0.391237   0.534150  -0.001013  -0.034116  -0.034117
     4  H    0.391251  -0.020734  -0.001013   0.534195   0.001769  -0.001015
     5  H   -0.020732   0.391250  -0.034116   0.001769   0.534188  -0.034125
     6  H   -0.020733   0.391250  -0.034117  -0.001015  -0.034125   0.534193
     7  H    0.391237  -0.020704   0.001767  -0.034118  -0.001013  -0.001013
     8  H    0.391250  -0.020731  -0.001013  -0.034124  -0.001015   0.001769
               7          8
     1  C    0.391237   0.391250
     2  C   -0.020704  -0.020731
     3  H    0.001767  -0.001013
     4  H   -0.034118  -0.034124
     5  H   -0.001013  -0.001015
     6  H   -0.001013   0.001769
     7  H    0.534152  -0.034115
     8  H   -0.034115   0.534185
          Atomic-Atomic Spin Densities.
               1          2          3          4          5          6
     1  C   -0.000000   0.000000   0.000000  -0.000000  -0.000000  -0.000000
     2  C    0.000000   0.000000  -0.000000   0.000000  -0.000000   0.000000
     3  H    0.000000  -0.000000   0.000000  -0.000000   0.000000   0.000000
     4  H   -0.000000   0.000000  -0.000000   0.000000  -0.000000  -0.000000
     5  H   -0.000000  -0.000000   0.000000  -0.000000  -0.000000  -0.000000
     6  H   -0.000000   0.000000   0.000000  -0.000000  -0.000000  -0.000000
     7  H    0.000000  -0.000000  -0.000000   0.000000   0.000000   0.000000
     8  H   -0.000000   0.000000  -0.000000   0.000000  -0.000000   0.000000
               7          8
     1  C    0.000000  -0.000000
     2  C   -0.000000   0.000000
     3  H   -0.000000  -0.000000
     4  H    0.000000   0.000000
     5  H    0.000000  -0.000000
     6  H    0.000000   0.000000
     7  H   -0.000000  -0.000000
     8  H   -0.000000  -0.000000
 Mulliken charges and spin densities:
               1          2
     1  C   -0.491395  -0.000000
     2  C   -0.491394   0.000000
     3  H    0.163810  -0.000000
     4  H    0.163791   0.000000
     5  H    0.163795  -0.000000
     6  H    0.163791  -0.000000
     7  H    0.163809  -0.000000
     8  H    0.163795  -0.000000
 Sum of Mulliken charges =  -0.00000   0.00000
 Mulliken charges and spin densities with hydrogens summed into heavy atoms:
               1          2
     1  C   -0.000000  -0.000000
     2  C    0.000000   0.000000
 Electronic spatial extent (au):  <R**2>=            140.9962
 Charge=             -0.0000 electrons
 Dipole moment (field-independent basis, Debye):
    X=              0.0000    Y=              0.0000    Z=              0.0000  Tot=              0.0000
 Quadrupole moment (field-independent basis, Debye-Ang):
   XX=            -13.4369   YY=            -15.7849   ZZ=            -15.7852
   XY=             -0.0002   XZ=              0.0001   YZ=             -0.0003
 Traceless Quadrupole moment (field-independent basis, Debye-Ang):
   XX=              1.5654   YY=             -0.7826   ZZ=             -0.7828
   XY=             -0.0002   XZ=              0.0001   YZ=             -0.0003
 Octapole moment (field-independent basis, Debye-Ang**2):
  XXX=             -0.0020  YYY=              0.0001  ZZZ=              0.0003  XYY=             -0.0007
  XXY=              0.0000  XXZ=              0.0001  XZZ=             -0.0009  YZZ=              0.0000
  YYZ=              0.0001  XYZ=              0.0000
 Hexadecapole moment (field-independent basis, Debye-Ang**3):
 XXXX=           -134.0975 YYYY=            -32.4670 ZZZZ=            -32.4678 XXXY=             -0.0050
 XXXZ=              0.0026 YYYX=              0.0042 YYYZ=              0.0001 ZZZX=             -2.1009
 ZZZY=             -0.0009 XXYY=            -26.1033 XXZZ=            -26.1047 YYZZ=            -10.8228
 XXYZ=             -0.0015 YYXZ=              2.1023 ZZXY=             -0.0069
 N-N= 3.723927872582D+01 E-N=-2.579951064306D+02  KE= 7.868839469607D+01
                          Isotropic Fermi Contact Couplings
        Atom                 a.u.       MegaHertz       Gauss      10(-4) cm-1
     1  C(13)             -0.00000      -0.00000      -0.00000      -0.00000
     2  C(13)              0.00000       0.00000       0.00000       0.00000
     3  H(1)               0.00000       0.00000       0.00000       0.00000
     4  H(1)               0.00000       0.00000       0.00000       0.00000
     5  H(1)              -0.00000      -0.00000      -0.00000      -0.00000
     6  H(1)              -0.00000      -0.00000      -0.00000      -0.00000
     7  H(1)              -0.00000      -0.00000      -0.00000      -0.00000
     8  H(1)              -0.00000      -0.00000      -0.00000      -0.00000
 --------------------------------------------------------
       Center         ----  Spin Dipole Couplings  ----
                      3XX-RR        3YY-RR        3ZZ-RR
 --------------------------------------------------------
     1   Atom        0.000000      0.000000      0.000000
     2   Atom        0.000000      0.000000      0.000000
     3   Atom        0.000000      0.000000      0.000000
     4   Atom        0.000000      0.000000      0.000000
     5   Atom        0.000000      0.000000      0.000000
     6   Atom        0.000000      0.000000      0.000000
     7   Atom        0.000000      0.000000      0.000000
     8   Atom        0.000000      0.000000      0.000000
 --------------------------------------------------------
                        XY            XZ            YZ
 --------------------------------------------------------
     1   Atom        0.000000      0.000000      0.000000
     2   Atom        0.000000      0.000000      0.000000
     3   Atom        0.000000      0.000000      0.000000
     4   Atom        0.000000      0.000000      0.000000
     5   Atom        0.000000      0.000000      0.000000
     6   Atom        0.000000      0.000000      0.000000
     7   Atom        0.000000      0.000000      0.000000
     8   Atom        0.000000      0.000000      0.000000
 --------------------------------------------------------


 ---------------------------------------------------------------------------------
              Anisotropic Spin Dipole Couplings in Principal Axis System
 ---------------------------------------------------------------------------------

       Atom             a.u.   MegaHertz   Gauss  10(-4) cm-1        Axes

              Baa     0.0000     0.000     0.000     0.000  1.0000  0.0000  0.0000
     1 C(13)  Bbb     0.0000     0.000     0.000     0.000 -0.0000  1.0000  0.0000
              Bcc     0.0000     0.000     0.000     0.000  0.0000  0.0000  1.0000
 
              Baa     0.0000     0.000     0.000     0.000  1.0000  0.0000  0.0000
     2 C(13)  Bbb     0.0000     0.000     0.000     0.000 -0.0000  1.0000  0.0000
              Bcc     0.0000     0.000     0.000     0.000  0.0000  0.0000  1.0000
 
              Baa     0.0000     0.000     0.000     0.000  1.0000  0.0000  0.0000
     3 H(1)   Bbb     0.0000     0.000     0.000     0.000 -0.0000  1.0000  0.0000
              Bcc     0.0000     0.000     0.000     0.000  0.0000  0.0000  1.0000
 
              Baa     0.0000     0.000     0.000     0.000  1.0000  0.0000  0.0000
     4 H(1)   Bbb     0.0000     0.000     0.000     0.000 -0.0000  1.0000  0.0000
              Bcc     0.0000     0.000     0.000     0.000  0.0000  0.0000  1.0000
 
              Baa     0.0000     0.000     0.000     0.000  1.0000  0.0000  0.0000
     5 H(1)   Bbb     0.0000     0.000     0.000     0.000 -0.0000  1.0000  0.0000
              Bcc     0.0000     0.000     0.000     0.000  0.0000  0.0000  1.0000
 
              Baa     0.0000     0.000     0.000     0.000  1.0000  0.0000  0.0000
     6 H(1)   Bbb     0.0000     0.000     0.000     0.000 -0.0000  1.0000  0.0000
              Bcc     0.0000     0.000     0.000     0.000  0.0000  0.0000  1.0000
 
              Baa     0.0000     0.000     0.000     0.000  1.0000  0.0000  0.0000
     7 H(1)   Bbb     0.0000     0.000     0.000     0.000 -0.0000  1.0000  0.0000
              Bcc     0.0000     0.000     0.000     0.000  0.0000  0.0000  1.0000
 
              Baa     0.0000     0.000     0.000     0.000  1.0000  0.0000  0.0000
     8 H(1)   Bbb     0.0000     0.000     0.000     0.000 -0.0000  1.0000  0.0000
              Bcc     0.0000     0.000     0.000     0.000  0.0000  0.0000  1.0000
 

 ---------------------------------------------------------------------------------

 No NMR shielding tensors so no spin-rotation constants.
 Leave Link  601 at Tue Nov 19 12:03:05 2024, MaxMem=  1073741824 cpu:               3.3 elap:               0.2
 (Enter /home/szhao/Apps/g16/l701.exe)
 ... and contract with generalized density number  0.
 Compute integral first derivatives.
 Leave Link  701 at Tue Nov 19 12:03:06 2024, MaxMem=  1073741824 cpu:               2.7 elap:               0.1
 (Enter /home/szhao/Apps/g16/l702.exe)
 L702 exits ... SP integral derivatives will be done elsewhere.
 Leave Link  702 at Tue Nov 19 12:03:06 2024, MaxMem=  1073741824 cpu:               0.9 elap:               0.1
 (Enter /home/szhao/Apps/g16/l703.exe)
 Integral derivatives from FoFJK, PRISM(SPDF).
 Compute integral first derivatives, UseDBF=F ICtDFT=           0.
 Calling FoFJK, ICntrl=      2127 FMM=F ISym2X=0 I1Cent= 0 IOpClX= 1 NMat=1 NMatS=1 NMatT=0.
 FoFJK:  IHMeth= 1 ICntrl=    2127 DoSepK=F KAlg= 0 I1Cent=           0 FoldK=F
 IRaf=         0 NMat=       1 IRICut=       1 DoRegI=T DoRafI=F ISym2E= 0 IDoP0=0 IntGTp=1.
 FoFCou: FMM=F IPFlag=           0 FMFlag=      100000 FMFlg1=         800
         NFxFlg=           0 DoJE=F BraDBF=F KetDBF=F FulRan=T
         wScrn=  0.000000 ICntrl=      2127 IOpCl=  1 I1Cent=           0 NGrid=           0
         NMat0=    1 NMatS0=      1 NMatT0=    0 NMatD0=    1 NMtDS0=    0 NMtDT0=    0
 Symmetry not used in FoFCou.
 Leave Link  703 at Tue Nov 19 12:03:07 2024, MaxMem=  1073741824 cpu:              21.0 elap:               0.9
 (Enter /home/szhao/Apps/g16/l716.exe)
 Dipole        = 8.51395958D-07 8.53310643D-07 1.55658240D-06
 -------------------------------------------------------------------
 Center     Atomic                   Forces (Hartrees/Bohr)
 Number     Number              X              Y              Z
 -------------------------------------------------------------------
      1        6          -0.000000000   -0.000000000   -0.000000000
      2        6          -0.000000000   -0.000000000   -0.000000000
      3        1          -0.027155013    0.011848340   -0.006856378
      4        1           0.027159854    0.011918005    0.006858502
      5        1          -0.027154510   -0.011909246   -0.006850890
      6        1          -0.027161369    0.000005116    0.013748983
      7        1           0.027156239   -0.011848763    0.006860489
      8        1           0.027155508   -0.000003942   -0.013736138
 -------------------------------------------------------------------
 Cartesian Forces:  Max     0.027161369 RMS     0.015214377
 Leave Link  716 at Tue Nov 19 12:03:07 2024, MaxMem=  1073741824 cpu:               1.1 elap:               0.1
 (Enter /home/szhao/Apps/g16/l103.exe)

 GradGradGradGradGradGradGradGradGradGradGradGradGradGradGradGradGradGrad
 Berny optimization.
 FormGI is forming the generalized inverse of G from B-inverse, IUseBI=4.
 Internal  Forces:  Max     0.081471602 RMS     0.024964354
 Search for a local minimum.
 Step number   1 out of a maximum of   43
 All quantities printed in internal units (Hartrees-Bohrs-Radians)
 RMS Force = .16433D-01 SwitMx=.10000D-02 MixMth= 1
 Mixed Optimization -- RFO/linear search
 Second derivative matrix not updated -- first step.
 ITU=  0
     Eigenvalues ---    0.00230   0.04520   0.04520   0.04522   0.04522
     Eigenvalues ---    0.16000   0.16000   0.16000   0.16000   0.16000
     Eigenvalues ---    0.16000   0.30277   0.30277   0.30279   0.30280
     Eigenvalues ---    0.30287   0.302871000.000001000.000001000.00000
     Eigenvalues --- 1000.000001000.000001000.000001000.000001000.00000
     Eigenvalues --- 1000.000001000.000001000.000001000.000001000.00000
     Eigenvalues --- 1000.000001000.000001000.00000
 RFO step:  Lambda=-3.03489237D-02 EMin= 2.30000000D-03
 Linear search not attempted -- first point.
 Maximum step size (   0.300) exceeded in Quadratic search.
    -- Step size scaled by   0.815
 Iteration  1 RMS(Cart)=  0.06721450 RMS(Int)=  0.00245212
 Iteration  2 RMS(Cart)=  0.00218340 RMS(Int)=  0.00111795
 Iteration  3 RMS(Cart)=  0.00000036 RMS(Int)=  0.00111795
 ITry= 1 IFail=0 DXMaxC= 1.59D-01 DCOld= 1.00D+10 DXMaxT= 3.00D-01 DXLimC= 3.00D+00 Rises=F
 Variable       Old X    -DE/DX   Delta X   Delta X   Delta X     New X
                                 (Linear)    (Quad)   (Total)
    X1       -1.81805   0.08147   0.00000   0.00000   0.00000  -1.81805
    Y1        0.00000   0.00008   0.00000   0.00000   0.00000   0.00000
    Z1        0.00000  -0.00002   0.00000   0.00000   0.00000   0.00000
    X2        1.81823  -0.08147   0.00000   0.00000   0.00000   1.81823
    Y2        0.00000  -0.00007   0.00000   0.00000   0.00000   0.00000
    Z2        0.00000   0.00005   0.00000   0.00000   0.00000   0.00000
    R1        2.14115  -0.02429   0.00000  -0.05940  -0.05940   2.08175
    R2        2.14095  -0.02424   0.00000  -0.05926  -0.05926   2.08169
    R3        2.14109  -0.02427   0.00000  -0.05936  -0.05936   2.08173
    R4        2.14094  -0.02423   0.00000  -0.05926  -0.05926   2.08168
    R5        2.14110  -0.02427   0.00000  -0.05937  -0.05937   2.08173
    R6        2.14114  -0.02428   0.00000  -0.05940  -0.05940   2.08174
    A1        2.02568  -0.01593   0.00000  -0.06816  -0.07009   1.95560
    A2        2.02598  -0.01595   0.00000  -0.06829  -0.07022   1.95576
    A3        2.02571  -0.01593   0.00000  -0.06818  -0.07011   1.95560
    A4        1.78271   0.01931   0.00000   0.08263   0.08086   1.86356
    A5        1.78263   0.01929   0.00000   0.08262   0.08086   1.86349
    A6        1.78275   0.01930   0.00000   0.08261   0.08083   1.86358
    A7        2.02598  -0.01595   0.00000  -0.06829  -0.07022   1.95576
    A8        2.02569  -0.01593   0.00000  -0.06816  -0.07009   1.95560
    A9        2.02569  -0.01593   0.00000  -0.06818  -0.07011   1.95558
   A10        1.78274   0.01930   0.00000   0.08262   0.08085   1.86359
   A11        1.78272   0.01931   0.00000   0.08262   0.08084   1.86357
   A12        1.78263   0.01929   0.00000   0.08263   0.08086   1.86349
    D1       -1.04708  -0.00000   0.00000  -0.00004  -0.00004  -1.04712
    D2        3.14157   0.00000   0.00000   0.00001   0.00001   3.14158
    D3        1.04743  -0.00001   0.00000  -0.00010  -0.00010   1.04734
    D4       -3.14156  -0.00000   0.00000  -0.00001  -0.00001  -3.14157
    D5        1.04709   0.00000   0.00000   0.00003   0.00003   1.04712
    D6       -1.04705  -0.00001   0.00000  -0.00008  -0.00007  -1.04712
    D7        1.04707   0.00001   0.00000   0.00007   0.00006   1.04713
    D8       -1.04747   0.00001   0.00000   0.00011   0.00011  -1.04736
    D9        3.14158   0.00000   0.00000   0.00000   0.00000   3.14158
         Item               Value     Threshold  Converged?
 Maximum Force            0.024285     0.000450     NO 
 RMS     Force            0.016433     0.000300     NO 
 Maximum Displacement     0.159495     0.001800     NO 
 RMS     Displacement     0.068010     0.001200     NO 
 Predicted change in Energy=-1.600996D-02
 Lowest energy point so far.  Saving SCF results.
 GradGradGradGradGradGradGradGradGradGradGradGradGradGradGradGradGradGrad

 Leave Link  103 at Tue Nov 19 12:03:07 2024, MaxMem=  1073741824 cpu:               1.5 elap:               0.1
 (Enter /home/szhao/Apps/g16/l202.exe)
                          Input orientation:                          
 ---------------------------------------------------------------------
 Center     Atomic      Atomic             Coordinates (Angstroms)
 Number     Number       Type             X           Y           Z
 ---------------------------------------------------------------------
      1          6           0       -0.962069    0.000000    0.000000
      2          6           0        0.962168    0.000000    0.000000
      3          1           0        1.375839   -0.883681    0.511332
      4          1           0       -1.375587   -0.884795   -0.509601
      5          1           0        1.375690    0.884794    0.509583
      6          1           0        1.375671   -0.000929   -1.021058
      7          1           0       -1.375740    0.883672   -0.511351
      8          1           0       -1.375582    0.000920    1.021045
 ---------------------------------------------------------------------
                    Distance matrix (angstroms):
                    1          2          3          4          5
     1  C    0.000000
     2  C    1.924237   0.000000
     3  H    2.551111   1.101579   0.000000
     4  H    1.101613   2.551009   2.934731   0.000000
     5  H    2.551010   1.101606   1.768475   3.426325   0.000000
     6  H    2.550998   1.101610   1.768466   2.934660   1.768436
     7  H    1.101581   2.551111   3.426456   1.768468   2.934736
     8  H    1.101602   2.551001   2.934730   1.768437   2.934676
                    6          7          8
     6  H    0.000000
     7  H    2.934720   0.000000
     8  H    3.426307   1.768472   0.000000
 Symmetry turned off by external request.
 Stoichiometry    C2H6
 Framework group  C1[X(C2H6)]
 Deg. of freedom    18
 Full point group                 C1      NOp   1
 Rotational constants (GHZ):          80.1700531          13.7286991          13.7286388
 Leave Link  202 at Tue Nov 19 12:03:07 2024, MaxMem=  1073741824 cpu:               0.5 elap:               0.0
 (Enter /home/szhao/Apps/g16/l301.exe)
 Standard basis: 6-311+G(d,p) (5D, 7F)
 Ernie: Thresh=  0.10000D-02 Tol=  0.10000D-05 Strict=F.
    80 basis functions,   120 primitive gaussians,    82 cartesian basis functions
     9 alpha electrons        9 beta electrons
       nuclear repulsion energy        38.0019273061 Hartrees.
 IExCor= 4336 DFT=T Ex+Corr=M062X ExCW=0 ScaHFX=  0.540000
 ScaDFX=  1.000000  1.000000  1.000000  1.000000 ScalE2=  1.000000  1.000000
 IRadAn=      7 IRanWt=     -1 IRanGd=            0 ICorTp=0 IEmpDi=  4
 NAtoms=    8 NActive=    8 NUniq=    8 SFac= 1.00D+00 NAtFMM=   60 NAOKFM=F Big=F
 Integral buffers will be    131072 words long.
 Raffenetti 2 integral format.
 Two-electron integral symmetry is turned off.
 Leave Link  301 at Tue Nov 19 12:03:07 2024, MaxMem=  1073741824 cpu:               1.3 elap:               0.1
 (Enter /home/szhao/Apps/g16/l302.exe)
 NPDir=0 NMtPBC=     1 NCelOv=     1 NCel=       1 NClECP=     1 NCelD=      1
         NCelK=      1 NCelE2=     1 NClLst=     1 CellRange=     0.0.
 One-electron integrals computed using PRISM.
 NBasis=    80 RedAO= T EigKep=  6.06D-04  NBF=    80
 NBsUse=    80 1.00D-06 EigRej= -1.00D+00 NBFU=    80
 Precomputing XC quadrature grid using
 IXCGrd= 4 IRadAn=           7 IRanWt=          -1 IRanGd=           0 AccXCQ= 0.00D+00.
 Generated NRdTot=       0 NPtTot=           0 NUsed=           0 NTot=          32
 NSgBfM=    82    82    82    82    82 MxSgAt=     8 MxSgA2=     8.
 Leave Link  302 at Tue Nov 19 12:03:07 2024, MaxMem=  1073741824 cpu:               3.7 elap:               0.2
 (Enter /home/szhao/Apps/g16/l303.exe)
 DipDrv:  MaxL=1.
 Leave Link  303 at Tue Nov 19 12:03:08 2024, MaxMem=  1073741824 cpu:               1.0 elap:               0.1
 (Enter /home/szhao/Apps/g16/l401.exe)
 Initial guess from the checkpoint file:  "opt.chk"
 B after Tr=     0.000000    0.000002    0.000005
         Rot=    1.000000   -0.000002    0.000005    0.000014 Ang=  -0.00 deg.
 Guess basis will be translated and rotated to current coordinates.
 JPrj=2 DoOrth=T DoCkMO=T.
 Initial guess <Sx>= 0.0000 <Sy>= 0.0000 <Sz>= 0.0000 <S**2>=-0.0000 S=-0.0000
 Generating alternative initial guess.
 ExpMin= 4.38D-02 ExpMax= 4.56D+03 ExpMxC= 6.82D+02 IAcc=3 IRadAn=         5 AccDes= 0.00D+00
 Harris functional with IExCor= 1009 and IRadAn=       5 diagonalized for initial guess.
 HarFok:  IExCor= 1009 AccDes= 0.00D+00 IRadAn=         5 IDoV= 1 UseB2=F ITyADJ=14
 ICtDFT=  3500011 ScaDFX=  1.000000  1.000000  1.000000  1.000000
 FoFCou: FMM=F IPFlag=           0 FMFlag=      100000 FMFlg1=           0
         NFxFlg=           0 DoJE=T BraDBF=F KetDBF=T FulRan=T
         wScrn=  0.000000 ICntrl=       500 IOpCl=  0 I1Cent=   200000004 NGrid=           0
         NMat0=    1 NMatS0=      1 NMatT0=    0 NMatD0=    1 NMtDS0=    0 NMtDT0=    0
 Symmetry not used in FoFCou.
 Harris En= -79.7631571272241    
 Leave Link  401 at Tue Nov 19 12:03:08 2024, MaxMem=  1073741824 cpu:               5.6 elap:               0.2
 (Enter /home/szhao/Apps/g16/l502.exe)
 Keep R1 and R2 ints in memory in canonical form, NReq=32326806.
 FoFCou: FMM=F IPFlag=           0 FMFlag=           0 FMFlg1=           0
         NFxFlg=           0 DoJE=F BraDBF=F KetDBF=F FulRan=T
         wScrn=  0.000000 ICntrl=       600 IOpCl=  0 I1Cent=           0 NGrid=           0
         NMat0=    1 NMatS0=   3240 NMatT0=    0 NMatD0=    1 NMtDS0=    0 NMtDT0=    0
 Symmetry not used in FoFCou.
 Two-electron integral symmetry not used.
 UHF open shell SCF:
 Using DIIS extrapolation, IDIIS=  1040.
 NGot=  1073741824 LenX=  1063224738 LenY=  1063217573
 Requested convergence on RMS density matrix=1.00D-08 within 128 cycles.
 Requested convergence on MAX density matrix=1.00D-06.
 Requested convergence on             energy=1.00D-06.
 No special actions if energy rises.

 Cycle   1  Pass 1  IDiag  1:
 E= -79.7467600771764    
 DIIS: error= 5.13D-03 at cycle   1 NSaved=   1.
 NSaved= 1 IEnMin= 1 EnMin= -79.7467600771764     IErMin= 1 ErrMin= 5.13D-03
 ErrMax= 5.13D-03  0.00D+00 EMaxC= 1.00D-01 BMatC= 7.23D-03 BMatP= 7.23D-03
 IDIUse=3 WtCom= 9.49D-01 WtEn= 5.13D-02
 Coeff-Com:  0.100D+01
 Coeff-En:   0.100D+01
 Coeff:      0.100D+01
 Gap=     0.581 Goal=   None    Shift=    0.000
 Gap=     0.581 Goal=   None    Shift=    0.000
 GapD=    0.581 DampG=2.000 DampE=1.000 DampFc=2.0000 IDamp=-1.
 RMSDP=4.28D-04 MaxDP=3.78D-03              OVMax= 1.33D-02

 Cycle   2  Pass 1  IDiag  1:
 E= -79.7484628958323     Delta-E=       -0.001702818656 Rises=F Damp=F
 DIIS: error= 2.40D-03 at cycle   2 NSaved=   2.
 NSaved= 2 IEnMin= 2 EnMin= -79.7484628958323     IErMin= 2 ErrMin= 2.40D-03
 ErrMax= 2.40D-03  0.00D+00 EMaxC= 1.00D-01 BMatC= 1.08D-03 BMatP= 7.23D-03
 IDIUse=3 WtCom= 9.76D-01 WtEn= 2.40D-02
 Coeff-Com:  0.176D+00 0.824D+00
 Coeff-En:   0.000D+00 0.100D+01
 Coeff:      0.172D+00 0.828D+00
 Gap=     0.390 Goal=   None    Shift=    0.000
 Gap=     0.390 Goal=   None    Shift=    0.000
 RMSDP=1.92D-04 MaxDP=4.88D-03 DE=-1.70D-03 OVMax= 7.53D-03

 Cycle   3  Pass 1  IDiag  1:
 E= -79.7486674137855     Delta-E=       -0.000204517953 Rises=F Damp=F
 DIIS: error= 1.57D-03 at cycle   3 NSaved=   3.
 NSaved= 3 IEnMin= 3 EnMin= -79.7486674137855     IErMin= 3 ErrMin= 1.57D-03
 ErrMax= 1.57D-03  0.00D+00 EMaxC= 1.00D-01 BMatC= 3.29D-04 BMatP= 1.08D-03
 IDIUse=3 WtCom= 9.84D-01 WtEn= 1.57D-02
 Coeff-Com: -0.323D-01 0.346D+00 0.686D+00
 Coeff-En:   0.000D+00 0.154D+00 0.846D+00
 Coeff:     -0.318D-01 0.343D+00 0.688D+00
 Gap=     0.394 Goal=   None    Shift=    0.000
 Gap=     0.394 Goal=   None    Shift=    0.000
 RMSDP=6.44D-05 MaxDP=1.47D-03 DE=-2.05D-04 OVMax= 2.29D-03

 Cycle   4  Pass 1  IDiag  1:
 E= -79.7487526143764     Delta-E=       -0.000085200591 Rises=F Damp=F
 DIIS: error= 7.67D-05 at cycle   4 NSaved=   4.
 NSaved= 4 IEnMin= 4 EnMin= -79.7487526143764     IErMin= 4 ErrMin= 7.67D-05
 ErrMax= 7.67D-05  0.00D+00 EMaxC= 1.00D-01 BMatC= 3.56D-07 BMatP= 3.29D-04
 IDIUse=1 WtCom= 1.00D+00 WtEn= 0.00D+00
 Coeff-Com:  0.150D-03-0.386D-01-0.552D-01 0.109D+01
 Coeff:      0.150D-03-0.386D-01-0.552D-01 0.109D+01
 Gap=     0.394 Goal=   None    Shift=    0.000
 Gap=     0.394 Goal=   None    Shift=    0.000
 RMSDP=8.35D-06 MaxDP=1.03D-04 DE=-8.52D-05 OVMax= 3.86D-04

 Cycle   5  Pass 1  IDiag  1:
 E= -79.7487528472689     Delta-E=       -0.000000232892 Rises=F Damp=F
 DIIS: error= 1.23D-05 at cycle   5 NSaved=   5.
 NSaved= 5 IEnMin= 5 EnMin= -79.7487528472689     IErMin= 5 ErrMin= 1.23D-05
 ErrMax= 1.23D-05  0.00D+00 EMaxC= 1.00D-01 BMatC= 1.93D-08 BMatP= 3.56D-07
 IDIUse=1 WtCom= 1.00D+00 WtEn= 0.00D+00
 Coeff-Com:  0.478D-03-0.129D-01-0.215D-01 0.191D+00 0.843D+00
 Coeff:      0.478D-03-0.129D-01-0.215D-01 0.191D+00 0.843D+00
 Gap=     0.394 Goal=   None    Shift=    0.000
 Gap=     0.394 Goal=   None    Shift=    0.000
 RMSDP=8.85D-07 MaxDP=9.55D-06 DE=-2.33D-07 OVMax= 3.47D-05

 Cycle   6  Pass 1  IDiag  1:
 E= -79.7487528533910     Delta-E=       -0.000000006122 Rises=F Damp=F
 DIIS: error= 1.88D-06 at cycle   6 NSaved=   6.
 NSaved= 6 IEnMin= 6 EnMin= -79.7487528533910     IErMin= 6 ErrMin= 1.88D-06
 ErrMax= 1.88D-06  0.00D+00 EMaxC= 1.00D-01 BMatC= 2.76D-10 BMatP= 1.93D-08
 IDIUse=1 WtCom= 1.00D+00 WtEn= 0.00D+00
 Coeff-Com:  0.102D-04 0.112D-02 0.164D-02-0.388D-01-0.842D-02 0.104D+01
 Coeff:      0.102D-04 0.112D-02 0.164D-02-0.388D-01-0.842D-02 0.104D+01
 Gap=     0.394 Goal=   None    Shift=    0.000
 Gap=     0.394 Goal=   None    Shift=    0.000
 RMSDP=3.28D-07 MaxDP=4.36D-06 DE=-6.12D-09 OVMax= 1.59D-05

 Cycle   7  Pass 1  IDiag  1:
 E= -79.7487528536414     Delta-E=       -0.000000000250 Rises=F Damp=F
 DIIS: error= 1.90D-07 at cycle   7 NSaved=   7.
 NSaved= 7 IEnMin= 7 EnMin= -79.7487528536414     IErMin= 7 ErrMin= 1.90D-07
 ErrMax= 1.90D-07  0.00D+00 EMaxC= 1.00D-01 BMatC= 4.37D-12 BMatP= 2.76D-10
 IDIUse=1 WtCom= 1.00D+00 WtEn= 0.00D+00
 Coeff-Com: -0.959D-05 0.163D-04 0.172D-04 0.307D-02-0.121D-01-0.125D+00
 Coeff-Com:  0.113D+01
 Coeff:     -0.959D-05 0.163D-04 0.172D-04 0.307D-02-0.121D-01-0.125D+00
 Coeff:      0.113D+01
 Gap=     0.394 Goal=   None    Shift=    0.000
 Gap=     0.394 Goal=   None    Shift=    0.000
 RMSDP=3.70D-08 MaxDP=5.08D-07 DE=-2.50D-10 OVMax= 2.06D-06

 Cycle   8  Pass 1  IDiag  1:
 E= -79.7487528536455     Delta-E=       -0.000000000004 Rises=F Damp=F
 DIIS: error= 1.66D-08 at cycle   8 NSaved=   8.
 NSaved= 8 IEnMin= 8 EnMin= -79.7487528536455     IErMin= 8 ErrMin= 1.66D-08
 ErrMax= 1.66D-08  0.00D+00 EMaxC= 1.00D-01 BMatC= 5.61D-14 BMatP= 4.37D-12
 IDIUse=1 WtCom= 1.00D+00 WtEn= 0.00D+00
 Coeff-Com:  0.491D-06-0.137D-04-0.156D-04 0.188D-03 0.310D-03 0.201D-02
 Coeff-Com: -0.109D+00 0.111D+01
 Coeff:      0.491D-06-0.137D-04-0.156D-04 0.188D-03 0.310D-03 0.201D-02
 Coeff:     -0.109D+00 0.111D+01
 Gap=     0.394 Goal=   None    Shift=    0.000
 Gap=     0.394 Goal=   None    Shift=    0.000
 RMSDP=3.84D-09 MaxDP=5.81D-08 DE=-4.04D-12 OVMax= 2.00D-07

 SCF Done:  E(UM062X) =  -79.7487528536     A.U. after    8 cycles
            NFock=  8  Conv=0.38D-08     -V/T= 2.0103
 <Sx>= 0.0000 <Sy>= 0.0000 <Sz>= 0.0000 <S**2>=-0.0000 S=-0.0000
 <L.S>=  0.00000000000    
 KE= 7.893433697443D+01 PE=-2.597501314161D+02 EE= 6.306511428192D+01
 Annihilation of the first spin contaminant:
 S**2 before annihilation    -0.0000,   after     0.0000
 Leave Link  502 at Tue Nov 19 12:03:12 2024, MaxMem=  1073741824 cpu:              85.1 elap:               3.7
 (Enter /home/szhao/Apps/g16/l701.exe)
 ... and contract with generalized density number  0.
 Compute integral first derivatives.
 Leave Link  701 at Tue Nov 19 12:03:12 2024, MaxMem=  1073741824 cpu:               2.6 elap:               0.1
 (Enter /home/szhao/Apps/g16/l702.exe)
 L702 exits ... SP integral derivatives will be done elsewhere.
 Leave Link  702 at Tue Nov 19 12:03:12 2024, MaxMem=  1073741824 cpu:               1.0 elap:               0.1
 (Enter /home/szhao/Apps/g16/l703.exe)
 Integral derivatives from FoFJK, PRISM(SPDF).
 Compute integral first derivatives, UseDBF=F ICtDFT=           0.
 Calling FoFJK, ICntrl=      2127 FMM=F ISym2X=0 I1Cent= 0 IOpClX= 1 NMat=1 NMatS=1 NMatT=0.
 FoFJK:  IHMeth= 1 ICntrl=    2127 DoSepK=F KAlg= 0 I1Cent=           0 FoldK=F
 IRaf=         0 NMat=       1 IRICut=       1 DoRegI=T DoRafI=F ISym2E= 0 IDoP0=0 IntGTp=1.
 FoFCou: FMM=F IPFlag=           0 FMFlag=      100000 FMFlg1=         800
         NFxFlg=           0 DoJE=F BraDBF=F KetDBF=F FulRan=T
         wScrn=  0.000000 ICntrl=      2127 IOpCl=  1 I1Cent=           0 NGrid=           0
         NMat0=    1 NMatS0=      1 NMatT0=    0 NMatD0=    1 NMtDS0=    0 NMtDT0=    0
 Symmetry not used in FoFCou.
 Leave Link  703 at Tue Nov 19 12:03:13 2024, MaxMem=  1073741824 cpu:              21.3 elap:               0.9
 (Enter /home/szhao/Apps/g16/l716.exe)
 Dipole        = 2.00407124D-07-1.14317519D-06-3.21180591D-06
 -------------------------------------------------------------------
 Center     Atomic                   Forces (Hartrees/Bohr)
 Number     Number              X              Y              Z
 -------------------------------------------------------------------
      1        6          -0.000000000   -0.000000000   -0.000000000
      2        6          -0.000000000   -0.000000000   -0.000000000
      3        1          -0.012911205    0.002989500   -0.001728307
      4        1           0.012910457    0.003013446    0.001730175
      5        1          -0.012908780   -0.003010859   -0.001727038
      6        1          -0.012908079   -0.000001493    0.003472276
      7        1           0.012911633   -0.002989110    0.001730605
      8        1           0.012906338    0.000002268   -0.003467934
 -------------------------------------------------------------------
 Cartesian Forces:  Max     0.012911633 RMS     0.006683243
 Leave Link  716 at Tue Nov 19 12:03:13 2024, MaxMem=  1073741824 cpu:               1.0 elap:               0.1
 (Enter /home/szhao/Apps/g16/l103.exe)

 GradGradGradGradGradGradGradGradGradGradGradGradGradGradGradGradGradGrad
 Berny optimization.
 Using GEDIIS/GDIIS optimizer.
 FormGI is forming the generalized inverse of G from B-inverse, IUseBI=4.
 Internal  Forces:  Max     0.038728428 RMS     0.011985350
 Search for a local minimum.
 Step number   2 out of a maximum of   43
 All quantities printed in internal units (Hartrees-Bohrs-Radians)
 RMS Force = .80292D-02 SwitMx=.10000D-02 MixMth= 1
 Mixed Optimization -- RFO/linear search
 Update second derivatives using D2CorX and points    1    2
 DE= -1.88D-02 DEPred=-1.60D-02 R= 1.17D+00
 TightC=F SS=  1.41D+00  RLast= 3.00D-01 DXNew= 5.0454D-01 8.9933D-01
 Trust test= 1.17D+00 RLast= 3.00D-01 DXMaxT set to 5.05D-01
 ITU=  1  0
 Use linear search instead of GDIIS.
     Eigenvalues ---    0.00230   0.05238   0.05238   0.05239   0.05239
     Eigenvalues ---    0.10472   0.16000   0.16000   0.16000   0.16000
     Eigenvalues ---    0.16000   0.30277   0.30278   0.30280   0.30284
     Eigenvalues ---    0.30287   0.323801000.000001000.000001000.00000
     Eigenvalues --- 1000.000001000.000001000.000001000.000001000.00000
     Eigenvalues --- 1000.000001000.000001000.000001000.000001000.00000
     Eigenvalues --- 1000.000001000.000001000.00000
 RFO step:  Lambda=-1.76772791D-03 EMin= 2.30000000D-03
 Quartic linear search produced a step of  0.89765.
 Iteration  1 RMS(Cart)=  0.07884134 RMS(Int)=  0.00518222
 Iteration  2 RMS(Cart)=  0.00409191 RMS(Int)=  0.00359678
 Iteration  3 RMS(Cart)=  0.00002375 RMS(Int)=  0.00359675
 Iteration  4 RMS(Cart)=  0.00000019 RMS(Int)=  0.00359675
 ITry= 1 IFail=0 DXMaxC= 1.88D-01 DCOld= 1.00D+10 DXMaxT= 5.05D-01 DXLimC= 3.00D+00 Rises=F
 Variable       Old X    -DE/DX   Delta X   Delta X   Delta X     New X
                                 (Linear)    (Quad)   (Total)
    X1       -1.81805   0.03873   0.00000   0.00000   0.00000  -1.81805
    Y1        0.00000   0.00004   0.00000   0.00000   0.00000   0.00000
    Z1        0.00000  -0.00001   0.00000   0.00000   0.00000   0.00000
    X2        1.81823  -0.03873   0.00000   0.00000   0.00000   1.81823
    Y2        0.00000  -0.00003   0.00000   0.00000   0.00000   0.00000
    Z2        0.00000   0.00002   0.00000   0.00000   0.00000   0.00000
    R1        2.08175  -0.00807  -0.05332   0.02057  -0.03275   2.04900
    R2        2.08169  -0.00805  -0.05320   0.02053  -0.03267   2.04901
    R3        2.08173  -0.00806  -0.05329   0.02058  -0.03271   2.04902
    R4        2.08168  -0.00805  -0.05319   0.02052  -0.03267   2.04902
    R5        2.08173  -0.00806  -0.05329   0.02056  -0.03273   2.04900
    R6        2.08174  -0.00806  -0.05332   0.02059  -0.03273   2.04901
    A1        1.95560  -0.01014  -0.06291  -0.02251  -0.09105   1.86455
    A2        1.95576  -0.01015  -0.06303  -0.02255  -0.09122   1.86454
    A3        1.95560  -0.01014  -0.06293  -0.02245  -0.09101   1.86459
    A4        1.86356   0.01106   0.07258   0.02450   0.09079   1.95436
    A5        1.86349   0.01106   0.07258   0.02457   0.09089   1.95438
    A6        1.86358   0.01106   0.07256   0.02453   0.09080   1.95438
    A7        1.95576  -0.01015  -0.06303  -0.02255  -0.09122   1.86454
    A8        1.95560  -0.01014  -0.06291  -0.02251  -0.09106   1.86455
    A9        1.95558  -0.01014  -0.06293  -0.02244  -0.09100   1.86458
   A10        1.86359   0.01106   0.07257   0.02449   0.09077   1.95436
   A11        1.86357   0.01106   0.07257   0.02453   0.09082   1.95438
   A12        1.86349   0.01106   0.07258   0.02457   0.09089   1.95438
    D1       -1.04712  -0.00000  -0.00003  -0.00009  -0.00011  -1.04723
    D2        3.14158   0.00000   0.00001   0.00001   0.00001   3.14159
    D3        1.04734  -0.00001  -0.00009  -0.00008  -0.00015   1.04718
    D4       -3.14157  -0.00000  -0.00001  -0.00001  -0.00002  -3.14159
    D5        1.04712   0.00000   0.00003   0.00009   0.00011   1.04723
    D6       -1.04712  -0.00000  -0.00007  -0.00000  -0.00006  -1.04718
    D7        1.04713   0.00000   0.00006  -0.00000   0.00005   1.04718
    D8       -1.04736   0.00001   0.00010   0.00009   0.00017  -1.04719
    D9        3.14158   0.00000   0.00000   0.00000   0.00001   3.14159
         Item               Value     Threshold  Converged?
 Maximum Force            0.011060     0.000450     NO 
 RMS     Force            0.008029     0.000300     NO 
 Maximum Displacement     0.188458     0.001800     NO 
 RMS     Displacement     0.081397     0.001200     NO 
 Predicted change in Energy=-7.450747D-03
 Lowest energy point so far.  Saving SCF results.
 GradGradGradGradGradGradGradGradGradGradGradGradGradGradGradGradGradGrad

 Leave Link  103 at Tue Nov 19 12:03:13 2024, MaxMem=  1073741824 cpu:               1.9 elap:               0.1
 (Enter /home/szhao/Apps/g16/l202.exe)
                          Input orientation:                          
 ---------------------------------------------------------------------
 Center     Atomic      Atomic             Coordinates (Angstroms)
 Number     Number       Type             X           Y           Z
 ---------------------------------------------------------------------
      1          6           0       -0.962069    0.000000    0.000000
      2          6           0        0.962168    0.000000    0.000000
      3          1           0        1.276111   -0.898289    0.519814
      4          1           0       -1.276016   -0.899291   -0.518056
      5          1           0        1.276118    0.899293    0.518055
      6          1           0        1.276153   -0.001013   -1.037833
      7          1           0       -1.276012    0.898288   -0.519815
      8          1           0       -1.276060    0.001011    1.037835
 ---------------------------------------------------------------------
                    Distance matrix (angstroms):
                    1          2          3          4          5
     1  C    0.000000
     2  C    1.924237   0.000000
     3  H    2.467100   1.084293   0.000000
     4  H    1.084282   2.467097   2.755091   0.000000
     5  H    2.467101   1.084285   1.797583   3.289652   0.000000
     6  H    2.467132   1.084290   1.797601   2.755111   1.797592
     7  H    1.084292   2.467099   3.289658   1.797580   2.755094
     8  H    1.084293   2.467137   2.755116   1.797592   2.755121
                    6          7          8
     6  H    0.000000
     7  H    2.755110   0.000000
     8  H    3.289710   1.797604   0.000000
 Symmetry turned off by external request.
 Stoichiometry    C2H6
 Framework group  C1[X(C2H6)]
 Deg. of freedom    18
 Full point group                 C1      NOp   1
 Rotational constants (GHZ):          77.5925164          14.3088193          14.3087832
 Leave Link  202 at Tue Nov 19 12:03:13 2024, MaxMem=  1073741824 cpu:               0.5 elap:               0.1
 (Enter /home/szhao/Apps/g16/l301.exe)
 Standard basis: 6-311+G(d,p) (5D, 7F)
 Ernie: Thresh=  0.10000D-02 Tol=  0.10000D-05 Strict=F.
    80 basis functions,   120 primitive gaussians,    82 cartesian basis functions
     9 alpha electrons        9 beta electrons
       nuclear repulsion energy        38.5927214700 Hartrees.
 IExCor= 4336 DFT=T Ex+Corr=M062X ExCW=0 ScaHFX=  0.540000
 ScaDFX=  1.000000  1.000000  1.000000  1.000000 ScalE2=  1.000000  1.000000
 IRadAn=      7 IRanWt=     -1 IRanGd=            0 ICorTp=0 IEmpDi=  4
 NAtoms=    8 NActive=    8 NUniq=    8 SFac= 1.00D+00 NAtFMM=   60 NAOKFM=F Big=F
 Integral buffers will be    131072 words long.
 Raffenetti 2 integral format.
 Two-electron integral symmetry is turned off.
 Leave Link  301 at Tue Nov 19 12:03:14 2024, MaxMem=  1073741824 cpu:               1.2 elap:               0.1
 (Enter /home/szhao/Apps/g16/l302.exe)
 NPDir=0 NMtPBC=     1 NCelOv=     1 NCel=       1 NClECP=     1 NCelD=      1
         NCelK=      1 NCelE2=     1 NClLst=     1 CellRange=     0.0.
 One-electron integrals computed using PRISM.
 NBasis=    80 RedAO= T EigKep=  5.55D-04  NBF=    80
 NBsUse=    80 1.00D-06 EigRej= -1.00D+00 NBFU=    80
 Precomputing XC quadrature grid using
 IXCGrd= 4 IRadAn=           7 IRanWt=          -1 IRanGd=           0 AccXCQ= 0.00D+00.
 Generated NRdTot=       0 NPtTot=           0 NUsed=           0 NTot=          32
 NSgBfM=    82    82    82    82    82 MxSgAt=     8 MxSgA2=     8.
 Leave Link  302 at Tue Nov 19 12:03:14 2024, MaxMem=  1073741824 cpu:               3.6 elap:               0.2
 (Enter /home/szhao/Apps/g16/l303.exe)
 DipDrv:  MaxL=1.
 Leave Link  303 at Tue Nov 19 12:03:14 2024, MaxMem=  1073741824 cpu:               0.8 elap:               0.0
 (Enter /home/szhao/Apps/g16/l401.exe)
 Initial guess from the checkpoint file:  "opt.chk"
 B after Tr=     0.000000    0.000002    0.000005
         Rot=    1.000000   -0.000002    0.000013    0.000016 Ang=  -0.00 deg.
 Guess basis will be translated and rotated to current coordinates.
 JPrj=2 DoOrth=T DoCkMO=T.
 Initial guess <Sx>= 0.0000 <Sy>= 0.0000 <Sz>= 0.0000 <S**2>= 0.0000 S= 0.0000
 Generating alternative initial guess.
 ExpMin= 4.38D-02 ExpMax= 4.56D+03 ExpMxC= 6.82D+02 IAcc=3 IRadAn=         5 AccDes= 0.00D+00
 Harris functional with IExCor= 1009 and IRadAn=       5 diagonalized for initial guess.
 HarFok:  IExCor= 1009 AccDes= 0.00D+00 IRadAn=         5 IDoV= 1 UseB2=F ITyADJ=14
 ICtDFT=  3500011 ScaDFX=  1.000000  1.000000  1.000000  1.000000
 FoFCou: FMM=F IPFlag=           0 FMFlag=      100000 FMFlg1=           0
         NFxFlg=           0 DoJE=T BraDBF=F KetDBF=T FulRan=T
         wScrn=  0.000000 ICntrl=       500 IOpCl=  0 I1Cent=   200000004 NGrid=           0
         NMat0=    1 NMatS0=      1 NMatT0=    0 NMatD0=    1 NMtDS0=    0 NMtDT0=    0
 Symmetry not used in FoFCou.
 Harris En= -79.7763750098223    
 Leave Link  401 at Tue Nov 19 12:03:14 2024, MaxMem=  1073741824 cpu:               5.7 elap:               0.3
 (Enter /home/szhao/Apps/g16/l502.exe)
 Keep R1 and R2 ints in memory in canonical form, NReq=32326806.
 FoFCou: FMM=F IPFlag=           0 FMFlag=           0 FMFlg1=           0
         NFxFlg=           0 DoJE=F BraDBF=F KetDBF=F FulRan=T
         wScrn=  0.000000 ICntrl=       600 IOpCl=  0 I1Cent=           0 NGrid=           0
         NMat0=    1 NMatS0=   3240 NMatT0=    0 NMatD0=    1 NMtDS0=    0 NMtDT0=    0
 Symmetry not used in FoFCou.
 Two-electron integral symmetry not used.
 UHF open shell SCF:
 Using DIIS extrapolation, IDIIS=  1040.
 NGot=  1073741824 LenX=  1063224738 LenY=  1063217573
 Requested convergence on RMS density matrix=1.00D-08 within 128 cycles.
 Requested convergence on MAX density matrix=1.00D-06.
 Requested convergence on             energy=1.00D-06.
 No special actions if energy rises.

 Cycle   1  Pass 1  IDiag  1:
 E= -79.7533084663304    
 DIIS: error= 8.94D-03 at cycle   1 NSaved=   1.
 NSaved= 1 IEnMin= 1 EnMin= -79.7533084663304     IErMin= 1 ErrMin= 8.94D-03
 ErrMax= 8.94D-03  0.00D+00 EMaxC= 1.00D-01 BMatC= 8.15D-03 BMatP= 8.15D-03
 IDIUse=3 WtCom= 9.11D-01 WtEn= 8.94D-02
 Coeff-Com:  0.100D+01
 Coeff-En:   0.100D+01
 Coeff:      0.100D+01
 Gap=     0.562 Goal=   None    Shift=    0.000
 Gap=     0.562 Goal=   None    Shift=    0.000
 GapD=    0.562 DampG=2.000 DampE=1.000 DampFc=2.0000 IDamp=-1.
 RMSDP=4.20D-04 MaxDP=3.92D-03              OVMax= 1.60D-02

 Cycle   2  Pass 1  IDiag  1:
 E= -79.7555405965991     Delta-E=       -0.002232130269 Rises=F Damp=F
 DIIS: error= 2.47D-03 at cycle   2 NSaved=   2.
 NSaved= 2 IEnMin= 2 EnMin= -79.7555405965991     IErMin= 2 ErrMin= 2.47D-03
 ErrMax= 2.47D-03  0.00D+00 EMaxC= 1.00D-01 BMatC= 4.89D-04 BMatP= 8.15D-03
 IDIUse=3 WtCom= 9.75D-01 WtEn= 2.47D-02
 Coeff-Com:  0.329D-01 0.967D+00
 Coeff-En:   0.000D+00 0.100D+01
 Coeff:      0.321D-01 0.968D+00
 Gap=     0.369 Goal=   None    Shift=    0.000
 Gap=     0.369 Goal=   None    Shift=    0.000
 RMSDP=1.59D-04 MaxDP=3.12D-03 DE=-2.23D-03 OVMax= 8.04D-03

 Cycle   3  Pass 1  IDiag  1:
 E= -79.7556312344375     Delta-E=       -0.000090637838 Rises=F Damp=F
 DIIS: error= 1.36D-03 at cycle   3 NSaved=   3.
 NSaved= 3 IEnMin= 3 EnMin= -79.7556312344375     IErMin= 3 ErrMin= 1.36D-03
 ErrMax= 1.36D-03  0.00D+00 EMaxC= 1.00D-01 BMatC= 2.47D-04 BMatP= 4.89D-04
 IDIUse=3 WtCom= 9.86D-01 WtEn= 1.36D-02
 Coeff-Com: -0.436D-01 0.418D+00 0.626D+00
 Coeff-En:   0.000D+00 0.168D+00 0.832D+00
 Coeff:     -0.430D-01 0.415D+00 0.628D+00
 Gap=     0.373 Goal=   None    Shift=    0.000
 Gap=     0.373 Goal=   None    Shift=    0.000
 RMSDP=5.82D-05 MaxDP=1.40D-03 DE=-9.06D-05 OVMax= 1.94D-03

 Cycle   4  Pass 1  IDiag  1:
 E= -79.7556945528589     Delta-E=       -0.000063318421 Rises=F Damp=F
 DIIS: error= 9.36D-05 at cycle   4 NSaved=   4.
 NSaved= 4 IEnMin= 4 EnMin= -79.7556945528589     IErMin= 4 ErrMin= 9.36D-05
 ErrMax= 9.36D-05  0.00D+00 EMaxC= 1.00D-01 BMatC= 1.16D-06 BMatP= 2.47D-04
 IDIUse=1 WtCom= 1.00D+00 WtEn= 0.00D+00
 Coeff-Com: -0.508D-02 0.326D-02 0.426D-01 0.959D+00
 Coeff:     -0.508D-02 0.326D-02 0.426D-01 0.959D+00
 Gap=     0.373 Goal=   None    Shift=    0.000
 Gap=     0.373 Goal=   None    Shift=    0.000
 RMSDP=8.75D-06 MaxDP=9.97D-05 DE=-6.33D-05 OVMax= 3.71D-04

 Cycle   5  Pass 1  IDiag  1:
 E= -79.7556950025264     Delta-E=       -0.000000449668 Rises=F Damp=F
 DIIS: error= 2.32D-05 at cycle   5 NSaved=   5.
 NSaved= 5 IEnMin= 5 EnMin= -79.7556950025264     IErMin= 5 ErrMin= 2.32D-05
 ErrMax= 2.32D-05  0.00D+00 EMaxC= 1.00D-01 BMatC= 5.53D-08 BMatP= 1.16D-06
 IDIUse=1 WtCom= 1.00D+00 WtEn= 0.00D+00
 Coeff-Com:  0.133D-02-0.190D-01-0.250D-01 0.129D+00 0.914D+00
 Coeff:      0.133D-02-0.190D-01-0.250D-01 0.129D+00 0.914D+00
 Gap=     0.373 Goal=   None    Shift=    0.000
 Gap=     0.373 Goal=   None    Shift=    0.000
 RMSDP=2.73D-06 MaxDP=3.66D-05 DE=-4.50D-07 OVMax= 1.13D-04

 Cycle   6  Pass 1  IDiag  1:
 E= -79.7556950254074     Delta-E=       -0.000000022881 Rises=F Damp=F
 DIIS: error= 2.75D-06 at cycle   6 NSaved=   6.
 NSaved= 6 IEnMin= 6 EnMin= -79.7556950254074     IErMin= 6 ErrMin= 2.75D-06
 ErrMax= 2.75D-06  0.00D+00 EMaxC= 1.00D-01 BMatC= 5.79D-10 BMatP= 5.53D-08
 IDIUse=1 WtCom= 1.00D+00 WtEn= 0.00D+00
 Coeff-Com: -0.657D-04 0.171D-02 0.128D-02-0.311D-01-0.448D-01 0.107D+01
 Coeff:     -0.657D-04 0.171D-02 0.128D-02-0.311D-01-0.448D-01 0.107D+01
 Gap=     0.373 Goal=   None    Shift=    0.000
 Gap=     0.373 Goal=   None    Shift=    0.000
 RMSDP=3.42D-07 MaxDP=4.25D-06 DE=-2.29D-08 OVMax= 1.66D-05

 Cycle   7  Pass 1  IDiag  1:
 E= -79.7556950257506     Delta-E=       -0.000000000343 Rises=F Damp=F
 DIIS: error= 2.43D-07 at cycle   7 NSaved=   7.
 NSaved= 7 IEnMin= 7 EnMin= -79.7556950257506     IErMin= 7 ErrMin= 2.43D-07
 ErrMax= 2.43D-07  0.00D+00 EMaxC= 1.00D-01 BMatC= 6.42D-12 BMatP= 5.79D-10
 IDIUse=1 WtCom= 1.00D+00 WtEn= 0.00D+00
 Coeff-Com: -0.885D-05-0.314D-05 0.536D-04 0.294D-02-0.150D-02-0.183D+00
 Coeff-Com:  0.118D+01
 Coeff:     -0.885D-05-0.314D-05 0.536D-04 0.294D-02-0.150D-02-0.183D+00
 Coeff:      0.118D+01
 Gap=     0.373 Goal=   None    Shift=    0.000
 Gap=     0.373 Goal=   None    Shift=    0.000
 RMSDP=5.11D-08 MaxDP=7.22D-07 DE=-3.43D-10 OVMax= 2.90D-06

 Cycle   8  Pass 1  IDiag  1:
 E= -79.7556950257571     Delta-E=       -0.000000000006 Rises=F Damp=F
 DIIS: error= 2.64D-08 at cycle   8 NSaved=   8.
 NSaved= 8 IEnMin= 8 EnMin= -79.7556950257571     IErMin= 8 ErrMin= 2.64D-08
 ErrMax= 2.64D-08  0.00D+00 EMaxC= 1.00D-01 BMatC= 1.44D-13 BMatP= 6.42D-12
 IDIUse=1 WtCom= 1.00D+00 WtEn= 0.00D+00
 Coeff-Com:  0.479D-06-0.151D-04-0.127D-04 0.211D-03 0.931D-03-0.109D-01
 Coeff-Com: -0.591D-02 0.102D+01
 Coeff:      0.479D-06-0.151D-04-0.127D-04 0.211D-03 0.931D-03-0.109D-01
 Coeff:     -0.591D-02 0.102D+01
 Gap=     0.373 Goal=   None    Shift=    0.000
 Gap=     0.373 Goal=   None    Shift=    0.000
 RMSDP=4.90D-09 MaxDP=7.60D-08 DE=-6.42D-12 OVMax= 2.55D-07

 SCF Done:  E(UM062X) =  -79.7556950258     A.U. after    8 cycles
            NFock=  8  Conv=0.49D-08     -V/T= 2.0084
 <Sx>= 0.0000 <Sy>= 0.0000 <Sz>= 0.0000 <S**2>=-0.0000 S=-0.0000
 <L.S>=  0.00000000000    
 KE= 7.909069397502D+01 PE=-2.610766457695D+02 EE= 6.363753529879D+01
 Annihilation of the first spin contaminant:
 S**2 before annihilation    -0.0000,   after     0.0000
 Leave Link  502 at Tue Nov 19 12:03:18 2024, MaxMem=  1073741824 cpu:              87.3 elap:               3.8
 (Enter /home/szhao/Apps/g16/l701.exe)
 ... and contract with generalized density number  0.
 Compute integral first derivatives.
 Leave Link  701 at Tue Nov 19 12:03:19 2024, MaxMem=  1073741824 cpu:               3.0 elap:               0.1
 (Enter /home/szhao/Apps/g16/l702.exe)
 L702 exits ... SP integral derivatives will be done elsewhere.
 Leave Link  702 at Tue Nov 19 12:03:19 2024, MaxMem=  1073741824 cpu:               0.9 elap:               0.1
 (Enter /home/szhao/Apps/g16/l703.exe)
 Integral derivatives from FoFJK, PRISM(SPDF).
 Compute integral first derivatives, UseDBF=F ICtDFT=           0.
 Calling FoFJK, ICntrl=      2127 FMM=F ISym2X=0 I1Cent= 0 IOpClX= 1 NMat=1 NMatS=1 NMatT=0.
 FoFJK:  IHMeth= 1 ICntrl=    2127 DoSepK=F KAlg= 0 I1Cent=           0 FoldK=F
 IRaf=         0 NMat=       1 IRICut=       1 DoRegI=T DoRafI=F ISym2E= 0 IDoP0=0 IntGTp=1.
 FoFCou: FMM=F IPFlag=           0 FMFlag=      100000 FMFlg1=         800
         NFxFlg=           0 DoJE=F BraDBF=F KetDBF=F FulRan=T
         wScrn=  0.000000 ICntrl=      2127 IOpCl=  1 I1Cent=           0 NGrid=           0
         NMat0=    1 NMatS0=      1 NMatT0=    0 NMatD0=    1 NMtDS0=    0 NMtDT0=    0
 Symmetry not used in FoFCou.
 Leave Link  703 at Tue Nov 19 12:03:20 2024, MaxMem=  1073741824 cpu:              21.6 elap:               0.9
 (Enter /home/szhao/Apps/g16/l716.exe)
 Dipole        =-3.97662342D-07-5.19687402D-07-1.39851411D-06
 -------------------------------------------------------------------
 Center     Atomic                   Forces (Hartrees/Bohr)
 Number     Number              X              Y              Z
 -------------------------------------------------------------------
      1        6          -0.000000000   -0.000000000   -0.000000000
      2        6          -0.000000000   -0.000000000   -0.000000000
      3        1          -0.000196764   -0.001079619    0.000624349
      4        1           0.000195373   -0.001086761   -0.000625646
      5        1          -0.000195932    0.001085320    0.000624950
      6        1          -0.000197082   -0.000001528   -0.001248184
      7        1           0.000196658    0.001080004   -0.000624376
      8        1           0.000197759    0.000001581    0.001246381
 -------------------------------------------------------------------
 Cartesian Forces:  Max     0.001248184 RMS     0.000632322
 Leave Link  716 at Tue Nov 19 12:03:20 2024, MaxMem=  1073741824 cpu:               0.9 elap:               0.1
 (Enter /home/szhao/Apps/g16/l103.exe)

 GradGradGradGradGradGradGradGradGradGradGradGradGradGradGradGradGradGrad
 Berny optimization.
 Using GEDIIS/GDIIS optimizer.
 FormGI is forming the generalized inverse of G from B-inverse, IUseBI=4.
 Internal  Forces:  Max     0.001143703 RMS     0.000620364
 Search for a local minimum.
 Step number   3 out of a maximum of   43
 All quantities printed in internal units (Hartrees-Bohrs-Radians)
 RMS Force = .66679D-03 SwitMx=.10000D-02 MixMth= 2
 Mixed Optimization -- En-DIIS/RFO-DIIS
 Update second derivatives using D2CorX and points    2    3
 DE= -6.94D-03 DEPred=-7.45D-03 R= 9.32D-01
 TightC=F SS=  1.41D+00  RLast= 3.25D-01 DXNew= 8.4853D-01 9.7536D-01
 Trust test= 9.32D-01 RLast= 3.25D-01 DXMaxT set to 8.49D-01
 ITU=  1  1  0
 Use linear search instead of GDIIS.
     Eigenvalues ---    0.00230   0.06202   0.06202   0.06202   0.06202
     Eigenvalues ---    0.11235   0.16000   0.16000   0.16000   0.16000
     Eigenvalues ---    0.16000   0.30277   0.30278   0.30280   0.30284
     Eigenvalues ---    0.30287   0.335251000.000001000.000001000.00000
     Eigenvalues --- 1000.000001000.000001000.000001000.000001000.00000
     Eigenvalues --- 1000.000001000.000001000.000001000.000001000.00000
     Eigenvalues --- 1000.000001000.000001000.00000
 RFO step:  Lambda=-4.18441168D-05 EMin= 2.30000000D-03
 Quartic linear search produced a step of  0.03089.
 Iteration  1 RMS(Cart)=  0.00455958 RMS(Int)=  0.00010047
 Iteration  2 RMS(Cart)=  0.00002159 RMS(Int)=  0.00009915
 Iteration  3 RMS(Cart)=  0.00000000 RMS(Int)=  0.00009915
 ITry= 1 IFail=0 DXMaxC= 8.93D-03 DCOld= 1.00D+10 DXMaxT= 8.49D-01 DXLimC= 3.00D+00 Rises=F
 Variable       Old X    -DE/DX   Delta X   Delta X   Delta X     New X
                                 (Linear)    (Quad)   (Total)
    X1       -1.81805   0.00059   0.00000   0.00000   0.00000  -1.81805
    Y1        0.00000  -0.00001   0.00000   0.00000   0.00000   0.00000
    Z1        0.00000  -0.00000   0.00000   0.00000   0.00000   0.00000
    X2        1.81823  -0.00059   0.00000   0.00000   0.00000   1.81823
    Y2        0.00000   0.00000   0.00000   0.00000   0.00000   0.00000
    Z2        0.00000   0.00000   0.00000   0.00000   0.00000   0.00000
    R1        2.04900   0.00114  -0.00101   0.00419   0.00318   2.05217
    R2        2.04901   0.00114  -0.00101   0.00416   0.00315   2.05217
    R3        2.04902   0.00114  -0.00101   0.00416   0.00315   2.05217
    R4        2.04902   0.00114  -0.00101   0.00416   0.00315   2.05217
    R5        2.04900   0.00114  -0.00101   0.00418   0.00317   2.05217
    R6        2.04901   0.00114  -0.00101   0.00417   0.00315   2.05217
    A1        1.86455  -0.00062  -0.00281  -0.00203  -0.00500   1.85955
    A2        1.86454  -0.00062  -0.00282  -0.00202  -0.00499   1.85955
    A3        1.86459  -0.00063  -0.00281  -0.00204  -0.00500   1.85958
    A4        1.95436   0.00056   0.00280   0.00183   0.00446   1.95881
    A5        1.95438   0.00056   0.00281   0.00182   0.00445   1.95883
    A6        1.95438   0.00056   0.00280   0.00182   0.00445   1.95883
    A7        1.86454  -0.00062  -0.00282  -0.00202  -0.00499   1.85955
    A8        1.86455  -0.00063  -0.00281  -0.00203  -0.00500   1.85955
    A9        1.86458  -0.00063  -0.00281  -0.00204  -0.00500   1.85958
   A10        1.95436   0.00056   0.00280   0.00183   0.00445   1.95881
   A11        1.95438   0.00056   0.00280   0.00182   0.00445   1.95883
   A12        1.95438   0.00056   0.00281   0.00182   0.00445   1.95883
    D1       -1.04723   0.00000  -0.00000   0.00001   0.00001  -1.04722
    D2        3.14159   0.00000   0.00000   0.00000   0.00000   3.14159
    D3        1.04718   0.00000  -0.00000   0.00001   0.00000   1.04718
    D4       -3.14159  -0.00000  -0.00000  -0.00000  -0.00000   3.14159
    D5        1.04723  -0.00000   0.00000  -0.00001  -0.00001   1.04722
    D6       -1.04718  -0.00000  -0.00000  -0.00000  -0.00000  -1.04719
    D7        1.04718   0.00000   0.00000   0.00000   0.00000   1.04718
    D8       -1.04719  -0.00000   0.00001  -0.00001  -0.00000  -1.04719
    D9        3.14159   0.00000   0.00000   0.00000   0.00000   3.14159
         Item               Value     Threshold  Converged?
 Maximum Force            0.001144     0.000450     NO 
 RMS     Force            0.000667     0.000300     NO 
 Maximum Displacement     0.008926     0.001800     NO 
 RMS     Displacement     0.004574     0.001200     NO 
 Predicted change in Energy=-2.827894D-05
 Lowest energy point so far.  Saving SCF results.
 GradGradGradGradGradGradGradGradGradGradGradGradGradGradGradGradGradGrad

 Leave Link  103 at Tue Nov 19 12:03:20 2024, MaxMem=  1073741824 cpu:               1.3 elap:               0.1
 (Enter /home/szhao/Apps/g16/l202.exe)
                          Input orientation:                          
 ---------------------------------------------------------------------
 Center     Atomic      Atomic             Coordinates (Angstroms)
 Number     Number       Type             X           Y           Z
 ---------------------------------------------------------------------
      1          6           0       -0.962069    0.000000    0.000000
      2          6           0        0.962168    0.000000    0.000000
      3          1           0        1.271398   -0.901020    0.521392
      4          1           0       -1.271301   -0.902037   -0.519634
      5          1           0        1.271401    0.902037    0.519632
      6          1           0        1.271433   -0.001016   -1.040991
      7          1           0       -1.271300    0.901020   -0.521392
      8          1           0       -1.271336    0.001016    1.040990
 ---------------------------------------------------------------------
                    Distance matrix (angstroms):
                    1          2          3          4          5
     1  C    0.000000
     2  C    1.924237   0.000000
     3  H    2.464156   1.085960   0.000000
     4  H    1.085962   2.464158   2.747555   0.000000
     5  H    2.464159   1.085962   1.803057   3.286349   0.000000
     6  H    2.464183   1.085960   1.803066   2.747572   1.803067
     7  H    1.085960   2.464156   3.286344   1.803058   2.747555
     8  H    1.085959   2.464184   2.747572   1.803067   2.747575
                    6          7          8
     6  H    0.000000
     7  H    2.747571   0.000000
     8  H    3.286385   1.803065   0.000000
[...]
    A6        1.95883  -0.00003  -0.00023   0.00005  -0.00018   1.95865
    A7        1.85955   0.00003   0.00026  -0.00006   0.00020   1.85975
    A8        1.85955   0.00003   0.00026  -0.00006   0.00020   1.85975
    A9        1.85958   0.00003   0.00026  -0.00005   0.00021   1.85979
   A10        1.95881  -0.00003  -0.00023   0.00005  -0.00018   1.95863
   A11        1.95883  -0.00003  -0.00023   0.00005  -0.00018   1.95865
   A12        1.95883  -0.00003  -0.00023   0.00005  -0.00018   1.95865
    D1       -1.04722  -0.00000  -0.00000  -0.00000  -0.00000  -1.04722
    D2        3.14159  -0.00000  -0.00000   0.00000   0.00000   3.14159
    D3        1.04718   0.00000  -0.00000   0.00000   0.00000   1.04719
    D4        3.14159   0.00000   0.00000   0.00000   0.00000   3.14159
    D5        1.04722   0.00000   0.00000   0.00000   0.00000   1.04722
    D6       -1.04719   0.00000   0.00000   0.00000   0.00000  -1.04718
    D7        1.04718  -0.00000  -0.00000  -0.00000  -0.00000   1.04718
    D8       -1.04719  -0.00000   0.00000  -0.00000  -0.00000  -1.04719
    D9        3.14159  -0.00000  -0.00000   0.00000   0.00000   3.14159
         Item               Value     Threshold  Converged?
 Maximum Force            0.000122     0.000450     YES
 RMS     Force            0.000060     0.000300     YES
 Maximum Displacement     0.000435     0.001800     YES
 RMS     Displacement     0.000226     0.001200     YES
 Predicted change in Energy=-1.520851D-07
 Optimization completed.
    -- Stationary point found.
                           ----------------------------
                           !   Optimized Parameters   !
                           ! (Angstroms and Degrees)  !
 --------------------------                            --------------------------
 ! Name  Definition              Value          Derivative Info.                !
 --------------------------------------------------------------------------------
 ! X1    R(1,-1)                -0.9621         -DE/DX =    0.0                 !
 ! Y1    R(1,-2)                 0.0            -DE/DX =    0.0                 !
 ! Z1    R(1,-3)                 0.0            -DE/DX =    0.0                 !
 ! X2    R(2,-1)                 0.9622         -DE/DX =    0.0                 !
 ! Y2    R(2,-2)                 0.0            -DE/DX =    0.0                 !
 ! Z2    R(2,-3)                 0.0            -DE/DX =    0.0                 !
 ! R1    R(1,4)                  1.086          -DE/DX =   -0.0001              !
 ! R2    R(1,7)                  1.086          -DE/DX =   -0.0001              !
 ! R3    R(1,8)                  1.086          -DE/DX =   -0.0001              !
 ! R4    R(2,3)                  1.086          -DE/DX =   -0.0001              !
 ! R5    R(2,5)                  1.086          -DE/DX =   -0.0001              !
 ! R6    R(2,6)                  1.086          -DE/DX =   -0.0001              !
 ! A1    A(2,1,4)              106.5442         -DE/DX =    0.0                 !
 ! A2    A(2,1,7)              106.5441         -DE/DX =    0.0                 !
 ! A3    A(2,1,8)              106.5461         -DE/DX =    0.0                 !
 ! A4    A(4,1,7)              112.2317         -DE/DX =    0.0                 !
 ! A5    A(4,1,8)              112.2327         -DE/DX =    0.0                 !
 ! A6    A(7,1,8)              112.2327         -DE/DX =    0.0                 !
 ! A7    A(1,2,3)              106.5441         -DE/DX =    0.0                 !
 ! A8    A(1,2,5)              106.5442         -DE/DX =    0.0                 !
 ! A9    A(1,2,6)              106.546          -DE/DX =    0.0                 !
 ! A10   A(3,2,5)              112.2317         -DE/DX =    0.0                 !
 ! A11   A(3,2,6)              112.2327         -DE/DX =    0.0                 !
 ! A12   A(5,2,6)              112.2327         -DE/DX =    0.0                 !
 ! D1    D(4,1,2,3)            -60.0014         -DE/DX =    0.0                 !
 ! D2    D(4,1,2,5)            180.0            -DE/DX =    0.0                 !
 ! D3    D(4,1,2,6)             59.9993         -DE/DX =    0.0                 !
 ! D4    D(7,1,2,3)            180.0            -DE/DX =    0.0                 !
 ! D5    D(7,1,2,5)             60.0014         -DE/DX =    0.0                 !
 ! D6    D(7,1,2,6)            -59.9993         -DE/DX =    0.0                 !
 ! D7    D(8,1,2,3)             59.9993         -DE/DX =    0.0                 !
 ! D8    D(8,1,2,5)            -59.9993         -DE/DX =    0.0                 !
 ! D9    D(8,1,2,6)            180.0            -DE/DX =    0.0                 !
 --------------------------------------------------------------------------------
 Lowest energy point so far.  Saving SCF results.
 Largest change from initial coordinates is atom    7       0.190 Angstoms.
 GradGradGradGradGradGradGradGradGradGradGradGradGradGradGradGradGradGrad

 Leave Link  103 at Tue Nov 19 12:03:26 2024, MaxMem=  1073741824 cpu:               1.5 elap:               0.1
 (Enter /home/szhao/Apps/g16/l202.exe)
                          Input orientation:                          
 ---------------------------------------------------------------------
 Center     Atomic      Atomic             Coordinates (Angstroms)
 Number     Number       Type             X           Y           Z
 ---------------------------------------------------------------------
      1          6           0       -0.962069    0.000000    0.000000
      2          6           0        0.962168    0.000000    0.000000
      3          1           0        1.271398   -0.901020    0.521392
      4          1           0       -1.271301   -0.902037   -0.519634
      5          1           0        1.271401    0.902037    0.519632
      6          1           0        1.271433   -0.001016   -1.040991
      7          1           0       -1.271300    0.901020   -0.521392
      8          1           0       -1.271336    0.001016    1.040990
 ---------------------------------------------------------------------
                    Distance matrix (angstroms):
                    1          2          3          4          5
     1  C    0.000000
     2  C    1.924237   0.000000
     3  H    2.464156   1.085960   0.000000
     4  H    1.085962   2.464158   2.747555   0.000000
     5  H    2.464159   1.085962   1.803057   3.286349   0.000000
     6  H    2.464183   1.085960   1.803066   2.747572   1.803067
     7  H    1.085960   2.464156   3.286344   1.803058   2.747555
     8  H    1.085959   2.464184   2.747572   1.803067   2.747575
                    6          7          8
     6  H    0.000000
     7  H    2.747571   0.000000
     8  H    3.286385   1.803065   0.000000
 Symmetry turned off by external request.
 Stoichiometry    C2H6
 Framework group  C1[X(C2H6)]
 Deg. of freedom    18
 Full point group                 C1      NOp   1
 Rotational constants (GHZ):          77.1223253          14.3302325          14.3302156
 Leave Link  202 at Tue Nov 19 12:03:26 2024, MaxMem=  1073741824 cpu:               0.4 elap:               0.1
 (Enter /home/szhao/Apps/g16/l601.exe)
 Copying SCF densities to generalized density rwf, IOpCl= 1 IROHF=0.

 **********************************************************************

            Population analysis using the SCF density.

 **********************************************************************

 Alpha  occ. eigenvalues --  -10.54185 -10.54174  -0.79768  -0.72111  -0.48573
 Alpha  occ. eigenvalues --   -0.48572  -0.43699  -0.43698  -0.34842
 Alpha virt. eigenvalues --    0.02295   0.03181   0.05640   0.05640   0.08548
 Alpha virt. eigenvalues --    0.08548   0.09371   0.12767   0.14766   0.18263
 Alpha virt. eigenvalues --    0.18263   0.21936   0.21936   0.24270   0.27219
 Alpha virt. eigenvalues --    0.41458   0.41458   0.48850   0.48851   0.50202
 Alpha virt. eigenvalues --    0.54017   0.64509   0.64510   0.69353   0.69353
 Alpha virt. eigenvalues --    0.70179   0.77882   0.89194   0.95035   1.03457
 Alpha virt. eigenvalues --    1.03458   1.23910   1.23911   1.38232   1.49299
 Alpha virt. eigenvalues --    1.49497   1.59126   1.59126   1.59310   1.59310
 Alpha virt. eigenvalues --    1.69792   1.69792   1.77144   1.84317   1.84318
 Alpha virt. eigenvalues --    1.95599   2.01916   2.12891   2.12892   2.30404
 Alpha virt. eigenvalues --    2.30404   2.41357   2.48663   2.48663   2.53779
 Alpha virt. eigenvalues --    2.58761   2.58762   2.60312   2.60314   2.63166
 Alpha virt. eigenvalues --    2.63166   2.72136   2.85324   2.92625   3.54173
 Alpha virt. eigenvalues --    3.75945   3.75947   3.83031   3.83031  23.98198
 Alpha virt. eigenvalues --   24.02272
  Beta  occ. eigenvalues --  -10.54185 -10.54174  -0.79768  -0.72111  -0.48573
  Beta  occ. eigenvalues --   -0.48572  -0.43699  -0.43698  -0.34842
  Beta virt. eigenvalues --    0.02295   0.03181   0.05640   0.05640   0.08548
  Beta virt. eigenvalues --    0.08548   0.09371   0.12767   0.14766   0.18263
  Beta virt. eigenvalues --    0.18263   0.21936   0.21936   0.24270   0.27219
  Beta virt. eigenvalues --    0.41458   0.41458   0.48850   0.48851   0.50202
  Beta virt. eigenvalues --    0.54017   0.64509   0.64510   0.69353   0.69353
  Beta virt. eigenvalues --    0.70179   0.77882   0.89194   0.95035   1.03457
  Beta virt. eigenvalues --    1.03458   1.23910   1.23911   1.38232   1.49299
  Beta virt. eigenvalues --    1.49497   1.59126   1.59126   1.59310   1.59310
  Beta virt. eigenvalues --    1.69792   1.69792   1.77144   1.84317   1.84318
  Beta virt. eigenvalues --    1.95599   2.01916   2.12891   2.12892   2.30404
  Beta virt. eigenvalues --    2.30404   2.41357   2.48663   2.48663   2.53779
  Beta virt. eigenvalues --    2.58761   2.58762   2.60312   2.60314   2.63166
  Beta virt. eigenvalues --    2.63166   2.72136   2.85324   2.92625   3.54173
  Beta virt. eigenvalues --    3.75945   3.75947   3.83031   3.83031  23.98198
  Beta virt. eigenvalues --   24.02272
          Condensed to atoms (all electrons):
               1          2          3          4          5          6
     1  C    5.127168   0.244523  -0.027915   0.402005  -0.027915  -0.027911
     2  C    0.244523   5.127168   0.402005  -0.027915   0.402004   0.402003
     3  H   -0.027915   0.402005   0.516038  -0.001973  -0.026967  -0.026966
     4  H    0.402005  -0.027915  -0.001973   0.516038   0.003098  -0.001973
     5  H   -0.027915   0.402004  -0.026967   0.003098   0.516038  -0.026966
     6  H   -0.027911   0.402003  -0.026966  -0.001973  -0.026966   0.516036
     7  H    0.402005  -0.027915   0.003098  -0.026967  -0.001973  -0.001973
     8  H    0.402003  -0.027911  -0.001973  -0.026966  -0.001973   0.003097
               7          8
     1  C    0.402005   0.402003
     2  C   -0.027915  -0.027911
     3  H    0.003098  -0.001973
     4  H   -0.026967  -0.026966
     5  H   -0.001973  -0.001973
     6  H   -0.001973   0.003097
     7  H    0.516038  -0.026966
     8  H   -0.026966   0.516036
          Atomic-Atomic Spin Densities.
               1          2          3          4          5          6
     1  C   -0.000000   0.000000  -0.000000  -0.000000  -0.000000  -0.000000
     2  C    0.000000   0.000000  -0.000000   0.000000   0.000000  -0.000000
     3  H   -0.000000  -0.000000  -0.000000  -0.000000  -0.000000   0.000000
     4  H   -0.000000   0.000000  -0.000000   0.000000   0.000000   0.000000
     5  H   -0.000000   0.000000  -0.000000   0.000000  -0.000000  -0.000000
     6  H   -0.000000  -0.000000   0.000000   0.000000  -0.000000  -0.000000
     7  H   -0.000000   0.000000   0.000000   0.000000   0.000000  -0.000000
     8  H   -0.000000   0.000000  -0.000000   0.000000  -0.000000  -0.000000
               7          8
     1  C   -0.000000  -0.000000
     2  C    0.000000   0.000000
     3  H    0.000000  -0.000000
     4  H    0.000000   0.000000
     5  H    0.000000  -0.000000
     6  H   -0.000000  -0.000000
     7  H    0.000000   0.000000
     8  H    0.000000   0.000000
 Mulliken charges and spin densities:
               1          2
     1  C   -0.493963  -0.000000
     2  C   -0.493963   0.000000
     3  H    0.164655  -0.000000
     4  H    0.164655   0.000000
     5  H    0.164655  -0.000000
     6  H    0.164653  -0.000000
     7  H    0.164655   0.000000
     8  H    0.164653   0.000000
 Sum of Mulliken charges =  -0.00000  -0.00000
 Mulliken charges and spin densities with hydrogens summed into heavy atoms:
               1          2
     1  C   -0.000000  -0.000000
     2  C    0.000000   0.000000
 Electronic spatial extent (au):  <R**2>=            131.2768
 Charge=             -0.0000 electrons
 Dipole moment (field-independent basis, Debye):
    X=              0.0000    Y=              0.0000    Z=              0.0000  Tot=              0.0000
 Quadrupole moment (field-independent basis, Debye-Ang):
   XX=            -15.5996   YY=            -14.9025   ZZ=            -14.9024
   XY=              0.0000   XZ=             -0.0001   YZ=             -0.0000
 Traceless Quadrupole moment (field-independent basis, Debye-Ang):
   XX=             -0.4648   YY=              0.2324   ZZ=              0.2324
   XY=              0.0000   XZ=             -0.0001   YZ=             -0.0000
 Octapole moment (field-independent basis, Debye-Ang**2):
  XXX=             -0.0023  YYY=              0.0000  ZZZ=              0.0000  XYY=             -0.0007
  XXY=              0.0000  XXZ=              0.0000  XZZ=             -0.0007  YZZ=             -0.0000
  YYZ=              0.0000  XYZ=             -0.0000
 Hexadecapole moment (field-independent basis, Debye-Ang**3):
 XXXX=           -130.5705 YYYY=            -30.1812 ZZZZ=            -30.1813 XXXY=             -0.0000
 XXXZ=             -0.0005 YYYX=              0.0060 YYYZ=             -0.0000 ZZZX=             -2.0695
 ZZZY=             -0.0000 XXYY=            -24.2982 XXZZ=            -24.2978 YYZZ=            -10.0604
 XXYZ=              0.0000 YYXZ=              2.0694 ZZXY=             -0.0061
 N-N= 3.857319879339D+01 E-N=-2.610297944810D+02  KE= 7.907808515612D+01
                          Isotropic Fermi Contact Couplings
        Atom                 a.u.       MegaHertz       Gauss      10(-4) cm-1
     1  C(13)             -0.00000      -0.00000      -0.00000      -0.00000
     2  C(13)             -0.00000      -0.00000      -0.00000      -0.00000
     3  H(1)              -0.00000      -0.00000      -0.00000      -0.00000
     4  H(1)               0.00000       0.00000       0.00000       0.00000
     5  H(1)              -0.00000      -0.00000      -0.00000      -0.00000
     6  H(1)              -0.00000      -0.00000      -0.00000      -0.00000
     7  H(1)              -0.00000      -0.00000      -0.00000      -0.00000
     8  H(1)               0.00000       0.00000       0.00000       0.00000
 --------------------------------------------------------
       Center         ----  Spin Dipole Couplings  ----
                      3XX-RR        3YY-RR        3ZZ-RR
 --------------------------------------------------------
     1   Atom        0.000000      0.000000      0.000000
     2   Atom        0.000000      0.000000      0.000000
     3   Atom        0.000000      0.000000      0.000000
     4   Atom        0.000000      0.000000      0.000000
     5   Atom        0.000000      0.000000      0.000000
     6   Atom        0.000000      0.000000      0.000000
     7   Atom        0.000000      0.000000      0.000000
     8   Atom        0.000000      0.000000      0.000000
 --------------------------------------------------------
                        XY            XZ            YZ
 --------------------------------------------------------
     1   Atom        0.000000      0.000000      0.000000
     2   Atom        0.000000      0.000000      0.000000
     3   Atom        0.000000      0.000000      0.000000
     4   Atom        0.000000      0.000000      0.000000
     5   Atom        0.000000      0.000000      0.000000
     6   Atom        0.000000      0.000000      0.000000
     7   Atom        0.000000      0.000000      0.000000
     8   Atom        0.000000      0.000000      0.000000
 --------------------------------------------------------


 ---------------------------------------------------------------------------------
              Anisotropic Spin Dipole Couplings in Principal Axis System
 ---------------------------------------------------------------------------------

       Atom             a.u.   MegaHertz   Gauss  10(-4) cm-1        Axes

              Baa     0.0000     0.000     0.000     0.000  1.0000  0.0000  0.0000
     1 C(13)  Bbb     0.0000     0.000     0.000     0.000 -0.0000  1.0000  0.0000
              Bcc     0.0000     0.000     0.000     0.000  0.0000  0.0000  1.0000
 
              Baa     0.0000     0.000     0.000     0.000  1.0000  0.0000  0.0000
     2 C(13)  Bbb     0.0000     0.000     0.000     0.000 -0.0000  1.0000  0.0000
              Bcc     0.0000     0.000     0.000     0.000  0.0000  0.0000  1.0000
 
              Baa     0.0000     0.000     0.000     0.000  1.0000  0.0000  0.0000
     3 H(1)   Bbb     0.0000     0.000     0.000     0.000 -0.0000  1.0000  0.0000
              Bcc     0.0000     0.000     0.000     0.000  0.0000  0.0000  1.0000
 
              Baa     0.0000     0.000     0.000     0.000  1.0000  0.0000  0.0000
     4 H(1)   Bbb     0.0000     0.000     0.000     0.000 -0.0000  1.0000  0.0000
              Bcc     0.0000     0.000     0.000     0.000  0.0000  0.0000  1.0000
 
              Baa     0.0000     0.000     0.000     0.000  1.0000  0.0000  0.0000
     5 H(1)   Bbb     0.0000     0.000     0.000     0.000 -0.0000  1.0000  0.0000
              Bcc     0.0000     0.000     0.000     0.000  0.0000  0.0000  1.0000
 
              Baa     0.0000     0.000     0.000     0.000  1.0000  0.0000  0.0000
     6 H(1)   Bbb     0.0000     0.000     0.000     0.000 -0.0000  1.0000  0.0000
              Bcc     0.0000     0.000     0.000     0.000  0.0000  0.0000  1.0000
 
              Baa     0.0000     0.000     0.000     0.000  1.0000  0.0000  0.0000
     7 H(1)   Bbb     0.0000     0.000     0.000     0.000 -0.0000  1.0000  0.0000
              Bcc     0.0000     0.000     0.000     0.000  0.0000  0.0000  1.0000
 
              Baa     0.0000     0.000     0.000     0.000  1.0000  0.0000  0.0000
     8 H(1)   Bbb     0.0000     0.000     0.000     0.000 -0.0000  1.0000  0.0000
              Bcc     0.0000     0.000     0.000     0.000  0.0000  0.0000  1.0000
 

 ---------------------------------------------------------------------------------

 No NMR shielding tensors so no spin-rotation constants.
 Leave Link  601 at Tue Nov 19 12:03:26 2024, MaxMem=  1073741824 cpu:               3.0 elap:               0.2
 (Enter /home/szhao/Apps/g16/l9999.exe)
 1\1\GINC-NODE02\FOpt\UM062X\6-311+G(d,p)\C2H6\SZHAO\19-Nov-2024\0\\#p 
 opt UM062X/6-311+G** nosymm int=superfine\\Title Card Required\\0,1\C,
 -0.96206922,0.,0.\C,0.9621675,0.,0.\H,1.2713984665,-0.9010197185,0.521
 3919216\H,-1.2713014862,-0.9020370734,-0.5196335568\H,1.2714010554,0.9
 020366223,0.5196324556\H,1.271433191,-0.0010161547,-1.0409909642\H,-1.
 2712998418,0.9010200933,-0.5213916758\H,-1.2713363702,0.0010155266,1.0
 409898272\\Version=ES64L-G16RevA.03\HF=-79.7557207\S2=0.\S2-1=0.\S2A=0
 .\RMSD=1.619e-09\RMSF=6.188e-05\Dipole=0.0000002,0.,0.\Quadrupole=-0.3
 455548,0.1727481,0.1728067,0.0000017,-0.0000415,0.\PG=C01 [X(C2H6)]\\@


 IF AT FIRST YOU DON'T SUCCEED, TRY, TRY AGAIN.
 THEN GIVE UP;
 THERE'S NO USE BEING A DAMN FOOL ABOUT IT.

                                 -- W. C. FIELDS
 Job cpu time:       0 days  0 hours  8 minutes 33.2 seconds.
 Elapsed time:       0 days  0 hours  0 minutes 23.1 seconds.
 File lengths (MBytes):  RWF=     22 Int=      0 D2E=      0 Chk=      3 Scr=      2
 Normal termination of Gaussian 16 at Tue Nov 19 12:03:26 2024.
