Title Card Required                                                     
FOpt      UM062X                                                      6-311+G(d,p)        
Number of atoms                            I                6
Info1-9                                    I   N=           9
          15          15           0           0           0         110
           2          18        -502
Full Title                                 C   N=           2
Title Card Required     
Route                                      C   N=           5
#p opt UM062X/6-311+G** nosymm int=superfine SCF=NoVarAcc   
Charge                                     I                1
Multiplicity                               I                2
Number of electrons                        I               15
Number of alpha electrons                  I                8
Number of beta electrons                   I                7
Number of basis functions                  I               68
Number of independent functions            I               68
Number of point charges in /Mol/           I                0
Number of translation vectors              I                0
Atomic numbers                             I   N=           6
           6           6           1           1           1           1
Nuclear charges                            R   N=           6
  6.00000000E+00  6.00000000E+00  1.00000000E+00  1.00000000E+00  1.00000000E+00
  1.00000000E+00
Current cartesian coordinates              R   N=          18
 -3.31841010E+00  0.00000000E+00  0.00000000E+00  3.31841010E+00  0.00000000E+00
  0.00000000E+00 -4.37316731E+00 -1.78068345E+00  1.38312915E-10 -4.37306693E+00
  1.78074220E+00 -6.26639707E-11  4.37316730E+00  1.78068345E+00 -1.31260751E-08
  4.37306693E+00 -1.78074220E+00 -1.33271177E-08
Number of symbols in /Mol/                 I                0
Force Field                                I                0
Atom Types                                 C   N=           6
                                                            
            
Int Atom Types                             I   N=           6
           0           0           0           0           0           0
MM charges                                 R   N=           6
  0.00000000E+00  0.00000000E+00  0.00000000E+00  0.00000000E+00  0.00000000E+00
  0.00000000E+00
Integer atomic weights                     I   N=           6
          12          12           1           1           1           1
Real atomic weights                        R   N=           6
  1.20000000E+01  1.20000000E+01  1.00782504E+00  1.00782504E+00  1.00782504E+00
  1.00782504E+00
Atom fragment info                         I   N=           6
           0           0           0           0           0           0
Atom residue num                           I   N=           6
           0           0           0           0           0           0
Nuclear spins                              I   N=           6
           0           0           1           1           1           1
Nuclear ZEff                               R   N=           6
 -3.60000000E+00 -3.60000000E+00 -1.00000000E+00 -1.00000000E+00 -1.00000000E+00
 -1.00000000E+00
Nuclear ZNuc                               R   N=           6
  6.00000000E+00  6.00000000E+00  1.00000000E+00  1.00000000E+00  1.00000000E+00
  1.00000000E+00
Nuclear QMom                               R   N=           6
  0.00000000E+00  0.00000000E+00  0.00000000E+00  0.00000000E+00  0.00000000E+00
  0.00000000E+00
Nuclear GFac                               R   N=           6
  0.00000000E+00  0.00000000E+00  2.79284600E+00  2.79284600E+00  2.79284600E+00
  2.79284600E+00
MicOpt                                     I   N=           6
          -2          -2          -1          -1          -1          -1
Number of residues                         I                0
Number of secondary structures             I                0
Redundant internal dimensions              I   N=           4
          20          10           6           4
Redundant internal coordinate indices      I   N=          80
           1          -1           0           0           1          -2
           0           0           1          -3           0           0
           2          -1           0           0           2          -2
           0           0           2          -3           0           0
           1           3           0           0           1           4
           0           0           2           5           0           0
           2           6           0           0           2           1
           3           0           2           1           4           0
           3           1           4           0           1           2
           5           0           1           2           6           0
           5           2           6           0           3           1
           2           5           3           1           2           6
           4           1           2           5           4           1
           2           6
Redundant internal coordinates             R   N=          20
 -3.31841010E+00  0.00000000E+00  0.00000000E+00  3.31841010E+00  0.00000000E+00
  0.00000000E+00  2.06962468E+00  2.06962407E+00  2.06962468E+00  2.06962407E+00
  2.10555910E+00  2.10550291E+00  2.07212330E+00  2.10555910E+00  2.10550291E+00
  2.07212330E+00  3.14159265E+00  0.00000000E+00 -0.00000000E+00  3.14159265E+00
ZRed-IntVec                                I   N=          20
          -1          -1          -1          -1          -1          -1
           0           0           0           0           0           0
           0           0           0           0           0           0
           0           0
ZRed-FPVec                                 R   N=          20
  0.00000000E+00  0.00000000E+00  0.00000000E+00  0.00000000E+00  0.00000000E+00
  0.00000000E+00  0.00000000E+00  0.00000000E+00  0.00000000E+00  0.00000000E+00
  0.00000000E+00  0.00000000E+00  0.00000000E+00  0.00000000E+00  0.00000000E+00
  0.00000000E+00  0.00000000E+00  0.00000000E+00  0.00000000E+00  0.00000000E+00
ZRed-Constraint1                           R   N=          20
 -3.31841010E+00  0.00000000E+00  0.00000000E+00  3.31841010E+00  0.00000000E+00
  0.00000000E+00  2.05067934E+00  2.05048469E+00  2.05067934E+00  2.05048469E+00
  1.98162443E+00  1.98155420E+00  2.32000667E+00  1.98162443E+00  1.98155420E+00
  2.32000667E+00  3.14159265E+00  0.00000000E+00  0.00000000E+00  3.14159265E+00
ZRed-Constraint2                           R   N=          20
 -3.31841010E+00  0.00000000E+00  0.00000000E+00  3.31841010E+00  0.00000000E+00
  0.00000000E+00  0.00000000E+00  0.00000000E+00  0.00000000E+00  0.00000000E+00
  0.00000000E+00  0.00000000E+00  0.00000000E+00  0.00000000E+00  0.00000000E+00
  0.00000000E+00  0.00000000E+00  0.00000000E+00  0.00000000E+00  0.00000000E+00
Number of contracted shells                I               28
Number of primitive shells                 I               50
Pure/Cartesian d shells                    I                0
Pure/Cartesian f shells                    I                0
Highest angular momentum                   I                2
Largest degree of contraction              I                6
Shell types                                I   N=          28
           0          -1          -1          -1          -1          -2
           0          -1          -1          -1          -1          -2
           0           0           0           1           0           0
           0           1           0           0           0           1
           0           0           0           1
Number of primitives per shell             I   N=          28
           6           3           1           1           1           1
           6           3           1           1           1           1
           3           1           1           1           3           1
           1           1           3           1           1           1
           3           1           1           1
Shell to atom map                          I   N=          28
           1           1           1           1           1           1
           2           2           2           2           2           2
           3           3           3           3           4           4
           4           4           5           5           5           5
           6           6           6           6
Primitive exponents                        R   N=          50
  4.56324000E+03  6.82024000E+02  1.54973000E+02  4.44553000E+01  1.30290000E+01
  1.82773000E+00  2.09642000E+01  4.80331000E+00  1.45933000E+00  4.83456000E-01
  1.45585000E-01  4.38000000E-02  6.26000000E-01  4.56324000E+03  6.82024000E+02
  1.54973000E+02  4.44553000E+01  1.30290000E+01  1.82773000E+00  2.09642000E+01
  4.80331000E+00  1.45933000E+00  4.83456000E-01  1.45585000E-01  4.38000000E-02
  6.26000000E-01  3.38650000E+01  5.09479000E+00  1.15879000E+00  3.25840000E-01
  1.02741000E-01  7.50000000E-01  3.38650000E+01  5.09479000E+00  1.15879000E+00
  3.25840000E-01  1.02741000E-01  7.50000000E-01  3.38650000E+01  5.09479000E+00
  1.15879000E+00  3.25840000E-01  1.02741000E-01  7.50000000E-01  3.38650000E+01
  5.09479000E+00  1.15879000E+00  3.25840000E-01  1.02741000E-01  7.50000000E-01
Contraction coefficients                   R   N=          50
  1.96665025E-03  1.52306019E-02  7.61269097E-02  2.60801033E-01  6.16462078E-01
  2.21006028E-01  1.14660081E-01  9.19999648E-01 -3.03068213E-03  1.00000000E+00
  1.00000000E+00  1.00000000E+00  1.00000000E+00  1.96665025E-03  1.52306019E-02
  7.61269097E-02  2.60801033E-01  6.16462078E-01  2.21006028E-01  1.14660081E-01
  9.19999648E-01 -3.03068213E-03  1.00000000E+00  1.00000000E+00  1.00000000E+00
  1.00000000E+00  2.54938145E-02  1.90373109E-01  8.52161486E-01  1.00000000E+00
  1.00000000E+00  1.00000000E+00  2.54938145E-02  1.90373109E-01  8.52161486E-01
  1.00000000E+00  1.00000000E+00  1.00000000E+00  2.54938145E-02  1.90373109E-01
  8.52161486E-01  1.00000000E+00  1.00000000E+00  1.00000000E+00  2.54938145E-02
  1.90373109E-01  8.52161486E-01  1.00000000E+00  1.00000000E+00  1.00000000E+00
P(S=P) Contraction coefficients            R   N=          50
  0.00000000E+00  0.00000000E+00  0.00000000E+00  0.00000000E+00  0.00000000E+00
  0.00000000E+00  4.02486927E-02  2.37593957E-01  8.15853851E-01  1.00000000E+00
  1.00000000E+00  1.00000000E+00  0.00000000E+00  0.00000000E+00  0.00000000E+00
  0.00000000E+00  0.00000000E+00  0.00000000E+00  0.00000000E+00  4.02486927E-02
  2.37593957E-01  8.15853851E-01  1.00000000E+00  1.00000000E+00  1.00000000E+00
  0.00000000E+00  0.00000000E+00  0.00000000E+00  0.00000000E+00  0.00000000E+00
  0.00000000E+00  0.00000000E+00  0.00000000E+00  0.00000000E+00  0.00000000E+00
  0.00000000E+00  0.00000000E+00  0.00000000E+00  0.00000000E+00  0.00000000E+00
  0.00000000E+00  0.00000000E+00  0.00000000E+00  0.00000000E+00  0.00000000E+00
  0.00000000E+00  0.00000000E+00  0.00000000E+00  0.00000000E+00  0.00000000E+00
Coordinates of each shell                  R   N=          84
 -3.31841010E+00  0.00000000E+00  0.00000000E+00 -3.31841010E+00  0.00000000E+00
  0.00000000E+00 -3.31841010E+00  0.00000000E+00  0.00000000E+00 -3.31841010E+00
  0.00000000E+00  0.00000000E+00 -3.31841010E+00  0.00000000E+00  0.00000000E+00
 -3.31841010E+00  0.00000000E+00  0.00000000E+00  3.31841010E+00  0.00000000E+00
  0.00000000E+00  3.31841010E+00  0.00000000E+00  0.00000000E+00  3.31841010E+00
  0.00000000E+00  0.00000000E+00  3.31841010E+00  0.00000000E+00  0.00000000E+00
  3.31841010E+00  0.00000000E+00  0.00000000E+00  3.31841010E+00  0.00000000E+00
  0.00000000E+00 -4.37316731E+00 -1.78068345E+00  1.38312915E-10 -4.37316731E+00
 -1.78068345E+00  1.38312915E-10 -4.37316731E+00 -1.78068345E+00  1.38312915E-10
 -4.37316731E+00 -1.78068345E+00  1.38312915E-10 -4.37306693E+00  1.78074220E+00
 -6.26639707E-11 -4.37306693E+00  1.78074220E+00 -6.26639707E-11 -4.37306693E+00
  1.78074220E+00 -6.26639707E-11 -4.37306693E+00  1.78074220E+00 -6.26639707E-11
  4.37316730E+00  1.78068345E+00 -1.31260751E-08  4.37316730E+00  1.78068345E+00
 -1.31260751E-08  4.37316730E+00  1.78068345E+00 -1.31260751E-08  4.37316730E+00
  1.78068345E+00 -1.31260751E-08  4.37306693E+00 -1.78074220E+00 -1.33271177E-08
  4.37306693E+00 -1.78074220E+00 -1.33271177E-08  4.37306693E+00 -1.78074220E+00
 -1.33271177E-08  4.37306693E+00 -1.78074220E+00 -1.33271177E-08
Num ILSW                                   I              100
ILSW                                       I   N=         100
           1           0           0           1           2           0
           0           0           0           0        4336          -1
           7           0           0           0           2           0
           0           0           0           0           1           0
           1           1           0           0           0           0
           0           0      100000           0          -1           0
           0           0           0           0           0           0
           0           0           0           1           0           0
           0 -2000000000           1           0           0           0
           0           0           4          52           0           0
           0           0          55           0           0           0
           0           0           0           6           0           1
           0           0           0           0           0           0
           0           0           0           0           0           0
           0           0           0           0           0           0
           0           0           0           0           0           0
           0           0           0           0
Num RLSW                                   I               52
RLSW                                       R   N=          52
  1.00000000E+00  1.00000000E+00  1.00000000E+00  1.00000000E+00  5.40000000E-01
  0.00000000E+00  0.00000000E+00  1.00000000E+00  0.00000000E+00  0.00000000E+00
  0.00000000E+00  0.00000000E+00  1.00000000E+00  0.00000000E+00  0.00000000E+00
  0.00000000E+00  0.00000000E+00  1.00000000E+00  0.00000000E+00  0.00000000E+00
  0.00000000E+00  0.00000000E+00  1.00000000E+00  0.00000000E+00  0.00000000E+00
  0.00000000E+00  0.00000000E+00  1.00000000E+00  0.00000000E+00  0.00000000E+00
  0.00000000E+00  0.00000000E+00  1.00000000E+00  0.00000000E+00  0.00000000E+00
  0.00000000E+00  0.00000000E+00  0.00000000E+00  1.00000000E+00  1.00000000E+00
  0.00000000E+00  1.00000000E+00  0.00000000E+00  0.00000000E+00  0.00000000E+00
  0.00000000E+00  0.00000000E+00  0.00000000E+00  0.00000000E+00  0.00000000E+00
  0.00000000E+00  0.00000000E+00
MxBond                                     I                3
NBond                                      I   N=           6
           3           3           1           1           1           1
IBond                                      I   N=          18
           2           3           4           1           5           6
           1           0           0           1           0           0
           2           0           0           2           0           0
RBond                                      R   N=          18
  1.00000000E-01  1.00000000E+00  1.00000000E+00  1.00000000E-01  1.00000000E+00
  1.00000000E+00  1.00000000E+00  0.00000000E+00  0.00000000E+00  1.00000000E+00
  0.00000000E+00  0.00000000E+00  1.00000000E+00  0.00000000E+00  0.00000000E+00
  1.00000000E+00  0.00000000E+00  0.00000000E+00
Virial Ratio                               R      2.004620542519200E+00
SCF Energy                                 R     -7.791694100216574E+01
Total Energy                               R     -7.791694100216574E+01
S**2                                       R      7.634105233003599E-01
S**2 after annihilation                    R      7.500170031564317E-01
RMS Force                                  R      6.980225315377346E-06
RMS Density                                R      3.342244206506557E-09
Job Status                                 I                1
Nuclear derivative order                   I                1
External E-field                           R   N=          35
  0.00000000E+00  0.00000000E+00  0.00000000E+00  0.00000000E+00  0.00000000E+00
  0.00000000E+00  0.00000000E+00  0.00000000E+00  0.00000000E+00  0.00000000E+00
  0.00000000E+00  0.00000000E+00  0.00000000E+00  0.00000000E+00  0.00000000E+00
  0.00000000E+00  0.00000000E+00  0.00000000E+00  0.00000000E+00  0.00000000E+00
  0.00000000E+00  0.00000000E+00  0.00000000E+00  0.00000000E+00  0.00000000E+00
  0.00000000E+00  0.00000000E+00  0.00000000E+00  0.00000000E+00  0.00000000E+00
  0.00000000E+00  0.00000000E+00  0.00000000E+00  0.00000000E+00  0.00000000E+00
IOpCl                                      I                1
IROHF                                      I                0
Alpha Orbital Energies                     R   N=          68
 -1.08897685E+01 -1.08897658E+01 -1.00272650E+00 -1.00097727E+00 -7.49212585E-01
 -7.48300440E-01 -5.92269718E-01 -5.64332147E-01 -3.23242036E-01 -3.16682306E-01
 -1.29607344E-01 -1.09270326E-01 -9.42591479E-02 -7.42027089E-02 -6.65829405E-02
 -5.36456390E-02 -4.41056154E-02 -1.75758570E-02 -7.37663370E-03 -3.87361373E-05
  2.04877975E-02  6.39265613E-02  2.62236036E-01  2.72602998E-01  2.75533530E-01
  2.83099652E-01  3.34712380E-01  3.72000784E-01  3.97706477E-01  4.14375739E-01
  4.58770106E-01  4.88795333E-01  4.98825249E-01  5.62656811E-01  8.45675586E-01
  8.45680093E-01  9.30675295E-01  9.86130945E-01  9.90655523E-01  9.94401774E-01
  1.20917397E+00  1.24360878E+00  1.30058253E+00  1.30611046E+00  1.48306116E+00
  1.49150237E+00  1.57367990E+00  1.57440907E+00  1.71744899E+00  1.71746567E+00
  1.82166491E+00  1.83774251E+00  2.16923202E+00  2.20795655E+00  2.24553526E+00
  2.27899840E+00  2.28497995E+00  2.28996626E+00  2.41192737E+00  2.41486921E+00
  2.48350957E+00  2.50648246E+00  2.67460125E+00  2.76701559E+00  3.45637836E+00
  3.46644415E+00  2.35037557E+01  2.35094381E+01
Beta Orbital Energies                      R   N=          68
 -1.08814658E+01 -1.08814524E+01 -9.80740943E-01 -9.77575840E-01 -7.38906725E-01
 -7.37816639E-01 -4.86340485E-01 -3.50764172E-01 -3.04660079E-01 -2.96385669E-01
 -1.27690095E-01 -1.10169476E-01 -9.26518269E-02 -7.20523687E-02 -6.67496836E-02
 -4.60041314E-02 -3.84525367E-02 -1.47957510E-02 -1.24732377E-03  3.91571842E-03
  2.12388288E-02  7.14592166E-02  2.55342507E-01  2.71406561E-01  2.76387274E-01
  2.84873049E-01  3.57263192E-01  3.73634455E-01  4.03170306E-01  4.29999319E-01
  4.74162655E-01  5.01385388E-01  5.10995264E-01  5.81450811E-01  8.62089783E-01
  8.62103290E-01  9.58606063E-01  1.00677013E+00  1.01249067E+00  1.02151225E+00
  1.22318611E+00  1.25889843E+00  1.31455803E+00  1.32083181E+00  1.49625990E+00
  1.50534648E+00  1.58036599E+00  1.58147649E+00  1.72650519E+00  1.72655623E+00
  1.83626732E+00  1.85235889E+00  2.18446575E+00  2.22529631E+00  2.26823404E+00
  2.30702367E+00  2.31615794E+00  2.32571388E+00  2.43099934E+00  2.43271595E+00
  2.49970438E+00  2.52345278E+00  2.71948074E+00  2.81051471E+00  3.49448957E+00
  3.50432854E+00  2.35104361E+01  2.35161327E+01
Alpha MO coefficients                      R   N=        4624
 -3.93082852E-01 -3.23316586E-01  4.96503382E-04 -1.30616962E-08 -6.16695325E-13
 -7.85822946E-03  1.28165069E-03 -3.90822203E-08  1.42579587E-13  2.58718706E-03
  5.85265326E-05  9.50054023E-09  1.85479398E-13  7.84850441E-05 -6.98350647E-04
  1.24660254E-08 -1.02096620E-12  7.82993149E-04 -1.52024004E-16  1.32457557E-13
  6.32544478E-04 -3.63660784E-08  4.04721433E-01  3.32889722E-01  5.09854790E-04
 -1.34828411E-08 -4.06774873E-13  8.08949744E-03  1.32463157E-03 -4.01655611E-08
 -2.01601040E-11 -2.66195776E-03  5.27837158E-05  9.03522990E-09  2.03255028E-12
 -9.56169164E-05 -7.10663598E-04  1.20803393E-08  5.28237373E-12 -8.06321636E-04
 -9.53626125E-12  1.36985274E-13 -6.51597358E-04  3.73842430E-08 -2.17996051E-04
  2.08363521E-03 -1.57794468E-03  6.99782395E-04  1.13632082E-03 -1.11674766E-13
 -2.17993735E-04  2.08362767E-03 -1.57795282E-03  6.99716724E-04 -1.13636057E-03
  2.64177668E-15  2.24138103E-04 -2.14487928E-03  1.62653017E-03  7.21350375E-04
  1.17024910E-03 -8.76702104E-12  2.24135736E-04 -2.14487168E-03  1.62653615E-03
  7.21282902E-04 -1.17029011E-03 -8.88448123E-12  4.04722078E-01  3.32897823E-01
 -4.64954666E-04  1.46282359E-08  7.05228794E-13  8.04285485E-03 -1.49214325E-03
  3.77086176E-08 -3.69450566E-13 -2.60099605E-03  1.96017522E-04  1.58135785E-08
  2.55840591E-13 -5.88450668E-04  4.32294613E-04  1.30406160E-08 -1.11652686E-12
 -8.11157917E-04 -1.22188190E-13 -1.38031546E-13 -6.62389063E-04  3.54346130E-08
  3.93083516E-01  3.23324927E-01  4.50273503E-04 -1.42409941E-08 -3.75066251E-13
  7.81020525E-03  1.45412223E-03 -3.65525232E-08 -1.99446910E-11 -2.52442013E-03
 -1.97641391E-04 -1.60839766E-08  2.48893875E-12 -5.85910889E-04 -4.11739518E-04
 -1.33987047E-08  5.29571475E-12 -7.87972593E-04 -9.19383514E-12  1.34635642E-13
 -6.43655675E-04  3.43587293E-08  2.13738995E-04 -2.12993455E-03  1.68860260E-03
 -7.49591355E-04 -1.17968881E-03  1.61151338E-13  2.13737204E-04 -2.12993246E-03
  1.68852902E-03 -7.49528625E-04  1.17973251E-03  4.22833450E-14  2.07289028E-04
 -2.06824792E-03  1.64185492E-03  7.28859509E-04  1.14604000E-03 -8.67342290E-12
  2.07287305E-04 -2.06824605E-03  1.64178113E-03  7.28798722E-04 -1.14608252E-03
 -8.78887147E-12 -7.95268608E-02 -1.29013044E-01 -3.30100159E-02  9.36636004E-07
 -6.75254861E-12  3.65103365E-01 -4.73081258E-02  1.35853291E-06 -1.12711490E-11
  2.32447768E-01 -1.88892886E-02  4.11476770E-07 -2.44136075E-11  2.20996848E-03
 -3.21584639E-03 -1.32991243E-07  2.54704250E-11 -5.18105381E-03 -5.29367489E-12
 -6.43917366E-13 -3.51958891E-03  1.95913289E-07 -7.95286247E-02 -1.29015905E-01
  3.30107740E-02 -9.36656706E-07 -4.04924040E-10  3.65111464E-01  4.73092506E-02
 -1.35856326E-06 -5.50862808E-10  2.32452940E-01  1.88896974E-02 -4.11485928E-07
 -2.49818592E-10  2.20972315E-03  3.21606346E-03  1.32991241E-07 -5.03097972E-11
 -5.18116790E-03 -7.66519283E-11  6.61025404E-13 -3.51967634E-03  1.95917799E-07
  7.71558556E-02  9.17371084E-02 -5.14852004E-03  5.57827245E-03  1.31851324E-02
 -9.34433018E-13  7.71558695E-02  9.17369985E-02 -5.14786428E-03  5.57754629E-03
 -1.31854324E-02  4.39895836E-13  7.71575776E-02  9.17391474E-02 -5.14858195E-03
 -5.57839361E-03 -1.31854231E-02  6.98349948E-11  7.71575915E-02  9.17390374E-02
 -5.14792618E-03 -5.57766744E-03  1.31857231E-02  7.12801671E-11 -7.95424401E-02
 -1.29023716E-01 -3.42722697E-02  9.40656165E-07 -6.41321202E-12  3.64928803E-01
 -5.08644934E-02  1.37869300E-06 -1.14384593E-11  2.33554235E-01 -1.85520463E-02
  4.19132471E-07 -1.45620853E-11 -1.10284828E-02 -9.78672489E-03  4.37849033E-11
 -2.04682005E-11 -5.13813420E-03 -5.05589613E-12 -6.64581975E-13 -3.94005673E-03
  2.02683476E-07  7.95406791E-02  1.29020859E-01 -3.42715373E-02  9.40635268E-07
  4.11064268E-10 -3.64920724E-01 -5.08634434E-02  1.37866268E-06  5.65851554E-10
 -2.33549080E-01 -1.85516262E-02  4.19123205E-07  2.39929632E-10  1.10285323E-02
 -9.78665362E-03  4.67369493E-11  3.80055512E-11  5.13801960E-03  7.96860940E-11
 -6.83272778E-13  3.93997890E-03 -2.02679160E-07  7.77539168E-02  9.21449178E-02
 -2.75502156E-03  5.46972851E-03  1.31220264E-02 -6.31426059E-13  7.77538901E-02
  9.21447977E-02 -2.75462094E-03  5.46898849E-03 -1.31223128E-02  7.30848108E-13
 -7.77522061E-02 -9.21428822E-02  2.75490838E-03  5.46960485E-03  1.31217341E-02
 -6.83064237E-11 -7.77521794E-02 -9.21427621E-02  2.75450778E-03  5.46886486E-03
 -1.31220205E-02 -6.97463389E-11 -3.09259940E-09 -1.36010069E-09  4.28568797E-06
  1.59065521E-01 -8.79534132E-12 -3.06588348E-09  6.25393431E-06  2.36148446E-01
 -1.30757758E-11 -2.81970339E-07  3.30632373E-06  1.17777515E-01 -6.32328116E-12
  3.27042364E-07  1.33780105E-07 -1.97982548E-03  3.07764265E-13  7.03052412E-09
  1.25122537E-12 -2.44489138E-12 -1.37131355E-06 -2.43376116E-02  3.09332945E-09
  1.36142176E-09  4.28586707E-06  1.59071697E-01  8.89940642E-12  3.05950802E-09
  6.25420381E-06  2.36157573E-01  1.31604497E-11  2.81975873E-07  3.30645308E-06
  1.17782215E-01  6.15104134E-12 -3.27042805E-07  1.33787141E-07 -1.97977296E-03
 -4.15528258E-14 -7.03134580E-09  1.22812132E-12 -2.77709757E-10  1.37136684E-06
  2.43385749E-02 -1.05095763E-01 -1.49156107E-01 -3.53981195E-02 -8.40711880E-03
 -7.58946590E-03  2.02650364E-12  1.05095870E-01  1.49156344E-01  3.53982275E-02
  8.40667533E-03 -7.58995587E-03 -1.16641334E-12  1.05099839E-01  1.49161888E-01
  3.53992851E-02 -8.40743816E-03 -7.58975797E-03  9.76700087E-11 -1.05099946E-01
 -1.49162125E-01 -3.53993930E-02  8.40699468E-03 -7.59024797E-03 -9.84108697E-11
 -1.79741265E-08 -3.26422548E-08  4.62936251E-06  1.59511168E-01 -8.85531065E-12
  1.60505933E-07  6.96671391E-06  2.35787250E-01 -1.31797043E-11 -1.48318886E-07
  3.34965652E-06  1.21536273E-01 -6.52764446E-12  1.01853376E-08  1.82763451E-07
  1.36197198E-03  8.20409862E-14  2.11356810E-08  1.24728615E-12 -2.35547458E-12
 -1.37842007E-06 -2.49127606E-02 -1.79740787E-08 -3.26423228E-08 -4.62919696E-06
 -1.59505020E-01 -8.97177378E-12  1.60506412E-07 -6.96647230E-06 -2.35778121E-01
 -1.31510670E-11 -1.48307559E-07 -3.34952860E-06 -1.21531714E-01 -6.70923724E-12
  1.01727281E-08 -1.82758239E-07 -1.36204814E-03  3.97179572E-13  2.11354213E-08
 -1.22906621E-12  2.81240481E-10 -1.37836699E-06 -2.49118188E-02 -1.05389818E-01
 -1.49507975E-01 -3.02504387E-02 -8.25229349E-03 -7.53839192E-03  2.01900075E-12
  1.05389696E-01  1.49507663E-01  3.02505860E-02  8.25190743E-03 -7.53883637E-03
 -1.17705615E-12 -1.05385752E-01 -1.49502202E-01 -3.02490652E-02  8.25196844E-03
  7.53809881E-03 -9.63427549E-11  1.05385630E-01  1.49501890E-01  3.02492125E-02
 -8.25158239E-03  7.53854324E-03  9.70838954E-11 -2.88074602E-02 -4.86742096E-02
  1.86002142E-01 -5.51736329E-06 -7.46118770E-11  1.56758000E-01  2.82620000E-01
 -8.28762170E-06 -1.09778745E-10  1.83587863E-01  2.17409301E-01 -6.70697250E-06
 -1.18212316E-10  1.02393204E-02  1.11852933E-02 -6.67276344E-07 -4.48154774E-11
  1.16744395E-02 -2.85983368E-12  6.45811850E-13 -3.95763777E-03  3.27382498E-07
 -2.88075111E-02 -4.86742957E-02 -1.86002448E-01  5.51737139E-06  1.94071785E-09
  1.56758281E-01 -2.82620450E-01  8.28763385E-06  2.92637454E-09  1.83588165E-01
 -2.17409666E-01  6.70698209E-06  2.21407595E-09  1.02393546E-02 -1.11853178E-02
  6.67276467E-07  7.86833827E-11  1.16744600E-02  2.62979426E-10 -7.18187684E-13
 -3.95764709E-03  3.27382658E-07 -4.75958498E-02 -7.67434348E-02 -2.57419519E-02
  7.74072802E-03 -8.99138934E-03 -1.78886492E-12 -4.75962461E-02 -7.67439225E-02
 -2.57411058E-02  7.74125937E-03  8.99095879E-03 -2.39670837E-12 -4.75959228E-02
 -7.67435495E-02 -2.57419933E-02 -7.74074016E-03  8.99140375E-03  7.21023045E-11
 -4.75963190E-02 -7.67440372E-02 -2.57411472E-02 -7.74127150E-03 -8.99097321E-03
  7.11771385E-11 -3.38365000E-02 -5.71174751E-02  1.96999031E-01 -5.26861662E-06
 -1.08831784E-10  1.84609855E-01  2.90973551E-01 -7.92258897E-06 -1.69113657E-10
  2.05742087E-01  2.43888972E-01 -6.41418167E-06 -1.95915844E-10  2.90757947E-02
  2.08317535E-02 -1.19211505E-07  3.34334743E-11  1.39640007E-02 -1.04738305E-11
  6.67570148E-13 -7.08608303E-03  1.71138428E-07  3.38364558E-02  5.71174006E-02
  1.96998755E-01 -5.26860849E-06 -2.25504767E-09 -1.84609620E-01  2.90973130E-01
 -7.92257675E-06 -3.41076740E-09 -2.05741794E-01  2.43888632E-01 -6.41417157E-06
 -2.73702069E-09 -2.90757748E-02  2.08317323E-02 -1.19210417E-07 -1.49152894E-10
 -1.39639828E-02 -2.86880568E-10  7.47505856E-13  7.08607609E-03 -1.71137855E-07
 -4.77656703E-02 -7.57049860E-02 -3.03971248E-02  8.30869034E-03 -9.26559183E-03
 -3.80155167E-12 -4.77651720E-02 -7.57041958E-02 -3.03978070E-02  8.30916877E-03
  9.26512508E-03 -4.38605397E-12  4.77655984E-02  7.57048687E-02  3.03970821E-02
  8.30867830E-03 -9.26557851E-03 -9.23807933E-11  4.77651001E-02  7.57040785E-02
  3.03977643E-02  8.30915673E-03  9.26511176E-03 -9.14318004E-11 -9.04370021E-11
 -1.53274171E-10  3.42998930E-10  1.02243018E-11  1.82855350E-01  5.28776861E-10
  4.57683275E-10  1.70878063E-11  2.92805362E-01  4.36442270E-10  5.47323923E-10
  2.17447958E-11  3.13083212E-01  6.54851058E-10  4.35590043E-10  1.24543479E-11
  6.81464312E-02  3.24797136E-11 -7.79043113E-03  2.27801074E-07 -3.77151921E-11
 -1.28764073E-12 -3.25242522E-11 -5.44297078E-11  2.14160099E-09 -1.03105626E-11
  1.82856442E-01  1.59442019E-10  3.41088481E-09 -1.76268391E-11  2.92807112E-01
  3.15303233E-10  3.51678041E-09 -2.23309336E-11  3.13085039E-01 -1.04432491E-09
  1.25429046E-09 -1.27120767E-11  6.81468633E-02 -1.44962332E-10  7.79048724E-03
 -2.27802351E-07  1.23371470E-10 -1.48974854E-12 -6.44421958E-11 -6.50704791E-11
 -1.34344363E-10  2.27997468E-11 -9.04096919E-12  1.58065186E-02 -6.46678193E-11
 -6.54071671E-11 -1.53453198E-10  2.21570435E-11  1.17151262E-11  1.58065236E-02
 -5.11621048E-11 -7.46417267E-11  1.92877331E-10  1.87764277E-10 -8.77534339E-12
  1.58066136E-02 -5.14903578E-11 -7.56231147E-11  1.72978930E-10  1.88611561E-10
  5.74436546E-12  1.58066185E-02  4.89572446E-11  8.35103950E-11 -1.70116407E-10
  1.02067937E-11  1.88024269E-01 -2.85401074E-10 -1.87633615E-10  1.79152957E-11
  3.01424963E-01 -2.79202062E-10 -2.86273978E-10  2.25276965E-11  3.19018038E-01
 -8.45636734E-10 -4.04002209E-10  7.21196461E-12  7.94722065E-02 -4.16543729E-11
 -1.00145825E-02  2.33495313E-07  3.16419529E-11 -1.37994560E-12  4.85948997E-11
  8.20137885E-11 -2.10816235E-09  1.02204213E-11 -1.88023227E-01 -2.45850653E-10
 -3.38665323E-09  1.83219211E-11 -3.01423295E-01 -4.81807691E-10 -3.52514992E-09