 Entering Gaussian System, Link 0=g16
 Initial command:
 /home/szhao/Apps/g16/l1.exe "/home/szhao/tmp/Gau-62887.inp" -scrdir="/home/szhao/tmp/"
 Default is to use a total of  16 processors:
                               16 via shared-memory
                                1 via Linda
 Entering Link 1 = /home/szhao/Apps/g16/l1.exe PID=     62888.
  
 Copyright (c) 1988,1990,1992,1993,1995,1998,2003,2009,2016,
            Gaussian, Inc.  All Rights Reserved.
  
 This is part of the Gaussian(R) 16 program.  It is based on
 the Gaussian(R) 09 system (copyright 2009, Gaussian, Inc.),
 the Gaussian(R) 03 system (copyright 2003, Gaussian, Inc.),
 the Gaussian(R) 98 system (copyright 1998, Gaussian, Inc.),
 the Gaussian(R) 94 system (copyright 1995, Gaussian, Inc.),
 the Gaussian 92(TM) system (copyright 1992, Gaussian, Inc.),
 the Gaussian 90(TM) system (copyright 1990, Gaussian, Inc.),
 the Gaussian 88(TM) system (copyright 1988, Gaussian, Inc.),
 the Gaussian 86(TM) system (copyright 1986, Carnegie Mellon
 University), and the Gaussian 82(TM) system (copyright 1983,
 Carnegie Mellon University). Gaussian is a federally registered
 trademark of Gaussian, Inc.
  
 This software contains proprietary and confidential information,
 including trade secrets, belonging to Gaussian, Inc.
  
 This software is provided under written license and may be
 used, copied, transmitted, or stored only in accord with that
 written license.
  
 The following legend is applicable only to US Government
 contracts under FAR:
  
                    RESTRICTED RIGHTS LEGEND
  
 Use, reproduction and disclosure by the US Government is
 subject to restrictions as set forth in subparagraphs (a)
 and (c) of the Commercial Computer Software - Restricted
 Rights clause in FAR 52.227-19.
  
 Gaussian, Inc.
 340 Quinnipiac St., Bldg. 40, Wallingford CT 06492
  
  
 ---------------------------------------------------------------
 Warning -- This program may not be used in any manner that
 competes with the business of Gaussian, Inc. or will provide
 assistance to any competitor of Gaussian, Inc.  The licensee
 of this program is prohibited from giving any competitor of
 Gaussian, Inc. access to this program.  By using this program,
 the user acknowledges that Gaussian, Inc. is engaged in the
 business of creating and licensing software in the field of
 computational chemistry and represents and warrants to the
 licensee that it is not a competitor of Gaussian, Inc. and that
 it will not use this program in any manner prohibited above.
 ---------------------------------------------------------------
  

 Cite this work as:
 Gaussian 16, Revision A.03,
 M. J. Frisch, G. W. Trucks, H. B. Schlegel, G. E. Scuseria, 
 M. A. Robb, J. R. Cheeseman, G. Scalmani, V. Barone, 
 G. A. Petersson, H. Nakatsuji, X. Li, M. Caricato, A. V. Marenich, 
 J. Bloino, B. G. Janesko, R. Gomperts, B. Mennucci, H. P. Hratchian, 
 J. V. Ortiz, A. F. Izmaylov, J. L. Sonnenberg, D. Williams-Young, 
 F. Ding, F. Lipparini, F. Egidi, J. Goings, B. Peng, A. Petrone, 
 T. Henderson, D. Ranasinghe, V. G. Zakrzewski, J. Gao, N. Rega, 
 G. Zheng, W. Liang, M. Hada, M. Ehara, K. Toyota, R. Fukuda, 
 J. Hasegawa, M. Ishida, T. Nakajima, Y. Honda, O. Kitao, H. Nakai, 
 T. Vreven, K. Throssell, J. A. Montgomery, Jr., J. E. Peralta, 
 F. Ogliaro, M. J. Bearpark, J. J. Heyd, E. N. Brothers, K. N. Kudin, 
 V. N. Staroverov, T. A. Keith, R. Kobayashi, J. Normand, 
 K. Raghavachari, A. P. Rendell, J. C. Burant, S. S. Iyengar, 
 J. Tomasi, M. Cossi, J. M. Millam, M. Klene, C. Adamo, R. Cammi, 
 J. W. Ochterski, R. L. Martin, K. Morokuma, O. Farkas, 
 J. B. Foresman, and D. J. Fox, Gaussian, Inc., Wallingford CT, 2016.
 
 ******************************************
 Gaussian 16:  ES64L-G16RevA.03 25-Dec-2016
                 3-Dec-2024 
 ******************************************
 %chk=opt.chk
 %mem=16GB
 %nprocshared=24
 Will use up to   24 processors via shared memory.
 ---------------------------------------------------------
 #p opt UM062X/6-311+G** nosymm int=superfine SCF=NoVarAcc
 ---------------------------------------------------------
 1/18=20,19=15,26=5,38=1/1,3;
 2/9=110,12=2,15=1,17=6,18=5,40=1/2;
 3/5=4,6=6,7=111,11=2,25=1,30=1,71=1,74=-55,75=-7,116=2/1,2,3;
 4//1;
 5/5=2,38=1/2;
 6/7=2,8=2,9=2,10=2,28=1/1;
 7/30=1/1,2,3,16;
 1/18=20,19=15,26=5/3(2);
 2/9=110,15=1/2;
 99//99;
 2/9=110,15=1/2;
 3/5=4,6=6,7=111,11=2,25=1,30=1,71=1,74=-55,75=-7,116=2/1,2,3;
 4/5=5,16=3,69=1/1;
 5/5=2,38=1/2;
 7/30=1/1,2,3,16;
 1/18=20,19=15,26=5/3(-5);
 2/9=110,15=1/2;
 6/7=2,8=2,9=2,10=2,19=2,28=1/1;
 99/9=1/99;
 Leave Link    1 at Tue Dec  3 13:23:01 2024, MaxMem=  2147483648 cpu:               1.3 elap:               0.1
 (Enter /home/szhao/Apps/g16/l101.exe)
 -------------------
 Title Card Required
 -------------------
 Symbolic Z-matrix:
 Charge =  1 Multiplicity = 2
 C                    -1   -1.30603   0.        0. 
 C                    -1    1.30603   0.        0. 
 H                    0    -1.73941  -0.99488   0. 
 H                    0    -1.7393    0.99481   0. 
 H                    0     1.73941   0.99488   0. 
 H                    0     1.7393   -0.99481   0. 
 
 Add virtual bond connecting atoms C2         and C1         Dist= 4.94D+00.
 ITRead=  2  2  0  0  0  0
 MicOpt= -2 -2 -1 -1 -1 -1
 NAtoms=      6 NQM=        4 NQMF=       2 NMMI=      0 NMMIF=      0
                NMic=       0 NMicF=      0.
                    Isotopes and Nuclear Properties:
 (Nuclear quadrupole moments (NQMom) in fm**2, nuclear magnetic moments (NMagM)
  in nuclear magnetons)

  Atom         1           2           3           4           5           6
 IAtWgt=          12          12           1           1           1           1
 AtmWgt=  12.0000000  12.0000000   1.0078250   1.0078250   1.0078250   1.0078250
 NucSpn=           0           0           1           1           1           1
 AtZEff=  -0.0000000  -0.0000000  -0.0000000  -0.0000000  -0.0000000  -0.0000000
 NQMom=    0.0000000   0.0000000   0.0000000   0.0000000   0.0000000   0.0000000
 NMagM=    0.0000000   0.0000000   2.7928460   2.7928460   2.7928460   2.7928460
 AtZNuc=   6.0000000   6.0000000   1.0000000   1.0000000   1.0000000   1.0000000
 Leave Link  101 at Tue Dec  3 13:23:02 2024, MaxMem=  2147483648 cpu:              16.8 elap:               0.7
 (Enter /home/szhao/Apps/g16/l103.exe)

 GradGradGradGradGradGradGradGradGradGradGradGradGradGradGradGradGradGrad
 Berny optimization.
 Initialization pass.
                           ----------------------------
                           !    Initial Parameters    !
                           ! (Angstroms and Degrees)  !
 --------------------------                            --------------------------
 ! Name  Definition              Value          Derivative Info.                !
 --------------------------------------------------------------------------------
 ! X1    R(1,-1)                -1.306          Frozen                          !
 ! Y1    R(1,-2)                 0.0            Frozen                          !
 ! Z1    R(1,-3)                 0.0            Frozen                          !
 ! X2    R(2,-1)                 1.306          Frozen                          !
 ! Y2    R(2,-2)                 0.0            Frozen                          !
 ! Z2    R(2,-3)                 0.0            Frozen                          !
 ! R1    R(1,3)                  1.0852         estimate D2E/DX2                !
 ! R2    R(1,4)                  1.0851         estimate D2E/DX2                !
 ! R3    R(2,5)                  1.0852         estimate D2E/DX2                !
 ! R4    R(2,6)                  1.0851         estimate D2E/DX2                !
 ! A1    A(2,1,3)              113.5387         estimate D2E/DX2                !
 ! A2    A(2,1,4)              113.5347         estimate D2E/DX2                !
 ! A3    A(3,1,4)              132.9266         estimate D2E/DX2                !
 ! A4    A(1,2,5)              113.5387         estimate D2E/DX2                !
 ! A5    A(1,2,6)              113.5347         estimate D2E/DX2                !
 ! A6    A(5,2,6)              132.9266         estimate D2E/DX2                !
 ! D1    D(3,1,2,5)            180.0            estimate D2E/DX2                !
 ! D2    D(3,1,2,6)              0.0            estimate D2E/DX2                !
 ! D3    D(4,1,2,5)              0.0            estimate D2E/DX2                !
 ! D4    D(4,1,2,6)            180.0            estimate D2E/DX2                !
 --------------------------------------------------------------------------------
 Trust Radius=3.00D-01 FncErr=1.00D-07 GrdErr=1.00D-07 EigMax=2.50D+02 EigMin=1.00D-04
 Number of steps in this run=     30 maximum allowed number of steps=    100.
 GradGradGradGradGradGradGradGradGradGradGradGradGradGradGradGradGradGrad

 Leave Link  103 at Tue Dec  3 13:23:02 2024, MaxMem=  2147483648 cpu:               0.4 elap:               0.0
 (Enter /home/szhao/Apps/g16/l202.exe)
                          Input orientation:                          
 ---------------------------------------------------------------------
 Center     Atomic      Atomic             Coordinates (Angstroms)
 Number     Number       Type             X           Y           Z
 ---------------------------------------------------------------------
      1          6           0       -1.306027    0.000000    0.000000
      2          6           0        1.306027    0.000000    0.000000
      3          1           0       -1.739411   -0.994876    0.000000
      4          1           0       -1.739300    0.994812    0.000000
      5          1           0        1.739411    0.994876    0.000000
      6          1           0        1.739300   -0.994812    0.000000
 ---------------------------------------------------------------------
                    Distance matrix (angstroms):
                    1          2          3          4          5
     1  C    0.000000
     2  C    2.612054   0.000000
     3  H    1.085173   3.203821   0.000000
     4  H    1.085070   3.203696   1.989688   0.000000
     5  H    3.203821   1.085173   4.007657   3.478711   0.000000
     6  H    3.203696   1.085070   3.478711   4.007401   1.989688
                    6
     6  H    0.000000
 Symmetry turned off by external request.
 Stoichiometry    C2H4(1+,2)
 Framework group  C2H[SGH(C2H4)]
 Deg. of freedom     5
 Full point group                 C2H     NOp   4
 Rotational constants (GHZ):         126.6665947           9.5115698           8.8472198
 Leave Link  202 at Tue Dec  3 13:23:02 2024, MaxMem=  2147483648 cpu:               0.1 elap:               0.0
 (Enter /home/szhao/Apps/g16/l301.exe)
 Standard basis: 6-311+G(d,p) (5D, 7F)
 Ernie: Thresh=  0.10000D-02 Tol=  0.10000D-05 Strict=F.
    68 basis functions,   104 primitive gaussians,    70 cartesian basis functions
     8 alpha electrons        7 beta electrons
       nuclear repulsion energy        24.0616723822 Hartrees.
 IExCor= 4336 DFT=T Ex+Corr=M062X ExCW=0 ScaHFX=  0.540000
 ScaDFX=  1.000000  1.000000  1.000000  1.000000 ScalE2=  1.000000  1.000000
 IRadAn=      7 IRanWt=     -1 IRanGd=            0 ICorTp=0 IEmpDi=  4
 NAtoms=    6 NActive=    6 NUniq=    6 SFac= 1.00D+00 NAtFMM=   60 NAOKFM=F Big=F
 Integral buffers will be    131072 words long.
 Raffenetti 2 integral format.
 Two-electron integral symmetry is turned off.
 Leave Link  301 at Tue Dec  3 13:23:02 2024, MaxMem=  2147483648 cpu:               1.1 elap:               0.0
 (Enter /home/szhao/Apps/g16/l302.exe)
 NPDir=0 NMtPBC=     1 NCelOv=     1 NCel=       1 NClECP=     1 NCelD=      1
         NCelK=      1 NCelE2=     1 NClLst=     1 CellRange=     0.0.
 One-electron integrals computed using PRISM.
 NBasis=    68 RedAO= T EigKep=  4.76D-03  NBF=    68
 NBsUse=    68 1.00D-06 EigRej= -1.00D+00 NBFU=    68
 Precomputing XC quadrature grid using
 IXCGrd= 4 IRadAn=           7 IRanWt=          -1 IRanGd=           0 AccXCQ= 0.00D+00.
 Generated NRdTot=       0 NPtTot=           0 NUsed=           0 NTot=          32
 NSgBfM=    70    70    70    70    70 MxSgAt=     6 MxSgA2=     6.
 Leave Link  302 at Tue Dec  3 13:23:02 2024, MaxMem=  2147483648 cpu:               4.3 elap:               0.2
 (Enter /home/szhao/Apps/g16/l303.exe)
 DipDrv:  MaxL=1.
 Leave Link  303 at Tue Dec  3 13:23:02 2024, MaxMem=  2147483648 cpu:               0.9 elap:               0.1
 (Enter /home/szhao/Apps/g16/l401.exe)
 ExpMin= 4.38D-02 ExpMax= 4.56D+03 ExpMxC= 6.82D+02 IAcc=3 IRadAn=         7 AccDes= 0.00D+00
 Harris functional with IExCor= 1009 and IRadAn=       7 diagonalized for initial guess.
 HarFok:  IExCor= 1009 AccDes= 0.00D+00 IRadAn=         7 IDoV= 1 UseB2=F ITyADJ=14
 ICtDFT=  3500011 ScaDFX=  1.000000  1.000000  1.000000  1.000000
 FoFCou: FMM=F IPFlag=           0 FMFlag=      100000 FMFlg1=           0
         NFxFlg=           0 DoJE=T BraDBF=F KetDBF=T FulRan=T
         wScrn=  0.000000 ICntrl=       500 IOpCl=  0 I1Cent=   200000004 NGrid=           0
         NMat0=    1 NMatS0=      1 NMatT0=    0 NMatD0=    1 NMtDS0=    0 NMtDT0=    0
 Symmetry not used in FoFCou.
 Harris En= -77.9807979162485    
 JPrj=0 DoOrth=F DoCkMO=F.
 Initial guess <Sx>= 0.0000 <Sy>= 0.0000 <Sz>= 0.5000 <S**2>= 0.7500 S= 0.5000
 Leave Link  401 at Tue Dec  3 13:23:03 2024, MaxMem=  2147483648 cpu:               5.4 elap:               0.2
 (Enter /home/szhao/Apps/g16/l502.exe)
 Keep R1 and R2 ints in memory in canonical form, NReq=27031774.
 FoFCou: FMM=F IPFlag=           0 FMFlag=           0 FMFlg1=           0
         NFxFlg=           0 DoJE=F BraDBF=F KetDBF=F FulRan=T
         wScrn=  0.000000 ICntrl=       600 IOpCl=  0 I1Cent=           0 NGrid=           0
         NMat0=    1 NMatS0=   2346 NMatT0=    0 NMatD0=    1 NMtDS0=    0 NMtDT0=    0
 Symmetry not used in FoFCou.
 Two-electron integral symmetry not used.
 UHF open shell SCF:
 Using DIIS extrapolation, IDIIS=  1040.
 NGot=  2147483648 LenX=  2141965410 LenY=  2141960069
 Requested convergence on RMS density matrix=1.00D-08 within 128 cycles.
 Requested convergence on MAX density matrix=1.00D-06.
 Requested convergence on             energy=1.00D-06.
 No special actions if energy rises.

 Cycle   1  Pass 1  IDiag  1:
 E= -77.9372751434346    
 DIIS: error= 1.69D-02 at cycle   1 NSaved=   1.
 NSaved= 1 IEnMin= 1 EnMin= -77.9372751434346     IErMin= 1 ErrMin= 1.69D-02
 ErrMax= 1.69D-02  0.00D+00 EMaxC= 1.00D-01 BMatC= 5.30D-02 BMatP= 5.30D-02
 IDIUse=3 WtCom= 8.31D-01 WtEn= 1.69D-01
 Coeff-Com:  0.100D+01
 Coeff-En:   0.100D+01
 Coeff:      0.100D+01
 Gap=     0.129 Goal=   None    Shift=    0.000
 Gap=     0.260 Goal=   None    Shift=    0.000
 GapD=    0.129 DampG=1.000 DampE=0.500 DampFc=0.5000 IDamp=-1.
 Damping current iteration by 5.00D-01
 RMSDP=1.22D-03 MaxDP=1.45D-02              OVMax= 3.31D-02

 Cycle   2  Pass 1  IDiag  1:
 E= -77.9410282768522     Delta-E=       -0.003753133418 Rises=F Damp=T
 DIIS: error= 8.18D-03 at cycle   2 NSaved=   2.
 NSaved= 2 IEnMin= 2 EnMin= -77.9410282768522     IErMin= 2 ErrMin= 8.18D-03
 ErrMax= 8.18D-03  0.00D+00 EMaxC= 1.00D-01 BMatC= 1.27D-02 BMatP= 5.30D-02
 IDIUse=3 WtCom= 9.18D-01 WtEn= 8.18D-02
 Coeff-Com: -0.907D+00 0.191D+01
 Coeff-En:   0.000D+00 0.100D+01
 Coeff:     -0.833D+00 0.183D+01
 Gap=     0.129 Goal=   None    Shift=    0.000
 Gap=     0.254 Goal=   None    Shift=    0.000
 RMSDP=5.91D-04 MaxDP=8.14D-03 DE=-3.75D-03 OVMax= 1.09D-02

 Cycle   3  Pass 1  IDiag  1:
 E= -77.9448197498450     Delta-E=       -0.003791472993 Rises=F Damp=F
 DIIS: error= 1.24D-03 at cycle   3 NSaved=   3.
 NSaved= 3 IEnMin= 3 EnMin= -77.9448197498450     IErMin= 3 ErrMin= 1.24D-03
 ErrMax= 1.24D-03  0.00D+00 EMaxC= 1.00D-01 BMatC= 1.19D-04 BMatP= 1.27D-02
 IDIUse=3 WtCom= 9.88D-01 WtEn= 1.24D-02
 Coeff-Com: -0.198D+00 0.384D+00 0.814D+00
 Coeff-En:   0.000D+00 0.000D+00 0.100D+01
 Coeff:     -0.196D+00 0.380D+00 0.816D+00
 Gap=     0.129 Goal=   None    Shift=    0.000
 Gap=     0.250 Goal=   None    Shift=    0.000
 RMSDP=6.27D-05 MaxDP=2.00D-03 DE=-3.79D-03 OVMax= 2.26D-03

 Cycle   4  Pass 1  IDiag  1:
 E= -77.9448555210322     Delta-E=       -0.000035771187 Rises=F Damp=F
 DIIS: error= 3.38D-04 at cycle   4 NSaved=   4.
 NSaved= 4 IEnMin= 4 EnMin= -77.9448555210322     IErMin= 4 ErrMin= 3.38D-04
 ErrMax= 3.38D-04  0.00D+00 EMaxC= 1.00D-01 BMatC= 8.17D-06 BMatP= 1.19D-04
 IDIUse=3 WtCom= 9.97D-01 WtEn= 3.38D-03
 Coeff-Com:  0.374D-01-0.814D-01-0.133D-01 0.106D+01
 Coeff-En:   0.000D+00 0.000D+00 0.000D+00 0.100D+01
 Coeff:      0.373D-01-0.811D-01-0.133D-01 0.106D+01
 Gap=     0.129 Goal=   None    Shift=    0.000
 Gap=     0.250 Goal=   None    Shift=    0.000
 RMSDP=2.71D-05 MaxDP=9.79D-04 DE=-3.58D-05 OVMax= 1.06D-03

 Cycle   5  Pass 1  IDiag  1:
 E= -77.9448597006444     Delta-E=       -0.000004179612 Rises=F Damp=F
 DIIS: error= 1.38D-04 at cycle   5 NSaved=   5.
 NSaved= 5 IEnMin= 5 EnMin= -77.9448597006444     IErMin= 5 ErrMin= 1.38D-04
 ErrMax= 1.38D-04  0.00D+00 EMaxC= 1.00D-01 BMatC= 1.25D-06 BMatP= 8.17D-06
 IDIUse=3 WtCom= 9.99D-01 WtEn= 1.38D-03
 Coeff-Com:  0.281D-01-0.552D-01-0.104D+00 0.152D+00 0.979D+00
 Coeff-En:   0.000D+00 0.000D+00 0.000D+00 0.000D+00 0.100D+01
 Coeff:      0.281D-01-0.551D-01-0.104D+00 0.151D+00 0.979D+00
 Gap=     0.129 Goal=   None    Shift=    0.000
 Gap=     0.250 Goal=   None    Shift=    0.000
 RMSDP=1.04D-05 MaxDP=3.13D-04 DE=-4.18D-06 OVMax= 3.28D-04

 Cycle   6  Pass 1  IDiag  1:
 E= -77.9448603063612     Delta-E=       -0.000000605717 Rises=F Damp=F
 DIIS: error= 3.36D-05 at cycle   6 NSaved=   6.
 NSaved= 6 IEnMin= 6 EnMin= -77.9448603063612     IErMin= 6 ErrMin= 3.36D-05
 ErrMax= 3.36D-05  0.00D+00 EMaxC= 1.00D-01 BMatC= 5.34D-08 BMatP= 1.25D-06
 IDIUse=1 WtCom= 1.00D+00 WtEn= 0.00D+00
 Coeff-Com: -0.727D-02 0.149D-01 0.244D-01-0.107D+00-0.198D+00 0.127D+01
 Coeff:     -0.727D-02 0.149D-01 0.244D-01-0.107D+00-0.198D+00 0.127D+01
 Gap=     0.129 Goal=   None    Shift=    0.000
 Gap=     0.250 Goal=   None    Shift=    0.000
 RMSDP=2.83D-06 MaxDP=7.31D-05 DE=-6.06D-07 OVMax= 9.76D-05

 Cycle   7  Pass 1  IDiag  1:
 E= -77.9448603393040     Delta-E=       -0.000000032943 Rises=F Damp=F
 DIIS: error= 3.54D-06 at cycle   7 NSaved=   7.
 NSaved= 7 IEnMin= 7 EnMin= -77.9448603393040     IErMin= 7 ErrMin= 3.54D-06
 ErrMax= 3.54D-06  0.00D+00 EMaxC= 1.00D-01 BMatC= 4.85D-10 BMatP= 5.34D-08
 IDIUse=1 WtCom= 1.00D+00 WtEn= 0.00D+00
 Coeff-Com:  0.349D-03-0.744D-03-0.303D-03 0.750D-02 0.606D-02-0.144D+00
 Coeff-Com:  0.113D+01
 Coeff:      0.349D-03-0.744D-03-0.303D-03 0.750D-02 0.606D-02-0.144D+00
 Coeff:      0.113D+01
 Gap=     0.129 Goal=   None    Shift=    0.000
 Gap=     0.250 Goal=   None    Shift=    0.000
 RMSDP=2.26D-07 MaxDP=4.01D-06 DE=-3.29D-08 OVMax= 9.80D-06

 Cycle   8  Pass 1  IDiag  1:
 E= -77.9448603396056     Delta-E=       -0.000000000302 Rises=F Damp=F
 DIIS: error= 3.40D-07 at cycle   8 NSaved=   8.
 NSaved= 8 IEnMin= 8 EnMin= -77.9448603396056     IErMin= 8 ErrMin= 3.40D-07
 ErrMax= 3.40D-07  0.00D+00 EMaxC= 1.00D-01 BMatC= 1.04D-11 BMatP= 4.85D-10
 IDIUse=1 WtCom= 1.00D+00 WtEn= 0.00D+00
 Coeff-Com:  0.104D-04-0.141D-04-0.116D-03-0.317D-03 0.747D-04 0.150D-01
 Coeff-Com: -0.246D+00 0.123D+01
 Coeff:      0.104D-04-0.141D-04-0.116D-03-0.317D-03 0.747D-04 0.150D-01
 Coeff:     -0.246D+00 0.123D+01
 Gap=     0.129 Goal=   None    Shift=    0.000
 Gap=     0.250 Goal=   None    Shift=    0.000
 RMSDP=3.78D-08 MaxDP=6.27D-07 DE=-3.02D-10 OVMax= 1.94D-06

 Cycle   9  Pass 1  IDiag  1:
 E= -77.9448603396138     Delta-E=       -0.000000000008 Rises=F Damp=F
 DIIS: error= 6.79D-08 at cycle   9 NSaved=   9.
 NSaved= 9 IEnMin= 9 EnMin= -77.9448603396138     IErMin= 9 ErrMin= 6.79D-08
 ErrMax= 6.79D-08  0.00D+00 EMaxC= 1.00D-01 BMatC= 2.57D-13 BMatP= 1.04D-11
 IDIUse=1 WtCom= 1.00D+00 WtEn= 0.00D+00
 Coeff-Com: -0.107D-04 0.207D-04 0.262D-04-0.577D-04-0.153D-03-0.711D-03
 Coeff-Com:  0.377D-01-0.312D+00 0.128D+01
 Coeff:     -0.107D-04 0.207D-04 0.262D-04-0.577D-04-0.153D-03-0.711D-03
 Coeff:      0.377D-01-0.312D+00 0.128D+01
 Gap=     0.129 Goal=   None    Shift=    0.000
 Gap=     0.250 Goal=   None    Shift=    0.000
 RMSDP=7.03D-09 MaxDP=1.01D-07 DE=-8.21D-12 OVMax= 4.03D-07

 SCF Done:  E(UM062X) =  -77.9448603396     A.U. after    9 cycles
            NFock=  9  Conv=0.70D-08     -V/T= 2.0091
 <Sx>= 0.0000 <Sy>= 0.0000 <Sz>= 0.5000 <S**2>= 0.7523 S= 0.5011
 <L.S>=  0.00000000000    
 KE= 7.723867045977D+01 PE=-2.240877408916D+02 EE= 4.484253771002D+01
 Annihilation of the first spin contaminant:
 S**2 before annihilation     0.7523,   after     0.7500
 Leave Link  502 at Tue Dec  3 13:23:06 2024, MaxMem=  2147483648 cpu:              69.5 elap:               3.0
 (Enter /home/szhao/Apps/g16/l601.exe)
 Copying SCF densities to generalized density rwf, IOpCl= 1 IROHF=0.

 **********************************************************************

            Population analysis using the SCF density.

 **********************************************************************

 Alpha  occ. eigenvalues --  -10.92308 -10.92301  -1.03341  -1.01034  -0.79253
 Alpha  occ. eigenvalues --   -0.78356  -0.59452  -0.51970
 Alpha virt. eigenvalues --   -0.39031  -0.34392  -0.13396  -0.10628  -0.10545
 Alpha virt. eigenvalues --   -0.07797  -0.07521  -0.06294  -0.04650  -0.03742
 Alpha virt. eigenvalues --   -0.03047   0.00254   0.01741   0.08968   0.18904
 Alpha virt. eigenvalues --    0.22604   0.24009   0.32300   0.37780   0.38609
 Alpha virt. eigenvalues --    0.39500   0.42186   0.44784   0.45013   0.51904
 Alpha virt. eigenvalues --    0.56938   0.80964   0.81239   0.94845   0.96465
 Alpha virt. eigenvalues --    1.04643   1.10515   1.15854   1.23469   1.26279
 Alpha virt. eigenvalues --    1.28743   1.47724   1.48089   1.55256   1.56656
 Alpha virt. eigenvalues --    1.67484   1.72688   1.77037   1.77569   2.12592
 Alpha virt. eigenvalues --    2.23757   2.24995   2.33210   2.36028   2.36331
 Alpha virt. eigenvalues --    2.40468   2.41640   2.45531   2.46711   2.71047
 Alpha virt. eigenvalues --    2.71578   3.40613   3.43099  23.48985  23.51103
  Beta  occ. eigenvalues --  -10.92049 -10.92045  -1.00526  -0.98604  -0.78848
  Beta  occ. eigenvalues --   -0.77991  -0.57612
  Beta virt. eigenvalues --   -0.32566  -0.32169  -0.29287  -0.14495  -0.10894
  Beta virt. eigenvalues --   -0.10820  -0.07373  -0.07333  -0.06604  -0.03801
  Beta virt. eigenvalues --   -0.03337  -0.03212   0.00536   0.00609   0.09954
  Beta virt. eigenvalues --    0.18781   0.22915   0.24384   0.33452   0.36483
  Beta virt. eigenvalues --    0.38031   0.40098   0.43381   0.45913   0.46563
  Beta virt. eigenvalues --    0.53109   0.57368   0.83951   0.84084   0.98098
  Beta virt. eigenvalues --    0.99282   1.06928   1.12218   1.17027   1.24999
  Beta virt. eigenvalues --    1.29551   1.32968   1.49074   1.49550   1.56227
  Beta virt. eigenvalues --    1.57719   1.68687   1.73708   1.78494   1.78986
  Beta virt. eigenvalues --    2.15650   2.27455   2.27509   2.34837   2.37270
  Beta virt. eigenvalues --    2.37525   2.44512   2.46001   2.50074   2.50886
  Beta virt. eigenvalues --    2.73184   2.73513   3.44836   3.47372  23.50202
  Beta virt. eigenvalues --   23.52343
          Condensed to atoms (all electrons):
               1          2          3          4          5          6
     1  C    5.106629   0.246698   0.361769   0.361783  -0.007484  -0.007486
     2  C    0.246698   5.106629  -0.007484  -0.007486   0.361769   0.361783
     3  H    0.361769  -0.007484   0.373674  -0.009465   0.000093   0.000449
     4  H    0.361783  -0.007486  -0.009465   0.373681   0.000449   0.000093
     5  H   -0.007484   0.361769   0.000093   0.000449   0.373674  -0.009465
     6  H   -0.007486   0.361783   0.000449   0.000093  -0.009465   0.373681
          Atomic-Atomic Spin Densities.
               1          2          3          4          5          6
     1  C    0.524691   0.026471  -0.005264  -0.005264   0.000603   0.000603
     2  C    0.026471   0.524691   0.000603   0.000603  -0.005264  -0.005264
     3  H   -0.005264   0.000603  -0.016425   0.000220  -0.000010  -0.000044
     4  H   -0.005264   0.000603   0.000220  -0.016423  -0.000044  -0.000010
     5  H    0.000603  -0.005264  -0.000010  -0.000044  -0.016425   0.000220
     6  H    0.000603  -0.005264  -0.000044  -0.000010   0.000220  -0.016423
 Mulliken charges and spin densities:
               1          2
     1  C   -0.061909   0.541840
     2  C   -0.061909   0.541840
     3  H    0.280964  -0.020921
     4  H    0.280945  -0.020919
     5  H    0.280964  -0.020921
     6  H    0.280945  -0.020919
 Sum of Mulliken charges =   1.00000   1.00000
 Mulliken charges and spin densities with hydrogens summed into heavy atoms:
               1          2
     1  C    0.500000   0.500000
     2  C    0.500000   0.500000
 Electronic spatial extent (au):  <R**2>=            143.8532
 Charge=              1.0000 electrons
 Dipole moment (field-independent basis, Debye):
    X=             -0.0000    Y=              0.0000    Z=              0.0000  Tot=              0.0000
 Quadrupole moment (field-independent basis, Debye-Ang):
   XX=              2.9814   YY=             -8.1084   ZZ=            -12.9054
   XY=              0.0007   XZ=             -0.0000   YZ=             -0.0000
 Traceless Quadrupole moment (field-independent basis, Debye-Ang):
   XX=              8.9922   YY=             -2.0976   ZZ=             -6.8946
   XY=              0.0007   XZ=             -0.0000   YZ=             -0.0000
 Octapole moment (field-independent basis, Debye-Ang**2):
  XXX=             -0.0000  YYY=              0.0000  ZZZ=              0.0000  XYY=             -0.0000
  XXY=              0.0000  XXZ=              0.0000  XZZ=             -0.0000  YZZ=              0.0000
  YYZ=              0.0000  XYZ=              0.0000
 Hexadecapole moment (field-independent basis, Debye-Ang**3):
 XXXX=           -115.0446 YYYY=            -17.7521 ZZZZ=            -13.8561 XXXY=              0.0034
 XXXZ=              0.0000 YYYX=              0.0007 YYYZ=             -0.0000 ZZZX=             -0.0000
 ZZZY=             -0.0000 XXYY=            -12.7043 XXZZ=            -27.7431 YYZZ=             -6.7584
 XXYZ=              0.0000 YYXZ=             -0.0000 ZZXY=             -0.0005
 N-N= 2.406167238217D+01 E-N=-2.240877411850D+02  KE= 7.723867045977D+01
                          Isotropic Fermi Contact Couplings
        Atom                 a.u.       MegaHertz       Gauss      10(-4) cm-1
     1  C(13)              0.09292     104.45476      37.27206      34.84236
     2  C(13)              0.09292     104.45476      37.27206      34.84236
     3  H(1)              -0.00797     -35.64245     -12.71811     -11.88904
     4  H(1)              -0.00797     -35.63791     -12.71649     -11.88753
     5  H(1)              -0.00797     -35.64245     -12.71811     -11.88904
     6  H(1)              -0.00797     -35.63791     -12.71649     -11.88753
 --------------------------------------------------------
       Center         ----  Spin Dipole Couplings  ----
                      3XX-RR        3YY-RR        3ZZ-RR
 --------------------------------------------------------
     1   Atom       -0.293122     -0.293989      0.587110
     2   Atom       -0.293122     -0.293989      0.587110
     3   Atom       -0.020233      0.024499     -0.004266
     4   Atom       -0.020242      0.024504     -0.004262
     5   Atom       -0.020233      0.024499     -0.004266
     6   Atom       -0.020242      0.024504     -0.004262
 --------------------------------------------------------
                        XY            XZ            YZ
 --------------------------------------------------------
     1   Atom        0.000001     -0.000000     -0.000000
     2   Atom        0.000001     -0.000000     -0.000000
     3   Atom        0.030168     -0.000000      0.000000
     4   Atom       -0.030169     -0.000000     -0.000000
     5   Atom        0.030168     -0.000000      0.000000
     6   Atom       -0.030169     -0.000000     -0.000000
 --------------------------------------------------------


 ---------------------------------------------------------------------------------
              Anisotropic Spin Dipole Couplings in Principal Axis System
 ---------------------------------------------------------------------------------

       Atom             a.u.   MegaHertz   Gauss  10(-4) cm-1        Axes

              Baa    -0.2940   -39.451   -14.077   -13.159 -0.0016  1.0000  0.0000
     1 C(13)  Bbb    -0.2931   -39.334   -14.035   -13.120  1.0000  0.0016  0.0000
              Bcc     0.5871    78.785    28.112    26.280 -0.0000 -0.0000  1.0000
 
              Baa    -0.2940   -39.451   -14.077   -13.159 -0.0016  1.0000  0.0000
     2 C(13)  Bbb    -0.2931   -39.334   -14.035   -13.120  1.0000  0.0016  0.0000
              Bcc     0.5871    78.785    28.112    26.280 -0.0000 -0.0000  1.0000
 
              Baa    -0.0354   -18.899    -6.744    -6.304  0.8932 -0.4497  0.0000
     3 H(1)   Bbb    -0.0043    -2.276    -0.812    -0.759 -0.0000  0.0000  1.0000
              Bcc     0.0397    21.176     7.556     7.063  0.4497  0.8932 -0.0000
 
              Baa    -0.0354   -18.903    -6.745    -6.305  0.8932  0.4496  0.0000
     4 H(1)   Bbb    -0.0043    -2.274    -0.812    -0.759 -0.0000 -0.0000  1.0000
              Bcc     0.0397    21.177     7.557     7.064 -0.4496  0.8932 -0.0000
 
              Baa    -0.0354   -18.899    -6.744    -6.304  0.8932 -0.4497  0.0000
     5 H(1)   Bbb    -0.0043    -2.276    -0.812    -0.759 -0.0000  0.0000  1.0000
              Bcc     0.0397    21.176     7.556     7.063  0.4497  0.8932  0.0000
 
              Baa    -0.0354   -18.903    -6.745    -6.305  0.8932  0.4496  0.0000
     6 H(1)   Bbb    -0.0043    -2.274    -0.812    -0.759 -0.0000 -0.0000  1.0000
              Bcc     0.0397    21.177     7.557     7.064 -0.4496  0.8932 -0.0000
 

 ---------------------------------------------------------------------------------

 No NMR shielding tensors so no spin-rotation constants.
 Leave Link  601 at Tue Dec  3 13:23:06 2024, MaxMem=  2147483648 cpu:               4.3 elap:               0.2
 (Enter /home/szhao/Apps/g16/l701.exe)
 ... and contract with generalized density number  0.
 Compute integral first derivatives.
 Leave Link  701 at Tue Dec  3 13:23:06 2024, MaxMem=  2147483648 cpu:               2.5 elap:               0.1
 (Enter /home/szhao/Apps/g16/l702.exe)
 L702 exits ... SP integral derivatives will be done elsewhere.
 Leave Link  702 at Tue Dec  3 13:23:06 2024, MaxMem=  2147483648 cpu:               0.8 elap:               0.1
 (Enter /home/szhao/Apps/g16/l703.exe)
 Integral derivatives from FoFJK, PRISM(SPDF).
 Compute integral first derivatives, UseDBF=F ICtDFT=           0.
 Calling FoFJK, ICntrl=      2127 FMM=F ISym2X=0 I1Cent= 0 IOpClX= 1 NMat=1 NMatS=1 NMatT=0.
 FoFJK:  IHMeth= 1 ICntrl=    2127 DoSepK=F KAlg= 0 I1Cent=           0 FoldK=F
 IRaf=         0 NMat=       1 IRICut=       1 DoRegI=T DoRafI=F ISym2E= 0 IDoP0=0 IntGTp=1.
 FoFCou: FMM=F IPFlag=           0 FMFlag=      100000 FMFlg1=         800
         NFxFlg=           0 DoJE=F BraDBF=F KetDBF=F FulRan=T
         wScrn=  0.000000 ICntrl=      2127 IOpCl=  1 I1Cent=           0 NGrid=           0
         NMat0=    1 NMatS0=      1 NMatT0=    0 NMatD0=    1 NMtDS0=    0 NMtDT0=    0
 Symmetry not used in FoFCou.
 Leave Link  703 at Tue Dec  3 13:23:07 2024, MaxMem=  2147483648 cpu:              14.3 elap:               0.6
 (Enter /home/szhao/Apps/g16/l716.exe)
 Dipole        =-2.48736849D-08 1.28563826D-13 3.03621156D-15
 -------------------------------------------------------------------
 Center     Atomic                   Forces (Hartrees/Bohr)
 Number     Number              X              Y              Z
 -------------------------------------------------------------------
      1        6          -0.000000000   -0.000000000   -0.000000000
      2        6          -0.000000000   -0.000000000   -0.000000000
      3        1           0.002681057   -0.002241609   -0.000000000
      4        1           0.002651164    0.002307805   -0.000000000
      5        1          -0.002681056    0.002241609   -0.000000000
      6        1          -0.002651163   -0.002307806   -0.000000000
 -------------------------------------------------------------------
 Cartesian Forces:  Max     0.002681057 RMS     0.001652187
 Leave Link  716 at Tue Dec  3 13:23:07 2024, MaxMem=  2147483648 cpu:               0.9 elap:               0.1
 (Enter /home/szhao/Apps/g16/l103.exe)

 GradGradGradGradGradGradGradGradGradGradGradGradGradGradGradGradGradGrad
 Berny optimization.
 FormGI is forming the generalized inverse of G from B-inverse, IUseBI=4.
 Internal  Forces:  Max     0.005332220 RMS     0.002490648
 Search for a local minimum.
 Step number   1 out of a maximum of   30
 All quantities printed in internal units (Hartrees-Bohrs-Radians)
 RMS Force = .21908D-02 SwitMx=.10000D-02 MixMth= 1
 Mixed Optimization -- RFO/linear search
 Second derivative matrix not updated -- first step.
 The second derivative matrix:
                          X1        Y1        Z1        X2        Y2
           X1           0.50000
           Y1           0.00000   0.50000
           Z1           0.00000   0.00000   0.50000
           X2           0.00000   0.00000   0.00000   0.50000
           Y2           0.00000   0.00000   0.00000   0.00000   0.50000
           Z2           0.00000   0.00000   0.00000   0.00000   0.00000
           R1           0.00000   0.00000   0.00000   0.00000   0.00000
           R2           0.00000   0.00000   0.00000   0.00000   0.00000
           R3           0.00000   0.00000   0.00000   0.00000   0.00000
           R4           0.00000   0.00000   0.00000   0.00000   0.00000
           A1           0.00000   0.00000   0.00000   0.00000   0.00000
           A2           0.00000   0.00000   0.00000   0.00000   0.00000
           A3           0.00000   0.00000   0.00000   0.00000   0.00000
           A4           0.00000   0.00000   0.00000   0.00000   0.00000
           A5           0.00000   0.00000   0.00000   0.00000   0.00000
           A6           0.00000   0.00000   0.00000   0.00000   0.00000
           D1           0.00000   0.00000   0.00000   0.00000   0.00000
           D2           0.00000   0.00000   0.00000   0.00000   0.00000
           D3           0.00000   0.00000   0.00000   0.00000   0.00000
           D4           0.00000   0.00000   0.00000   0.00000   0.00000
                          Z2        R1        R2        R3        R4
           Z2           0.50000
           R1           0.00000   0.35377
           R2           0.00000   0.00000   0.35389
           R3           0.00000   0.00000   0.00000   0.35377
           R4           0.00000   0.00000   0.00000   0.00000   0.35389
           A1           0.00000   0.00000   0.00000   0.00000   0.00000
           A2           0.00000   0.00000   0.00000   0.00000   0.00000
           A3           0.00000   0.00000   0.00000   0.00000   0.00000
           A4           0.00000   0.00000   0.00000   0.00000   0.00000
           A5           0.00000   0.00000   0.00000   0.00000   0.00000
           A6           0.00000   0.00000   0.00000   0.00000   0.00000
           D1           0.00000   0.00000   0.00000   0.00000   0.00000
           D2           0.00000   0.00000   0.00000   0.00000   0.00000
           D3           0.00000   0.00000   0.00000   0.00000   0.00000
           D4           0.00000   0.00000   0.00000   0.00000   0.00000
                          A1        A2        A3        A4        A5
           A1           0.16000
           A2           0.00000   0.16000
           A3           0.00000   0.00000   0.16000
           A4           0.00000   0.00000   0.00000   0.16000
           A5           0.00000   0.00000   0.00000   0.00000   0.16000
           A6           0.00000   0.00000   0.00000   0.00000   0.00000
           D1           0.00000   0.00000   0.00000   0.00000   0.00000
           D2           0.00000   0.00000   0.00000   0.00000   0.00000
           D3           0.00000   0.00000   0.00000   0.00000   0.00000
           D4           0.00000   0.00000   0.00000   0.00000   0.00000
                          A6        D1        D2        D3        D4
           A6           0.16000
           D1           0.00000   0.00230
           D2           0.00000   0.00000   0.00230
           D3           0.00000   0.00000   0.00000   0.00230
           D4           0.00000   0.00000   0.00000   0.00000   0.00230
 ITU=  0
     Eigenvalues ---    0.00230   0.00230   0.00230   0.16000   0.16000
     Eigenvalues ---    0.16000   0.16000   0.35377   0.35377   0.35389
     Eigenvalues ---    0.353891000.000001000.000001000.000001000.00000
     Eigenvalues --- 1000.000001000.000001000.000001000.000001000.00000
 RFO step:  Lambda=-4.04657620D-04 EMin= 2.30000000D-03
 Linear search not attempted -- first point.
 Iteration  1 RMS(Cart)=  0.01316485 RMS(Int)=  0.00009486
 Iteration  2 RMS(Cart)=  0.00009543 RMS(Int)=  0.00000000
 Iteration  3 RMS(Cart)=  0.00000000 RMS(Int)=  0.00000000
 ITry= 1 IFail=0 DXMaxC= 2.59D-02 DCOld= 1.00D+10 DXMaxT= 3.00D-01 DXLimC= 3.00D+00 Rises=F
 Variable       Old X    -DE/DX   Delta X   Delta X   Delta X     New X
                                 (Linear)    (Quad)   (Total)
    X1       -2.46803   0.00533   0.00000   0.00000   0.00000  -2.46803
    Y1        0.00000   0.00007   0.00000   0.00000   0.00000   0.00000
    Z1        0.00000  -0.00000   0.00000   0.00000   0.00000   0.00000
    X2        2.46803  -0.00533   0.00000   0.00000   0.00000   2.46803
    Y2        0.00000  -0.00007   0.00000   0.00000   0.00000   0.00000
    Z2        0.00000  -0.00000   0.00000   0.00000   0.00000   0.00000
    R1        2.05068   0.00098   0.00000   0.00278   0.00278   2.05346
    R2        2.05048   0.00106   0.00000   0.00298   0.00298   2.05347
    R3        2.05068   0.00098   0.00000   0.00278   0.00278   2.05346
    R4        2.05048   0.00106   0.00000   0.00298   0.00298   2.05347
    A1        1.98162  -0.00229   0.00000  -0.01430  -0.01430   1.96733
    A2        1.98155  -0.00229   0.00000  -0.01428  -0.01428   1.96728
    A3        2.32001   0.00458   0.00000   0.02857   0.02857   2.34858
    A4        1.98162  -0.00229   0.00000  -0.01430  -0.01430   1.96733
    A5        1.98155  -0.00229   0.00000  -0.01428  -0.01428   1.96728
    A6        2.32001   0.00458   0.00000   0.02857   0.02857   2.34858
    D1        3.14159  -0.00000   0.00000  -0.00000   0.00000   3.14159
    D2        0.00000  -0.00000   0.00000  -0.00000  -0.00000   0.00000
    D3        0.00000   0.00000   0.00000  -0.00000  -0.00000   0.00000
    D4        3.14159   0.00000   0.00000   0.00000   0.00000   3.14159
         Item               Value     Threshold  Converged?
 Maximum Force            0.004583     0.000450     NO 
 RMS     Force            0.002191     0.000300     NO 
 Maximum Displacement     0.025885     0.001800     NO 
 RMS     Displacement     0.013174     0.001200     NO 
 Predicted change in Energy=-2.028324D-04
 Lowest energy point so far.  Saving SCF results.
 GradGradGradGradGradGradGradGradGradGradGradGradGradGradGradGradGradGrad

 Leave Link  103 at Tue Dec  3 13:23:07 2024, MaxMem=  2147483648 cpu:               1.1 elap:               0.1
 (Enter /home/szhao/Apps/g16/l202.exe)
                          Input orientation:                          
 ---------------------------------------------------------------------
 Center     Atomic      Atomic             Coordinates (Angstroms)
 Number     Number       Type             X           Y           Z
 ---------------------------------------------------------------------
      1          6           0       -1.306027    0.000000    0.000000
      2          6           0        1.306027    0.000000    0.000000
      3          1           0       -1.725713   -1.002326   -0.000000
      4          1           0       -1.725662    1.002353   -0.000000
      5          1           0        1.725713    1.002326   -0.000000
      6          1           0        1.725662   -1.002353   -0.000000
 ---------------------------------------------------------------------
                    Distance matrix (angstroms):
                    1          2          3          4          5
     1  C    0.000000
     2  C    2.612054   0.000000
     3  H    1.086644   3.193134   0.000000
     4  H    1.086649   3.193094   2.004679   0.000000
     5  H    3.193134   1.086644   3.991362   3.451375   0.000000
     6  H    3.193094   1.086649   3.451375   3.991302   2.004679
                    6
     6  H    0.000000
 Symmetry turned off by external request.
 Stoichiometry    C2H4(1+,2)
 Framework group  C2H[SGH(C2H4)]
 Deg. of freedom     5
 Full point group                 C2H     NOp   4
 Rotational constants (GHZ):         124.7792047           9.5458705           8.8674890
 Leave Link  202 at Tue Dec  3 13:23:07 2024, MaxMem=  2147483648 cpu:               0.2 elap:               0.0
 (Enter /home/szhao/Apps/g16/l301.exe)
 Standard basis: 6-311+G(d,p) (5D, 7F)
 Ernie: Thresh=  0.10000D-02 Tol=  0.10000D-05 Strict=F.
    68 basis functions,   104 primitive gaussians,    70 cartesian basis functions
     8 alpha electrons        7 beta electrons
       nuclear repulsion energy        24.0579659664 Hartrees.
 IExCor= 4336 DFT=T Ex+Corr=M062X ExCW=0 ScaHFX=  0.540000
 ScaDFX=  1.000000  1.000000  1.000000  1.000000 ScalE2=  1.000000  1.000000
 IRadAn=      7 IRanWt=     -1 IRanGd=            0 ICorTp=0 IEmpDi=  4
 NAtoms=    6 NActive=    6 NUniq=    6 SFac= 1.00D+00 NAtFMM=   60 NAOKFM=F Big=F
 Integral buffers will be    131072 words long.
 Raffenetti 2 integral format.
 Two-electron integral symmetry is turned off.
 Leave Link  301 at Tue Dec  3 13:23:08 2024, MaxMem=  2147483648 cpu:               1.1 elap:               0.1
 (Enter /home/szhao/Apps/g16/l302.exe)
 NPDir=0 NMtPBC=     1 NCelOv=     1 NCel=       1 NClECP=     1 NCelD=      1
         NCelK=      1 NCelE2=     1 NClLst=     1 CellRange=     0.0.
 One-electron integrals computed using PRISM.
 NBasis=    68 RedAO= T EigKep=  4.69D-03  NBF=    68
 NBsUse=    68 1.00D-06 EigRej= -1.00D+00 NBFU=    68
 Precomputing XC quadrature grid using
 IXCGrd= 4 IRadAn=           7 IRanWt=          -1 IRanGd=           0 AccXCQ= 0.00D+00.
 Generated NRdTot=       0 NPtTot=           0 NUsed=           0 NTot=          32
 NSgBfM=    70    70    70    70    70 MxSgAt=     6 MxSgA2=     6.
 Leave Link  302 at Tue Dec  3 13:23:08 2024, MaxMem=  2147483648 cpu:               3.6 elap:               0.2
 (Enter /home/szhao/Apps/g16/l303.exe)
 DipDrv:  MaxL=1.
 Leave Link  303 at Tue Dec  3 13:23:08 2024, MaxMem=  2147483648 cpu:               0.9 elap:               0.0
 (Enter /home/szhao/Apps/g16/l401.exe)
 Initial guess from the checkpoint file:  "opt.chk"
 B after Tr=     0.000000    0.000000   -0.000000
         Rot=    1.000000   -0.000000    0.000000    0.000003 Ang=   0.00 deg.
 Guess basis will be translated and rotated to current coordinates.
 JPrj=2 DoOrth=T DoCkMO=T.
 Initial guess <Sx>= 0.0000 <Sy>= 0.0000 <Sz>= 0.5000 <S**2>= 0.7523 S= 0.5011
 Generating alternative initial guess.
 ExpMin= 4.38D-02 ExpMax= 4.56D+03 ExpMxC= 6.82D+02 IAcc=3 IRadAn=         5 AccDes= 0.00D+00
 Harris functional with IExCor= 1009 and IRadAn=       5 diagonalized for initial guess.
 HarFok:  IExCor= 1009 AccDes= 0.00D+00 IRadAn=         5 IDoV= 1 UseB2=F ITyADJ=14
 ICtDFT=  3500011 ScaDFX=  1.000000  1.000000  1.000000  1.000000
 FoFCou: FMM=F IPFlag=           0 FMFlag=      100000 FMFlg1=           0
         NFxFlg=           0 DoJE=T BraDBF=F KetDBF=T FulRan=T
         wScrn=  0.000000 ICntrl=       500 IOpCl=  0 I1Cent=   200000004 NGrid=           0
         NMat0=    1 NMatS0=      1 NMatT0=    0 NMatD0=    1 NMtDS0=    0 NMtDT0=    0
 Symmetry not used in FoFCou.
 Harris En= -77.9813910915644    
 Leave Link  401 at Tue Dec  3 13:23:08 2024, MaxMem=  2147483648 cpu:               5.2 elap:               0.2
 (Enter /home/szhao/Apps/g16/l502.exe)
 Keep R1 and R2 ints in memory in canonical form, NReq=27031774.
 FoFCou: FMM=F IPFlag=           0 FMFlag=           0 FMFlg1=           0
         NFxFlg=           0 DoJE=F BraDBF=F KetDBF=F FulRan=T
         wScrn=  0.000000 ICntrl=       600 IOpCl=  0 I1Cent=           0 NGrid=           0
         NMat0=    1 NMatS0=   2346 NMatT0=    0 NMatD0=    1 NMtDS0=    0 NMtDT0=    0
 Symmetry not used in FoFCou.
 Two-electron integral symmetry not used.
 UHF open shell SCF:
 Using DIIS extrapolation, IDIIS=  1040.
 NGot=  2147483648 LenX=  2141965410 LenY=  2141960069
 Requested convergence on RMS density matrix=1.00D-08 within 128 cycles.
 Requested convergence on MAX density matrix=1.00D-06.
 Requested convergence on             energy=1.00D-06.
 No special actions if energy rises.

 Cycle   1  Pass 1  IDiag  1:
 E= -77.9451269214138    
 DIIS: error= 1.31D-03 at cycle   1 NSaved=   1.
 NSaved= 1 IEnMin= 1 EnMin= -77.9451269214138     IErMin= 1 ErrMin= 1.31D-03
 ErrMax= 1.31D-03  0.00D+00 EMaxC= 1.00D-01 BMatC= 1.22D-04 BMatP= 1.22D-04
 IDIUse=3 WtCom= 9.87D-01 WtEn= 1.31D-02
 Coeff-Com:  0.100D+01
 Coeff-En:   0.100D+01
 Coeff:      0.100D+01
 Gap=     0.499 Goal=   None    Shift=    0.000
 Gap=     0.544 Goal=   None    Shift=    0.000
 GapD=    0.499 DampG=2.000 DampE=1.000 DampFc=2.0000 IDamp=-1.
 RMSDP=6.95D-05 MaxDP=6.80D-04              OVMax= 2.87D-03

 Cycle   2  Pass 1  IDiag  1:
 E= -77.9451654651173     Delta-E=       -0.000038543703 Rises=F Damp=F
 DIIS: error= 2.49D-04 at cycle   2 NSaved=   2.
 NSaved= 2 IEnMin= 2 EnMin= -77.9451654651173     IErMin= 2 ErrMin= 2.49D-04
 ErrMax= 2.49D-04  0.00D+00 EMaxC= 1.00D-01 BMatC= 4.17D-06 BMatP= 1.22D-04
 IDIUse=3 WtCom= 9.98D-01 WtEn= 2.49D-03
 Coeff-Com: -0.123D-01 0.101D+01
 Coeff-En:   0.000D+00 0.100D+01
 Coeff:     -0.123D-01 0.101D+01
 Gap=     0.129 Goal=   None    Shift=    0.000
 Gap=     0.248 Goal=   None    Shift=    0.000
 RMSDP=1.93D-05 MaxDP=2.65D-04 DE=-3.85D-05 OVMax= 7.72D-04

 Cycle   3  Pass 1  IDiag  1:
 E= -77.9451668591148     Delta-E=       -0.000001393998 Rises=F Damp=F
 DIIS: error= 5.38D-05 at cycle   3 NSaved=   3.
 NSaved= 3 IEnMin= 3 EnMin= -77.9451668591148     IErMin= 3 ErrMin= 5.38D-05
 ErrMax= 5.38D-05  0.00D+00 EMaxC= 1.00D-01 BMatC= 2.25D-07 BMatP= 4.17D-06
 IDIUse=1 WtCom= 1.00D+00 WtEn= 0.00D+00
 Coeff-Com: -0.258D-01 0.132D+00 0.894D+00
 Coeff:     -0.258D-01 0.132D+00 0.894D+00
 Gap=     0.129 Goal=   None    Shift=    0.000
 Gap=     0.248 Goal=   None    Shift=    0.000
 RMSDP=3.93D-06 MaxDP=5.29D-05 DE=-1.39D-06 OVMax= 1.91D-04

 Cycle   4  Pass 1  IDiag  1:
 E= -77.9451669513797     Delta-E=       -0.000000092265 Rises=F Damp=F
 DIIS: error= 7.81D-06 at cycle   4 NSaved=   4.
 NSaved= 4 IEnMin= 4 EnMin= -77.9451669513797     IErMin= 4 ErrMin= 7.81D-06
 ErrMax= 7.81D-06  0.00D+00 EMaxC= 1.00D-01 BMatC= 5.34D-09 BMatP= 2.25D-07
 IDIUse=1 WtCom= 1.00D+00 WtEn= 0.00D+00
 Coeff-Com:  0.276D-02-0.413D-01-0.568D-01 0.110D+01
 Coeff:      0.276D-02-0.413D-01-0.568D-01 0.110D+01
 Gap=     0.129 Goal=   None    Shift=    0.000
 Gap=     0.248 Goal=   None    Shift=    0.000
 RMSDP=1.33D-06 MaxDP=1.96D-05 DE=-9.23D-08 OVMax= 4.23D-05

 Cycle   5  Pass 1  IDiag  1:
 E= -77.9451669543152     Delta-E=       -0.000000002935 Rises=F Damp=F
 DIIS: error= 1.70D-06 at cycle   5 NSaved=   5.
 NSaved= 5 IEnMin= 5 EnMin= -77.9451669543152     IErMin= 5 ErrMin= 1.70D-06
 ErrMax= 1.70D-06  0.00D+00 EMaxC= 1.00D-01 BMatC= 2.50D-10 BMatP= 5.34D-09
 IDIUse=1 WtCom= 1.00D+00 WtEn= 0.00D+00
 Coeff-Com:  0.119D-02-0.136D-01-0.314D-01 0.278D+00 0.766D+00
 Coeff:      0.119D-02-0.136D-01-0.314D-01 0.278D+00 0.766D+00
 Gap=     0.129 Goal=   None    Shift=    0.000
 Gap=     0.248 Goal=   None    Shift=    0.000
 RMSDP=1.27D-07 MaxDP=2.89D-06 DE=-2.94D-09 OVMax= 4.36D-06

 Cycle   6  Pass 1  IDiag  1:
 E= -77.9451669543941     Delta-E=       -0.000000000079 Rises=F Damp=F
 DIIS: error= 3.27D-07 at cycle   6 NSaved=   6.
 NSaved= 6 IEnMin= 6 EnMin= -77.9451669543941     IErMin= 6 ErrMin= 3.27D-07
 ErrMax= 3.27D-07  0.00D+00 EMaxC= 1.00D-01 BMatC= 1.74D-11 BMatP= 2.50D-10
 IDIUse=1 WtCom= 1.00D+00 WtEn= 0.00D+00
 Coeff-Com: -0.102D-03 0.182D-02 0.160D-02-0.532D-01 0.846D-01 0.965D+00
 Coeff:     -0.102D-03 0.182D-02 0.160D-02-0.532D-01 0.846D-01 0.965D+00
 Gap=     0.129 Goal=   None    Shift=    0.000
 Gap=     0.248 Goal=   None    Shift=    0.000
 RMSDP=6.12D-08 MaxDP=1.49D-06 DE=-7.89D-11 OVMax= 5.07D-06

 Cycle   7  Pass 1  IDiag  1:
 E= -77.9451669543786     Delta-E=        0.000000000015 Rises=F Damp=F
 DIIS: error= 1.02D-06 at cycle   7 NSaved=   7.
 NSaved= 7 IEnMin= 6 EnMin= -77.9451669543941     IErMin= 6 ErrMin= 3.27D-07
 ErrMax= 1.02D-06  0.00D+00 EMaxC= 1.00D-01 BMatC= 7.14D-11 BMatP= 1.74D-11
 IDIUse=1 WtCom= 1.00D+00 WtEn= 0.00D+00
 Coeff-Com: -0.198D-03 0.280D-02 0.431D-02-0.705D-01-0.216D-02 0.803D+00
 Coeff-Com:  0.262D+00
 Coeff:     -0.198D-03 0.280D-02 0.431D-02-0.705D-01-0.216D-02 0.803D+00
 Coeff:      0.262D+00
 Gap=     0.129 Goal=   None    Shift=    0.000
 Gap=     0.248 Goal=   None    Shift=    0.000
 RMSDP=4.19D-08 MaxDP=9.40D-07 DE= 1.54D-11 OVMax= 4.25D-06

 Cycle   8  Pass 1  IDiag  1:
 E= -77.9451669544026     Delta-E=       -0.000000000024 Rises=F Damp=F
 DIIS: error= 9.04D-08 at cycle   8 NSaved=   8.
 NSaved= 8 IEnMin= 8 EnMin= -77.9451669544026     IErMin= 8 ErrMin= 9.04D-08
 ErrMax= 9.04D-08  0.00D+00 EMaxC= 1.00D-01 BMatC= 8.31D-13 BMatP= 1.74D-11
 IDIUse=1 WtCom= 1.00D+00 WtEn= 0.00D+00
 Coeff-Com:  0.729D-05-0.214D-03 0.140D-04 0.822D-02-0.307D-01-0.209D+00
 Coeff-Com:  0.467D-01 0.118D+01
 Coeff:      0.729D-05-0.214D-03 0.140D-04 0.822D-02-0.307D-01-0.209D+00
 Coeff:      0.467D-01 0.118D+01
 Gap=     0.129 Goal=   None    Shift=    0.000
 Gap=     0.248 Goal=   None    Shift=    0.000
 RMSDP=8.19D-09 MaxDP=1.93D-07 DE=-2.40D-11 OVMax= 3.65D-07

 SCF Done:  E(UM062X) =  -77.9451669544     A.U. after    8 cycles
            NFock=  8  Conv=0.82D-08     -V/T= 2.0092
 <Sx>= 0.0000 <Sy>= 0.0000 <Sz>= 0.5000 <S**2>= 0.7523 S= 0.5011
 <L.S>=  0.00000000000    
 KE= 7.723082953480D+01 PE=-2.240799288772D+02 EE= 4.484596642159D+01
 Annihilation of the first spin contaminant:
 S**2 before annihilation     0.7523,   after     0.7500
 Leave Link  502 at Tue Dec  3 13:23:11 2024, MaxMem=  2147483648 cpu:              60.4 elap:               2.6
 (Enter /home/szhao/Apps/g16/l701.exe)
 ... and contract with generalized density number  0.
 Compute integral first derivatives.
 Leave Link  701 at Tue Dec  3 13:23:11 2024, MaxMem=  2147483648 cpu:               2.6 elap:               0.1
 (Enter /home/szhao/Apps/g16/l702.exe)
 L702 exits ... SP integral derivatives will be done elsewhere.
 Leave Link  702 at Tue Dec  3 13:23:11 2024, MaxMem=  2147483648 cpu:               0.9 elap:               0.1
 (Enter /home/szhao/Apps/g16/l703.exe)
 Integral derivatives from FoFJK, PRISM(SPDF).
 Compute integral first derivatives, UseDBF=F ICtDFT=           0.
 Calling FoFJK, ICntrl=      2127 FMM=F ISym2X=0 I1Cent= 0 IOpClX= 1 NMat=1 NMatS=1 NMatT=0.
 FoFJK:  IHMeth= 1 ICntrl=    2127 DoSepK=F KAlg= 0 I1Cent=           0 FoldK=F
 IRaf=         0 NMat=       1 IRICut=       1 DoRegI=T DoRafI=F ISym2E= 0 IDoP0=0 IntGTp=1.
 FoFCou: FMM=F IPFlag=           0 FMFlag=      100000 FMFlg1=         800
         NFxFlg=           0 DoJE=F BraDBF=F KetDBF=F FulRan=T
         wScrn=  0.000000 ICntrl=      2127 IOpCl=  1 I1Cent=           0 NGrid=           0
         NMat0=    1 NMatS0=      1 NMatT0=    0 NMatD0=    1 NMtDS0=    0 NMtDT0=    0
 Symmetry not used in FoFCou.
 Leave Link  703 at Tue Dec  3 13:23:12 2024, MaxMem=  2147483648 cpu:              13.8 elap:               0.6
 (Enter /home/szhao/Apps/g16/l716.exe)
 Dipole        =-7.16576309D-09 6.32827124D-14 8.07947401D-13
 -------------------------------------------------------------------
 Center     Atomic                   Forces (Hartrees/Bohr)
 Number     Number              X              Y              Z
 -------------------------------------------------------------------
      1        6          -0.000000000   -0.000000000   -0.000000000
      2        6          -0.000000000   -0.000000000   -0.000000000
      3        1           0.001812386   -0.000386440   -0.000000000
      4        1           0.001812591    0.000382001   -0.000000000
      5        1          -0.001812386    0.000386440    0.000000000
      6        1          -0.001812590   -0.000382001   -0.000000000
 -------------------------------------------------------------------
 Cartesian Forces:  Max     0.001812591 RMS     0.000873403
 Leave Link  716 at Tue Dec  3 13:23:12 2024, MaxMem=  2147483648 cpu:               0.9 elap:               0.1
 (Enter /home/szhao/Apps/g16/l103.exe)

 GradGradGradGradGradGradGradGradGradGradGradGradGradGradGradGradGradGrad
 Berny optimization.
 Using GEDIIS/GDIIS optimizer.
 FormGI is forming the generalized inverse of G from B-inverse, IUseBI=4.
 Internal  Forces:  Max     0.003624977 RMS     0.001506438
 Search for a local minimum.
 Step number   2 out of a maximum of   30
 All quantities printed in internal units (Hartrees-Bohrs-Radians)
 RMS Force = .11682D-02 SwitMx=.10000D-02 MixMth= 1
 Mixed Optimization -- RFO/linear search
 Update second derivatives using D2CorX and points    1    2
 DE= -3.07D-04 DEPred=-2.03D-04 R= 1.51D+00
 TightC=F SS=  1.41D+00  RLast= 4.98D-02 DXNew= 5.0454D-01 1.4948D-01
 Trust test= 1.51D+00 RLast= 4.98D-02 DXMaxT set to 3.00D-01
 The second derivative matrix:
                          X1        Y1        Z1        X2        Y2
           X1           0.51494
           Y1           0.00062   0.50003
           Z1           0.00000   0.00000   0.50000
           X2          -0.01494  -0.00062  -0.00000   0.51494
           Y2          -0.00062  -0.00003  -0.00000   0.00062   0.50003
           Z2           0.00000   0.00000   0.00000  -0.00000  -0.00000
           R1           0.01162   0.00048   0.00000  -0.01162  -0.00048
           R2           0.01230   0.00051   0.00000  -0.01230  -0.00051
           R3           0.01162   0.00048   0.00000  -0.01162  -0.00048
           R4           0.01230   0.00051   0.00000  -0.01230  -0.00051
           A1          -0.00915  -0.00038  -0.00000   0.00915   0.00038
           A2          -0.00915  -0.00038  -0.00000   0.00915   0.00038
           A3           0.01831   0.00076   0.00000  -0.01831  -0.00076
           A4          -0.00915  -0.00038  -0.00000   0.00915   0.00038
           A5          -0.00915  -0.00038  -0.00000   0.00915   0.00038
           A6           0.01831   0.00076   0.00000  -0.01831  -0.00076
           D1           0.00000   0.00000   0.00000  -0.00000  -0.00000
           D2          -0.00000  -0.00000  -0.00000   0.00000   0.00000
           D3          -0.00000  -0.00000  -0.00000   0.00000   0.00000
           D4          -0.00000  -0.00000  -0.00000   0.00000   0.00000
                          Z2        R1        R2        R3        R4
           Z2           0.50000
           R1           0.00000   0.36041
           R2           0.00000   0.00699   0.36124
           R3           0.00000   0.00665   0.00699   0.36041
           R4           0.00000   0.00699   0.00736   0.00699   0.36124
           A1          -0.00000  -0.00155  -0.00155  -0.00155  -0.00155
           A2          -0.00000  -0.00156  -0.00156  -0.00156  -0.00156
           A3           0.00000   0.00310   0.00310   0.00310   0.00310
           A4          -0.00000  -0.00155  -0.00155  -0.00155  -0.00155
           A5          -0.00000  -0.00156  -0.00156  -0.00156  -0.00156
           A6           0.00000   0.00310   0.00310   0.00310   0.00310
           D1           0.00000   0.00000   0.00000   0.00000   0.00000
           D2          -0.00000  -0.00000  -0.00000  -0.00000  -0.00000
           D3          -0.00000  -0.00000  -0.00000  -0.00000  -0.00000
           D4          -0.00000  -0.00000  -0.00000  -0.00000  -0.00000
                          A1        A2        A3        A4        A5
           A1           0.15264
           A2          -0.00734   0.15268
           A3           0.01469   0.01466   0.13065
           A4          -0.00736  -0.00734   0.01469   0.15264
           A5          -0.00734  -0.00732   0.01466  -0.00734   0.15268
           A6           0.01469   0.01466  -0.02935   0.01469   0.01466
           D1          -0.00000  -0.00000   0.00000  -0.00000  -0.00000
           D2           0.00000   0.00000  -0.00000   0.00000   0.00000
           D3           0.00000   0.00000  -0.00000   0.00000   0.00000
           D4           0.00000   0.00000  -0.00000   0.00000   0.00000
                          A6        D1        D2        D3        D4
           A6           0.13065
           D1           0.00000   0.00230
           D2          -0.00000  -0.00000   0.00230
           D3          -0.00000  -0.00000   0.00000   0.00230
           D4          -0.00000  -0.00000   0.00000   0.00000   0.00230
 ITU=  1  0
 Use linear search instead of GDIIS.
     Eigenvalues ---    0.00230   0.00230   0.00230   0.07157   0.16000
     Eigenvalues ---    0.16000   0.16000   0.35377   0.35382   0.35389
     Eigenvalues ---    0.382211000.000001000.000001000.000001000.00000
     Eigenvalues --- 1000.000001000.000001000.000001000.000001000.00000
 RFO step:  Lambda=-4.01834329D-05 EMin= 2.30000000D-03
 Quartic linear search produced a step of  1.11238.
 Iteration  1 RMS(Cart)=  0.01659641 RMS(Int)=  0.00015011
 Iteration  2 RMS(Cart)=  0.00015017 RMS(Int)=  0.00000000
 Iteration  3 RMS(Cart)=  0.00000000 RMS(Int)=  0.00000000
 ITry= 1 IFail=0 DXMaxC= 3.50D-02 DCOld= 1.00D+10 DXMaxT= 3.00D-01 DXLimC= 3.00D+00 Rises=F
 Variable       Old X    -DE/DX   Delta X   Delta X   Delta X     New X
                                 (Linear)    (Quad)   (Total)
    X1       -2.46803   0.00362   0.00000   0.00000   0.00000  -2.46803
    Y1        0.00000  -0.00001   0.00000   0.00000   0.00000   0.00000
    Z1        0.00000  -0.00000   0.00000   0.00000   0.00000   0.00000
    X2        2.46803  -0.00362   0.00000   0.00000   0.00000   2.46803
    Y2        0.00000   0.00001   0.00000   0.00000   0.00000   0.00000
    Z2        0.00000  -0.00000   0.00000   0.00000   0.00000   0.00000
    R1        2.05346  -0.00034   0.00309  -0.00485  -0.00176   2.05170
    R2        2.05347  -0.00035   0.00332  -0.00508  -0.00176   2.05170
    R3        2.05346  -0.00034   0.00309  -0.00485  -0.00176   2.05170
    R4        2.05347  -0.00035   0.00332  -0.00508  -0.00176   2.05170
    A1        1.96733  -0.00125  -0.01590  -0.00218  -0.01808   1.94925
    A2        1.96728  -0.00124  -0.01588  -0.00215  -0.01804   1.94924
    A3        2.34858   0.00249   0.03178   0.00433   0.03611   2.38469
    A4        1.96733  -0.00125  -0.01590  -0.00218  -0.01808   1.94925
    A5        1.96728  -0.00124  -0.01588  -0.00215  -0.01804   1.94924
    A6        2.34858   0.00249   0.03178   0.00433   0.03611   2.38469
    D1        3.14159  -0.00000   0.00000  -0.00000   0.00000   3.14159
    D2       -0.00000   0.00000   0.00000   0.00000   0.00000   0.00000
    D3       -0.00000   0.00000   0.00000   0.00000   0.00000   0.00000
    D4        3.14159   0.00000   0.00000   0.00000   0.00000   3.14159
         Item               Value     Threshold  Converged?
 Maximum Force            0.002492     0.000450     NO 
 RMS     Force            0.001168     0.000300     NO 
 Maximum Displacement     0.035020     0.001800     NO 
 RMS     Displacement     0.016593     0.001200     NO 
 Predicted change in Energy=-1.316669D-04
 Lowest energy point so far.  Saving SCF results.
 GradGradGradGradGradGradGradGradGradGradGradGradGradGradGradGradGradGrad

 Leave Link  103 at Tue Dec  3 13:23:12 2024, MaxMem=  2147483648 cpu:               1.6 elap:               0.1
 (Enter /home/szhao/Apps/g16/l202.exe)
                          Input orientation:                          
 ---------------------------------------------------------------------
 Center     Atomic      Atomic             Coordinates (Angstroms)
 Number     Number       Type             X           Y           Z
 ---------------------------------------------------------------------
      1          6           0       -1.306027    0.000000    0.000000
      2          6           0        1.306027    0.000000    0.000000
      3          1           0       -1.707181   -1.008883   -0.000000
      4          1           0       -1.707172    1.008891   -0.000000
      5          1           0        1.707181    1.008883   -0.000000
      6          1           0        1.707172   -1.008891   -0.000000
 ---------------------------------------------------------------------
                    Distance matrix (angstroms):
                    1          2          3          4          5
     1  C    0.000000
     2  C    2.612054   0.000000
     3  H    1.085711   3.177620   0.000000
     4  H    1.085715   3.177614   2.017773   0.000000
     5  H    3.177620   1.085711   3.966012   3.414354   0.000000
     6  H    3.177614   1.085715   3.414354   3.966004   2.017773
                    6
     6  H    0.000000
 Symmetry turned off by external request.
 Stoichiometry    C2H4(1+,2)
 Framework group  C2H[SGH(C2H4)]
 Deg. of freedom     5
 Full point group                 C2H     NOp   4
 Rotational constants (GHZ):         123.1649947           9.5922846           8.8992007
 Leave Link  202 at Tue Dec  3 13:23:12 2024, MaxMem=  2147483648 cpu:               0.3 elap:               0.1
 (Enter /home/szhao/Apps/g16/l301.exe)
 Standard basis: 6-311+G(d,p) (5D, 7F)
 Ernie: Thresh=  0.10000D-02 Tol=  0.10000D-05 Strict=F.
    68 basis functions,   104 primitive gaussians,    70 cartesian basis functions
     8 alpha electrons        7 beta electrons
       nuclear repulsion energy        24.0889977758 Hartrees.
 IExCor= 4336 DFT=T Ex+Corr=M062X ExCW=0 ScaHFX=  0.540000
 ScaDFX=  1.000000  1.000000  1.000000  1.000000 ScalE2=  1.000000  1.000000
 IRadAn=      7 IRanWt=     -1 IRanGd=            0 ICorTp=0 IEmpDi=  4
 NAtoms=    6 NActive=    6 NUniq=    6 SFac= 1.00D+00 NAtFMM=   60 NAOKFM=F Big=F
 Integral buffers will be    131072 words long.
 Raffenetti 2 integral format.
 Two-electron integral symmetry is turned off.
 Leave Link  301 at Tue Dec  3 13:23:13 2024, MaxMem=  2147483648 cpu:               1.4 elap:               0.1
 (Enter /home/szhao/Apps/g16/l302.exe)
 NPDir=0 NMtPBC=     1 NCelOv=     1 NCel=       1 NClECP=     1 NCelD=      1
         NCelK=      1 NCelE2=     1 NClLst=     1 CellRange=     0.0.
 One-electron integrals computed using PRISM.
 NBasis=    68 RedAO= T EigKep=  4.60D-03  NBF=    68
 NBsUse=    68 1.00D-06 EigRej= -1.00D+00 NBFU=    68
 Precomputing XC quadrature grid using
 IXCGrd= 4 IRadAn=           7 IRanWt=          -1 IRanGd=           0 AccXCQ= 0.00D+00.
 Generated NRdTot=       0 NPtTot=           0 NUsed=           0 NTot=          32
 NSgBfM=    70    70    70    70    70 MxSgAt=     6 MxSgA2=     6.
 Leave Link  302 at Tue Dec  3 13:23:13 2024, MaxMem=  2147483648 cpu:               3.8 elap:               0.2
 (Enter /home/szhao/Apps/g16/l303.exe)
 DipDrv:  MaxL=1.
 Leave Link  303 at Tue Dec  3 13:23:13 2024, MaxMem=  2147483648 cpu:               1.1 elap:               0.1
 (Enter /home/szhao/Apps/g16/l401.exe)
 Initial guess from the checkpoint file:  "opt.chk"
 B after Tr=     0.000000   -0.000000   -0.000000
         Rot=    1.000000    0.000000    0.000000   -0.000002 Ang=  -0.00 deg.
 Guess basis will be translated and rotated to current coordinates.
 JPrj=2 DoOrth=T DoCkMO=T.
 Initial guess <Sx>= 0.0000 <Sy>= 0.0000 <Sz>= 0.5000 <S**2>= 0.7523 S= 0.5011
 Generating alternative initial guess.
 ExpMin= 4.38D-02 ExpMax= 4.56D+03 ExpMxC= 6.82D+02 IAcc=3 IRadAn=         5 AccDes= 0.00D+00
 Harris functional with IExCor= 1009 and IRadAn=       5 diagonalized for initial guess.
 HarFok:  IExCor= 1009 AccDes= 0.00D+00 IRadAn=         5 IDoV= 1 UseB2=F ITyADJ=14
 ICtDFT=  3500011 ScaDFX=  1.000000  1.000000  1.000000  1.000000
 FoFCou: FMM=F IPFlag=           0 FMFlag=      100000 FMFlg1=           0
         NFxFlg=           0 DoJE=T BraDBF=F KetDBF=T FulRan=T
         wScrn=  0.000000 ICntrl=       500 IOpCl=  0 I1Cent=   200000004 NGrid=           0
         NMat0=    1 NMatS0=      1 NMatT0=    0 NMatD0=    1 NMtDS0=    0 NMtDT0=    0
 Symmetry not used in FoFCou.
 Harris En= -77.9814463600919    
 Leave Link  401 at Tue Dec  3 13:23:13 2024, MaxMem=  2147483648 cpu:               5.2 elap:               0.2
 (Enter /home/szhao/Apps/g16/l502.exe)
 Keep R1 and R2 ints in memory in canonical form, NReq=27031774.
 FoFCou: FMM=F IPFlag=           0 FMFlag=           0 FMFlg1=           0
         NFxFlg=           0 DoJE=F BraDBF=F KetDBF=F FulRan=T
         wScrn=  0.000000 ICntrl=       600 IOpCl=  0 I1Cent=           0 NGrid=           0
         NMat0=    1 NMatS0=   2346 NMatT0=    0 NMatD0=    1 NMtDS0=    0 NMtDT0=    0
 Symmetry not used in FoFCou.
 Two-electron integral symmetry not used.
 UHF open shell SCF:
 Using DIIS extrapolation, IDIIS=  1040.
 NGot=  2147483648 LenX=  2141965410 LenY=  2141960069
 Requested convergence on RMS density matrix=1.00D-08 within 128 cycles.
 Requested convergence on MAX density matrix=1.00D-06.
 Requested convergence on             energy=1.00D-06.
 No special actions if energy rises.

 Cycle   1  Pass 1  IDiag  1:
 E= -77.9452395584558    
 DIIS: error= 1.57D-03 at cycle   1 NSaved=   1.
 NSaved= 1 IEnMin= 1 EnMin= -77.9452395584558     IErMin= 1 ErrMin= 1.57D-03
 ErrMax= 1.57D-03  0.00D+00 EMaxC= 1.00D-01 BMatC= 1.96D-04 BMatP= 1.96D-04
 IDIUse=3 WtCom= 9.84D-01 WtEn= 1.57D-02
 Coeff-Com:  0.100D+01
 Coeff-En:   0.100D+01
 Coeff:      0.100D+01
 Gap=     0.498 Goal=   None    Shift=    0.000
 Gap=     0.541 Goal=   None    Shift=    0.000
 GapD=    0.498 DampG=2.000 DampE=1.000 DampFc=2.0000 IDamp=-1.
 RMSDP=8.86D-05 MaxDP=7.72D-04              OVMax= 3.48D-03

 Cycle   2  Pass 1  IDiag  1:
 E= -77.9453016513860     Delta-E=       -0.000062092930 Rises=F Damp=F
 DIIS: error= 3.01D-04 at cycle   2 NSaved=   2.
 NSaved= 2 IEnMin= 2 EnMin= -77.9453016513860     IErMin= 2 ErrMin= 3.01D-04
 ErrMax= 3.01D-04  0.00D+00 EMaxC= 1.00D-01 BMatC= 5.66D-06 BMatP= 1.96D-04
 IDIUse=3 WtCom= 9.97D-01 WtEn= 3.01D-03
 Coeff-Com: -0.445D-01 0.104D+01
 Coeff-En:   0.000D+00 0.100D+01
 Coeff:     -0.443D-01 0.104D+01
 Gap=     0.130 Goal=   None    Shift=    0.000
 Gap=     0.245 Goal=   None    Shift=    0.000
 RMSDP=2.57D-05 MaxDP=2.87D-04 DE=-6.21D-05 OVMax= 1.10D-03

 Cycle   3  Pass 1  IDiag  1:
 E= -77.9453038902945     Delta-E=       -0.000002238908 Rises=F Damp=F
 DIIS: error= 5.51D-05 at cycle   3 NSaved=   3.
 NSaved= 3 IEnMin= 3 EnMin= -77.9453038902945     IErMin= 3 ErrMin= 5.51D-05
 ErrMax= 5.51D-05  0.00D+00 EMaxC= 1.00D-01 BMatC= 4.54D-07 BMatP= 5.66D-06
 IDIUse=1 WtCom= 1.00D+00 WtEn= 0.00D+00
 Coeff-Com: -0.284D-01 0.184D+00 0.845D+00
 Coeff:     -0.284D-01 0.184D+00 0.845D+00
 Gap=     0.130 Goal=   None    Shift=    0.000
 Gap=     0.245 Goal=   None    Shift=    0.000
 RMSDP=5.61D-06 MaxDP=8.18D-05 DE=-2.24D-06 OVMax= 2.25D-04

 Cycle   4  Pass 1  IDiag  1:
 E= -77.9453040560994     Delta-E=       -0.000000165805 Rises=F Damp=F
 DIIS: error= 1.40D-05 at cycle   4 NSaved=   4.
 NSaved= 4 IEnMin= 4 EnMin= -77.9453040560994     IErMin= 4 ErrMin= 1.40D-05
 ErrMax= 1.40D-05  0.00D+00 EMaxC= 1.00D-01 BMatC= 2.19D-08 BMatP= 4.54D-07
 IDIUse=1 WtCom= 1.00D+00 WtEn= 0.00D+00
 Coeff-Com: -0.146D-02-0.212D-01 0.992D-01 0.923D+00
 Coeff:     -0.146D-02-0.212D-01 0.992D-01 0.923D+00
 Gap=     0.130 Goal=   None    Shift=    0.000
 Gap=     0.245 Goal=   None    Shift=    0.000
 RMSDP=1.80D-06 MaxDP=2.44D-05 DE=-1.66D-07 OVMax= 5.75D-05

 Cycle   5  Pass 1  IDiag  1:
 E= -77.9453040646888     Delta-E=       -0.000000008589 Rises=F Damp=F
 DIIS: error= 3.34D-06 at cycle   5 NSaved=   5.
 NSaved= 5 IEnMin= 5 EnMin= -77.9453040646888     IErMin= 5 ErrMin= 3.34D-06
 ErrMax= 3.34D-06  0.00D+00 EMaxC= 1.00D-01 BMatC= 1.61D-09 BMatP= 2.19D-08
 IDIUse=1 WtCom= 1.00D+00 WtEn= 0.00D+00
 Coeff-Com:  0.158D-02-0.187D-01-0.324D-01 0.216D+00 0.833D+00
 Coeff:      0.158D-02-0.187D-01-0.324D-01 0.216D+00 0.833D+00
 Gap=     0.130 Goal=   None    Shift=    0.000
 Gap=     0.245 Goal=   None    Shift=    0.000
 RMSDP=4.88D-07 MaxDP=7.40D-06 DE=-8.59D-09 OVMax= 1.49D-05

 Cycle   6  Pass 1  IDiag  1:
 E= -77.9453040652412     Delta-E=       -0.000000000552 Rises=F Damp=F
 DIIS: error= 3.22D-07 at cycle   6 NSaved=   6.
 NSaved= 6 IEnMin= 6 EnMin= -77.9453040652412     IErMin= 6 ErrMin= 3.22D-07
 ErrMax= 3.22D-07  0.00D+00 EMaxC= 1.00D-01 BMatC= 1.22D-11 BMatP= 1.61D-09
 IDIUse=1 WtCom= 1.00D+00 WtEn= 0.00D+00
 Coeff-Com: -0.290D-03 0.394D-02 0.403D-02-0.528D-01-0.150D+00 0.119D+01
 Coeff:     -0.290D-03 0.394D-02 0.403D-02-0.528D-01-0.150D+00 0.119D+01
 Gap=     0.130 Goal=   None    Shift=    0.000
 Gap=     0.245 Goal=   None    Shift=    0.000
 RMSDP=6.48D-08 MaxDP=1.16D-06 DE=-5.52D-10 OVMax= 3.09D-06

 Cycle   7  Pass 1  IDiag  1:
 E= -77.9453040652408     Delta-E=        0.000000000000 Rises=F Damp=F
 DIIS: error= 6.40D-07 at cycle   7 NSaved=   7.
 NSaved= 7 IEnMin= 6 EnMin= -77.9453040652412     IErMin= 6 ErrMin= 3.22D-07
 ErrMax= 6.40D-07  0.00D+00 EMaxC= 1.00D-01 BMatC= 2.84D-11 BMatP= 1.22D-11
 IDIUse=1 WtCom= 1.00D+00 WtEn= 0.00D+00
 Coeff-Com: -0.260D-03 0.346D-02 0.390D-02-0.454D-01-0.135D+00 0.894D+00
 Coeff-Com:  0.279D+00
 Coeff:     -0.260D-03 0.346D-02 0.390D-02-0.454D-01-0.135D+00 0.894D+00
 Coeff:      0.279D+00
 Gap=     0.130 Goal=   None    Shift=    0.000
 Gap=     0.245 Goal=   None    Shift=    0.000
 RMSDP=3.02D-08 MaxDP=6.85D-07 DE= 3.98D-13 OVMax= 3.07D-06

 Cycle   8  Pass 1  IDiag  1:
 E= -77.9453040652498     Delta-E=       -0.000000000009 Rises=F Damp=F
 DIIS: error= 1.64D-07 at cycle   8 NSaved=   8.
 NSaved= 8 IEnMin= 8 EnMin= -77.9453040652498     IErMin= 8 ErrMin= 1.64D-07
 ErrMax= 1.64D-07  0.00D+00 EMaxC= 1.00D-01 BMatC= 2.19D-12 BMatP= 1.22D-11
 IDIUse=1 WtCom= 1.00D+00 WtEn= 0.00D+00
 Coeff-Com:  0.576D-04-0.825D-03-0.590D-03 0.118D-01 0.281D-01-0.354D+00
 Coeff-Com:  0.204D+00 0.111D+01
 Coeff:      0.576D-04-0.825D-03-0.590D-03 0.118D-01 0.281D-01-0.354D+00
 Coeff:      0.204D+00 0.111D+01
 Gap=     0.130 Goal=   None    Shift=    0.000
 Gap=     0.245 Goal=   None    Shift=    0.000
 RMSDP=1.05D-08 MaxDP=2.90D-07 DE=-9.04D-12 OVMax= 6.25D-07

 Cycle   9  Pass 1  IDiag  1:
 E= -77.9453040652508     Delta-E=       -0.000000000001 Rises=F Damp=F
 DIIS: error= 8.87D-09 at cycle   9 NSaved=   9.
 NSaved= 9 IEnMin= 9 EnMin= -77.9453040652508     IErMin= 9 ErrMin= 8.87D-09
 ErrMax= 8.87D-09  0.00D+00 EMaxC= 1.00D-01 BMatC= 7.30D-15 BMatP= 2.19D-12
 IDIUse=1 WtCom= 1.00D+00 WtEn= 0.00D+00
 Coeff-Com: -0.594D-05 0.946D-04 0.303D-04-0.152D-02-0.267D-02 0.600D-01
 Coeff-Com: -0.548D-01-0.264D+00 0.126D+01
 Coeff:     -0.594D-05 0.946D-04 0.303D-04-0.152D-02-0.267D-02 0.600D-01
 Coeff:     -0.548D-01-0.264D+00 0.126D+01
 Gap=     0.130 Goal=   None    Shift=    0.000
 Gap=     0.245 Goal=   None    Shift=    0.000
 RMSDP=1.40D-09 MaxDP=2.16D-08 DE=-9.24D-13 OVMax= 4.97D-08

 SCF Done:  E(UM062X) =  -77.9453040653     A.U. after    9 cycles
            NFock=  9  Conv=0.14D-08     -V/T= 2.0092
 <Sx>= 0.0000 <Sy>= 0.0000 <Sz>= 0.5000 <S**2>= 0.7523 S= 0.5011
 <L.S>=  0.00000000000    
 KE= 7.723610660528D+01 PE=-2.241461748722D+02 EE= 4.487576642581D+01
 Annihilation of the first spin contaminant:
 S**2 before annihilation     0.7523,   after     0.7500
 Leave Link  502 at Tue Dec  3 13:23:16 2024, MaxMem=  2147483648 cpu:              62.5 elap:               2.7
 (Enter /home/szhao/Apps/g16/l701.exe)
 ... and contract with generalized density number  0.
 Compute integral first derivatives.
 Leave Link  701 at Tue Dec  3 13:23:16 2024, MaxMem=  2147483648 cpu:               2.7 elap:               0.1
 (Enter /home/szhao/Apps/g16/l702.exe)
 L702 exits ... SP integral derivatives will be done elsewhere.
 Leave Link  702 at Tue Dec  3 13:23:17 2024, MaxMem=  2147483648 cpu:               1.0 elap:               0.1
 (Enter /home/szhao/Apps/g16/l703.exe)
 Integral derivatives from FoFJK, PRISM(SPDF).
 Compute integral first derivatives, UseDBF=F ICtDFT=           0.
 Calling FoFJK, ICntrl=      2127 FMM=F ISym2X=0 I1Cent= 0 IOpClX= 1 NMat=1 NMatS=1 NMatT=0.
 FoFJK:  IHMeth= 1 ICntrl=    2127 DoSepK=F KAlg= 0 I1Cent=           0 FoldK=F
 IRaf=         0 NMat=       1 IRICut=       1 DoRegI=T DoRafI=F ISym2E= 0 IDoP0=0 IntGTp=1.
 FoFCou: FMM=F IPFlag=           0 FMFlag=      100000 FMFlg1=         800
         NFxFlg=           0 DoJE=F BraDBF=F KetDBF=F FulRan=T
         wScrn=  0.000000 ICntrl=      2127 IOpCl=  1 I1Cent=           0 NGrid=           0
         NMat0=    1 NMatS0=      1 NMatT0=    0 NMatD0=    1 NMtDS0=    0 NMtDT0=    0
 Symmetry not used in FoFCou.
 Leave Link  703 at Tue Dec  3 13:23:17 2024, MaxMem=  2147483648 cpu:              13.9 elap:               0.6
 (Enter /home/szhao/Apps/g16/l716.exe)
 Dipole        = 1.19991563D-07-7.67608199D-13-7.26735320D-10
 -------------------------------------------------------------------
 Center     Atomic                   Forces (Hartrees/Bohr)
 Number     Number              X              Y              Z
 -------------------------------------------------------------------
      1        6          -0.000000000   -0.000000000   -0.000000000
      2        6          -0.000000000   -0.000000000   -0.000000000
      3        1           0.000056226    0.000084409    0.000000000
      4        1           0.000057032   -0.000087282    0.000000000
      5        1          -0.000056224   -0.000084411    0.000000000
      6        1          -0.000057029    0.000087284    0.000000000
 -------------------------------------------------------------------
 Cartesian Forces:  Max     0.000087284 RMS     0.000048485
 Leave Link  716 at Tue Dec  3 13:23:17 2024, MaxMem=  2147483648 cpu:               0.9 elap:               0.1
 (Enter /home/szhao/Apps/g16/l103.exe)

 GradGradGradGradGradGradGradGradGradGradGradGradGradGradGradGradGradGrad
 Berny optimization.
 Using GEDIIS/GDIIS optimizer.
 FormGI is forming the generalized inverse of G from B-inverse, IUseBI=4.
 Internal  Forces:  Max     0.000113258 RMS     0.000058606
 Search for a local minimum.
 Step number   3 out of a maximum of   30
 All quantities printed in internal units (Hartrees-Bohrs-Radians)
 RMS Force = .55433D-04 SwitMx=.10000D-02 MixMth= 2
 Mixed Optimization -- En-DIIS/RFO-DIIS
 Update second derivatives using D2CorX and points    1    2    3
 DE= -1.37D-04 DEPred=-1.32D-04 R= 1.04D+00
 TightC=F SS=  1.41D+00  RLast= 6.26D-02 DXNew= 5.0454D-01 1.8795D-01
 Trust test= 1.04D+00 RLast= 6.26D-02 DXMaxT set to 3.00D-01
 The second derivative matrix:
                          X1        Y1        Z1        X2        Y2
           X1           0.54908
           Y1           0.00005   0.50000
           Z1          -0.00000   0.00000   0.50000
           X2          -0.04908  -0.00005   0.00000   0.54908
           Y2          -0.00005  -0.00000  -0.00000   0.00005   0.50000
           Z2          -0.00000   0.00000   0.00000   0.00000  -0.00000
           R1           0.01376   0.00044  -0.00000  -0.01376  -0.00044
           R2           0.01460   0.00046  -0.00000  -0.01460  -0.00046
           R3           0.01376   0.00044  -0.00000  -0.01376  -0.00044
           R4           0.01460   0.00046  -0.00000  -0.01460  -0.00046
           A1          -0.01667  -0.00000   0.00000   0.01667   0.00000
           A2          -0.01667  -0.00000   0.00000   0.01667   0.00000
           A3           0.03334   0.00001  -0.00000  -0.03334  -0.00001
           A4          -0.01667  -0.00000   0.00000   0.01667   0.00000
           A5          -0.01667  -0.00000   0.00000   0.01667   0.00000
           A6           0.03334   0.00001  -0.00000  -0.03334  -0.00001
           D1          -0.00000   0.00000   0.00000   0.00000  -0.00000
           D2           0.00000  -0.00000  -0.00000  -0.00000   0.00000
           D3          -0.00000  -0.00000   0.00000   0.00000   0.00000
           D4           0.00000  -0.00000  -0.00000  -0.00000   0.00000
                          Z2        R1        R2        R3        R4
           Z2           0.50000
           R1          -0.00000   0.36057
           R2          -0.00000   0.00716   0.36143
           R3          -0.00000   0.00681   0.00716   0.36057
           R4          -0.00000   0.00716   0.00754   0.00716   0.36143
           A1           0.00000  -0.00197  -0.00198  -0.00197  -0.00198
           A2           0.00000  -0.00198  -0.00199  -0.00198  -0.00199
           A3          -0.00000   0.00395   0.00397   0.00395   0.00398
           A4           0.00000  -0.00197  -0.00198  -0.00197  -0.00198
           A5           0.00000  -0.00198  -0.00199  -0.00198  -0.00199
           A6          -0.00000   0.00395   0.00398   0.00395   0.00398
           D1           0.00000  -0.00000  -0.00000  -0.00000  -0.00000
           D2          -0.00000   0.00000   0.00000   0.00000   0.00000
           D3           0.00000  -0.00000  -0.00000  -0.00000  -0.00000
           D4          -0.00000   0.00000   0.00000   0.00000   0.00000
                          A1        A2        A3        A4        A5
           A1           0.15239
           A2          -0.00758   0.15244
           A3           0.01519   0.01515   0.12966
           A4          -0.00761  -0.00758   0.01519   0.15239
           A5          -0.00758  -0.00756   0.01515  -0.00758   0.15244
           A6           0.01519   0.01515  -0.03034   0.01519   0.01515
           D1           0.00000   0.00000  -0.00000   0.00000   0.00000
           D2          -0.00000  -0.00000   0.00000  -0.00000  -0.00000
           D3           0.00000   0.00000  -0.00000   0.00000   0.00000
           D4          -0.00000  -0.00000   0.00000  -0.00000  -0.00000
                          A6        D1        D2        D3        D4
           A6           0.12966
           D1          -0.00000   0.00230
           D2           0.00000  -0.00000   0.00230
           D3          -0.00000   0.00000  -0.00000   0.00230
           D4           0.00000  -0.00000   0.00000  -0.00000   0.00230
 ITU=  1  1  0
 Use linear search instead of GDIIS.
     Eigenvalues ---    0.00230   0.00230   0.00230   0.06838   0.16000
     Eigenvalues ---    0.16000   0.16000   0.35377   0.35382   0.35389
     Eigenvalues ---    0.383121000.000001000.000001000.000001000.00000
     Eigenvalues --- 1000.000001000.000001000.000001000.000001000.00000
 RFO step:  Lambda=-9.90240604D-08 EMin= 2.30000000D-03
 Quartic linear search produced a step of  0.01450.
 Iteration  1 RMS(Cart)=  0.00025708 RMS(Int)=  0.00000004
 Iteration  2 RMS(Cart)=  0.00000004 RMS(Int)=  0.00000000
 ITry= 1 IFail=0 DXMaxC= 5.73D-04 DCOld= 1.00D+10 DXMaxT= 3.00D-01 DXLimC= 3.00D+00 Rises=F
 Variable       Old X    -DE/DX   Delta X   Delta X   Delta X     New X
                                 (Linear)    (Quad)   (Total)
    X1       -2.46803   0.00011   0.00000   0.00000   0.00000  -2.46803
    Y1        0.00000  -0.00000   0.00000   0.00000   0.00000   0.00000
    Z1        0.00000   0.00000   0.00000   0.00000   0.00000   0.00000
    X2        2.46803  -0.00011   0.00000   0.00000   0.00000   2.46803
    Y2        0.00000   0.00000   0.00000   0.00000   0.00000   0.00000
    Z2        0.00000   0.00000   0.00000   0.00000   0.00000   0.00000
    R1        2.05170  -0.00010  -0.00003  -0.00025  -0.00027   2.05142
    R2        2.05170  -0.00010  -0.00003  -0.00026  -0.00028   2.05142
    R3        2.05170  -0.00010  -0.00003  -0.00025  -0.00027   2.05142
    R4        2.05170  -0.00010  -0.00003  -0.00026  -0.00028   2.05142
    A1        1.94925  -0.00001  -0.00026   0.00001  -0.00025   1.94900
    A2        1.94924  -0.00001  -0.00026   0.00002  -0.00024   1.94900
    A3        2.38469   0.00003   0.00052  -0.00003   0.00049   2.38518
    A4        1.94925  -0.00001  -0.00026   0.00001  -0.00025   1.94900
    A5        1.94924  -0.00001  -0.00026   0.00002  -0.00024   1.94900
    A6        2.38469   0.00003   0.00052  -0.00003   0.00049   2.38518
    D1        3.14159   0.00000   0.00000   0.00000   0.00000  -3.14159
    D2        0.00000  -0.00000   0.00000  -0.00000  -0.00000   0.00000
    D3        0.00000   0.00000   0.00000   0.00000   0.00000   0.00000
    D4        3.14159  -0.00000   0.00000  -0.00000  -0.00000   3.14159
         Item               Value     Threshold  Converged?
 Maximum Force            0.000102     0.000450     YES
 RMS     Force            0.000055     0.000300     YES
 Maximum Displacement     0.000573     0.001800     YES
 RMS     Displacement     0.000257     0.001200     YES
 Predicted change in Energy=-7.652260D-08
 Optimization completed.
    -- Stationary point found.
                           ----------------------------
                           !   Optimized Parameters   !
                           ! (Angstroms and Degrees)  !
 --------------------------                            --------------------------
 ! Name  Definition              Value          Derivative Info.                !
 --------------------------------------------------------------------------------
 ! X1    R(1,-1)                -1.306          -DE/DX =    0.0001              !
 ! Y1    R(1,-2)                 0.0            -DE/DX =    0.0                 !
 ! Z1    R(1,-3)                 0.0            -DE/DX =    0.0                 !
 ! X2    R(2,-1)                 1.306          -DE/DX =   -0.0001              !
 ! Y2    R(2,-2)                 0.0            -DE/DX =    0.0                 !
 ! Z2    R(2,-3)                 0.0            -DE/DX =    0.0                 !
 ! R1    R(1,3)                  1.0857         -DE/DX =   -0.0001              !
 ! R2    R(1,4)                  1.0857         -DE/DX =   -0.0001              !
 ! R3    R(2,5)                  1.0857         -DE/DX =   -0.0001              !
 ! R4    R(2,6)                  1.0857         -DE/DX =   -0.0001              !
 ! A1    A(2,1,3)              111.6839         -DE/DX =    0.0                 !
 ! A2    A(2,1,4)              111.6833         -DE/DX =    0.0                 !
 ! A3    A(3,1,4)              136.6328         -DE/DX =    0.0                 !
 ! A4    A(1,2,5)              111.6839         -DE/DX =    0.0                 !
 ! A5    A(1,2,6)              111.6833         -DE/DX =    0.0                 !
 ! A6    A(5,2,6)              136.6328         -DE/DX =    0.0                 !
 ! D1    D(3,1,2,5)           -180.0            -DE/DX =    0.0                 !
 ! D2    D(3,1,2,6)              0.0            -DE/DX =    0.0                 !
 ! D3    D(4,1,2,5)              0.0            -DE/DX =    0.0                 !
 ! D4    D(4,1,2,6)            180.0            -DE/DX =    0.0                 !
 --------------------------------------------------------------------------------
 Lowest energy point so far.  Saving SCF results.
 Largest change from initial coordinates is atom    3       0.035 Angstoms.
 GradGradGradGradGradGradGradGradGradGradGradGradGradGradGradGradGradGrad

 Leave Link  103 at Tue Dec  3 13:23:18 2024, MaxMem=  2147483648 cpu:               2.5 elap:               0.1
 (Enter /home/szhao/Apps/g16/l202.exe)
                          Input orientation:                          
 ---------------------------------------------------------------------
 Center     Atomic      Atomic             Coordinates (Angstroms)
 Number     Number       Type             X           Y           Z
 ---------------------------------------------------------------------
      1          6           0       -1.306027    0.000000    0.000000
      2          6           0        1.306027    0.000000    0.000000
      3          1           0       -1.707181   -1.008883   -0.000000
      4          1           0       -1.707172    1.008891   -0.000000
      5          1           0        1.707181    1.008883   -0.000000
      6          1           0        1.707172   -1.008891   -0.000000
 ---------------------------------------------------------------------
                    Distance matrix (angstroms):
                    1          2          3          4          5
     1  C    0.000000
     2  C    2.612054   0.000000
     3  H    1.085711   3.177620   0.000000
     4  H    1.085715   3.177614   2.017773   0.000000
     5  H    3.177620   1.085711   3.966012   3.414354   0.000000
     6  H    3.177614   1.085715   3.414354   3.966004   2.017773
                    6
     6  H    0.000000
 Symmetry turned off by external request.
 Stoichiometry    C2H4(1+,2)
 Framework group  C2H[SGH(C2H4)]
 Deg. of freedom     5
 Full point group                 C2H     NOp   4
 Rotational constants (GHZ):         123.1649947           9.5922846           8.8992007
 Leave Link  202 at Tue Dec  3 13:23:18 2024, MaxMem=  2147483648 cpu:               0.2 elap:               0.0
 (Enter /home/szhao/Apps/g16/l601.exe)
 Copying SCF densities to generalized density rwf, IOpCl= 1 IROHF=0.

 **********************************************************************

            Population analysis using the SCF density.

 **********************************************************************

 Alpha  occ. eigenvalues --  -10.92223 -10.92216  -1.03259  -1.00874  -0.79623
 Alpha  occ. eigenvalues --   -0.78698  -0.58902  -0.51947
 Alpha virt. eigenvalues --   -0.38996  -0.33908  -0.13471  -0.10751  -0.10487
 Alpha virt. eigenvalues --   -0.07809  -0.07544  -0.06649  -0.04627  -0.04290
 Alpha virt. eigenvalues --   -0.03320   0.01131   0.01672   0.09226   0.18929
 Alpha virt. eigenvalues --    0.21950   0.23954   0.32307   0.38611   0.39514
 Alpha virt. eigenvalues --    0.39555   0.41940   0.44408   0.45770   0.52268
 Alpha virt. eigenvalues --    0.56861   0.80608   0.80887   0.96078   0.97325
 Alpha virt. eigenvalues --    1.05539   1.08552   1.12352   1.24456   1.26133
 Alpha virt. eigenvalues --    1.28790   1.45675   1.46000   1.58439   1.59515
 Alpha virt. eigenvalues --    1.64480   1.69537   1.78696   1.79227   2.13672
 Alpha virt. eigenvalues --    2.22967   2.25466   2.30762   2.34548   2.39604
 Alpha virt. eigenvalues --    2.42184   2.44718   2.45519   2.46671   2.72211
 Alpha virt. eigenvalues --    2.72566   3.37871   3.40428  23.49891  23.51737
  Beta  occ. eigenvalues --  -10.91965 -10.91961  -1.00433  -0.98433  -0.79229
  Beta  occ. eigenvalues --   -0.78342  -0.57065
  Beta virt. eigenvalues --   -0.32553  -0.31716  -0.29261  -0.14563  -0.11009
  Beta virt. eigenvalues --   -0.10746  -0.07404  -0.07362  -0.06770  -0.03795
  Beta virt. eigenvalues --   -0.03786  -0.03734   0.00322   0.01505   0.10191
  Beta virt. eigenvalues --    0.18795   0.22322   0.24431   0.33459   0.38039
  Beta virt. eigenvalues --    0.38208   0.40079   0.43031   0.45495   0.47335
  Beta virt. eigenvalues --    0.53472   0.57272   0.83589   0.83722   0.99455
  Beta virt. eigenvalues --    1.00127   1.07822   1.10272   1.13515   1.25946
  Beta virt. eigenvalues --    1.29308   1.33015   1.47032   1.47475   1.59420
  Beta virt. eigenvalues --    1.60598   1.65636   1.70491   1.80147   1.80641
  Beta virt. eigenvalues --    2.17099   2.26584   2.27661   2.32492   2.36043
  Beta virt. eigenvalues --    2.40857   2.45380   2.48624   2.50057   2.50838
  Beta virt. eigenvalues --    2.74701   2.75409   3.41743   3.44370  23.51116
  Beta virt. eigenvalues --   23.52982
          Condensed to atoms (all electrons):
               1          2          3          4          5          6
     1  C    5.110917   0.247179   0.361881   0.361880  -0.007854  -0.007855
     2  C    0.247179   5.110917  -0.007854  -0.007855   0.361881   0.361880
     3  H    0.361881  -0.007854   0.370515  -0.008206   0.000107   0.000484
     4  H    0.361880  -0.007855  -0.008206   0.370515   0.000484   0.000107
     5  H   -0.007854   0.361881   0.000107   0.000484   0.370515  -0.008206
     6  H   -0.007855   0.361880   0.000484   0.000107  -0.008206   0.370515
          Atomic-Atomic Spin Densities.
               1          2          3          4          5          6
     1  C    0.524087   0.026613  -0.005175  -0.005175   0.000657   0.000657
     2  C    0.026613   0.524086   0.000657   0.000657  -0.005175  -0.005175
     3  H   -0.005175   0.000657  -0.016410   0.000163  -0.000013  -0.000055
     4  H   -0.005175   0.000657   0.000163  -0.016410  -0.000055  -0.000013
     5  H    0.000657  -0.005175  -0.000013  -0.000055  -0.016410   0.000163
     6  H    0.000657  -0.005175  -0.000055  -0.000013   0.000163  -0.016410
 Mulliken charges and spin densities:
               1          2
     1  C   -0.066148   0.541664
     2  C   -0.066147   0.541664
     3  H    0.283074  -0.020832
     4  H    0.283074  -0.020832
     5  H    0.283074  -0.020832
     6  H    0.283074  -0.020832
 Sum of Mulliken charges =   1.00000   1.00000
 Mulliken charges and spin densities with hydrogens summed into heavy atoms:
               1          2
     1  C    0.500000   0.500000
     2  C    0.500000   0.500000
 Electronic spatial extent (au):  <R**2>=            142.8800
 Charge=              1.0000 electrons
 Dipole moment (field-independent basis, Debye):
    X=              0.0000    Y=             -0.0000    Z=             -0.0000  Tot=              0.0000
 Quadrupole moment (field-independent basis, Debye-Ang):
   XX=              2.4622   YY=             -7.8553   ZZ=            -12.9204
   XY=             -0.0000   XZ=              0.0000   YZ=              0.0000
 Traceless Quadrupole moment (field-independent basis, Debye-Ang):
   XX=              8.5667   YY=             -1.7508   ZZ=             -6.8159
   XY=             -0.0000   XZ=              0.0000   YZ=              0.0000
 Octapole moment (field-independent basis, Debye-Ang**2):
  XXX=              0.0000  YYY=             -0.0000  ZZZ=              0.0000  XYY=              0.0000
  XXY=             -0.0000  XXZ=             -0.0000  XZZ=              0.0000  YZZ=              0.0000
  YYZ=             -0.0000  XYZ=              0.0000
 Hexadecapole moment (field-independent basis, Debye-Ang**3):
 XXXX=           -117.7068 YYYY=            -17.3863 ZZZZ=            -13.9002 XXXY=              0.0002
 XXXZ=             -0.0000 YYYX=             -0.0001 YYYZ=              0.0000 ZZZX=             -0.0000
 ZZZY=              0.0000 XXYY=            -12.6428 XXZZ=            -27.5392 YYZZ=             -6.8084
 XXYZ=             -0.0000 YYXZ=              0.0000 ZZXY=              0.0000
 N-N= 2.408899777581D+01 E-N=-2.241461748516D+02  KE= 7.723610660528D+01
                          Isotropic Fermi Contact Couplings
        Atom                 a.u.       MegaHertz       Gauss      10(-4) cm-1
     1  C(13)              0.09250     103.99028      37.10632      34.68742
     2  C(13)              0.09250     103.99022      37.10630      34.68740
     3  H(1)              -0.00797     -35.63648     -12.71598     -11.88705
     4  H(1)              -0.00797     -35.63662     -12.71603     -11.88710
     5  H(1)              -0.00797     -35.63648     -12.71598     -11.88705
     6  H(1)              -0.00797     -35.63662     -12.71603     -11.88710
 --------------------------------------------------------
       Center         ----  Spin Dipole Couplings  ----
                      3XX-RR        3YY-RR        3ZZ-RR
 --------------------------------------------------------
     1   Atom       -0.291761     -0.294515      0.586276
     2   Atom       -0.291761     -0.294514      0.586276
     3   Atom       -0.021964      0.026221     -0.004257
     4   Atom       -0.021964      0.026221     -0.004257
     5   Atom       -0.021964      0.026221     -0.004257
     6   Atom       -0.021964      0.026221     -0.004257
 --------------------------------------------------------
                        XY            XZ            YZ
 --------------------------------------------------------
     1   Atom       -0.000000     -0.000000      0.000000
     2   Atom       -0.000000      0.000000     -0.000000
     3   Atom        0.028511     -0.000000      0.000000
     4   Atom       -0.028510      0.000000     -0.000000
     5   Atom        0.028511      0.000000     -0.000000
     6   Atom       -0.028510      0.000000      0.000000
 --------------------------------------------------------


 ---------------------------------------------------------------------------------
              Anisotropic Spin Dipole Couplings in Principal Axis System
 ---------------------------------------------------------------------------------

       Atom             a.u.   MegaHertz   Gauss  10(-4) cm-1        Axes

              Baa    -0.2945   -39.521   -14.102   -13.183  0.0000  1.0000 -0.0000
     1 C(13)  Bbb    -0.2918   -39.152   -13.970   -13.060  1.0000 -0.0000  0.0000
              Bcc     0.5863    78.673    28.072    26.242 -0.0000  0.0000  1.0000
 
              Baa    -0.2945   -39.521   -14.102   -13.183  0.0000  1.0000  0.0000
     2 C(13)  Bbb    -0.2918   -39.152   -13.970   -13.060  1.0000 -0.0000 -0.0000
              Bcc     0.5863    78.673    28.072    26.242  0.0000 -0.0000  1.0000
 
              Baa    -0.0352   -18.780    -6.701    -6.264  0.9070 -0.4210  0.0000
     3 H(1)   Bbb    -0.0043    -2.271    -0.810    -0.758 -0.0000 -0.0000  1.0000
              Bcc     0.0395    21.052     7.512     7.022  0.4210  0.9070  0.0000
 
              Baa    -0.0352   -18.780    -6.701    -6.264  0.9070  0.4210  0.0000
     4 H(1)   Bbb    -0.0043    -2.271    -0.811    -0.758 -0.0000  0.0000  1.0000
              Bcc     0.0395    21.052     7.512     7.022 -0.4210  0.9070 -0.0000
 
              Baa    -0.0352   -18.780    -6.701    -6.264  0.9070 -0.4210 -0.0000
     5 H(1)   Bbb    -0.0043    -2.271    -0.810    -0.758  0.0000 -0.0000  1.0000
              Bcc     0.0395    21.052     7.512     7.022  0.4210  0.9070 -0.0000
 
              Baa    -0.0352   -18.780    -6.701    -6.264  0.9070  0.4210 -0.0000
     6 H(1)   Bbb    -0.0043    -2.271    -0.811    -0.758  0.0000 -0.0000  1.0000
              Bcc     0.0395    21.052     7.512     7.022 -0.4210  0.9070  0.0000
 

 ---------------------------------------------------------------------------------

 No NMR shielding tensors so no spin-rotation constants.
 Leave Link  601 at Tue Dec  3 13:23:18 2024, MaxMem=  2147483648 cpu:               5.5 elap:               0.3
 (Enter /home/szhao/Apps/g16/l9999.exe)
 1\1\GINC-NODE02\FOpt\UM062X\6-311+G(d,p)\C2H4(1+,2)\SZHAO\03-Dec-2024\
 0\\#p opt UM062X/6-311+G** nosymm int=superfine SCF=NoVarAcc\\Title Ca
 rd Required\\1,2\C,-1.306027,0.,0.\C,1.306027,0.,0.\H,-1.7071812288,-1
 .0088827191,-0.0000000003\H,-1.7071723933,1.0088906334,-0.0000000008\H
 ,1.7071812336,1.0088827178,-0.0000000002\H,1.7071723981,-1.008890632,-
 0.0000000007\\Version=ES64L-G16RevA.03\HF=-77.9453041\S2=0.752276\S2-1
 =0.\S2A=0.750004\RMSD=1.403e-09\RMSF=4.848e-05\Dipole=0.0000001,0.,0.\
 Quadrupole=6.3691162,-1.3016635,-5.0674527,-0.0000009,0.,0.\PG=C02H [S
 GH(C2H4)]\\@


 I LOVE MANKIND - IT'S PEOPLE I CAN'T STAND.
     -- LINUS OF PEANUTS
 Job cpu time:       0 days  0 hours  5 minutes 18.9 seconds.
 Elapsed time:       0 days  0 hours  0 minutes 14.5 seconds.
 File lengths (MBytes):  RWF=     22 Int=      0 D2E=      0 Chk=      2 Scr=      2
 Normal termination of Gaussian 16 at Tue Dec  3 13:23:18 2024.
