 Entering Gaussian System, Link 0=g16
 Initial command:
 /home/szhao/Apps/g16/l1.exe "/home/szhao/tmp/Gau-78585.inp" -scrdir="/home/szhao/tmp/"
 Default is to use a total of  16 processors:
                               16 via shared-memory
                                1 via Linda
 Entering Link 1 = /home/szhao/Apps/g16/l1.exe PID=     78586.
  
 Copyright (c) 1988,1990,1992,1993,1995,1998,2003,2009,2016,
            Gaussian, Inc.  All Rights Reserved.
  
 This is part of the Gaussian(R) 16 program.  It is based on
 the Gaussian(R) 09 system (copyright 2009, Gaussian, Inc.),
 the Gaussian(R) 03 system (copyright 2003, Gaussian, Inc.),
 the Gaussian(R) 98 system (copyright 1998, Gaussian, Inc.),
 the Gaussian(R) 94 system (copyright 1995, Gaussian, Inc.),
 the Gaussian 92(TM) system (copyright 1992, Gaussian, Inc.),
 the Gaussian 90(TM) system (copyright 1990, Gaussian, Inc.),
 the Gaussian 88(TM) system (copyright 1988, Gaussian, Inc.),
 the Gaussian 86(TM) system (copyright 1986, Carnegie Mellon
 University), and the Gaussian 82(TM) system (copyright 1983,
 Carnegie Mellon University). Gaussian is a federally registered
 trademark of Gaussian, Inc.
  
 This software contains proprietary and confidential information,
 including trade secrets, belonging to Gaussian, Inc.
  
 This software is provided under written license and may be
 used, copied, transmitted, or stored only in accord with that
 written license.
  
 The following legend is applicable only to US Government
 contracts under FAR:
  
                    RESTRICTED RIGHTS LEGEND
  
 Use, reproduction and disclosure by the US Government is
 subject to restrictions as set forth in subparagraphs (a)
 and (c) of the Commercial Computer Software - Restricted
 Rights clause in FAR 52.227-19.
  
 Gaussian, Inc.
 340 Quinnipiac St., Bldg. 40, Wallingford CT 06492
  
  
 ---------------------------------------------------------------
 Warning -- This program may not be used in any manner that
 competes with the business of Gaussian, Inc. or will provide
 assistance to any competitor of Gaussian, Inc.  The licensee
 of this program is prohibited from giving any competitor of
 Gaussian, Inc. access to this program.  By using this program,
 the user acknowledges that Gaussian, Inc. is engaged in the
 business of creating and licensing software in the field of
 computational chemistry and represents and warrants to the
 licensee that it is not a competitor of Gaussian, Inc. and that
 it will not use this program in any manner prohibited above.
 ---------------------------------------------------------------
  

 Cite this work as:
 Gaussian 16, Revision A.03,
 M. J. Frisch, G. W. Trucks, H. B. Schlegel, G. E. Scuseria, 
 M. A. Robb, J. R. Cheeseman, G. Scalmani, V. Barone, 
 G. A. Petersson, H. Nakatsuji, X. Li, M. Caricato, A. V. Marenich, 
 J. Bloino, B. G. Janesko, R. Gomperts, B. Mennucci, H. P. Hratchian, 
 J. V. Ortiz, A. F. Izmaylov, J. L. Sonnenberg, D. Williams-Young, 
 F. Ding, F. Lipparini, F. Egidi, J. Goings, B. Peng, A. Petrone, 
 T. Henderson, D. Ranasinghe, V. G. Zakrzewski, J. Gao, N. Rega, 
 G. Zheng, W. Liang, M. Hada, M. Ehara, K. Toyota, R. Fukuda, 
 J. Hasegawa, M. Ishida, T. Nakajima, Y. Honda, O. Kitao, H. Nakai, 
 T. Vreven, K. Throssell, J. A. Montgomery, Jr., J. E. Peralta, 
 F. Ogliaro, M. J. Bearpark, J. J. Heyd, E. N. Brothers, K. N. Kudin, 
 V. N. Staroverov, T. A. Keith, R. Kobayashi, J. Normand, 
 K. Raghavachari, A. P. Rendell, J. C. Burant, S. S. Iyengar, 
 J. Tomasi, M. Cossi, J. M. Millam, M. Klene, C. Adamo, R. Cammi, 
 J. W. Ochterski, R. L. Martin, K. Morokuma, O. Farkas, 
 J. B. Foresman, and D. J. Fox, Gaussian, Inc., Wallingford CT, 2016.
 
 ******************************************
 Gaussian 16:  ES64L-G16RevA.03 25-Dec-2016
                16-Apr-2025 
 ******************************************
 %chk=opt.chk
 %mem=4GB
 %nprocshared=8
 Will use up to    8 processors via shared memory.
 --------------------------------------------
 #p opt UM062X/6-311+G** nosymm int=superfine
 --------------------------------------------
 1/18=20,19=15,26=5,38=1/1,3;
 2/9=110,12=2,15=1,17=6,18=5,40=1/2;
 3/5=4,6=6,7=111,11=2,25=1,30=1,71=1,74=-55,75=-7,116=2/1,2,3;
 4//1;
 5/5=2,38=5/2;
 6/7=2,8=2,9=2,10=2,28=1/1;
 7/30=1/1,2,3,16;
 1/18=20,19=15,26=5/3(2);
 2/9=110,15=1/2;
 99//99;
 2/9=110,15=1/2;
 3/5=4,6=6,7=111,11=2,25=1,30=1,71=1,74=-55,75=-7,116=2/1,2,3;
 4/5=5,16=3,69=1/1;
 5/5=2,38=5/2;
 7/30=1/1,2,3,16;
 1/18=20,19=15,26=5/3(-5);
 2/9=110,15=1/2;
 6/7=2,8=2,9=2,10=2,19=2,28=1/1;
 99/9=1/99;
 Leave Link    1 at Wed Apr 16 03:10:20 2025, MaxMem=   536870912 cpu:               0.4 elap:               0.0
 (Enter /home/szhao/Apps/g16/l101.exe)
 -------------------
 Title Card Required
 -------------------
 Symbolic Z-matrix:
 Charge =  0 Multiplicity = 1
 C                    -0.61543   0.        0. 
 P                     0.61543   0.        0. 
 H                    -1.21606   0.        0. 
 
 ITRead=  0  0  0
 MicOpt= -1 -1 -1
 NAtoms=      3 NQM=        3 NQMF=       0 NMMI=      0 NMMIF=      0
                NMic=       0 NMicF=      0.
                    Isotopes and Nuclear Properties:
 (Nuclear quadrupole moments (NQMom) in fm**2, nuclear magnetic moments (NMagM)
  in nuclear magnetons)

  Atom         1           2           3
 IAtWgt=          12          31           1
 AtmWgt=  12.0000000  30.9737634   1.0078250
 NucSpn=           0           1           1
 AtZEff=  -0.0000000  -0.0000000  -0.0000000
 NQMom=    0.0000000   0.0000000   0.0000000
 NMagM=    0.0000000   1.1316000   2.7928460
 AtZNuc=   6.0000000  15.0000000   1.0000000
 Leave Link  101 at Wed Apr 16 03:10:20 2025, MaxMem=   536870912 cpu:               2.1 elap:               0.3
 (Enter /home/szhao/Apps/g16/l103.exe)

 GradGradGradGradGradGradGradGradGradGradGradGradGradGradGradGradGradGrad
 Berny optimization.
 Initialization pass.
                           ----------------------------
                           !    Initial Parameters    !
                           ! (Angstroms and Degrees)  !
 --------------------------                            --------------------------
 ! Name  Definition              Value          Derivative Info.                !
 --------------------------------------------------------------------------------
 ! R1    R(1,2)                  1.2309         estimate D2E/DX2                !
 ! R2    R(1,3)                  0.6006         estimate D2E/DX2                !
 ! A1    L(2,1,3,-2,-1)        180.0            estimate D2E/DX2                !
 ! A2    L(2,1,3,-3,-2)        180.0            estimate D2E/DX2                !
 --------------------------------------------------------------------------------
 Trust Radius=3.00D-01 FncErr=1.00D-07 GrdErr=1.00D-07 EigMax=2.50D+02 EigMin=1.00D-04
 Number of steps in this run=     20 maximum allowed number of steps=    100.
 GradGradGradGradGradGradGradGradGradGradGradGradGradGradGradGradGradGrad

 Leave Link  103 at Wed Apr 16 03:10:20 2025, MaxMem=   536870912 cpu:               0.2 elap:               0.1
 (Enter /home/szhao/Apps/g16/l202.exe)
                          Input orientation:                          
 ---------------------------------------------------------------------
 Center     Atomic      Atomic             Coordinates (Angstroms)
 Number     Number       Type             X           Y           Z
 ---------------------------------------------------------------------
      1          6           0       -0.615428    0.000000    0.000000
      2         15           0        0.615428    0.000000    0.000000
      3          1           0       -1.216061    0.000000    0.000000
 ---------------------------------------------------------------------
                    Distance matrix (angstroms):
                    1          2          3
     1  C    0.000000
     2  P    1.230856   0.000000
     3  H    0.600633   1.831489   0.000000
 Symmetry turned off by external request.
 Stoichiometry    CHP
 Framework group  C*V[C*(HCP)]
 Deg. of freedom     2
 Full point group                 C*V     NOp   4
 Rotational constants (GHZ):           0.0000000          33.0676693          33.0676693
 Leave Link  202 at Wed Apr 16 03:10:21 2025, MaxMem=   536870912 cpu:               0.1 elap:               0.1
 (Enter /home/szhao/Apps/g16/l301.exe)
 Standard basis: 6-311+G(d,p) (5D, 7F)
 Ernie: Thresh=  0.10000D-02 Tol=  0.10000D-05 Strict=F.
    58 basis functions,    94 primitive gaussians,    60 cartesian basis functions
    11 alpha electrons       11 beta electrons
       nuclear repulsion energy        48.3135412155 Hartrees.
 IExCor= 4336 DFT=T Ex+Corr=M062X ExCW=0 ScaHFX=  0.540000
 ScaDFX=  1.000000  1.000000  1.000000  1.000000 ScalE2=  1.000000  1.000000
 IRadAn=      7 IRanWt=     -1 IRanGd=            0 ICorTp=0 IEmpDi=  4
 NAtoms=    3 NActive=    3 NUniq=    3 SFac= 1.00D+00 NAtFMM=   60 NAOKFM=F Big=F
 Integral buffers will be    131072 words long.
 Raffenetti 2 integral format.
 Two-electron integral symmetry is turned off.
 Leave Link  301 at Wed Apr 16 03:10:21 2025, MaxMem=   536870912 cpu:               0.4 elap:               0.1
 (Enter /home/szhao/Apps/g16/l302.exe)
 NPDir=0 NMtPBC=     1 NCelOv=     1 NCel=       1 NClECP=     1 NCelD=      1
         NCelK=      1 NCelE2=     1 NClLst=     1 CellRange=     0.0.
 One-electron integrals computed using PRISM.
 NBasis=    58 RedAO= T EigKep=  8.12D-04  NBF=    58
 NBsUse=    58 1.00D-06 EigRej= -1.00D+00 NBFU=    58
 Precomputing XC quadrature grid using
 IXCGrd= 4 IRadAn=           7 IRanWt=          -1 IRanGd=           0 AccXCQ= 0.00D+00.
 Generated NRdTot=       0 NPtTot=           0 NUsed=           0 NTot=          32
 NSgBfM=    60    60    60    60    60 MxSgAt=     3 MxSgA2=     3.
 Leave Link  302 at Wed Apr 16 03:10:21 2025, MaxMem=   536870912 cpu:               1.3 elap:               0.2
 (Enter /home/szhao/Apps/g16/l303.exe)
 DipDrv:  MaxL=1.
 Leave Link  303 at Wed Apr 16 03:10:21 2025, MaxMem=   536870912 cpu:               0.4 elap:               0.1
 (Enter /home/szhao/Apps/g16/l401.exe)
 ExpMin= 3.48D-02 ExpMax= 7.75D+04 ExpMxC= 2.65D+03 IAcc=3 IRadAn=         7 AccDes= 0.00D+00
 Harris functional with IExCor= 1009 and IRadAn=       7 diagonalized for initial guess.
 HarFok:  IExCor= 1009 AccDes= 0.00D+00 IRadAn=         7 IDoV= 1 UseB2=F ITyADJ=14
 ICtDFT=  3500011 ScaDFX=  1.000000  1.000000  1.000000  1.000000
 FoFCou: FMM=F IPFlag=           0 FMFlag=      100000 FMFlg1=           0
         NFxFlg=           0 DoJE=T BraDBF=F KetDBF=T FulRan=T
         wScrn=  0.000000 ICntrl=       500 IOpCl=  0 I1Cent=   200000004 NGrid=           0
         NMat0=    1 NMatS0=      1 NMatT0=    0 NMatD0=    1 NMtDS0=    0 NMtDT0=    0
 Symmetry not used in FoFCou.
 Harris En= -379.465875497932    
 JPrj=0 DoOrth=F DoCkMO=F.
 Initial guess <Sx>= 0.0000 <Sy>= 0.0000 <Sz>= 0.0000 <S**2>=-0.0000 S=-0.0000
 Leave Link  401 at Wed Apr 16 03:10:22 2025, MaxMem=   536870912 cpu:               2.3 elap:               0.3
 (Enter /home/szhao/Apps/g16/l502.exe)
 Keep R1 and R2 ints in memory in canonical form, NReq=10036953.
 FoFCou: FMM=F IPFlag=           0 FMFlag=           0 FMFlg1=           0
         NFxFlg=           0 DoJE=F BraDBF=F KetDBF=F FulRan=T
         wScrn=  0.000000 ICntrl=       600 IOpCl=  0 I1Cent=           0 NGrid=           0
         NMat0=    1 NMatS0=   1711 NMatT0=    0 NMatD0=    1 NMtDS0=    0 NMtDT0=    0
 Symmetry not used in FoFCou.
 Two-electron integral symmetry not used.
 UHF open shell SCF:
 Using DIIS extrapolation, IDIIS=  1040.
 NGot=   536870912 LenX=   533933447 LenY=   533929406
 Requested convergence on RMS density matrix=1.00D-08 within 128 cycles.
 Requested convergence on MAX density matrix=1.00D-06.
 Requested convergence on             energy=1.00D-06.
 No special actions if energy rises.

 Cycle   1  Pass 1  IDiag  1:
 E= -378.755848726025    
 DIIS: error= 9.94D-02 at cycle   1 NSaved=   1.
 NSaved= 1 IEnMin= 1 EnMin= -378.755848726025     IErMin= 1 ErrMin= 9.94D-02
 ErrMax= 9.94D-02  0.00D+00 EMaxC= 1.00D-01 BMatC= 2.64D+00 BMatP= 2.64D+00
 IDIUse=3 WtCom= 6.04D-03 WtEn= 9.94D-01
 Coeff-Com:  0.100D+01
 Coeff-En:   0.100D+01
 Coeff:      0.100D+01
 Gap=     0.530 Goal=   None    Shift=    0.000
 Gap=     0.530 Goal=   None    Shift=    0.000
 GapD=    0.530 DampG=2.000 DampE=0.500 DampFc=1.0000 IDamp=-1.
 RMSDP=2.16D-02 MaxDP=2.66D-01              OVMax= 6.41D-01

 Cycle   2  Pass 1  IDiag  1:
 E= -378.308420416465     Delta-E=        0.447428309560 Rises=F Damp=F
 DIIS: error= 1.54D-01 at cycle   2 NSaved=   2.
 NSaved= 2 IEnMin= 1 EnMin= -378.755848726025     IErMin= 1 ErrMin= 9.94D-02
 ErrMax= 1.54D-01  0.00D+00 EMaxC= 1.00D-01 BMatC= 3.34D+00 BMatP= 2.64D+00
 IDIUse=2 WtCom= 0.00D+00 WtEn= 1.00D+00
 Coeff-En:   0.626D+00 0.374D+00
 Coeff:      0.626D+00 0.374D+00
 Gap=     0.566 Goal=   None    Shift=    0.000
 Gap=     0.566 Goal=   None    Shift=    0.000
 RMSDP=1.58D-02 MaxDP=1.83D-01 DE= 4.47D-01 OVMax= 3.69D-01

 Cycle   3  Pass 1  IDiag  1:
 E= -379.329878016469     Delta-E=       -1.021457600005 Rises=F Damp=F
 DIIS: error= 1.47D-02 at cycle   3 NSaved=   3.
 NSaved= 3 IEnMin= 3 EnMin= -379.329878016469     IErMin= 3 ErrMin= 1.47D-02
 ErrMax= 1.47D-02  0.00D+00 EMaxC= 1.00D-01 BMatC= 6.01D-02 BMatP= 2.64D+00
 IDIUse=3 WtCom= 8.53D-01 WtEn= 1.47D-01
 Coeff-Com:  0.987D-01-0.370D-01 0.938D+00
 Coeff-En:   0.000D+00 0.000D+00 0.100D+01
 Coeff:      0.842D-01-0.316D-01 0.947D+00
 Gap=     0.403 Goal=   None    Shift=    0.000
 Gap=     0.403 Goal=   None    Shift=    0.000
 RMSDP=1.67D-03 MaxDP=3.21D-02 DE=-1.02D+00 OVMax= 3.64D-02

 Cycle   4  Pass 1  IDiag  1:
 E= -379.342086683147     Delta-E=       -0.012208666678 Rises=F Damp=F
 DIIS: error= 1.08D-03 at cycle   4 NSaved=   4.
 NSaved= 4 IEnMin= 4 EnMin= -379.342086683147     IErMin= 4 ErrMin= 1.08D-03
 ErrMax= 1.08D-03  0.00D+00 EMaxC= 1.00D-01 BMatC= 3.09D-04 BMatP= 6.01D-02
 IDIUse=3 WtCom= 9.89D-01 WtEn= 1.08D-02
 Coeff-Com: -0.132D-02-0.836D-02 0.872D-01 0.923D+00
 Coeff-En:   0.000D+00 0.000D+00 0.000D+00 0.100D+01
 Coeff:     -0.130D-02-0.827D-02 0.862D-01 0.923D+00
 Gap=     0.405 Goal=   None    Shift=    0.000
 Gap=     0.405 Goal=   None    Shift=    0.000
 RMSDP=2.98D-04 MaxDP=8.34D-03 DE=-1.22D-02 OVMax= 4.19D-03

 Cycle   5  Pass 1  IDiag  1:
 E= -379.342142538157     Delta-E=       -0.000055855010 Rises=F Damp=F
 DIIS: error= 5.33D-04 at cycle   5 NSaved=   5.
 NSaved= 5 IEnMin= 5 EnMin= -379.342142538157     IErMin= 5 ErrMin= 5.33D-04
 ErrMax= 5.33D-04  0.00D+00 EMaxC= 1.00D-01 BMatC= 5.60D-05 BMatP= 3.09D-04
 IDIUse=3 WtCom= 9.95D-01 WtEn= 5.33D-03
 Coeff-Com:  0.399D-03-0.282D-02 0.284D-02 0.130D+00 0.870D+00
 Coeff-En:   0.000D+00 0.000D+00 0.000D+00 0.000D+00 0.100D+01
 Coeff:      0.397D-03-0.281D-02 0.283D-02 0.129D+00 0.870D+00
 Gap=     0.403 Goal=   None    Shift=    0.000
 Gap=     0.403 Goal=   None    Shift=    0.000
 RMSDP=6.87D-05 MaxDP=1.06D-03 DE=-5.59D-05 OVMax= 1.32D-03

 Cycle   6  Pass 1  IDiag  1:
 E= -379.342156392279     Delta-E=       -0.000013854123 Rises=F Damp=F
 DIIS: error= 1.36D-04 at cycle   6 NSaved=   6.
 NSaved= 6 IEnMin= 6 EnMin= -379.342156392279     IErMin= 6 ErrMin= 1.36D-04
 ErrMax= 1.36D-04  0.00D+00 EMaxC= 1.00D-01 BMatC= 2.07D-06 BMatP= 5.60D-05
 IDIUse=3 WtCom= 9.99D-01 WtEn= 1.36D-03
 Coeff-Com:  0.499D-03-0.621D-03-0.198D-02-0.906D-02 0.217D+00 0.794D+00
 Coeff-En:   0.000D+00 0.000D+00 0.000D+00 0.000D+00 0.000D+00 0.100D+01
 Coeff:      0.499D-03-0.620D-03-0.198D-02-0.904D-02 0.217D+00 0.795D+00
 Gap=     0.403 Goal=   None    Shift=    0.000
 Gap=     0.403 Goal=   None    Shift=    0.000
 RMSDP=1.31D-05 MaxDP=1.75D-04 DE=-1.39D-05 OVMax= 2.27D-04

 Cycle   7  Pass 1  IDiag  1:
 E= -379.342156841055     Delta-E=       -0.000000448776 Rises=F Damp=F
 DIIS: error= 2.05D-05 at cycle   7 NSaved=   7.
 NSaved= 7 IEnMin= 7 EnMin= -379.342156841055     IErMin= 7 ErrMin= 2.05D-05
 ErrMax= 2.05D-05  0.00D+00 EMaxC= 1.00D-01 BMatC= 1.17D-07 BMatP= 2.07D-06
 IDIUse=1 WtCom= 1.00D+00 WtEn= 0.00D+00
 Coeff-Com:  0.106D-03-0.676D-04-0.460D-03-0.561D-02-0.402D-02 0.129D+00
 Coeff-Com:  0.881D+00
 Coeff:      0.106D-03-0.676D-04-0.460D-03-0.561D-02-0.402D-02 0.129D+00
 Coeff:      0.881D+00
 Gap=     0.403 Goal=   None    Shift=    0.000
 Gap=     0.403 Goal=   None    Shift=    0.000
 RMSDP=3.92D-06 MaxDP=4.65D-05 DE=-4.49D-07 OVMax= 4.13D-05

 Cycle   8  Pass 1  IDiag  1:
 E= -379.342156859178     Delta-E=       -0.000000018123 Rises=F Damp=F
 DIIS: error= 5.88D-06 at cycle   8 NSaved=   8.
 NSaved= 8 IEnMin= 8 EnMin= -379.342156859178     IErMin= 8 ErrMin= 5.88D-06
 ErrMax= 5.88D-06  0.00D+00 EMaxC= 1.00D-01 BMatC= 7.80D-09 BMatP= 1.17D-07
 IDIUse=1 WtCom= 1.00D+00 WtEn= 0.00D+00
 Coeff-Com: -0.578D-06 0.891D-05 0.117D-04-0.969D-04-0.142D-01-0.101D-01
 Coeff-Com:  0.247D-01 0.100D+01
 Coeff:     -0.578D-06 0.891D-05 0.117D-04-0.969D-04-0.142D-01-0.101D-01
 Coeff:      0.247D-01 0.100D+01
 Gap=     0.403 Goal=   None    Shift=    0.000
 Gap=     0.403 Goal=   None    Shift=    0.000
 RMSDP=1.24D-06 MaxDP=1.40D-05 DE=-1.81D-08 OVMax= 1.39D-05

 Cycle   9  Pass 1  IDiag  1:
 E= -379.342156861093     Delta-E=       -0.000000001916 Rises=F Damp=F
 DIIS: error= 1.36D-07 at cycle   9 NSaved=   9.
 NSaved= 9 IEnMin= 9 EnMin= -379.342156861093     IErMin= 9 ErrMin= 1.36D-07
 ErrMax= 1.36D-07  0.00D+00 EMaxC= 1.00D-01 BMatC= 7.09D-12 BMatP= 7.80D-09
 IDIUse=1 WtCom= 1.00D+00 WtEn= 0.00D+00
 Coeff-Com: -0.460D-06 0.587D-06 0.423D-05 0.854D-04 0.757D-03 0.428D-03
 Coeff-Com: -0.331D-02-0.786D-01 0.108D+01
 Coeff:     -0.460D-06 0.587D-06 0.423D-05 0.854D-04 0.757D-03 0.428D-03
 Coeff:     -0.331D-02-0.786D-01 0.108D+01
 Gap=     0.403 Goal=   None    Shift=    0.000
 Gap=     0.403 Goal=   None    Shift=    0.000
 RMSDP=7.77D-08 MaxDP=8.95D-07 DE=-1.92D-09 OVMax= 1.01D-06

 Cycle  10  Pass 1  IDiag  1:
 E= -379.342156861097     Delta-E=       -0.000000000003 Rises=F Damp=F
 DIIS: error= 2.73D-08 at cycle  10 NSaved=  10.
 NSaved=10 IEnMin=10 EnMin= -379.342156861097     IErMin=10 ErrMin= 2.73D-08
 ErrMax= 2.73D-08  0.00D+00 EMaxC= 1.00D-01 BMatC= 2.20D-13 BMatP= 7.09D-12
 IDIUse=1 WtCom= 1.00D+00 WtEn= 0.00D+00
 Coeff-Com: -0.534D-07-0.359D-07 0.277D-06-0.307D-05 0.572D-04 0.250D-03
 Coeff-Com: -0.594D-03-0.553D-02-0.689D-01 0.107D+01
 Coeff:     -0.534D-07-0.359D-07 0.277D-06-0.307D-05 0.572D-04 0.250D-03
 Coeff:     -0.594D-03-0.553D-02-0.689D-01 0.107D+01
 Gap=     0.403 Goal=   None    Shift=    0.000
 Gap=     0.403 Goal=   None    Shift=    0.000
 RMSDP=1.63D-08 MaxDP=3.87D-07 DE=-3.41D-12 OVMax= 1.68D-07

 Cycle  11  Pass 1  IDiag  1:
 E= -379.342156861097     Delta-E=       -0.000000000000 Rises=F Damp=F
 DIIS: error= 5.37D-09 at cycle  11 NSaved=  11.
 NSaved=11 IEnMin=11 EnMin= -379.342156861097     IErMin=11 ErrMin= 5.37D-09
 ErrMax= 5.37D-09  0.00D+00 EMaxC= 1.00D-01 BMatC= 6.46D-15 BMatP= 2.20D-13
 IDIUse=1 WtCom= 1.00D+00 WtEn= 0.00D+00
 Coeff-Com:  0.198D-07-0.107D-07-0.432D-07-0.459D-06-0.246D-04-0.393D-04
 Coeff-Com:  0.178D-03 0.142D-02-0.475D-02-0.130D+00 0.113D+01
 Coeff:      0.198D-07-0.107D-07-0.432D-07-0.459D-06-0.246D-04-0.393D-04
 Coeff:      0.178D-03 0.142D-02-0.475D-02-0.130D+00 0.113D+01
 Gap=     0.403 Goal=   None    Shift=    0.000
 Gap=     0.403 Goal=   None    Shift=    0.000
 RMSDP=2.94D-09 MaxDP=8.36D-08 DE=-2.27D-13 OVMax= 3.12D-08

 SCF Done:  E(UM062X) =  -379.342156861     A.U. after   11 cycles
            NFock= 11  Conv=0.29D-08     -V/T= 1.9917
 <Sx>= 0.0000 <Sy>= 0.0000 <Sz>= 0.0000 <S**2>=-0.0000 S=-0.0000
 <L.S>=  0.00000000000    
 KE= 3.825054368153D+02 PE=-1.000746795921D+03 EE= 1.905856610289D+02
 Annihilation of the first spin contaminant:
 S**2 before annihilation    -0.0000,   after    -0.0000
 Leave Link  502 at Wed Apr 16 03:10:25 2025, MaxMem=   536870912 cpu:              25.2 elap:               3.2
 (Enter /home/szhao/Apps/g16/l601.exe)
 Copying SCF densities to generalized density rwf, IOpCl= 1 IROHF=0.

 **********************************************************************

            Population analysis using the SCF density.

 **********************************************************************

 Alpha  occ. eigenvalues --  -77.95748 -10.48944  -6.81757  -4.93627  -4.92670
 Alpha  occ. eigenvalues --   -4.92670  -0.88149  -0.72185  -0.40139  -0.39194
 Alpha  occ. eigenvalues --   -0.39194
 Alpha virt. eigenvalues --    0.01141   0.01323   0.01323   0.03825   0.05236
 Alpha virt. eigenvalues --    0.05236   0.07501   0.12274   0.12274   0.16107
 Alpha virt. eigenvalues --    0.20980   0.30076   0.33228   0.33228   0.45905
 Alpha virt. eigenvalues --    0.61398   0.62174   0.62174   0.64975   0.70928
 Alpha virt. eigenvalues --    0.70929   0.85167   0.85247   0.85247   1.23407
 Alpha virt. eigenvalues --    1.43133   1.43133   1.52241   1.56418   1.56418
 Alpha virt. eigenvalues --    1.68946   1.74517   1.74517   2.35739   2.55663
 Alpha virt. eigenvalues --    2.55663   2.95006   2.95006   3.01357   3.27267
 Alpha virt. eigenvalues --    5.71163   7.40098  14.10322  14.10322  14.68662
 Alpha virt. eigenvalues --   24.72322 163.81122
  Beta  occ. eigenvalues --  -77.95748 -10.48944  -6.81757  -4.93627  -4.92670
  Beta  occ. eigenvalues --   -4.92670  -0.88149  -0.72185  -0.40139  -0.39194
  Beta  occ. eigenvalues --   -0.39194
  Beta virt. eigenvalues --    0.01141   0.01323   0.01323   0.03825   0.05236
  Beta virt. eigenvalues --    0.05236   0.07501   0.12274   0.12274   0.16107
  Beta virt. eigenvalues --    0.20980   0.30076   0.33228   0.33228   0.45905
  Beta virt. eigenvalues --    0.61398   0.62174   0.62174   0.64975   0.70928
  Beta virt. eigenvalues --    0.70929   0.85167   0.85247   0.85247   1.23407
  Beta virt. eigenvalues --    1.43133   1.43133   1.52241   1.56418   1.56418
  Beta virt. eigenvalues --    1.68946   1.74517   1.74517   2.35739   2.55663
  Beta virt. eigenvalues --    2.55663   2.95006   2.95006   3.01357   3.27267
  Beta virt. eigenvalues --    5.71163   7.40098  14.10322  14.10322  14.68662
  Beta virt. eigenvalues --   24.72322 163.81122
          Condensed to atoms (all electrons):
               1          2          3
     1  C    5.041664   0.486580   0.330410
     2  P    0.486580  14.425448  -0.127303
     3  H    0.330410  -0.127303   1.153515
          Atomic-Atomic Spin Densities.
               1          2          3
     1  C   -0.000000   0.000000  -0.000000
     2  P    0.000000  -0.000000   0.000000
     3  H   -0.000000   0.000000   0.000000
 Mulliken charges and spin densities:
               1          2
     1  C    0.141346  -0.000000
     2  P    0.215276  -0.000000
     3  H   -0.356622   0.000000
 Sum of Mulliken charges =  -0.00000   0.00000
 Mulliken charges and spin densities with hydrogens summed into heavy atoms:
               1          2
     1  C   -0.215276   0.000000
     2  P    0.215276  -0.000000
 Electronic spatial extent (au):  <R**2>=             73.0185
 Charge=             -0.0000 electrons
 Dipole moment (field-independent basis, Debye):
    X=             -0.0248    Y=             -0.0000    Z=             -0.0000  Tot=              0.0248
 Quadrupole moment (field-independent basis, Debye-Ang):
   XX=            -17.3508   YY=            -17.7774   ZZ=            -17.7774
   XY=             -0.0000   XZ=             -0.0000   YZ=             -0.0000
 Traceless Quadrupole moment (field-independent basis, Debye-Ang):
   XX=              0.2844   YY=             -0.1422   ZZ=             -0.1422
   XY=             -0.0000   XZ=             -0.0000   YZ=             -0.0000
 Octapole moment (field-independent basis, Debye-Ang**2):
  XXX=            -15.3677  YYY=             -0.0000  ZZZ=             -0.0000  XYY=             -3.4989
  XXY=             -0.0000  XXZ=             -0.0000  XZZ=             -3.4989  YZZ=             -0.0000
  YYZ=             -0.0000  XYZ=             -0.0000
 Hexadecapole moment (field-independent basis, Debye-Ang**3):
 XXXX=            -70.0510 YYYY=            -23.0462 ZZZZ=            -23.0462 XXXY=             -0.0000
 XXXZ=             -0.0000 YYYX=             -0.0000 YYYZ=             -0.0000 ZZZX=             -0.0000
 ZZZY=             -0.0000 XXYY=            -15.1355 XXZZ=            -15.1355 YYZZ=             -7.6821
 XXYZ=             -0.0000 YYXZ=             -0.0000 ZZXY=             -0.0000
 N-N= 4.831354121553D+01 E-N=-1.000746796017D+03  KE= 3.825054368153D+02
                          Isotropic Fermi Contact Couplings
        Atom                 a.u.       MegaHertz       Gauss      10(-4) cm-1
     1  C(13)              0.00000       0.00000       0.00000       0.00000
     2  P(31)              0.00000       0.00000       0.00000       0.00000
     3  H(1)               0.00000       0.00000       0.00000       0.00000
 --------------------------------------------------------
       Center         ----  Spin Dipole Couplings  ----
                      3XX-RR        3YY-RR        3ZZ-RR
 --------------------------------------------------------
     1   Atom        0.000000      0.000000      0.000000
     2   Atom        0.000000      0.000000      0.000000
     3   Atom        0.000000      0.000000      0.000000
 --------------------------------------------------------
                        XY            XZ            YZ
 --------------------------------------------------------
     1   Atom        0.000000      0.000000      0.000000
     2   Atom        0.000000      0.000000      0.000000
     3   Atom        0.000000      0.000000      0.000000
 --------------------------------------------------------


 ---------------------------------------------------------------------------------
              Anisotropic Spin Dipole Couplings in Principal Axis System
 ---------------------------------------------------------------------------------

       Atom             a.u.   MegaHertz   Gauss  10(-4) cm-1        Axes

              Baa     0.0000     0.000     0.000     0.000  1.0000  0.0000  0.0000
     1 C(13)  Bbb     0.0000     0.000     0.000     0.000 -0.0000  1.0000  0.0000
              Bcc     0.0000     0.000     0.000     0.000  0.0000  0.0000  1.0000
 
              Baa     0.0000     0.000     0.000     0.000  1.0000  0.0000  0.0000
     2 P(31)  Bbb     0.0000     0.000     0.000     0.000 -0.0000  1.0000  0.0000
              Bcc     0.0000     0.000     0.000     0.000  0.0000  0.0000  1.0000
 
              Baa     0.0000     0.000     0.000     0.000  1.0000  0.0000  0.0000
     3 H(1)   Bbb     0.0000     0.000     0.000     0.000 -0.0000  1.0000  0.0000
              Bcc     0.0000     0.000     0.000     0.000  0.0000  0.0000  1.0000
 

 ---------------------------------------------------------------------------------

 No NMR shielding tensors so no spin-rotation constants.
 Leave Link  601 at Wed Apr 16 03:10:25 2025, MaxMem=   536870912 cpu:               0.8 elap:               0.2
 (Enter /home/szhao/Apps/g16/l701.exe)
 ... and contract with generalized density number  0.
 Compute integral first derivatives.
 Leave Link  701 at Wed Apr 16 03:10:25 2025, MaxMem=   536870912 cpu:               0.7 elap:               0.1
 (Enter /home/szhao/Apps/g16/l702.exe)
 L702 exits ... SP integral derivatives will be done elsewhere.
 Leave Link  702 at Wed Apr 16 03:10:26 2025, MaxMem=   536870912 cpu:               0.2 elap:               0.1
 (Enter /home/szhao/Apps/g16/l703.exe)
 Integral derivatives from FoFJK, PRISM(SPDF).
 Compute integral first derivatives, UseDBF=F ICtDFT=           0.
 Calling FoFJK, ICntrl=      2127 FMM=F ISym2X=0 I1Cent= 0 IOpClX= 1 NMat=1 NMatS=1 NMatT=0.
 FoFJK:  IHMeth= 1 ICntrl=    2127 DoSepK=F KAlg= 0 I1Cent=           0 FoldK=F
 IRaf=         0 NMat=       1 IRICut=       1 DoRegI=T DoRafI=F ISym2E= 0 IDoP0=0 IntGTp=1.
 FoFCou: FMM=F IPFlag=           0 FMFlag=      100000 FMFlg1=         800
         NFxFlg=           0 DoJE=F BraDBF=F KetDBF=F FulRan=T
         wScrn=  0.000000 ICntrl=      2127 IOpCl=  1 I1Cent=           0 NGrid=           0
         NMat0=    1 NMatS0=      1 NMatT0=    0 NMatD0=    1 NMtDS0=    0 NMtDT0=    0
 Symmetry not used in FoFCou.
 Leave Link  703 at Wed Apr 16 03:10:26 2025, MaxMem=   536870912 cpu:               6.0 elap:               0.8
 (Enter /home/szhao/Apps/g16/l716.exe)
 Dipole        =-9.77318004D-03-1.93906704D-13-1.37551755D-13
 -------------------------------------------------------------------
 Center     Atomic                   Forces (Hartrees/Bohr)
 Number     Number              X              Y              Z
 -------------------------------------------------------------------
      1        6           0.844226666    0.000000000    0.000000000
      2       15           0.828454784    0.000000000    0.000000000
      3        1          -1.672681450    0.000000000    0.000000000
 -------------------------------------------------------------------
 Cartesian Forces:  Max     1.672681450 RMS     0.682879461
 Leave Link  716 at Wed Apr 16 03:10:27 2025, MaxMem=   536870912 cpu:               0.3 elap:               0.1
 (Enter /home/szhao/Apps/g16/l103.exe)

 GradGradGradGradGradGradGradGradGradGradGradGradGradGradGradGradGradGrad
 Berny optimization.
 FormGI is forming the generalized inverse of G from B-inverse, IUseBI=4.
 Internal  Forces:  Max     1.672681450 RMS     0.933300670
 Search for a local minimum.
 Step number   1 out of a maximum of   20
 All quantities printed in internal units (Hartrees-Bohrs-Radians)
 RMS Force = .93330D+00 SwitMx=.10000D-02 MixMth= 1
 Mixed Optimization -- RFO/linear search
 Second derivative matrix not updated -- first step.
 The second derivative matrix:
                          R1        R2        A1        A2
           R1           3.33666
           R2           0.00000   3.61169
           A1           0.00000   0.00000   0.06708
           A2           0.00000   0.00000   0.00000   0.06708
 ITU=  0
     Eigenvalues ---    0.06708   0.06708   3.33666   3.61169
 RFO step:  Lambda=-8.00091828D-01 EMin= 6.70821656D-02
 Linear search not attempted -- first point.
 Maximum step size (   0.300) exceeded in Quadratic search.
    -- Step size scaled by   0.700
 Iteration  1 RMS(Cart)=  0.12086957 RMS(Int)=  0.03263381
 Iteration  2 RMS(Cart)=  0.02664539 RMS(Int)=  0.00000000
 Iteration  3 RMS(Cart)=  0.00000000 RMS(Int)=  0.00000000
 ITry= 1 IFail=0 DXMaxC= 2.24D-01 DCOld= 1.00D+10 DXMaxT= 3.00D-01 DXLimC= 3.00D+00 Rises=F
 Variable       Old X    -DE/DX   Delta X   Delta X   Delta X     New X
                                 (Linear)    (Quad)   (Total)
    R1        2.32598   0.82845   0.00000   0.14012   0.14012   2.46610
    R2        1.13503   1.67268   0.00000   0.26527   0.26527   1.40030
    A1        3.14159   0.00000   0.00000   0.00000   0.00000   3.14159
    A2        3.14159  -0.00000   0.00000  -0.00000   0.00000   3.14159
         Item               Value     Threshold  Converged?
 Maximum Force            1.672681     0.000450     NO 
 RMS     Force            0.933301     0.000300     NO 
 Maximum Displacement     0.223551     0.001800     NO 
 RMS     Displacement     0.145584     0.001200     NO 
 Predicted change in Energy=-3.999635D-01
 Lowest energy point so far.  Saving SCF results.
 GradGradGradGradGradGradGradGradGradGradGradGradGradGradGradGradGradGrad

 Leave Link  103 at Wed Apr 16 03:10:27 2025, MaxMem=   536870912 cpu:               0.2 elap:               0.1
 (Enter /home/szhao/Apps/g16/l202.exe)
                          Input orientation:                          
 ---------------------------------------------------------------------
 Center     Atomic      Atomic             Coordinates (Angstroms)
 Number     Number       Type             X           Y           Z
 ---------------------------------------------------------------------
      1          6           0       -0.593353    0.000000    0.000000
      2         15           0        0.711651   -0.000000   -0.000000
      3          1           0       -1.334359   -0.000000   -0.000000
 ---------------------------------------------------------------------
                    Distance matrix (angstroms):
                    1          2          3
     1  C    0.000000
     2  P    1.305003   0.000000
     3  H    0.741007   2.046010   0.000000
 Symmetry turned off by external request.
 Stoichiometry    CHP
 Framework group  C*V[C*(HCP)]
 Deg. of freedom     2
 Full point group                 C*V     NOp   4
 Rotational constants (GHZ):           0.0000000          28.8551500          28.8551500
 Leave Link  202 at Wed Apr 16 03:10:27 2025, MaxMem=   536870912 cpu:               0.1 elap:               0.1
 (Enter /home/szhao/Apps/g16/l301.exe)
 Standard basis: 6-311+G(d,p) (5D, 7F)
 Ernie: Thresh=  0.10000D-02 Tol=  0.10000D-05 Strict=F.
    58 basis functions,    94 primitive gaussians,    60 cartesian basis functions
    11 alpha electrons       11 beta electrons
       nuclear repulsion energy        44.6592632862 Hartrees.
 IExCor= 4336 DFT=T Ex+Corr=M062X ExCW=0 ScaHFX=  0.540000
 ScaDFX=  1.000000  1.000000  1.000000  1.000000 ScalE2=  1.000000  1.000000
 IRadAn=      7 IRanWt=     -1 IRanGd=            0 ICorTp=0 IEmpDi=  4
 NAtoms=    3 NActive=    3 NUniq=    3 SFac= 1.00D+00 NAtFMM=   60 NAOKFM=F Big=F
 Integral buffers will be    131072 words long.
 Raffenetti 2 integral format.
 Two-electron integral symmetry is turned off.
 Leave Link  301 at Wed Apr 16 03:10:27 2025, MaxMem=   536870912 cpu:               0.5 elap:               0.1
 (Enter /home/szhao/Apps/g16/l302.exe)
 NPDir=0 NMtPBC=     1 NCelOv=     1 NCel=       1 NClECP=     1 NCelD=      1
         NCelK=      1 NCelE2=     1 NClLst=     1 CellRange=     0.0.
 One-electron integrals computed using PRISM.
 NBasis=    58 RedAO= T EigKep=  9.57D-04  NBF=    58
 NBsUse=    58 1.00D-06 EigRej= -1.00D+00 NBFU=    58
 Precomputing XC quadrature grid using
 IXCGrd= 4 IRadAn=           7 IRanWt=          -1 IRanGd=           0 AccXCQ= 0.00D+00.
 Generated NRdTot=       0 NPtTot=           0 NUsed=           0 NTot=          32
 NSgBfM=    60    60    60    60    60 MxSgAt=     3 MxSgA2=     3.
 Leave Link  302 at Wed Apr 16 03:10:27 2025, MaxMem=   536870912 cpu:               0.9 elap:               0.2
 (Enter /home/szhao/Apps/g16/l303.exe)
 DipDrv:  MaxL=1.
 Leave Link  303 at Wed Apr 16 03:10:28 2025, MaxMem=   536870912 cpu:               0.2 elap:               0.1
 (Enter /home/szhao/Apps/g16/l401.exe)
 Initial guess from the checkpoint file:  "opt.chk"
 B after Tr=     0.125194    0.000000    0.000000
         Rot=    0.841958    0.539544   -0.000000    0.000000 Ang=  65.31 deg.
 Guess basis will be translated and rotated to current coordinates.
 JPrj=2 DoOrth=T DoCkMO=T.
 Initial guess <Sx>= 0.0000 <Sy>= 0.0000 <Sz>= 0.0000 <S**2>=-0.0000 S=-0.0000
 Generating alternative initial guess.
 ExpMin= 3.48D-02 ExpMax= 7.75D+04 ExpMxC= 2.65D+03 IAcc=3 IRadAn=         5 AccDes= 0.00D+00
 Harris functional with IExCor= 1009 and IRadAn=       5 diagonalized for initial guess.
 HarFok:  IExCor= 1009 AccDes= 0.00D+00 IRadAn=         5 IDoV= 1 UseB2=F ITyADJ=14
 ICtDFT=  3500011 ScaDFX=  1.000000  1.000000  1.000000  1.000000
 FoFCou: FMM=F IPFlag=           0 FMFlag=      100000 FMFlg1=           0
         NFxFlg=           0 DoJE=T BraDBF=F KetDBF=T FulRan=T
         wScrn=  0.000000 ICntrl=       500 IOpCl=  0 I1Cent=   200000004 NGrid=           0
         NMat0=    1 NMatS0=      1 NMatT0=    0 NMatD0=    1 NMtDS0=    0 NMtDT0=    0
 Symmetry not used in FoFCou.
 Harris En= -379.735079852172    
 Leave Link  401 at Wed Apr 16 03:10:28 2025, MaxMem=   536870912 cpu:               1.7 elap:               0.3
 (Enter /home/szhao/Apps/g16/l502.exe)
 Keep R1 and R2 ints in memory in canonical form, NReq=10036953.
 FoFCou: FMM=F IPFlag=           0 FMFlag=           0 FMFlg1=           0
         NFxFlg=           0 DoJE=F BraDBF=F KetDBF=F FulRan=T
         wScrn=  0.000000 ICntrl=       600 IOpCl=  0 I1Cent=           0 NGrid=           0
         NMat0=    1 NMatS0=   1711 NMatT0=    0 NMatD0=    1 NMtDS0=    0 NMtDT0=    0
 Symmetry not used in FoFCou.
 Two-electron integral symmetry not used.
 UHF open shell SCF:
 Using DIIS extrapolation, IDIIS=  1040.
 NGot=   536870912 LenX=   533933447 LenY=   533929406
 Requested convergence on RMS density matrix=1.00D-08 within 128 cycles.
 Requested convergence on MAX density matrix=1.00D-06.
 Requested convergence on             energy=1.00D-06.
 No special actions if energy rises.

 Cycle   1  Pass 1  IDiag  1:
 E= -379.716395320582    
 DIIS: error= 2.89D-02 at cycle   1 NSaved=   1.
 NSaved= 1 IEnMin= 1 EnMin= -379.716395320582     IErMin= 1 ErrMin= 2.89D-02
 ErrMax= 2.89D-02  0.00D+00 EMaxC= 1.00D-01 BMatC= 1.17D-01 BMatP= 1.17D-01
 IDIUse=3 WtCom= 7.11D-01 WtEn= 2.89D-01
 Coeff-Com:  0.100D+01
 Coeff-En:   0.100D+01
 Coeff:      0.100D+01
 Recover alternate guess density for next cycle.
 RMSDP=7.60D-03 MaxDP=1.75D-01              OVMax= 0.00D+00

 Cycle   2  Pass 1  IDiag  1:
 E= -379.306622188345     Delta-E=        0.409773132237 Rises=F Damp=F
 Switch densities from cycles 1 and 2 for lowest energy.
 DIIS: error= 9.30D-02 at cycle   2 NSaved=   2.
 NSaved= 2 IEnMin= 1 EnMin= -379.716395320582     IErMin= 1 ErrMin= 2.89D-02
 ErrMax= 9.30D-02  0.00D+00 EMaxC= 1.00D+00 BMatC= 1.83D+00 BMatP= 1.17D-01
 IDIUse=1 WtCom= 1.00D+00 WtEn= 0.00D+00
 Coeff-Com:  0.993D+00 0.679D-02
 Coeff:      0.993D+00 0.679D-02
 Gap=     0.429 Goal=   None    Shift=    0.000
 Gap=     0.429 Goal=   None    Shift=    0.000
 RMSDP=3.28D-03 MaxDP=5.02D-02 DE= 4.10D-01 OVMax= 2.80D-01

 Cycle   3  Pass 1  IDiag  1:
 E= -379.726614064491     Delta-E=       -0.419991876146 Rises=F Damp=F
 DIIS: error= 7.67D-03 at cycle   3 NSaved=   3.
 NSaved= 3 IEnMin= 3 EnMin= -379.726614064491     IErMin= 3 ErrMin= 7.67D-03
 ErrMax= 7.67D-03  0.00D+00 EMaxC= 1.00D+00 BMatC= 1.43D-02 BMatP= 1.17D-01
 IDIUse=1 WtCom= 1.00D+00 WtEn= 0.00D+00
 Coeff-Com:  0.976D-02 0.752D-01 0.915D+00
 Coeff:      0.976D-02 0.752D-01 0.915D+00
 Gap=     0.382 Goal=   None    Shift=    0.000
 Gap=     0.382 Goal=   None    Shift=    0.000
 RMSDP=9.22D-04 MaxDP=1.62D-02 DE=-4.20D-01 OVMax= 3.00D-02

 Cycle   4  Pass 1  IDiag  1:
 E= -379.730152387038     Delta-E=       -0.003538322547 Rises=F Damp=F
 DIIS: error= 1.96D-03 at cycle   4 NSaved=   4.
 NSaved= 4 IEnMin= 4 EnMin= -379.730152387038     IErMin= 4 ErrMin= 1.96D-03
 ErrMax= 1.96D-03  0.00D+00 EMaxC= 1.00D+00 BMatC= 6.26D-04 BMatP= 1.43D-02
 IDIUse=1 WtCom= 1.00D+00 WtEn= 0.00D+00
 Coeff-Com: -0.221D-02 0.876D-02 0.235D+00 0.759D+00
 Coeff:     -0.221D-02 0.876D-02 0.235D+00 0.759D+00
 Gap=     0.383 Goal=   None    Shift=    0.000
 Gap=     0.383 Goal=   None    Shift=    0.000
 RMSDP=2.31D-04 MaxDP=3.93D-03 DE=-3.54D-03 OVMax= 6.89D-03

 Cycle   5  Pass 1  IDiag  1:
 E= -379.730341302244     Delta-E=       -0.000188915206 Rises=F Damp=F
 DIIS: error= 2.69D-04 at cycle   5 NSaved=   5.
 NSaved= 5 IEnMin= 5 EnMin= -379.730341302244     IErMin= 5 ErrMin= 2.69D-04
 ErrMax= 2.69D-04  0.00D+00 EMaxC= 1.00D+00 BMatC= 2.28D-05 BMatP= 6.26D-04
 IDIUse=1 WtCom= 1.00D+00 WtEn= 0.00D+00
 Coeff-Com: -0.750D-03-0.202D-03 0.195D-01 0.214D+00 0.768D+00
 Coeff:     -0.750D-03-0.202D-03 0.195D-01 0.214D+00 0.768D+00
 Gap=     0.383 Goal=   None    Shift=    0.000
 Gap=     0.383 Goal=   None    Shift=    0.000
 RMSDP=3.70D-05 MaxDP=9.04D-04 DE=-1.89D-04 OVMax= 7.46D-04

 Cycle   6  Pass 1  IDiag  1:
 E= -379.730345940016     Delta-E=       -0.000004637772 Rises=F Damp=F
 DIIS: error= 7.77D-05 at cycle   6 NSaved=   6.
 NSaved= 6 IEnMin= 6 EnMin= -379.730345940016     IErMin= 6 ErrMin= 7.77D-05
 ErrMax= 7.77D-05  0.00D+00 EMaxC= 1.00D+00 BMatC= 1.43D-06 BMatP= 2.28D-05
 IDIUse=1 WtCom= 1.00D+00 WtEn= 0.00D+00
 Coeff-Com: -0.219D-03-0.359D-03-0.107D-01 0.198D-01 0.134D+00 0.858D+00
 Coeff:     -0.219D-03-0.359D-03-0.107D-01 0.198D-01 0.134D+00 0.858D+00
 Gap=     0.383 Goal=   None    Shift=    0.000
 Gap=     0.383 Goal=   None    Shift=    0.000
 RMSDP=1.10D-05 MaxDP=1.91D-04 DE=-4.64D-06 OVMax= 1.87D-04

 Cycle   7  Pass 1  IDiag  1:
 E= -379.730346299857     Delta-E=       -0.000000359841 Rises=F Damp=F
 DIIS: error= 7.72D-06 at cycle   7 NSaved=   7.
 NSaved= 7 IEnMin= 7 EnMin= -379.730346299857     IErMin= 7 ErrMin= 7.72D-06
 ErrMax= 7.72D-06  0.00D+00 EMaxC= 1.00D+00 BMatC= 8.71D-09 BMatP= 1.43D-06
 IDIUse=1 WtCom= 1.00D+00 WtEn= 0.00D+00
 Coeff-Com:  0.128D-04 0.113D-04-0.428D-03-0.419D-02-0.136D-01-0.568D-01
 Coeff-Com:  0.107D+01
 Coeff:      0.128D-04 0.113D-04-0.428D-03-0.419D-02-0.136D-01-0.568D-01
 Coeff:      0.107D+01
 Gap=     0.383 Goal=   None    Shift=    0.000
 Gap=     0.383 Goal=   None    Shift=    0.000
 RMSDP=1.89D-06 MaxDP=2.48D-05 DE=-3.60D-07 OVMax= 3.93D-05

 Cycle   8  Pass 1  IDiag  1:
 E= -379.730346303850     Delta-E=       -0.000000003993 Rises=F Damp=F
 DIIS: error= 1.17D-06 at cycle   8 NSaved=   8.
 NSaved= 8 IEnMin= 8 EnMin= -379.730346303850     IErMin= 8 ErrMin= 1.17D-06
 ErrMax= 1.17D-06  0.00D+00 EMaxC= 1.00D+00 BMatC= 2.75D-10 BMatP= 8.71D-09
 IDIUse=1 WtCom= 1.00D+00 WtEn= 0.00D+00
 Coeff-Com: -0.135D-05 0.526D-05 0.141D-03 0.924D-04-0.280D-02-0.716D-02
 Coeff-Com: -0.895D-01 0.110D+01
 Coeff:     -0.135D-05 0.526D-05 0.141D-03 0.924D-04-0.280D-02-0.716D-02
 Coeff:     -0.895D-01 0.110D+01
 Gap=     0.383 Goal=   None    Shift=    0.000
 Gap=     0.383 Goal=   None    Shift=    0.000
 RMSDP=3.98D-07 MaxDP=5.51D-06 DE=-3.99D-09 OVMax= 5.79D-06

 Cycle   9  Pass 1  IDiag  1:
 E= -379.730346303949     Delta-E=       -0.000000000099 Rises=F Damp=F
 DIIS: error= 1.61D-07 at cycle   9 NSaved=   9.
 NSaved= 9 IEnMin= 9 EnMin= -379.730346303949     IErMin= 9 ErrMin= 1.61D-07
 ErrMax= 1.61D-07  0.00D+00 EMaxC= 1.00D+00 BMatC= 5.29D-12 BMatP= 2.75D-10
 IDIUse=1 WtCom= 1.00D+00 WtEn= 0.00D+00
 Coeff-Com:  0.518D-06-0.277D-07 0.104D-04 0.906D-04-0.741D-05-0.596D-03
 Coeff-Com: -0.690D-02 0.256D-02 0.100D+01
 Coeff:      0.518D-06-0.277D-07 0.104D-04 0.906D-04-0.741D-05-0.596D-03
 Coeff:     -0.690D-02 0.256D-02 0.100D+01
 Gap=     0.383 Goal=   None    Shift=    0.000
 Gap=     0.383 Goal=   None    Shift=    0.000
 RMSDP=4.46D-08 MaxDP=7.91D-07 DE=-9.95D-11 OVMax= 4.37D-07

 Cycle  10  Pass 1  IDiag  1:
 E= -379.730346303951     Delta-E=       -0.000000000002 Rises=F Damp=F
 DIIS: error= 2.89D-08 at cycle  10 NSaved=  10.
 NSaved=10 IEnMin=10 EnMin= -379.730346303951     IErMin=10 ErrMin= 2.89D-08
 ErrMax= 2.89D-08  0.00D+00 EMaxC= 1.00D+00 BMatC= 1.17D-13 BMatP= 5.29D-12
 IDIUse=1 WtCom= 1.00D+00 WtEn= 0.00D+00
 Coeff-Com:  0.448D-07-0.334D-07-0.163D-05 0.840D-05 0.328D-04 0.691D-04
 Coeff-Com:  0.100D-02-0.202D-01 0.494D-01 0.970D+00
 Coeff:      0.448D-07-0.334D-07-0.163D-05 0.840D-05 0.328D-04 0.691D-04
 Coeff:      0.100D-02-0.202D-01 0.494D-01 0.970D+00
 Gap=     0.383 Goal=   None    Shift=    0.000
 Gap=     0.383 Goal=   None    Shift=    0.000
 RMSDP=1.01D-08 MaxDP=2.30D-07 DE=-2.05D-12 OVMax= 9.59D-08

 Cycle  11  Pass 1  IDiag  1:
 E= -379.730346303951     Delta-E=        0.000000000000 Rises=F Damp=F
 DIIS: error= 2.88D-09 at cycle  11 NSaved=  11.
 NSaved=11 IEnMin=10 EnMin= -379.730346303951     IErMin=11 ErrMin= 2.88D-09
 ErrMax= 2.88D-09  0.00D+00 EMaxC= 1.00D+00 BMatC= 1.64D-15 BMatP= 1.17D-13
 IDIUse=1 WtCom= 1.00D+00 WtEn= 0.00D+00
 Coeff-Com: -0.161D-07-0.176D-08 0.413D-07-0.175D-06-0.140D-05 0.273D-04
 Coeff-Com:  0.447D-04 0.964D-04-0.245D-01 0.509D-01 0.973D+00
 Coeff:     -0.161D-07-0.176D-08 0.413D-07-0.175D-06-0.140D-05 0.273D-04
 Coeff:      0.447D-04 0.964D-04-0.245D-01 0.509D-01 0.973D+00
 Gap=     0.383 Goal=   None    Shift=    0.000
 Gap=     0.383 Goal=   None    Shift=    0.000
 RMSDP=8.77D-10 MaxDP=1.09D-08 DE= 4.55D-13 OVMax= 9.92D-09

 SCF Done:  E(UM062X) =  -379.730346304     A.U. after   11 cycles
            NFock= 11  Conv=0.88D-09     -V/T= 1.9958
 <Sx>= 0.0000 <Sy>= 0.0000 <Sz>= 0.0000 <S**2>=-0.0000 S=-0.0000
 <L.S>=  0.00000000000    
 KE= 3.813251552702D+02 PE=-9.931304034025D+02 EE= 1.874156385421D+02
 Annihilation of the first spin contaminant:
 S**2 before annihilation    -0.0000,   after     0.0000
 Leave Link  502 at Wed Apr 16 03:10:32 2025, MaxMem=   536870912 cpu:              29.0 elap:               3.7
 (Enter /home/szhao/Apps/g16/l701.exe)
 ... and contract with generalized density number  0.
 Compute integral first derivatives.
 Leave Link  701 at Wed Apr 16 03:10:32 2025, MaxMem=   536870912 cpu:               0.9 elap:               0.2
 (Enter /home/szhao/Apps/g16/l702.exe)
 L702 exits ... SP integral derivatives will be done elsewhere.
 Leave Link  702 at Wed Apr 16 03:10:32 2025, MaxMem=   536870912 cpu:               0.2 elap:               0.1
 (Enter /home/szhao/Apps/g16/l703.exe)
 Integral derivatives from FoFJK, PRISM(SPDF).
 Compute integral first derivatives, UseDBF=F ICtDFT=           0.
 Calling FoFJK, ICntrl=      2127 FMM=F ISym2X=0 I1Cent= 0 IOpClX= 1 NMat=1 NMatS=1 NMatT=0.
 FoFJK:  IHMeth= 1 ICntrl=    2127 DoSepK=F KAlg= 0 I1Cent=           0 FoldK=F
 IRaf=         0 NMat=       1 IRICut=       1 DoRegI=T DoRafI=F ISym2E= 0 IDoP0=0 IntGTp=1.
 FoFCou: FMM=F IPFlag=           0 FMFlag=      100000 FMFlg1=         800
         NFxFlg=           0 DoJE=F BraDBF=F KetDBF=F FulRan=T
         wScrn=  0.000000 ICntrl=      2127 IOpCl=  1 I1Cent=           0 NGrid=           0
         NMat0=    1 NMatS0=      1 NMatT0=    0 NMatD0=    1 NMtDS0=    0 NMtDT0=    0
 Symmetry not used in FoFCou.
 Leave Link  703 at Wed Apr 16 03:10:33 2025, MaxMem=   536870912 cpu:               5.2 elap:               0.7
 (Enter /home/szhao/Apps/g16/l716.exe)
 Dipole        =-3.78841395D-02-6.45024118D-13-2.11054792D-12
 -------------------------------------------------------------------
 Center     Atomic                   Forces (Hartrees/Bohr)
 Number     Number              X              Y              Z
 -------------------------------------------------------------------
      1        6           0.174447321    0.000000000    0.000000000
      2       15           0.513938012   -0.000000000   -0.000000000
      3        1          -0.688385334   -0.000000000   -0.000000000
 -------------------------------------------------------------------
 Cartesian Forces:  Max     0.688385334 RMS     0.292202083
 Leave Link  716 at Wed Apr 16 03:10:33 2025, MaxMem=   536870912 cpu:               0.4 elap:               0.1
 (Enter /home/szhao/Apps/g16/l103.exe)

 GradGradGradGradGradGradGradGradGradGradGradGradGradGradGradGradGradGrad
 Berny optimization.
 Using GEDIIS/GDIIS optimizer.
 Red2BG is reusing G-inverse.
 Internal  Forces:  Max     0.688385334 RMS     0.429536567
 Search for a local minimum.
 Step number   2 out of a maximum of   20
 All quantities printed in internal units (Hartrees-Bohrs-Radians)
 RMS Force = .42954D+00 SwitMx=.10000D-02 MixMth= 1
 Mixed Optimization -- RFO/linear search
 Update second derivatives using D2CorX and points    1    2
 DE= -3.88D-01 DEPred=-4.00D-01 R= 9.71D-01
 TightC=F SS=  1.41D+00  RLast= 3.00D-01 DXNew= 5.0454D-01 9.0000D-01
 Trust test= 9.71D-01 RLast= 3.00D-01 DXMaxT set to 5.05D-01
 The second derivative matrix:
                          R1        R2        A1        A2
           R1           2.97700
           R2          -0.38684   3.91491
           A1          -0.00000  -0.00000   0.06708
           A2           0.00000   0.00000  -0.00000   0.06708
 ITU=  1  0
 Use linear search instead of GDIIS.
 Linear search step of   0.600 exceeds DXMaxT=   0.505 but not scaled.
 Quartic linear search produced a step of  2.00000.
 Iteration  1 RMS(Cart)=  0.14142136 RMS(Int)=  0.17006719
 Iteration  2 RMS(Cart)=  0.10204992 RMS(Int)=  0.06526762
 Iteration  3 RMS(Cart)=  0.05329079 RMS(Int)=  0.00000000
 Iteration  4 RMS(Cart)=  0.00000000 RMS(Int)=  0.00000000
 ITry= 1 IFail=0 DXMaxC= 4.47D-01 DCOld= 1.00D+10 DXMaxT= 5.05D-01 DXLimC= 3.00D+00 Rises=F
 Variable       Old X    -DE/DX   Delta X   Delta X   Delta X     New X
                                 (Linear)    (Quad)   (Total)
    R1        2.46610   0.51394   0.28024   0.00000   0.28024   2.74634
    R2        1.40030   0.68839   0.53054   0.00000   0.53054   1.93083
    A1        3.14159   0.00000   0.00000   0.00000   0.00000   3.14159
    A2        3.14159  -0.00000   0.00000   0.00000   0.00000   3.14159
         Item               Value     Threshold  Converged?
 Maximum Force            0.688385     0.000450     NO 
 RMS     Force            0.429537     0.000300     NO 
 Maximum Displacement     0.447102     0.001800     NO 
 RMS     Displacement     0.291169     0.001200     NO 
 Predicted change in Energy=-1.011060D-01
 Lowest energy point so far.  Saving SCF results.
 GradGradGradGradGradGradGradGradGradGradGradGradGradGradGradGradGradGrad

 Leave Link  103 at Wed Apr 16 03:10:33 2025, MaxMem=   536870912 cpu:               0.4 elap:               0.1
 (Enter /home/szhao/Apps/g16/l202.exe)
                          Input orientation:                          
 ---------------------------------------------------------------------
 Center     Atomic      Atomic             Coordinates (Angstroms)
 Number     Number       Type             X           Y           Z
 ---------------------------------------------------------------------
      1          6           0       -0.549202    0.000000    0.000000
      2         15           0        0.904096   -0.000000   -0.000000
      3          1           0       -1.570956   -0.000000   -0.000000
 ---------------------------------------------------------------------
                    Distance matrix (angstroms):
                    1          2          3
     1  C    0.000000
     2  P    1.453298   0.000000
     3  H    1.021754   2.475052   0.000000
 Symmetry turned off by external request.
 Stoichiometry    CHP
 Framework group  C*V[C*(HCP)]
 Deg. of freedom     2
 Full point group                 C*V     NOp   4
 Rotational constants (GHZ):           0.0000000          22.4773401          22.4773401
 Leave Link  202 at Wed Apr 16 03:10:33 2025, MaxMem=   536870912 cpu:               0.1 elap:               0.1
 (Enter /home/szhao/Apps/g16/l301.exe)
 Standard basis: 6-311+G(d,p) (5D, 7F)
 Ernie: Thresh=  0.10000D-02 Tol=  0.10000D-05 Strict=F.
    58 basis functions,    94 primitive gaussians,    60 cartesian basis functions
    11 alpha electrons       11 beta electrons
       nuclear repulsion energy        39.0854769581 Hartrees.
 IExCor= 4336 DFT=T Ex+Corr=M062X ExCW=0 ScaHFX=  0.540000
 ScaDFX=  1.000000  1.000000  1.000000  1.000000 ScalE2=  1.000000  1.000000
 IRadAn=      7 IRanWt=     -1 IRanGd=            0 ICorTp=0 IEmpDi=  4
 NAtoms=    3 NActive=    3 NUniq=    3 SFac= 1.00D+00 NAtFMM=   60 NAOKFM=F Big=F
 Integral buffers will be    131072 words long.
 Raffenetti 2 integral format.
 Two-electron integral symmetry is turned off.
 Leave Link  301 at Wed Apr 16 03:10:34 2025, MaxMem=   536870912 cpu:               0.6 elap:               0.1
 (Enter /home/szhao/Apps/g16/l302.exe)
 NPDir=0 NMtPBC=     1 NCelOv=     1 NCel=       1 NClECP=     1 NCelD=      1
         NCelK=      1 NCelE2=     1 NClLst=     1 CellRange=     0.0.
 One-electron integrals computed using PRISM.
 GSVD:  received Info=                   1 from GESDD.
 NBasis=    58 RedAO= T EigKep=  1.33D-03  NBF=    58
 NBsUse=    58 1.00D-06 EigRej= -1.00D+00 NBFU=    58
 Precomputing XC quadrature grid using
 IXCGrd= 4 IRadAn=           7 IRanWt=          -1 IRanGd=           0 AccXCQ= 0.00D+00.
 Generated NRdTot=       0 NPtTot=           0 NUsed=           0 NTot=          32
 NSgBfM=    60    60    60    60    60 MxSgAt=     3 MxSgA2=     3.
 Leave Link  302 at Wed Apr 16 03:10:34 2025, MaxMem=   536870912 cpu:               1.3 elap:               0.2
 (Enter /home/szhao/Apps/g16/l303.exe)
 DipDrv:  MaxL=1.
 Leave Link  303 at Wed Apr 16 03:10:34 2025, MaxMem=   536870912 cpu:               0.4 elap:               0.1
 (Enter /home/szhao/Apps/g16/l401.exe)
 Initial guess from the checkpoint file:  "opt.chk"
 B after Tr=     0.250388    0.000000    0.000000
         Rot=    0.866435    0.499291   -0.000000   -0.000000 Ang=  59.91 deg.
 Guess basis will be translated and rotated to current coordinates.
 JPrj=2 DoOrth=T DoCkMO=T.
 Initial guess <Sx>= 0.0000 <Sy>= 0.0000 <Sz>= 0.0000 <S**2>=-0.0000 S=-0.0000
 Generating alternative initial guess.
 ExpMin= 3.48D-02 ExpMax= 7.75D+04 ExpMxC= 2.65D+03 IAcc=3 IRadAn=         5 AccDes= 0.00D+00
 Harris functional with IExCor= 1009 and IRadAn=       5 diagonalized for initial guess.
 HarFok:  IExCor= 1009 AccDes= 0.00D+00 IRadAn=         5 IDoV= 1 UseB2=F ITyADJ=14
 ICtDFT=  3500011 ScaDFX=  1.000000  1.000000  1.000000  1.000000
 FoFCou: FMM=F IPFlag=           0 FMFlag=      100000 FMFlg1=           0
         NFxFlg=           0 DoJE=T BraDBF=F KetDBF=T FulRan=T
         wScrn=  0.000000 ICntrl=       500 IOpCl=  0 I1Cent=   200000004 NGrid=           0
         NMat0=    1 NMatS0=      1 NMatT0=    0 NMatD0=    1 NMtDS0=    0 NMtDT0=    0
 Symmetry not used in FoFCou.
 Harris En= -379.853487695523    
 Leave Link  401 at Wed Apr 16 03:10:34 2025, MaxMem=   536870912 cpu:               1.7 elap:               0.2
 (Enter /home/szhao/Apps/g16/l502.exe)
 Keep R1 and R2 ints in memory in canonical form, NReq=10036953.
 FoFCou: FMM=F IPFlag=           0 FMFlag=           0 FMFlg1=           0
         NFxFlg=           0 DoJE=F BraDBF=F KetDBF=F FulRan=T
         wScrn=  0.000000 ICntrl=       600 IOpCl=  0 I1Cent=           0 NGrid=           0
         NMat0=    1 NMatS0=   1711 NMatT0=    0 NMatD0=    1 NMtDS0=    0 NMtDT0=    0
 Symmetry not used in FoFCou.
 Two-electron integral symmetry not used.
 UHF open shell SCF:
 Using DIIS extrapolation, IDIIS=  1040.
 NGot=   536870912 LenX=   533933447 LenY=   533929406
 Requested convergence on RMS density matrix=1.00D-08 within 128 cycles.
 Requested convergence on MAX density matrix=1.00D-06.
 Requested convergence on             energy=1.00D-06.
 No special actions if energy rises.

 Cycle   1  Pass 1  IDiag  1:
 E= -379.930415797707    
 DIIS: error= 2.81D-02 at cycle   1 NSaved=   1.
 NSaved= 1 IEnMin= 1 EnMin= -379.930415797707     IErMin= 1 ErrMin= 2.81D-02
 ErrMax= 2.81D-02  0.00D+00 EMaxC= 1.00D-01 BMatC= 2.21D-01 BMatP= 2.21D-01
 IDIUse=3 WtCom= 7.19D-01 WtEn= 2.81D-01
 Coeff-Com:  0.100D+01
 Coeff-En:   0.100D+01
 Coeff:      0.100D+01
 Recover alternate guess density for next cycle.
 RMSDP=6.28D-03 MaxDP=9.42D-02              OVMax= 0.00D+00

 Cycle   2  Pass 1  IDiag  1:
 E= -379.727977055769     Delta-E=        0.202438741938 Rises=F Damp=F
 Switch densities from cycles 1 and 2 for lowest energy.
 DIIS: error= 7.55D-02 at cycle   2 NSaved=   2.
 NSaved= 2 IEnMin= 1 EnMin= -379.930415797707     IErMin= 1 ErrMin= 2.81D-02
 ErrMax= 7.55D-02  0.00D+00 EMaxC= 1.00D+00 BMatC= 1.00D+00 BMatP= 2.21D-01
 IDIUse=1 WtCom= 1.00D+00 WtEn= 0.00D+00
 Coeff-Com:  0.901D+00 0.993D-01
 Coeff:      0.901D+00 0.993D-01
 Gap=     0.298 Goal=   None    Shift=    0.000
 Gap=     0.298 Goal=   None    Shift=    0.000
 RMSDP=4.23D-03 MaxDP=5.01D-02 DE= 2.02D-01 OVMax= 2.68D-01

 Cycle   3  Pass 1  IDiag  1:
 E= -379.933527024096     Delta-E=       -0.205549968327 Rises=F Damp=F
 DIIS: error= 2.60D-02 at cycle   3 NSaved=   3.
 NSaved= 3 IEnMin= 3 EnMin= -379.933527024096     IErMin= 3 ErrMin= 2.60D-02
 ErrMax= 2.60D-02  0.00D+00 EMaxC= 1.00D+00 BMatC= 1.10D-01 BMatP= 2.21D-01
 IDIUse=1 WtCom= 1.00D+00 WtEn= 0.00D+00
 Coeff-Com:  0.413D-01 0.227D+00 0.732D+00
 Coeff:      0.413D-01 0.227D+00 0.732D+00
 Gap=     0.336 Goal=   None    Shift=    0.000
 Gap=     0.336 Goal=   None    Shift=    0.000
 RMSDP=2.58D-03 MaxDP=4.01D-02 DE=-2.06D-01 OVMax= 9.27D-02

 Cycle   4  Pass 1  IDiag  1:
 E= -379.963267022988     Delta-E=       -0.029739998892 Rises=F Damp=F
 DIIS: error= 5.50D-03 at cycle   4 NSaved=   4.
 NSaved= 4 IEnMin= 4 EnMin= -379.963267022988     IErMin= 4 ErrMin= 5.50D-03
 ErrMax= 5.50D-03  0.00D+00 EMaxC= 1.00D+00 BMatC= 5.89D-03 BMatP= 1.10D-01
 IDIUse=1 WtCom= 1.00D+00 WtEn= 0.00D+00
 Coeff-Com: -0.851D-03 0.287D-01 0.239D+00 0.733D+00
 Coeff:     -0.851D-03 0.287D-01 0.239D+00 0.733D+00
 Gap=     0.341 Goal=   None    Shift=    0.000
 Gap=     0.341 Goal=   None    Shift=    0.000
 RMSDP=6.55D-04 MaxDP=1.24D-02 DE=-2.97D-02 OVMax= 2.11D-02

 Cycle   5  Pass 1  IDiag  1:
 E= -379.965132608058     Delta-E=       -0.001865585070 Rises=F Damp=F
 DIIS: error= 5.39D-04 at cycle   5 NSaved=   5.
 NSaved= 5 IEnMin= 5 EnMin= -379.965132608058     IErMin= 5 ErrMin= 5.39D-04
 ErrMax= 5.39D-04  0.00D+00 EMaxC= 1.00D+00 BMatC= 1.16D-04 BMatP= 5.89D-03
 IDIUse=1 WtCom= 1.00D+00 WtEn= 0.00D+00
 Coeff-Com: -0.485D-03 0.146D-02 0.431D-01 0.226D+00 0.730D+00
 Coeff:     -0.485D-03 0.146D-02 0.431D-01 0.226D+00 0.730D+00
 Gap=     0.341 Goal=   None    Shift=    0.000
 Gap=     0.341 Goal=   None    Shift=    0.000
 RMSDP=8.15D-05 MaxDP=2.16D-03 DE=-1.87D-03 OVMax= 1.75D-03

 Cycle   6  Pass 1  IDiag  1:
 E= -379.965158684446     Delta-E=       -0.000026076389 Rises=F Damp=F
 DIIS: error= 1.80D-04 at cycle   6 NSaved=   6.
 NSaved= 6 IEnMin= 6 EnMin= -379.965158684446     IErMin= 6 ErrMin= 1.80D-04
 ErrMax= 1.80D-04  0.00D+00 EMaxC= 1.00D+00 BMatC= 7.53D-06 BMatP= 1.16D-04
 IDIUse=1 WtCom= 1.00D+00 WtEn= 0.00D+00
 Coeff-Com: -0.214D-03-0.125D-02-0.698D-02 0.199D-01 0.120D+00 0.869D+00
 Coeff:     -0.214D-03-0.125D-02-0.698D-02 0.199D-01 0.120D+00 0.869D+00
 Gap=     0.341 Goal=   None    Shift=    0.000
 Gap=     0.341 Goal=   None    Shift=    0.000
 RMSDP=2.13D-05 MaxDP=3.86D-04 DE=-2.61D-05 OVMax= 4.03D-04

 Cycle   7  Pass 1  IDiag  1:
 E= -379.965160564588     Delta-E=       -0.000001880141 Rises=F Damp=F
 DIIS: error= 3.07D-05 at cycle   7 NSaved=   7.
 NSaved= 7 IEnMin= 7 EnMin= -379.965160564588     IErMin= 7 ErrMin= 3.07D-05
 ErrMax= 3.07D-05  0.00D+00 EMaxC= 1.00D+00 BMatC= 1.74D-07 BMatP= 7.53D-06
 IDIUse=1 WtCom= 1.00D+00 WtEn= 0.00D+00
 Coeff-Com: -0.492D-05 0.437D-04-0.142D-02-0.487D-02-0.164D-01-0.809D-01
 Coeff-Com:  0.110D+01
 Coeff:     -0.492D-05 0.437D-04-0.142D-02-0.487D-02-0.164D-01-0.809D-01
 Coeff:      0.110D+01
 Gap=     0.341 Goal=   None    Shift=    0.000
 Gap=     0.341 Goal=   None    Shift=    0.000
 RMSDP=5.82D-06 MaxDP=9.14D-05 DE=-1.88D-06 OVMax= 1.18D-04

 Cycle   8  Pass 1  IDiag  1:
 E= -379.965160619097     Delta-E=       -0.000000054509 Rises=F Damp=F
 DIIS: error= 2.76D-06 at cycle   8 NSaved=   8.
 NSaved= 8 IEnMin= 8 EnMin= -379.965160619097     IErMin= 8 ErrMin= 2.76D-06
 ErrMax= 2.76D-06  0.00D+00 EMaxC= 1.00D+00 BMatC= 2.57D-09 BMatP= 1.74D-07
 IDIUse=1 WtCom= 1.00D+00 WtEn= 0.00D+00
 Coeff-Com:  0.175D-06 0.178D-04 0.439D-04-0.150D-03-0.237D-02-0.128D-01
 Coeff-Com: -0.330D-01 0.105D+01
 Coeff:      0.175D-06 0.178D-04 0.439D-04-0.150D-03-0.237D-02-0.128D-01
 Coeff:     -0.330D-01 0.105D+01
 Gap=     0.341 Goal=   None    Shift=    0.000
 Gap=     0.341 Goal=   None    Shift=    0.000
 RMSDP=7.39D-07 MaxDP=9.76D-06 DE=-5.45D-08 OVMax= 1.37D-05

 Cycle   9  Pass 1  IDiag  1:
 E= -379.965160619888     Delta-E=       -0.000000000791 Rises=F Damp=F
 DIIS: error= 8.92D-07 at cycle   9 NSaved=   9.
 NSaved= 9 IEnMin= 9 EnMin= -379.965160619888     IErMin= 9 ErrMin= 8.92D-07
 ErrMax= 8.92D-07  0.00D+00 EMaxC= 1.00D+00 BMatC= 1.21D-10 BMatP= 2.57D-09
 IDIUse=1 WtCom= 1.00D+00 WtEn= 0.00D+00
 Coeff-Com: -0.103D-06 0.112D-05 0.118D-04 0.766D-04-0.158D-03 0.201D-03
 Coeff-Com: -0.269D-01 0.959D-01 0.931D+00
 Coeff:     -0.103D-06 0.112D-05 0.118D-04 0.766D-04-0.158D-03 0.201D-03
 Coeff:     -0.269D-01 0.959D-01 0.931D+00
 Gap=     0.341 Goal=   None    Shift=    0.000
 Gap=     0.341 Goal=   None    Shift=    0.000
 RMSDP=1.98D-07 MaxDP=4.13D-06 DE=-7.91D-10 OVMax= 2.84D-06

 Cycle  10  Pass 1  IDiag  1:
 E= -379.965160619922     Delta-E=       -0.000000000034 Rises=F Damp=F
 DIIS: error= 5.63D-08 at cycle  10 NSaved=  10.
 NSaved=10 IEnMin=10 EnMin= -379.965160619922     IErMin=10 ErrMin= 5.63D-08
 ErrMax= 5.63D-08  0.00D+00 EMaxC= 1.00D+00 BMatC= 1.00D-12 BMatP= 1.21D-10
 IDIUse=1 WtCom= 1.00D+00 WtEn= 0.00D+00
 Coeff-Com:  0.342D-07-0.239D-06 0.494D-06 0.111D-04 0.415D-04 0.554D-04
 Coeff-Com:  0.311D-02-0.280D-01-0.662D-01 0.109D+01
 Coeff:      0.342D-07-0.239D-06 0.494D-06 0.111D-04 0.415D-04 0.554D-04
 Coeff:      0.311D-02-0.280D-01-0.662D-01 0.109D+01
 Gap=     0.341 Goal=   None    Shift=    0.000
 Gap=     0.341 Goal=   None    Shift=    0.000
 RMSDP=2.40D-08 MaxDP=3.63D-07 DE=-3.43D-11 OVMax= 3.28D-07

 Cycle  11  Pass 1  IDiag  1:
 E= -379.965160619923     Delta-E=       -0.000000000001 Rises=F Damp=F
 DIIS: error= 3.73D-09 at cycle  11 NSaved=  11.
 NSaved=11 IEnMin=11 EnMin= -379.965160619923     IErMin=11 ErrMin= 3.73D-09
 ErrMax= 3.73D-09  0.00D+00 EMaxC= 1.00D+00 BMatC= 5.81D-15 BMatP= 1.00D-12
 IDIUse=1 WtCom= 1.00D+00 WtEn= 0.00D+00
 Coeff-Com: -0.320D-07 0.752D-08 0.106D-07-0.606D-06-0.182D-07 0.257D-04
 Coeff-Com:  0.142D-03-0.700D-03-0.816D-02-0.138D-01 0.102D+01
 Coeff:     -0.320D-07 0.752D-08 0.106D-07-0.606D-06-0.182D-07 0.257D-04
 Coeff:      0.142D-03-0.700D-03-0.816D-02-0.138D-01 0.102D+01
 Gap=     0.341 Goal=   None    Shift=    0.000
 Gap=     0.341 Goal=   None    Shift=    0.000
 RMSDP=1.53D-09 MaxDP=2.12D-08 DE=-6.82D-13 OVMax= 3.12D-08

 SCF Done:  E(UM062X) =  -379.965160620     A.U. after   11 cycles
            NFock= 11  Conv=0.15D-08     -V/T= 2.0005
 <Sx>= 0.0000 <Sy>= 0.0000 <Sz>= 0.0000 <S**2>=-0.0000 S=-0.0000
 <L.S>=  0.00000000000    
 KE= 3.797876031213D+02 PE=-9.809723010149D+02 EE= 1.821340603156D+02
 Annihilation of the first spin contaminant:
 S**2 before annihilation    -0.0000,   after    -0.0000
 Leave Link  502 at Wed Apr 16 03:10:38 2025, MaxMem=   536870912 cpu:              24.5 elap:               3.2
 (Enter /home/szhao/Apps/g16/l701.exe)
 ... and contract with generalized density number  0.
 Compute integral first derivatives.
 Leave Link  701 at Wed Apr 16 03:10:38 2025, MaxMem=   536870912 cpu:               0.9 elap:               0.1
 (Enter /home/szhao/Apps/g16/l702.exe)
 L702 exits ... SP integral derivatives will be done elsewhere.
 Leave Link  702 at Wed Apr 16 03:10:38 2025, MaxMem=   536870912 cpu:               0.3 elap:               0.1
 (Enter /home/szhao/Apps/g16/l703.exe)
 Integral derivatives from FoFJK, PRISM(SPDF).
 Compute integral first derivatives, UseDBF=F ICtDFT=           0.
 Calling FoFJK, ICntrl=      2127 FMM=F ISym2X=0 I1Cent= 0 IOpClX= 1 NMat=1 NMatS=1 NMatT=0.
 FoFJK:  IHMeth= 1 ICntrl=    2127 DoSepK=F KAlg= 0 I1Cent=           0 FoldK=F
 IRaf=         0 NMat=       1 IRICut=       1 DoRegI=T DoRafI=F ISym2E= 0 IDoP0=0 IntGTp=1.
 FoFCou: FMM=F IPFlag=           0 FMFlag=      100000 FMFlg1=         800
         NFxFlg=           0 DoJE=F BraDBF=F KetDBF=F FulRan=T
         wScrn=  0.000000 ICntrl=      2127 IOpCl=  1 I1Cent=           0 NGrid=           0
         NMat0=    1 NMatS0=      1 NMatT0=    0 NMatD0=    1 NMtDS0=    0 NMtDT0=    0
 Symmetry not used in FoFCou.
 Leave Link  703 at Wed Apr 16 03:10:39 2025, MaxMem=   536870912 cpu:               5.4 elap:               0.7
 (Enter /home/szhao/Apps/g16/l716.exe)
 Dipole        =-9.65959780D-02-6.75962355D-12-1.29001231D-11
 -------------------------------------------------------------------
 Center     Atomic                   Forces (Hartrees/Bohr)
 Number     Number              X              Y              Z
 -------------------------------------------------------------------
      1        6          -0.077507579   -0.000000000   -0.000000000
      2       15           0.120524091    0.000000000    0.000000000
      3        1          -0.043016513   -0.000000000    0.000000000
 -------------------------------------------------------------------
 Cartesian Forces:  Max     0.120524091 RMS     0.049870835
 Leave Link  716 at Wed Apr 16 03:10:39 2025, MaxMem=   536870912 cpu:               0.4 elap:               0.1
 (Enter /home/szhao/Apps/g16/l103.exe)

 GradGradGradGradGradGradGradGradGradGradGradGradGradGradGradGradGradGrad
 Berny optimization.
 Using GEDIIS/GDIIS optimizer.
 Red2BG is reusing G-inverse.
 Internal  Forces:  Max     0.120524091 RMS     0.063985305
 Search for a local minimum.
 Step number   3 out of a maximum of   20
 All quantities printed in internal units (Hartrees-Bohrs-Radians)
 RMS Force = .63985D-01 SwitMx=.10000D-02 MixMth= 1
 Mixed Optimization -- RFO/linear search
 Update second derivatives using D2CorX and points    2    3
 The second derivative matrix:
                          R1        R2        A1        A2
           R1           2.99479
           R2          -0.84035   1.66033
           A1           0.00000   0.00000   0.06708
           A2          -0.00000  -0.00000  -0.00000   0.06708
 ITU=  0  1  0
 Use linear search instead of GDIIS.
     Eigenvalues ---    0.06708   0.06708   1.25454   3.40059
 RFO step:  Lambda=-1.21054213D-03 EMin= 6.70821656D-02
 Quartic linear search produced a step of  0.48188.
 Iteration  1 RMS(Cart)=  0.12456570 RMS(Int)=  0.02290347
 Iteration  2 RMS(Cart)=  0.01870061 RMS(Int)=  0.00000000
 Iteration  3 RMS(Cart)=  0.00000000 RMS(Int)=  0.00000000
 ITry= 1 IFail=0 DXMaxC= 2.14D-01 DCOld= 1.00D+10 DXMaxT= 5.05D-01 DXLimC= 3.00D+00 Rises=F
 Variable       Old X    -DE/DX   Delta X   Delta X   Delta X     New X
                                 (Linear)    (Quad)   (Total)
    R1        2.74634   0.12052   0.13504   0.01616   0.15120   2.89753
    R2        1.93083   0.04302   0.25565  -0.00985   0.24581   2.17664
    A1        3.14159  -0.00000   0.00000  -0.00000   0.00000   3.14159
    A2        3.14159   0.00000   0.00000   0.00000   0.00000   3.14159
         Item               Value     Threshold  Converged?
 Maximum Force            0.120524     0.000450     NO 
 RMS     Force            0.063985     0.000300     NO 
 Maximum Displacement     0.214270     0.001800     NO 
 RMS     Displacement     0.141684     0.001200     NO 
 Predicted change in Energy=-2.436227D-02
 Lowest energy point so far.  Saving SCF results.
 GradGradGradGradGradGradGradGradGradGradGradGradGradGradGradGradGradGrad

 Leave Link  103 at Wed Apr 16 03:10:39 2025, MaxMem=   536870912 cpu:               0.2 elap:               0.0
 (Enter /home/szhao/Apps/g16/l202.exe)
                          Input orientation:                          
 ---------------------------------------------------------------------
 Center     Atomic      Atomic             Coordinates (Angstroms)
 Number     Number       Type             X           Y           Z
 ---------------------------------------------------------------------
      1          6           0       -0.532513   -0.000000   -0.000000
      2         15           0        1.000795    0.000000    0.000000
      3          1           0       -1.684342    0.000000    0.000000
 ---------------------------------------------------------------------
                    Distance matrix (angstroms):
                    1          2          3
     1  C    0.000000
     2  P    1.533308   0.000000
     3  H    1.151829   2.685137   0.000000
 Symmetry turned off by external request.
 Stoichiometry    CHP
 Framework group  C*V[C*(HCP)]
 Deg. of freedom     2
 Full point group                 C*V     NOp   4
 Rotational constants (GHZ):           0.0000000          19.9356468          19.9356468
 Leave Link  202 at Wed Apr 16 03:10:39 2025, MaxMem=   536870912 cpu:               0.1 elap:               0.0
 (Enter /home/szhao/Apps/g16/l301.exe)
 Standard basis: 6-311+G(d,p) (5D, 7F)
 Ernie: Thresh=  0.10000D-02 Tol=  0.10000D-05 Strict=F.
    58 basis functions,    94 primitive gaussians,    60 cartesian basis functions
    11 alpha electrons       11 beta electrons
       nuclear repulsion energy        36.7736065838 Hartrees.
 IExCor= 4336 DFT=T Ex+Corr=M062X ExCW=0 ScaHFX=  0.540000
 ScaDFX=  1.000000  1.000000  1.000000  1.000000 ScalE2=  1.000000  1.000000
 IRadAn=      7 IRanWt=     -1 IRanGd=            0 ICorTp=0 IEmpDi=  4
 NAtoms=    3 NActive=    3 NUniq=    3 SFac= 1.00D+00 NAtFMM=   60 NAOKFM=F Big=F
 Integral buffers will be    131072 words long.
 Raffenetti 2 integral format.
 Two-electron integral symmetry is turned off.
 Leave Link  301 at Wed Apr 16 03:10:39 2025, MaxMem=   536870912 cpu:               0.5 elap:               0.1
 (Enter /home/szhao/Apps/g16/l302.exe)
 NPDir=0 NMtPBC=     1 NCelOv=     1 NCel=       1 NClECP=     1 NCelD=      1
         NCelK=      1 NCelE2=     1 NClLst=     1 CellRange=     0.0.
 One-electron integrals computed using PRISM.
 NBasis=    58 RedAO= T EigKep=  1.54D-03  NBF=    58
 NBsUse=    58 1.00D-06 EigRej= -1.00D+00 NBFU=    58
 Precomputing XC quadrature grid using
 IXCGrd= 4 IRadAn=           7 IRanWt=          -1 IRanGd=           0 AccXCQ= 0.00D+00.
 Generated NRdTot=       0 NPtTot=           0 NUsed=           0 NTot=          32
 NSgBfM=    60    60    60    60    60 MxSgAt=     3 MxSgA2=     3.
 Leave Link  302 at Wed Apr 16 03:10:39 2025, MaxMem=   536870912 cpu:               1.4 elap:               0.2
 (Enter /home/szhao/Apps/g16/l303.exe)
 DipDrv:  MaxL=1.
 Leave Link  303 at Wed Apr 16 03:10:39 2025, MaxMem=   536870912 cpu:               0.3 elap:               0.0
 (Enter /home/szhao/Apps/g16/l401.exe)
 Initial guess from the checkpoint file:  "opt.chk"
 B after Tr=     0.123452   -0.000000   -0.000000
         Rot=    0.808695    0.588228    0.000000   -0.000000 Ang=  72.06 deg.
 Guess basis will be translated and rotated to current coordinates.
 JPrj=2 DoOrth=T DoCkMO=T.
 Initial guess <Sx>= 0.0000 <Sy>= 0.0000 <Sz>= 0.0000 <S**2>= 0.0000 S= 0.0000
 Generating alternative initial guess.
 ExpMin= 3.48D-02 ExpMax= 7.75D+04 ExpMxC= 2.65D+03 IAcc=3 IRadAn=         5 AccDes= 0.00D+00
 Harris functional with IExCor= 1009 and IRadAn=       5 diagonalized for initial guess.
 HarFok:  IExCor= 1009 AccDes= 0.00D+00 IRadAn=         5 IDoV= 1 UseB2=F ITyADJ=14
 ICtDFT=  3500011 ScaDFX=  1.000000  1.000000  1.000000  1.000000
 FoFCou: FMM=F IPFlag=           0 FMFlag=      100000 FMFlg1=           0
         NFxFlg=           0 DoJE=T BraDBF=F KetDBF=T FulRan=T
         wScrn=  0.000000 ICntrl=       500 IOpCl=  0 I1Cent=   200000004 NGrid=           0
         NMat0=    1 NMatS0=      1 NMatT0=    0 NMatD0=    1 NMtDS0=    0 NMtDT0=    0
 Symmetry not used in FoFCou.
 Harris En= -379.835328383092    
 Leave Link  401 at Wed Apr 16 03:10:40 2025, MaxMem=   536870912 cpu:               1.8 elap:               0.2
 (Enter /home/szhao/Apps/g16/l502.exe)
 Keep R1 and R2 ints in memory in canonical form, NReq=10036953.
 FoFCou: FMM=F IPFlag=           0 FMFlag=           0 FMFlg1=           0
         NFxFlg=           0 DoJE=F BraDBF=F KetDBF=F FulRan=T
         wScrn=  0.000000 ICntrl=       600 IOpCl=  0 I1Cent=           0 NGrid=           0
         NMat0=    1 NMatS0=   1711 NMatT0=    0 NMatD0=    1 NMtDS0=    0 NMtDT0=    0
 Symmetry not used in FoFCou.
 Two-electron integral symmetry not used.
 UHF open shell SCF:
 Using DIIS extrapolation, IDIIS=  1040.
 NGot=   536870912 LenX=   533933447 LenY=   533929406
 Requested convergence on RMS density matrix=1.00D-08 within 128 cycles.
 Requested convergence on MAX density matrix=1.00D-06.
 Requested convergence on             energy=1.00D-06.
 No special actions if energy rises.

 Cycle   1  Pass 1  IDiag  1:
 E= -379.966860286842    
 DIIS: error= 8.75D-03 at cycle   1 NSaved=   1.
 NSaved= 1 IEnMin= 1 EnMin= -379.966860286842     IErMin= 1 ErrMin= 8.75D-03
 ErrMax= 8.75D-03  0.00D+00 EMaxC= 1.00D-01 BMatC= 2.26D-02 BMatP= 2.26D-02
 IDIUse=3 WtCom= 9.13D-01 WtEn= 8.75D-02
 Coeff-Com:  0.100D+01
 Coeff-En:   0.100D+01
 Coeff:      0.100D+01
 Gap=     0.512 Goal=   None    Shift=    0.000
 Gap=     0.512 Goal=   None    Shift=    0.000
 GapD=    0.512 DampG=2.000 DampE=1.000 DampFc=2.0000 IDamp=-1.
 RMSDP=1.38D-03 MaxDP=1.61D-02              OVMax= 4.22D-02

 Cycle   2  Pass 1  IDiag  1:
 E= -379.967425160547     Delta-E=       -0.000564873704 Rises=F Damp=F
 DIIS: error= 9.85D-03 at cycle   2 NSaved=   2.
 NSaved= 2 IEnMin= 2 EnMin= -379.967425160547     IErMin= 1 ErrMin= 8.75D-03
 ErrMax= 9.85D-03  0.00D+00 EMaxC= 1.00D-01 BMatC= 1.50D-02 BMatP= 2.26D-02
 IDIUse=3 WtCom= 9.02D-01 WtEn= 9.85D-02
 Coeff-Com:  0.428D+00 0.572D+00
 Coeff-En:   0.456D+00 0.544D+00
 Coeff:      0.431D+00 0.569D+00
 Gap=     0.322 Goal=   None    Shift=    0.000
 Gap=     0.322 Goal=   None    Shift=    0.000
 RMSDP=1.21D-03 MaxDP=1.85D-02 DE=-5.65D-04 OVMax= 4.55D-02

 Cycle   3  Pass 1  IDiag  1:
 E= -379.969588103083     Delta-E=       -0.002162942536 Rises=F Damp=F
 DIIS: error= 6.62D-03 at cycle   3 NSaved=   3.
 NSaved= 3 IEnMin= 3 EnMin= -379.969588103083     IErMin= 3 ErrMin= 6.62D-03
 ErrMax= 6.62D-03  0.00D+00 EMaxC= 1.00D-01 BMatC= 7.20D-03 BMatP= 1.50D-02
 IDIUse=3 WtCom= 9.34D-01 WtEn= 6.62D-02
 Coeff-Com:  0.101D-01 0.408D+00 0.582D+00
 Coeff-En:   0.000D+00 0.366D+00 0.634D+00
 Coeff:      0.944D-02 0.405D+00 0.586D+00
 Gap=     0.320 Goal=   None    Shift=    0.000
 Gap=     0.320 Goal=   None    Shift=    0.000
 RMSDP=5.65D-04 MaxDP=1.02D-02 DE=-2.16D-03 OVMax= 2.05D-02

 Cycle   4  Pass 1  IDiag  1:
 E= -379.971663079254     Delta-E=       -0.002074976171 Rises=F Damp=F
 DIIS: error= 3.54D-04 at cycle   4 NSaved=   4.
 NSaved= 4 IEnMin= 4 EnMin= -379.971663079254     IErMin= 4 ErrMin= 3.54D-04
 ErrMax= 3.54D-04  0.00D+00 EMaxC= 1.00D-01 BMatC= 4.41D-05 BMatP= 7.20D-03
 IDIUse=3 WtCom= 9.96D-01 WtEn= 3.54D-03
 Coeff-Com: -0.439D-02 0.110D+00 0.193D+00 0.701D+00
 Coeff-En:   0.000D+00 0.000D+00 0.000D+00 0.100D+01
 Coeff:     -0.437D-02 0.109D+00 0.192D+00 0.703D+00
 Gap=     0.320 Goal=   None    Shift=    0.000
 Gap=     0.320 Goal=   None    Shift=    0.000
 RMSDP=5.04D-05 MaxDP=9.84D-04 DE=-2.07D-03 OVMax= 1.18D-03

 Cycle   5  Pass 1  IDiag  1:
 E= -379.971673365557     Delta-E=       -0.000010286304 Rises=F Damp=F
 DIIS: error= 7.07D-05 at cycle   5 NSaved=   5.
 NSaved= 5 IEnMin= 5 EnMin= -379.971673365557     IErMin= 5 ErrMin= 7.07D-05
 ErrMax= 7.07D-05  0.00D+00 EMaxC= 1.00D-01 BMatC= 1.33D-06 BMatP= 4.41D-05
 IDIUse=1 WtCom= 1.00D+00 WtEn= 0.00D+00
 Coeff-Com: -0.168D-02-0.185D-01-0.134D-01 0.635D-01 0.970D+00
 Coeff:     -0.168D-02-0.185D-01-0.134D-01 0.635D-01 0.970D+00
 Gap=     0.320 Goal=   None    Shift=    0.000
 Gap=     0.320 Goal=   None    Shift=    0.000
 RMSDP=1.65D-05 MaxDP=2.30D-04 DE=-1.03D-05 OVMax= 3.62D-04

 Cycle   6  Pass 1  IDiag  1:
 E= -379.971673774633     Delta-E=       -0.000000409075 Rises=F Damp=F
 DIIS: error= 1.52D-05 at cycle   6 NSaved=   6.
 NSaved= 6 IEnMin= 6 EnMin= -379.971673774633     IErMin= 6 ErrMin= 1.52D-05
 ErrMax= 1.52D-05  0.00D+00 EMaxC= 1.00D-01 BMatC= 5.67D-08 BMatP= 1.33D-06
 IDIUse=1 WtCom= 1.00D+00 WtEn= 0.00D+00
 Coeff-Com:  0.160D-03-0.249D-02-0.228D-02-0.164D-01-0.646D-01 0.109D+01
 Coeff:      0.160D-03-0.249D-02-0.228D-02-0.164D-01-0.646D-01 0.109D+01
 Gap=     0.320 Goal=   None    Shift=    0.000
 Gap=     0.320 Goal=   None    Shift=    0.000
 RMSDP=3.81D-06 MaxDP=5.49D-05 DE=-4.09D-07 OVMax= 8.02D-05

 Cycle   7  Pass 1  IDiag  1:
 E= -379.971673793541     Delta-E=       -0.000000018908 Rises=F Damp=F
 DIIS: error= 2.29D-06 at cycle   7 NSaved=   7.
 NSaved= 7 IEnMin= 7 EnMin= -379.971673793541     IErMin= 7 ErrMin= 2.29D-06
 ErrMax= 2.29D-06  0.00D+00 EMaxC= 1.00D-01 BMatC= 9.94D-10 BMatP= 5.67D-08
 IDIUse=1 WtCom= 1.00D+00 WtEn= 0.00D+00
 Coeff-Com:  0.202D-04 0.461D-05 0.131D-03-0.197D-02-0.122D-01 0.127D-01
 Coeff-Com:  0.100D+01
 Coeff:      0.202D-04 0.461D-05 0.131D-03-0.197D-02-0.122D-01 0.127D-01
 Coeff:      0.100D+01
 Gap=     0.320 Goal=   None    Shift=    0.000
 Gap=     0.320 Goal=   None    Shift=    0.000
 RMSDP=6.26D-07 MaxDP=1.20D-05 DE=-1.89D-08 OVMax= 1.00D-05

 Cycle   8  Pass 1  IDiag  1:
 E= -379.971673793833     Delta-E=       -0.000000000292 Rises=F Damp=F
 DIIS: error= 5.22D-07 at cycle   8 NSaved=   8.
 NSaved= 8 IEnMin= 8 EnMin= -379.971673793833     IErMin= 8 ErrMin= 5.22D-07
 ErrMax= 5.22D-07  0.00D+00 EMaxC= 1.00D-01 BMatC= 9.73D-11 BMatP= 9.94D-10
 IDIUse=1 WtCom= 1.00D+00 WtEn= 0.00D+00
 Coeff-Com: -0.442D-05 0.157D-03 0.237D-03 0.199D-03 0.111D-03-0.513D-01
 Coeff-Com:  0.117D+00 0.933D+00
 Coeff:     -0.442D-05 0.157D-03 0.237D-03 0.199D-03 0.111D-03-0.513D-01
 Coeff:      0.117D+00 0.933D+00
 Gap=     0.320 Goal=   None    Shift=    0.000
 Gap=     0.320 Goal=   None    Shift=    0.000
 RMSDP=1.30D-07 MaxDP=1.72D-06 DE=-2.92D-10 OVMax= 2.01D-06

 Cycle   9  Pass 1  IDiag  1:
 E= -379.971673793861     Delta-E=       -0.000000000028 Rises=F Damp=F
 DIIS: error= 5.33D-08 at cycle   9 NSaved=   9.
 NSaved= 9 IEnMin= 9 EnMin= -379.971673793861     IErMin= 9 ErrMin= 5.33D-08
 ErrMax= 5.33D-08  0.00D+00 EMaxC= 1.00D-01 BMatC= 3.63D-13 BMatP= 9.73D-11
 IDIUse=1 WtCom= 1.00D+00 WtEn= 0.00D+00
 Coeff-Com: -0.810D-06-0.312D-05-0.141D-05 0.963D-04 0.267D-03 0.358D-04
 Coeff-Com: -0.215D-01-0.254D-01 0.105D+01
 Coeff:     -0.810D-06-0.312D-05-0.141D-05 0.963D-04 0.267D-03 0.358D-04
 Coeff:     -0.215D-01-0.254D-01 0.105D+01
 Gap=     0.320 Goal=   None    Shift=    0.000
 Gap=     0.320 Goal=   None    Shift=    0.000
 RMSDP=1.23D-08 MaxDP=1.41D-07 DE=-2.84D-11 OVMax= 2.21D-07

 Cycle  10  Pass 1  IDiag  1:
 E= -379.971673793861     Delta-E=       -0.000000000000 Rises=F Damp=F
 DIIS: error= 4.12D-09 at cycle  10 NSaved=  10.
 NSaved=10 IEnMin=10 EnMin= -379.971673793861     IErMin=10 ErrMin= 4.12D-09
 ErrMax= 4.12D-09  0.00D+00 EMaxC= 1.00D-01 BMatC= 4.41D-15 BMatP= 3.63D-13
 IDIUse=1 WtCom= 1.00D+00 WtEn= 0.00D+00
 Coeff-Com:  0.646D-07-0.944D-06-0.118D-05-0.827D-05 0.570D-06 0.480D-03
 Coeff-Com: -0.210D-03-0.895D-02-0.295D-01 0.104D+01
 Coeff:      0.646D-07-0.944D-06-0.118D-05-0.827D-05 0.570D-06 0.480D-03
 Coeff:     -0.210D-03-0.895D-02-0.295D-01 0.104D+01
 Gap=     0.320 Goal=   None    Shift=    0.000
 Gap=     0.320 Goal=   None    Shift=    0.000
 RMSDP=1.86D-09 MaxDP=2.66D-08 DE=-2.84D-13 OVMax= 3.07D-08

 SCF Done:  E(UM062X) =  -379.971673794     A.U. after   10 cycles
            NFock= 10  Conv=0.19D-08     -V/T= 2.0018
 <Sx>= 0.0000 <Sy>= 0.0000 <Sz>= 0.0000 <S**2>=-0.0000 S=-0.0000
 <L.S>=  0.00000000000    
 KE= 3.792918563390D+02 PE=-9.758573477289D+02 EE= 1.798202110122D+02
 Annihilation of the first spin contaminant:
 S**2 before annihilation    -0.0000,   after     0.0000
 Leave Link  502 at Wed Apr 16 03:10:43 2025, MaxMem=   536870912 cpu:              23.4 elap:               3.0
 (Enter /home/szhao/Apps/g16/l701.exe)
 ... and contract with generalized density number  0.
 Compute integral first derivatives.
 Leave Link  701 at Wed Apr 16 03:10:43 2025, MaxMem=   536870912 cpu:               1.0 elap:               0.2
 (Enter /home/szhao/Apps/g16/l702.exe)
 L702 exits ... SP integral derivatives will be done elsewhere.
 Leave Link  702 at Wed Apr 16 03:10:43 2025, MaxMem=   536870912 cpu:               0.3 elap:               0.1
 (Enter /home/szhao/Apps/g16/l703.exe)
 Integral derivatives from FoFJK, PRISM(SPDF).
 Compute integral first derivatives, UseDBF=F ICtDFT=           0.
 Calling FoFJK, ICntrl=      2127 FMM=F ISym2X=0 I1Cent= 0 IOpClX= 1 NMat=1 NMatS=1 NMatT=0.
 FoFJK:  IHMeth= 1 ICntrl=    2127 DoSepK=F KAlg= 0 I1Cent=           0 FoldK=F
 IRaf=         0 NMat=       1 IRICut=       1 DoRegI=T DoRafI=F ISym2E= 0 IDoP0=0 IntGTp=1.
 FoFCou: FMM=F IPFlag=           0 FMFlag=      100000 FMFlg1=         800
         NFxFlg=           0 DoJE=F BraDBF=F KetDBF=F FulRan=T
         wScrn=  0.000000 ICntrl=      2127 IOpCl=  1 I1Cent=           0 NGrid=           0
         NMat0=    1 NMatS0=      1 NMatT0=    0 NMatD0=    1 NMtDS0=    0 NMtDT0=    0
 Symmetry not used in FoFCou.
 Leave Link  703 at Wed Apr 16 03:10:44 2025, MaxMem=   536870912 cpu:               5.6 elap:               0.7
 (Enter /home/szhao/Apps/g16/l716.exe)
[...]
 Gap=     0.510 Goal=   None    Shift=    0.000
 RMSDP=5.22D-05 MaxDP=5.56D-04              OVMax= 1.47D-03

 Cycle   2  Pass 1  IDiag  1:
 E= -379.975421565219     Delta-E=       -0.000001194396 Rises=F Damp=F
 DIIS: error= 2.78D-04 at cycle   2 NSaved=   2.
 NSaved= 2 IEnMin= 2 EnMin= -379.975421565219     IErMin= 1 ErrMin= 2.55D-04
 ErrMax= 2.78D-04  0.00D+00 EMaxC= 1.00D-01 BMatC= 1.40D-05 BMatP= 1.91D-05
 IDIUse=3 WtCom= 9.97D-01 WtEn= 2.78D-03
 Coeff-Com:  0.447D+00 0.553D+00
 Coeff-En:   0.394D+00 0.606D+00
 Coeff:      0.447D+00 0.553D+00
 Gap=     0.321 Goal=   None    Shift=    0.000
 Gap=     0.321 Goal=   None    Shift=    0.000
 RMSDP=3.45D-05 MaxDP=5.70D-04 DE=-1.19D-06 OVMax= 1.21D-03

 Cycle   3  Pass 1  IDiag  1:
 E= -379.975423879378     Delta-E=       -0.000002314159 Rises=F Damp=F
 DIIS: error= 1.77D-04 at cycle   3 NSaved=   3.
 NSaved= 3 IEnMin= 3 EnMin= -379.975423879378     IErMin= 3 ErrMin= 1.77D-04
 ErrMax= 1.77D-04  0.00D+00 EMaxC= 1.00D-01 BMatC= 4.74D-06 BMatP= 1.40D-05
 IDIUse=3 WtCom= 9.98D-01 WtEn= 1.77D-03
 Coeff-Com:  0.509D-01 0.359D+00 0.590D+00
 Coeff-En:   0.000D+00 0.309D+00 0.691D+00
 Coeff:      0.508D-01 0.359D+00 0.590D+00
 Gap=     0.321 Goal=   None    Shift=    0.000
 Gap=     0.321 Goal=   None    Shift=    0.000
 RMSDP=1.65D-05 MaxDP=2.82D-04 DE=-2.31D-06 OVMax= 6.23D-04

 Cycle   4  Pass 1  IDiag  1:
 E= -379.975425255360     Delta-E=       -0.000001375982 Rises=F Damp=F
 DIIS: error= 2.67D-05 at cycle   4 NSaved=   4.
 NSaved= 4 IEnMin= 4 EnMin= -379.975425255360     IErMin= 4 ErrMin= 2.67D-05
 ErrMax= 2.67D-05  0.00D+00 EMaxC= 1.00D-01 BMatC= 2.06D-07 BMatP= 4.74D-06
 IDIUse=1 WtCom= 1.00D+00 WtEn= 0.00D+00
 Coeff-Com: -0.179D-01 0.607D-01 0.235D+00 0.722D+00
 Coeff:     -0.179D-01 0.607D-01 0.235D+00 0.722D+00
 Gap=     0.321 Goal=   None    Shift=    0.000
 Gap=     0.321 Goal=   None    Shift=    0.000
 RMSDP=3.23D-06 MaxDP=4.67D-05 DE=-1.38D-06 OVMax= 8.91D-05

 Cycle   5  Pass 1  IDiag  1:
 E= -379.975425312730     Delta-E=       -0.000000057370 Rises=F Damp=F
 DIIS: error= 3.91D-06 at cycle   5 NSaved=   5.
 NSaved= 5 IEnMin= 5 EnMin= -379.975425312730     IErMin= 5 ErrMin= 3.91D-06
 ErrMax= 3.91D-06  0.00D+00 EMaxC= 1.00D-01 BMatC= 4.44D-09 BMatP= 2.06D-07
 IDIUse=1 WtCom= 1.00D+00 WtEn= 0.00D+00
 Coeff-Com: -0.395D-02-0.138D-01 0.153D-01 0.758D-01 0.927D+00
 Coeff:     -0.395D-02-0.138D-01 0.153D-01 0.758D-01 0.927D+00
 Gap=     0.321 Goal=   None    Shift=    0.000
 Gap=     0.321 Goal=   None    Shift=    0.000
 RMSDP=7.43D-07 MaxDP=1.11D-05 DE=-5.74D-08 OVMax= 1.60D-05

 Cycle   6  Pass 1  IDiag  1:
 E= -379.975425313946     Delta-E=       -0.000000001216 Rises=F Damp=F
 DIIS: error= 6.13D-07 at cycle   6 NSaved=   6.
 NSaved= 6 IEnMin= 6 EnMin= -379.975425313946     IErMin= 6 ErrMin= 6.13D-07
 ErrMax= 6.13D-07  0.00D+00 EMaxC= 1.00D-01 BMatC= 9.00D-11 BMatP= 4.44D-09
 IDIUse=1 WtCom= 1.00D+00 WtEn= 0.00D+00
 Coeff-Com:  0.481D-03-0.511D-02-0.869D-02-0.221D-01 0.462D-01 0.989D+00
 Coeff:      0.481D-03-0.511D-02-0.869D-02-0.221D-01 0.462D-01 0.989D+00
 Gap=     0.321 Goal=   None    Shift=    0.000
 Gap=     0.321 Goal=   None    Shift=    0.000
 RMSDP=2.03D-07 MaxDP=2.75D-06 DE=-1.22D-09 OVMax= 3.86D-06

 Cycle   7  Pass 1  IDiag  1:
 E= -379.975425313979     Delta-E=       -0.000000000032 Rises=F Damp=F
 DIIS: error= 1.66D-07 at cycle   7 NSaved=   7.
 NSaved= 7 IEnMin= 7 EnMin= -379.975425313979     IErMin= 7 ErrMin= 1.66D-07
 ErrMax= 1.66D-07  0.00D+00 EMaxC= 1.00D-01 BMatC= 7.63D-12 BMatP= 9.00D-11
 IDIUse=1 WtCom= 1.00D+00 WtEn= 0.00D+00
 Coeff-Com:  0.114D-04 0.872D-03 0.137D-02-0.240D-02-0.275D-01-0.923D-01
 Coeff-Com:  0.112D+01
 Coeff:      0.114D-04 0.872D-03 0.137D-02-0.240D-02-0.275D-01-0.923D-01
 Coeff:      0.112D+01
 Gap=     0.321 Goal=   None    Shift=    0.000
 Gap=     0.321 Goal=   None    Shift=    0.000
 RMSDP=4.37D-08 MaxDP=8.12D-07 DE=-3.23D-11 OVMax= 6.72D-07

 Cycle   8  Pass 1  IDiag  1:
 E= -379.975425313981     Delta-E=       -0.000000000002 Rises=F Damp=F
 DIIS: error= 1.37D-08 at cycle   8 NSaved=   8.
 NSaved= 8 IEnMin= 8 EnMin= -379.975425313981     IErMin= 8 ErrMin= 1.37D-08
 ErrMax= 1.37D-08  0.00D+00 EMaxC= 1.00D-01 BMatC= 3.89D-14 BMatP= 7.63D-12
 IDIUse=1 WtCom= 1.00D+00 WtEn= 0.00D+00
 Coeff-Com: -0.728D-05 0.612D-04 0.163D-03 0.468D-03-0.394D-03-0.800D-02
 Coeff-Com: -0.641D-01 0.107D+01
 Coeff:     -0.728D-05 0.612D-04 0.163D-03 0.468D-03-0.394D-03-0.800D-02
 Coeff:     -0.641D-01 0.107D+01
 Gap=     0.321 Goal=   None    Shift=    0.000
 Gap=     0.321 Goal=   None    Shift=    0.000
 RMSDP=3.03D-09 MaxDP=5.12D-08 DE=-2.05D-12 OVMax= 5.86D-08

 SCF Done:  E(UM062X) =  -379.975425314     A.U. after    8 cycles
            NFock=  8  Conv=0.30D-08     -V/T= 2.0015
 <Sx>= 0.0000 <Sy>= 0.0000 <Sz>= 0.0000 <S**2>=-0.0000 S=-0.0000
 <L.S>=  0.00000000000    
 KE= 3.793995747285D+02 PE=-9.766181815193D+02 EE= 1.801245607338D+02
 Annihilation of the first spin contaminant:
 S**2 before annihilation    -0.0000,   after     0.0000
 Leave Link  502 at Wed Apr 16 03:11:04 2025, MaxMem=   536870912 cpu:              18.7 elap:               2.4
 (Enter /home/szhao/Apps/g16/l701.exe)
 ... and contract with generalized density number  0.
 Compute integral first derivatives.
 Leave Link  701 at Wed Apr 16 03:11:05 2025, MaxMem=   536870912 cpu:               1.1 elap:               0.2
 (Enter /home/szhao/Apps/g16/l702.exe)
 L702 exits ... SP integral derivatives will be done elsewhere.
 Leave Link  702 at Wed Apr 16 03:11:05 2025, MaxMem=   536870912 cpu:               0.4 elap:               0.1
 (Enter /home/szhao/Apps/g16/l703.exe)
 Integral derivatives from FoFJK, PRISM(SPDF).
 Compute integral first derivatives, UseDBF=F ICtDFT=           0.
 Calling FoFJK, ICntrl=      2127 FMM=F ISym2X=0 I1Cent= 0 IOpClX= 1 NMat=1 NMatS=1 NMatT=0.
 FoFJK:  IHMeth= 1 ICntrl=    2127 DoSepK=F KAlg= 0 I1Cent=           0 FoldK=F
 IRaf=         0 NMat=       1 IRICut=       1 DoRegI=T DoRafI=F ISym2E= 0 IDoP0=0 IntGTp=1.
 FoFCou: FMM=F IPFlag=           0 FMFlag=      100000 FMFlg1=         800
         NFxFlg=           0 DoJE=F BraDBF=F KetDBF=F FulRan=T
         wScrn=  0.000000 ICntrl=      2127 IOpCl=  1 I1Cent=           0 NGrid=           0
         NMat0=    1 NMatS0=      1 NMatT0=    0 NMatD0=    1 NMtDS0=    0 NMtDT0=    0
 Symmetry not used in FoFCou.
 Leave Link  703 at Wed Apr 16 03:11:06 2025, MaxMem=   536870912 cpu:               5.3 elap:               0.7
 (Enter /home/szhao/Apps/g16/l716.exe)
 Dipole        =-1.09448965D-01 3.08341792D-09 4.30604582D-09
 -------------------------------------------------------------------
 Center     Atomic                   Forces (Hartrees/Bohr)
 Number     Number              X              Y              Z
 -------------------------------------------------------------------
      1        6          -0.000142503    0.000000000    0.000000000
      2       15           0.000137535   -0.000000000   -0.000000000
      3        1           0.000004967   -0.000000000   -0.000000000
 -------------------------------------------------------------------
 Cartesian Forces:  Max     0.000142503 RMS     0.000066037
 Leave Link  716 at Wed Apr 16 03:11:06 2025, MaxMem=   536870912 cpu:               0.2 elap:               0.1
 (Enter /home/szhao/Apps/g16/l103.exe)

 GradGradGradGradGradGradGradGradGradGradGradGradGradGradGradGradGradGrad
 Berny optimization.
 Using GEDIIS/GDIIS optimizer.
 Red2BG is reusing G-inverse.
 Internal  Forces:  Max     0.000137535 RMS     0.000068812
 Search for a local minimum.
 Step number   8 out of a maximum of   20
 All quantities printed in internal units (Hartrees-Bohrs-Radians)
 RMS Force = .68812D-04 SwitMx=.10000D-02 MixMth= 2
 Mixed Optimization -- En-DIIS/RFO-DIIS
 Update second derivatives using D2CorX and points    4    5    6    7    8
 DE= -2.31D-05 DEPred=-2.24D-05 R= 1.03D+00
 TightC=F SS=  1.41D+00  RLast= 8.14D-03 DXNew= 8.4853D-01 2.4410D-02
 Trust test= 1.03D+00 RLast= 8.14D-03 DXMaxT set to 5.05D-01
 The second derivative matrix:
                          R1        R2        A1        A2
           R1           0.68135
           R2          -0.02379   0.34542
           A1          -0.00000   0.00000   0.06708
           A2           0.00000  -0.00000  -0.00000   0.06708
 ITU=  1  1  1  1  0
 Use linear search instead of GDIIS.
     Eigenvalues ---    0.06708   0.06708   0.34374   0.68303
 RFO step:  Lambda= 0.00000000D+00 EMin= 6.70821656D-02
 Quartic linear search produced a step of  0.02481.
 Iteration  1 RMS(Cart)=  0.00008288 RMS(Int)=  0.00000000
 SLEqS3 Cycle:    91 Max:0.384956E-09 RMS:0.181060E-09 Conv:0.461585E-14
 Iteration  2 RMS(Cart)=  0.00000000 RMS(Int)=  0.00000001
 ITry= 1 IFail=0 DXMaxC= 1.35D-04 DCOld= 1.00D+10 DXMaxT= 5.05D-01 DXLimC= 3.00D+00 Rises=F
 Variable       Old X    -DE/DX   Delta X   Delta X   Delta X     New X
                                 (Linear)    (Quad)   (Total)
    R1        2.89270   0.00014   0.00019   0.00001   0.00020   2.89291
    R2        2.02851  -0.00000  -0.00006   0.00006  -0.00000   2.02850
    A1        3.14159   0.00000   0.00000   0.00000   0.00000   3.14159
    A2        3.14159  -0.00000   0.00000  -0.00000  -0.00000   3.14159
         Item               Value     Threshold  Converged?
 Maximum Force            0.000138     0.000450     YES
 RMS     Force            0.000069     0.000300     YES
 Maximum Displacement     0.000135     0.001800     YES
 RMS     Displacement     0.000083     0.001200     YES
 Predicted change in Energy=-1.387970D-08
 Optimization completed.
    -- Stationary point found.
                           ----------------------------
                           !   Optimized Parameters   !
                           ! (Angstroms and Degrees)  !
 --------------------------                            --------------------------
 ! Name  Definition              Value          Derivative Info.                !
 --------------------------------------------------------------------------------
 ! R1    R(1,2)                  1.5308         -DE/DX =    0.0001              !
 ! R2    R(1,3)                  1.0734         -DE/DX =    0.0                 !
 ! A1    L(2,1,3,-2,-1)        180.0            -DE/DX =    0.0                 !
 ! A2    L(2,1,3,-3,-2)        180.0            -DE/DX =    0.0                 !
 --------------------------------------------------------------------------------
 Lowest energy point so far.  Saving SCF results.
 Largest change from initial coordinates is atom    3       0.415 Angstoms.
 GradGradGradGradGradGradGradGradGradGradGradGradGradGradGradGradGradGrad

 Leave Link  103 at Wed Apr 16 03:11:06 2025, MaxMem=   536870912 cpu:               0.3 elap:               0.1
 (Enter /home/szhao/Apps/g16/l202.exe)
                          Input orientation:                          
 ---------------------------------------------------------------------
 Center     Atomic      Atomic             Coordinates (Angstroms)
 Number     Number       Type             X           Y           Z
 ---------------------------------------------------------------------
      1          6           0       -0.557792   -0.000000   -0.000000
      2         15           0        0.972962    0.000000    0.000000
      3          1           0       -1.631231    0.000000    0.000000
 ---------------------------------------------------------------------
                    Distance matrix (angstroms):
                    1          2          3
     1  C    0.000000
     2  P    1.530753   0.000000
     3  H    1.073439   2.604193   0.000000
 Symmetry turned off by external request.
 Stoichiometry    CHP
 Framework group  C*V[C*(HCP)]
 Deg. of freedom     2
 Full point group                 C*V     NOp   4
 Rotational constants (GHZ):           0.0000000          20.2698578          20.2698578
 Leave Link  202 at Wed Apr 16 03:11:06 2025, MaxMem=   536870912 cpu:               0.1 elap:               0.1
 (Enter /home/szhao/Apps/g16/l601.exe)
 Copying SCF densities to generalized density rwf, IOpCl= 1 IROHF=0.

 **********************************************************************

            Population analysis using the SCF density.

 **********************************************************************

 Alpha  occ. eigenvalues --  -78.02660 -10.57577  -6.85560  -4.96978  -4.96978
 Alpha  occ. eigenvalues --   -4.96927  -0.81042  -0.61526  -0.41934  -0.34090
 Alpha  occ. eigenvalues --   -0.34090
 Alpha virt. eigenvalues --   -0.02030  -0.02030   0.01326   0.03412   0.04813
 Alpha virt. eigenvalues --    0.04813   0.07075   0.11473   0.11473   0.15154
 Alpha virt. eigenvalues --    0.16640   0.23239   0.32776   0.32776   0.39861
 Alpha virt. eigenvalues --    0.52626   0.61843   0.61843   0.69901   0.71547
 Alpha virt. eigenvalues --    0.71663   0.71664   0.73827   0.73827   0.86271
 Alpha virt. eigenvalues --    1.23749   1.34592   1.34592   1.38026   1.38026
 Alpha virt. eigenvalues --    1.58093   1.58093   1.65357   1.95393   2.03713
 Alpha virt. eigenvalues --    2.03713   2.64636   2.80282   2.80282   3.02398
 Alpha virt. eigenvalues --    3.41384   7.09914  14.00027  14.00027  14.32310
 Alpha virt. eigenvalues --   23.82699 163.40270
  Beta  occ. eigenvalues --  -78.02660 -10.57577  -6.85560  -4.96978  -4.96978
  Beta  occ. eigenvalues --   -4.96927  -0.81042  -0.61526  -0.41934  -0.34090
  Beta  occ. eigenvalues --   -0.34090
  Beta virt. eigenvalues --   -0.02030  -0.02030   0.01326   0.03412   0.04813
  Beta virt. eigenvalues --    0.04813   0.07075   0.11473   0.11473   0.15154
  Beta virt. eigenvalues --    0.16640   0.23239   0.32776   0.32776   0.39861
  Beta virt. eigenvalues --    0.52626   0.61843   0.61843   0.69901   0.71547
  Beta virt. eigenvalues --    0.71663   0.71664   0.73827   0.73827   0.86271
  Beta virt. eigenvalues --    1.23749   1.34592   1.34592   1.38026   1.38026
  Beta virt. eigenvalues --    1.58093   1.58093   1.65357   1.95393   2.03713
  Beta virt. eigenvalues --    2.03713   2.64636   2.80282   2.80282   3.02398
  Beta virt. eigenvalues --    3.41384   7.09914  14.00027  14.00027  14.32310
  Beta virt. eigenvalues --   23.82699 163.40270
          Condensed to atoms (all electrons):
               1          2          3
     1  C    5.307832   0.578331   0.362981
     2  P    0.578331  14.363056  -0.014674
     3  H    0.362981  -0.014674   0.475836
          Atomic-Atomic Spin Densities.
               1          2          3
     1  C    0.000000  -0.000000   0.000000
     2  P   -0.000000   0.000000  -0.000000
     3  H    0.000000  -0.000000  -0.000000
 Mulliken charges and spin densities:
               1          2
     1  C   -0.249143  -0.000000
     2  P    0.073286   0.000000
     3  H    0.175857   0.000000
 Sum of Mulliken charges =  -0.00000   0.00000
 Mulliken charges and spin densities with hydrogens summed into heavy atoms:
               1          2
     1  C   -0.073286  -0.000000
     2  P    0.073286   0.000000
 Electronic spatial extent (au):  <R**2>=            108.4844
 Charge=             -0.0000 electrons
 Dipole moment (field-independent basis, Debye):
    X=             -0.2782    Y=              0.0000    Z=              0.0000  Tot=              0.2782
 Quadrupole moment (field-independent basis, Debye-Ang):
   XX=            -16.0453   YY=            -19.9589   ZZ=            -19.9589
   XY=             -0.0000   XZ=             -0.0000   YZ=             -0.0000
 Traceless Quadrupole moment (field-independent basis, Debye-Ang):
   XX=              2.6091   YY=             -1.3045   ZZ=             -1.3045
   XY=             -0.0000   XZ=             -0.0000   YZ=             -0.0000
 Octapole moment (field-independent basis, Debye-Ang**2):
  XXX=            -28.1853  YYY=              0.0000  ZZZ=              0.0000  XYY=             -7.2884
  XXY=              0.0000  XXZ=              0.0000  XZZ=             -7.2884  YZZ=              0.0000
  YYZ=              0.0000  XYZ=              0.0000
 Hexadecapole moment (field-independent basis, Debye-Ang**3):
 XXXX=           -110.5453 YYYY=            -28.9485 ZZZZ=            -28.9485 XXXY=             -0.0000
 XXXZ=             -0.0000 YYYX=             -0.0000 YYYZ=             -0.0000 ZZZX=             -0.0000
 ZZZY=             -0.0000 XXYY=            -24.3986 XXZZ=            -24.3986 YYZZ=             -9.6495
 XXYZ=             -0.0000 YYXZ=             -0.0000 ZZXY=             -0.0000
 N-N= 3.711862074301D+01 E-N=-9.766181814910D+02  KE= 3.793995747285D+02
                          Isotropic Fermi Contact Couplings
        Atom                 a.u.       MegaHertz       Gauss      10(-4) cm-1
     1  C(13)              0.00000       0.00000       0.00000       0.00000
     2  P(31)              0.00000       0.00000       0.00000       0.00000
     3  H(1)               0.00000       0.00000       0.00000       0.00000
 --------------------------------------------------------
       Center         ----  Spin Dipole Couplings  ----
                      3XX-RR        3YY-RR        3ZZ-RR
 --------------------------------------------------------
     1   Atom        0.000000      0.000000      0.000000
     2   Atom        0.000000      0.000000      0.000000
     3   Atom        0.000000      0.000000      0.000000
 --------------------------------------------------------
                        XY            XZ            YZ
 --------------------------------------------------------
     1   Atom        0.000000      0.000000      0.000000
     2   Atom        0.000000      0.000000      0.000000
     3   Atom        0.000000      0.000000      0.000000
 --------------------------------------------------------


 ---------------------------------------------------------------------------------
              Anisotropic Spin Dipole Couplings in Principal Axis System
 ---------------------------------------------------------------------------------

       Atom             a.u.   MegaHertz   Gauss  10(-4) cm-1        Axes

              Baa     0.0000     0.000     0.000     0.000  1.0000  0.0000  0.0000
     1 C(13)  Bbb     0.0000     0.000     0.000     0.000 -0.0000  1.0000  0.0000
              Bcc     0.0000     0.000     0.000     0.000  0.0000  0.0000  1.0000
 
              Baa     0.0000     0.000     0.000     0.000  1.0000  0.0000  0.0000
     2 P(31)  Bbb     0.0000     0.000     0.000     0.000 -0.0000  1.0000  0.0000
              Bcc     0.0000     0.000     0.000     0.000  0.0000  0.0000  1.0000
 
              Baa     0.0000     0.000     0.000     0.000  1.0000  0.0000  0.0000
     3 H(1)   Bbb     0.0000     0.000     0.000     0.000 -0.0000  1.0000  0.0000
              Bcc     0.0000     0.000     0.000     0.000  0.0000  0.0000  1.0000
 

 ---------------------------------------------------------------------------------

 No NMR shielding tensors so no spin-rotation constants.
 Leave Link  601 at Wed Apr 16 03:11:06 2025, MaxMem=   536870912 cpu:               1.2 elap:               0.2
 (Enter /home/szhao/Apps/g16/l9999.exe)
 1\1\GINC-NODE02\FOpt\UM062X\6-311+G(d,p)\C1H1P1\SZHAO\16-Apr-2025\0\\#
 p opt UM062X/6-311+G** nosymm int=superfine\\Title Card Required\\0,1\
 C,-0.557791737,-0.0000000024,-0.0000000033\P,0.9729617371,0.0000000009
 ,0.0000000013\H,-1.6312310701,0.0000000015,0.0000000021\\Version=ES64L
 -G16RevA.03\HF=-379.9754253\S2=0.\S2-1=0.\S2A=0.\RMSD=3.029e-09\RMSF=6
 .604e-05\Dipole=-0.109449,0.,0.\Quadrupole=1.9397872,-0.9698936,-0.969
 8936,0.,0.,0.\PG=C*V [C*(H1C1P1)]\\@


 HERE WE GO......
 SLIDING DOWN THE RAZOR BLADE OF LIFE......
                                 TOM LEHRER
 Job cpu time:       0 days  0 hours  4 minutes 38.0 seconds.
 Elapsed time:       0 days  0 hours  0 minutes 38.7 seconds.
 File lengths (MBytes):  RWF=     17 Int=      0 D2E=      0 Chk=      2 Scr=      2
 Normal termination of Gaussian 16 at Wed Apr 16 03:11:07 2025.
