Title Card Required                                                     
FOpt      UM062X                                                      6-311+G(d,p)        
Number of atoms                            I                4
Info1-9                                    I   N=           9
          13          13           0           0           0         110
           2          18        -502
Full Title                                 C   N=           2
Title Card Required     
Route                                      C   N=           4
#p opt UM062X/6-311+G** nosymm int=superfine    
Charge                                     I                1
Multiplicity                               I                2
Number of electrons                        I               13
Number of alpha electrons                  I                7
Number of beta electrons                   I                6
Number of basis functions                  I               56
Number of independent functions            I               56
Number of point charges in /Mol/           I                0
Number of translation vectors              I                0
Atomic numbers                             I   N=           4
           6           6           1           1
Nuclear charges                            R   N=           4
  6.00000000E+00  6.00000000E+00  1.00000000E+00  1.00000000E+00
Current cartesian coordinates              R   N=          12
 -2.37568809E+00  0.00000000E+00  0.00000000E+00  2.37568809E+00  0.00000000E+00
  0.00000000E+00 -4.50052088E+00 -8.77329193E-07 -2.22203096E-06  4.50052061E+00
 -8.93192861E-07 -2.53409634E-06
Number of symbols in /Mol/                 I                0
Force Field                                I                0
Atom Types                                 C   N=           4
                                                
Int Atom Types                             I   N=           4
           0           0           0           0
MM charges                                 R   N=           4
  0.00000000E+00  0.00000000E+00  0.00000000E+00  0.00000000E+00
Integer atomic weights                     I   N=           4
          12          12           1           1
Real atomic weights                        R   N=           4
  1.20000000E+01  1.20000000E+01  1.00782504E+00  1.00782504E+00
Atom fragment info                         I   N=           4
           0           0           0           0
Atom residue num                           I   N=           4
           0           0           0           0
Nuclear spins                              I   N=           4
           0           0           1           1
Nuclear ZEff                               R   N=           4
 -3.60000000E+00 -3.60000000E+00 -1.00000000E+00 -1.00000000E+00
Nuclear ZNuc                               R   N=           4
  6.00000000E+00  6.00000000E+00  1.00000000E+00  1.00000000E+00
Nuclear QMom                               R   N=           4
  0.00000000E+00  0.00000000E+00  0.00000000E+00  0.00000000E+00
Nuclear GFac                               R   N=           4
  0.00000000E+00  0.00000000E+00  2.79284600E+00  2.79284600E+00
MicOpt                                     I   N=           4
          -2          -2          -1          -1
Number of residues                         I                0
Number of secondary structures             I                0
Redundant internal dimensions              I   N=           4
          12           8           4           0
Redundant internal coordinate indices      I   N=          48
           1          -1           0           0           1          -2
           0           0           1          -3           0           0
           2          -1           0           0           2          -2
           0           0           2          -3           0           0
           1           3           0           0           2           4
           0           0           2           1           3          -4
           1           2           4          -4           2           1
           3          -8           1           2           4          -8
Redundant internal coordinates             R   N=          12
 -2.37568809E+00  0.00000000E+00  0.00000000E+00  2.37568809E+00  0.00000000E+00
  0.00000000E+00  2.12483279E+00  2.12483252E+00  3.14159370E+00  3.14159146E+00
  3.14159224E+00  3.14159307E+00
ZRed-IntVec                                I   N=          12
          -1          -1          -1          -1          -1          -1
           0           0           0           0           0           0
ZRed-FPVec                                 R   N=          12
  0.00000000E+00  0.00000000E+00  0.00000000E+00  0.00000000E+00  0.00000000E+00
  0.00000000E+00  0.00000000E+00  0.00000000E+00  0.00000000E+00  0.00000000E+00
  0.00000000E+00  0.00000000E+00
ZRed-Constraint1                           R   N=          12
 -2.37568809E+00  0.00000000E+00  0.00000000E+00  2.37568809E+00  0.00000000E+00
  0.00000000E+00  2.08057524E+00  2.08053366E+00  3.14159265E+00  3.14159265E+00
  3.14159265E+00  3.14159265E+00
ZRed-Constraint2                           R   N=          12
 -2.37568809E+00  0.00000000E+00  0.00000000E+00  2.37568809E+00  0.00000000E+00
  0.00000000E+00  0.00000000E+00  0.00000000E+00  0.00000000E+00  0.00000000E+00
  0.00000000E+00  0.00000000E+00
Number of contracted shells                I               20
Number of primitive shells                 I               38
Pure/Cartesian d shells                    I                0
Pure/Cartesian f shells                    I                0
Highest angular momentum                   I                2
Largest degree of contraction              I                6
Shell types                                I   N=          20
           0          -1          -1          -1          -1          -2
           0          -1          -1          -1          -1          -2
           0           0           0           1           0           0
           0           1
Number of primitives per shell             I   N=          20
           6           3           1           1           1           1
           6           3           1           1           1           1
           3           1           1           1           3           1
           1           1
Shell to atom map                          I   N=          20
           1           1           1           1           1           1
           2           2           2           2           2           2
           3           3           3           3           4           4
           4           4
Primitive exponents                        R   N=          38
  4.56324000E+03  6.82024000E+02  1.54973000E+02  4.44553000E+01  1.30290000E+01
  1.82773000E+00  2.09642000E+01  4.80331000E+00  1.45933000E+00  4.83456000E-01
  1.45585000E-01  4.38000000E-02  6.26000000E-01  4.56324000E+03  6.82024000E+02
  1.54973000E+02  4.44553000E+01  1.30290000E+01  1.82773000E+00  2.09642000E+01
  4.80331000E+00  1.45933000E+00  4.83456000E-01  1.45585000E-01  4.38000000E-02
  6.26000000E-01  3.38650000E+01  5.09479000E+00  1.15879000E+00  3.25840000E-01
  1.02741000E-01  7.50000000E-01  3.38650000E+01  5.09479000E+00  1.15879000E+00
  3.25840000E-01  1.02741000E-01  7.50000000E-01
Contraction coefficients                   R   N=          38
  1.96665025E-03  1.52306019E-02  7.61269097E-02  2.60801033E-01  6.16462078E-01
  2.21006028E-01  1.14660081E-01  9.19999648E-01 -3.03068213E-03  1.00000000E+00
  1.00000000E+00  1.00000000E+00  1.00000000E+00  1.96665025E-03  1.52306019E-02
  7.61269097E-02  2.60801033E-01  6.16462078E-01  2.21006028E-01  1.14660081E-01
  9.19999648E-01 -3.03068213E-03  1.00000000E+00  1.00000000E+00  1.00000000E+00
  1.00000000E+00  2.54938145E-02  1.90373109E-01  8.52161486E-01  1.00000000E+00
  1.00000000E+00  1.00000000E+00  2.54938145E-02  1.90373109E-01  8.52161486E-01
  1.00000000E+00  1.00000000E+00  1.00000000E+00
P(S=P) Contraction coefficients            R   N=          38
  0.00000000E+00  0.00000000E+00  0.00000000E+00  0.00000000E+00  0.00000000E+00
  0.00000000E+00  4.02486927E-02  2.37593957E-01  8.15853851E-01  1.00000000E+00
  1.00000000E+00  1.00000000E+00  0.00000000E+00  0.00000000E+00  0.00000000E+00
  0.00000000E+00  0.00000000E+00  0.00000000E+00  0.00000000E+00  4.02486927E-02
  2.37593957E-01  8.15853851E-01  1.00000000E+00  1.00000000E+00  1.00000000E+00
  0.00000000E+00  0.00000000E+00  0.00000000E+00  0.00000000E+00  0.00000000E+00
  0.00000000E+00  0.00000000E+00  0.00000000E+00  0.00000000E+00  0.00000000E+00
  0.00000000E+00  0.00000000E+00  0.00000000E+00
Coordinates of each shell                  R   N=          60
 -2.37568809E+00  0.00000000E+00  0.00000000E+00 -2.37568809E+00  0.00000000E+00
  0.00000000E+00 -2.37568809E+00  0.00000000E+00  0.00000000E+00 -2.37568809E+00
  0.00000000E+00  0.00000000E+00 -2.37568809E+00  0.00000000E+00  0.00000000E+00
 -2.37568809E+00  0.00000000E+00  0.00000000E+00  2.37568809E+00  0.00000000E+00
  0.00000000E+00  2.37568809E+00  0.00000000E+00  0.00000000E+00  2.37568809E+00
  0.00000000E+00  0.00000000E+00  2.37568809E+00  0.00000000E+00  0.00000000E+00
  2.37568809E+00  0.00000000E+00  0.00000000E+00  2.37568809E+00  0.00000000E+00
  0.00000000E+00 -4.50052088E+00 -8.77329193E-07 -2.22203096E-06 -4.50052088E+00
 -8.77329193E-07 -2.22203096E-06 -4.50052088E+00 -8.77329193E-07 -2.22203096E-06
 -4.50052088E+00 -8.77329193E-07 -2.22203096E-06  4.50052061E+00 -8.93192861E-07
 -2.53409634E-06  4.50052061E+00 -8.93192861E-07 -2.53409634E-06  4.50052061E+00
 -8.93192861E-07 -2.53409634E-06  4.50052061E+00 -8.93192861E-07 -2.53409634E-06
Num ILSW                                   I              100
ILSW                                       I   N=         100
           1           0           0           1           2           0
           0           0           0           0        4336          -1
           7           0           0           0           2           0
           0           0           0           0           1           0
           1           1           0           0           0           0
           0           0      100000           0          -1           0
           0           0           0           0           0           0
           0           0           0           1           0           0
           0 -2000000000           1           0           0           0
           0           0           4          52           0           0
           0           0          55           0           0           0
           0           0           0           4           0           1
           0           0           0           0           0           0
           0           0           0           0           0           0
           0           0           0           0           0           0
           0           0           0           0           0           0
           0           0           0           0
Num RLSW                                   I               52
RLSW                                       R   N=          52
  1.00000000E+00  1.00000000E+00  1.00000000E+00  1.00000000E+00  5.40000000E-01
  0.00000000E+00  0.00000000E+00  1.00000000E+00  0.00000000E+00  0.00000000E+00
  0.00000000E+00  0.00000000E+00  1.00000000E+00  0.00000000E+00  0.00000000E+00
  0.00000000E+00  0.00000000E+00  1.00000000E+00  0.00000000E+00  0.00000000E+00
  0.00000000E+00  0.00000000E+00  1.00000000E+00  0.00000000E+00  0.00000000E+00
  0.00000000E+00  0.00000000E+00  1.00000000E+00  0.00000000E+00  0.00000000E+00
  0.00000000E+00  0.00000000E+00  1.00000000E+00  0.00000000E+00  0.00000000E+00
  0.00000000E+00  0.00000000E+00  0.00000000E+00  1.00000000E+00  1.00000000E+00
  0.00000000E+00  1.00000000E+00  0.00000000E+00  0.00000000E+00  0.00000000E+00
  0.00000000E+00  0.00000000E+00  0.00000000E+00  0.00000000E+00  0.00000000E+00
  0.00000000E+00  0.00000000E+00
MxBond                                     I                2
NBond                                      I   N=           4
           2           2           1           1
IBond                                      I   N=           8
           2           3           1           4           1           0
           2           0
RBond                                      R   N=           8
  1.00000000E-01  1.00000000E+00  1.00000000E-01  1.00000000E+00  1.00000000E+00
  0.00000000E+00  1.00000000E+00  0.00000000E+00
Virial Ratio                               R      2.001418860264574E+00
SCF Energy                                 R     -7.657709886199162E+01
Total Energy                               R     -7.657709886199162E+01
S**2                                       R      7.509688124441931E-01
S**2 after annihilation                    R      7.500006861115270E-01
RMS Force                                  R      8.646483460249228E-08
RMS Density                                R      8.066870891600966E-09
Job Status                                 I                1
Nuclear derivative order                   I                1
External E-field                           R   N=          35
  0.00000000E+00  0.00000000E+00  0.00000000E+00  0.00000000E+00  0.00000000E+00
  0.00000000E+00  0.00000000E+00  0.00000000E+00  0.00000000E+00  0.00000000E+00
  0.00000000E+00  0.00000000E+00  0.00000000E+00  0.00000000E+00  0.00000000E+00
  0.00000000E+00  0.00000000E+00  0.00000000E+00  0.00000000E+00  0.00000000E+00
  0.00000000E+00  0.00000000E+00  0.00000000E+00  0.00000000E+00  0.00000000E+00
  0.00000000E+00  0.00000000E+00  0.00000000E+00  0.00000000E+00  0.00000000E+00
  0.00000000E+00  0.00000000E+00  0.00000000E+00  0.00000000E+00  0.00000000E+00
IOpCl                                      I                1
IROHF                                      I                0
Alpha Orbital Energies                     R   N=          56
 -1.09548584E+01 -1.09548352E+01 -9.99596070E-01 -9.84610850E-01 -7.02534007E-01
 -5.91302770E-01 -5.23305115E-01 -3.91266819E-01 -3.61890303E-01 -3.32548619E-01
 -1.33375227E-01 -1.17117646E-01 -8.39153756E-02 -7.85537753E-02 -6.90837829E-02
 -5.32432143E-02 -4.94476502E-02 -9.12903806E-03  1.93421086E-02  5.88124957E-02
  2.55173160E-01  3.18149129E-01  3.23874747E-01  3.30540582E-01  3.88837178E-01
  3.95100604E-01  4.37245930E-01  5.33519353E-01  5.64382301E-01  6.59480157E-01
  8.57347960E-01  8.57813128E-01  9.25074672E-01  9.29184082E-01  1.05894814E+00
  1.06703385E+00  1.06921486E+00  1.07732677E+00  1.29381339E+00  1.39913962E+00
  1.61149792E+00  1.61324776E+00  1.61376509E+00  1.61684055E+00  2.12521580E+00
  2.20122123E+00  2.27879382E+00  2.38961413E+00  2.42338930E+00  2.43845882E+00
  2.44574821E+00  2.46010471E+00  3.01692251E+00  3.03548040E+00  2.32435577E+01
  2.32729929E+01
Beta Orbital Energies                      R   N=          56
 -1.09511091E+01 -1.09511022E+01 -9.74699322E-01 -9.63554931E-01 -6.89819678E-01
 -5.75998950E-01 -3.46160425E-01 -3.30267585E-01 -3.14048137E-01 -2.97440818E-01
 -1.40192598E-01 -1.16848858E-01 -7.92599678E-02 -7.61085793E-02 -7.14765808E-02
 -4.65535054E-02 -3.77018179E-02 -1.67713711E-02  3.53927332E-02  6.96182821E-02
  2.48039872E-01  3.35341005E-01  3.38711217E-01  3.41531109E-01  3.83272811E-01
  3.88771244E-01  4.56887731E-01  5.53100198E-01  5.72037041E-01  6.56221121E-01
  9.18948800E-01  9.28496220E-01  9.88895852E-01  9.96852878E-01  1.09167145E+00
  1.09183993E+00  1.09810254E+00  1.09812569E+00  1.29725333E+00  1.40641712E+00
  1.62720149E+00  1.62896119E+00  1.63351569E+00  1.63629437E+00  2.27429472E+00
  2.31226802E+00  2.32342109E+00  2.42477284E+00  2.44985172E+00  2.46983374E+00
  2.47282128E+00  2.49113526E+00  3.08588291E+00  3.13345725E+00  2.32557268E+01
  2.32848106E+01
Alpha MO coefficients                      R   N=        3136
  3.98956045E-01  3.28714696E-01 -1.45816731E-03 -9.17740882E-10 -1.73286460E-09
  6.75583751E-03 -6.68471835E-04 -8.27059924E-11 -3.86638235E-10 -3.54161869E-03
  1.54411197E-04 -2.07050716E-11 -7.69008625E-11 -1.39834941E-04  1.07494944E-03
  2.54628689E-10  6.17711882E-10 -3.49897401E-04  8.42391941E-10 -6.11161200E-06
  5.96527122E-04  3.67989081E-10  3.98632909E-01  3.28448483E-01  1.45697368E-03
 -4.99416505E-10 -2.09112509E-09  6.75006042E-03  6.68098077E-04 -1.62856341E-10
 -4.83402318E-10 -3.53824861E-03 -1.55501579E-04 -6.41368391E-11 -1.45096939E-11
 -1.43531848E-04 -1.07278329E-03  2.89977396E-10  8.06059190E-10 -3.49689909E-04
 -1.04012226E-09 -6.09765045E-06  5.96189516E-04 -2.93429521E-10  2.95971236E-04
 -1.81528942E-03  2.45673099E-03 -1.20356398E-03 -5.01979119E-10 -1.15923347E-09
  2.95649168E-04 -1.81357589E-03  2.45556196E-03  1.20261332E-03 -4.21885251E-10
 -1.37546606E-09 -3.98636127E-01 -3.28413269E-01  1.47251037E-03  9.25294880E-10
  1.77730466E-09 -7.12832182E-03  4.62641197E-04  4.25655982E-11  2.77483344E-10
  4.15731816E-03  1.34555687E-03  2.72764844E-10  7.45125004E-10 -4.56109806E-03
 -2.67259338E-03 -3.92755313E-10 -1.00944544E-09  2.56352569E-04 -9.68027599E-10
  1.72234693E-05 -4.17150043E-04 -4.14794654E-10  3.98959261E-01  3.28679510E-01
  1.47369141E-03 -5.28933144E-10 -2.13733521E-09  7.13379462E-03  4.63183971E-04
 -1.34458698E-10 -3.60962939E-10 -4.16018607E-03  1.34543139E-03 -3.41939955E-10
 -7.54824885E-10  4.56098293E-03 -2.67346360E-03  4.08610945E-10  1.06167573E-09
 -2.56636320E-04 -1.18305560E-09 -1.72284119E-05  4.17633823E-04 -3.38308467E-10
 -3.97097242E-04  2.11615753E-03 -1.44300965E-03  1.17404826E-03  4.97628749E-10
  1.15033296E-09  3.97336766E-04 -2.11762950E-03  1.44500047E-03  1.17502412E-03
 -4.18563852E-10 -1.36000361E-09 -8.14043133E-02 -1.32697267E-01 -4.50719436E-02
 -2.67986150E-08 -1.08507077E-07  3.88437437E-01 -7.12452844E-02 -3.64398445E-08
 -1.67900602E-07  2.61933249E-01 -2.15385625E-02 -2.14564491E-08 -7.49897153E-08
 -7.22382106E-04 -1.13323025E-02 -2.19355257E-09  1.21296888E-09 -3.58710911E-03
  5.08380976E-09  4.73068790E-04  6.95219213E-03  2.78386016E-09 -8.14044800E-02
 -1.32697539E-01  4.50720839E-02 -6.08896050E-08 -9.94070599E-08  3.88438226E-01
  7.12454925E-02 -9.66285005E-08 -1.49904558E-07  2.61933777E-01  2.15386404E-02
 -3.93212936E-08 -7.08174606E-08 -7.22510513E-04  1.13323769E-02  2.31070455E-09
 -2.77316973E-09 -3.58712001E-03 -7.88813056E-09  4.73068919E-04  6.95221115E-03
 -6.44378889E-10  9.10743931E-02  1.13522206E-01 -1.46293598E-02  1.56911964E-02
  6.11154321E-09  2.06177200E-08  9.10746229E-02  1.13522479E-01 -1.46293896E-02
 -1.56912331E-02  1.03260560E-08  2.10084296E-08 -7.95600112E-02 -1.29813725E-01
 -6.01729829E-02 -2.76126714E-08 -1.09309719E-07  3.80896942E-01 -9.21492201E-02
 -3.95427911E-08 -1.70127357E-07  2.61923903E-01 -3.76336336E-02 -2.05510068E-08
 -7.67078423E-08 -6.71216056E-02 -3.88317683E-02 -2.75145454E-09 -7.32476492E-09
 -4.46491161E-03  1.00974383E-08 -1.10512400E-04  7.56125917E-03  4.57421973E-09
  7.95598349E-02  1.29813437E-01 -6.01729056E-02  6.06162291E-08  1.02490909E-07
 -3.80896092E-01 -9.21490888E-02  9.64342096E-08  1.56410260E-07 -2.61923313E-01
 -3.76335923E-02  4.11418689E-08  7.26526348E-08  6.71216041E-02 -3.88317418E-02
  1.25934379E-09  8.66746051E-09  4.46490585E-03  1.33968561E-08  1.10513098E-04
 -7.56124804E-03  2.67392285E-09  9.92783236E-02  1.22800687E-01 -1.42218378E-02
  1.67201962E-02  6.59654189E-09  2.22583549E-08 -9.92781528E-02 -1.22800460E-01
  1.42218062E-02  1.67201643E-02 -1.11331153E-08 -2.25829653E-08 -3.10056364E-02
 -5.14484304E-02  1.65911775E-01  6.61464632E-09 -8.29740612E-08  1.56376021E-01
  2.41330469E-01  1.11125210E-08 -1.26389610E-07  1.75919006E-01  1.54020114E-01
 -1.00498029E-08 -1.33213276E-07  7.29396829E-03  2.52008473E-03  1.02899264E-09
  1.10628338E-08  1.19594228E-02 -5.39626407E-08  2.07972612E-04 -2.03894866E-02
 -2.08335670E-08 -3.10056459E-02 -5.14484465E-02 -1.65911785E-01 -9.17654120E-08
 -1.81563310E-08  1.56376070E-01 -2.41330477E-01 -1.39185192E-07 -2.88220419E-08
  1.75919077E-01 -1.54020108E-01 -1.14258096E-07 -6.79146832E-08  7.29395683E-03
 -2.52007477E-03  7.87766682E-09  8.65956620E-09  1.19594244E-02  6.02449190E-08
  2.07972610E-04 -2.03894895E-02  2.09615754E-08 -9.65214395E-02 -1.56338910E-01
 -3.67253508E-02 -1.01567490E-02 -7.60626559E-09 -2.47427602E-08 -9.65214411E-02
 -1.56338906E-01 -3.67253566E-02  1.01567475E-02 -1.34589933E-08 -2.39045969E-08
 -5.11429747E-02 -8.53027153E-02  1.73121968E-01 -1.91441868E-10 -2.18300241E-07
  2.64110478E-01  2.47853528E-01 -1.82908878E-09 -3.46467410E-07  3.26057730E-01
  2.16491915E-01 -9.39842505E-09 -2.93480389E-07  5.57799872E-02  2.84538420E-02
  1.27733014E-08  2.89021192E-08  1.78272608E-02 -5.26531163E-08 -5.61445568E-04
 -3.17542661E-02 -2.13265450E-08  5.11429749E-02  8.53027160E-02  1.73121963E-01
  2.04005529E-07  7.95210664E-08 -2.64110477E-01  2.47853515E-01  3.18604955E-07
  1.32023436E-07 -3.26057754E-01  2.16491902E-01  2.60635091E-07  1.25064613E-07
 -5.57799909E-02  2.84538390E-02 -1.02172824E-08 -3.19273982E-08 -1.78272608E-02
 -6.29081651E-08  5.61445412E-04  3.17542658E-02 -1.78661445E-08 -1.00693893E-01
 -1.73609661E-01 -5.38610495E-02 -6.17729196E-03 -7.45439141E-09 -2.96599283E-08
  1.00693883E-01  1.73609633E-01  5.38610375E-02 -6.17728975E-03  1.84619972E-08
  2.43869609E-08 -5.77761604E-08 -9.22904953E-08 -4.77138794E-08  8.82686799E-02
  1.80912602E-01  2.54666107E-07 -7.15645417E-08  1.38242780E-01  2.83337997E-01
  3.20528788E-07 -3.38034037E-08  1.29018287E-01  2.64429683E-01  1.04023693E-08
  1.86309503E-08  7.22776277E-03  1.48138307E-02 -4.12817035E-08 -8.68021271E-03
 -3.25250788E-08 -1.29622560E-09 -4.23508045E-03 -5.28729997E-08 -8.40519184E-08
  8.88568996E-08  8.82686895E-02  1.80912609E-01  2.29356261E-07  1.32556834E-07
  1.38242796E-01  2.83338009E-01  2.80251270E-07  9.26644901E-08  1.29018301E-01
  2.64429695E-01 -9.84731363E-09 -8.27812410E-09  7.22776361E-03  1.48138314E-02
 -3.79328466E-08  8.68021572E-03 -4.16677927E-08  9.15232467E-09  4.23508241E-03
 -8.81063219E-08 -1.07644958E-07 -4.43848687E-09 -1.55704831E-08  5.70902836E-03
  1.17010082E-02 -7.83616329E-08 -8.73442424E-08  5.79646279E-09  1.67207165E-08
  5.70902997E-03  1.17010106E-02 -7.99576268E-08 -1.29352534E-07 -1.59377385E-08
  9.30120987E-02  1.90636532E-01  3.63820439E-07 -1.45662541E-08  1.45059217E-01
  2.97311980E-01  6.00832918E-07 -2.15856026E-07  1.39257209E-01  2.85417951E-01
 -1.43188352E-07 -1.34965119E-07  1.73970455E-02  3.56570804E-02 -3.68171358E-08
 -1.97264644E-02 -3.42849428E-08 -1.21480281E-08 -9.62457187E-03  8.22196316E-08
  1.33064664E-07 -3.79819973E-08 -9.30121040E-02 -1.90636516E-01 -3.74501507E-07
 -4.91149008E-08 -1.45059226E-01 -2.97311956E-01 -6.21115656E-07 -2.47868067E-07
 -1.39257218E-01 -2.85417929E-01  1.41994966E-07 -1.39493074E-07 -1.73970465E-02
 -3.56570778E-02  3.10689950E-08 -1.97264657E-02  4.38451038E-08  5.54429460E-09
 -9.62457346E-03 -1.31726342E-07 -2.89746911E-07 -2.50805662E-07 -2.31557905E-08
  7.45052009E-03  1.52704490E-02  1.36447752E-07  2.98672122E-07  2.55021380E-07
 -2.53515406E-08 -7.45052147E-03 -1.52704498E-02  3.45567641E-08  5.51932295E-08
 -6.97918812E-08  1.68634651E-01 -8.22786243E-02 -1.55947655E-07 -9.89843730E-08
  2.70861806E-01 -1.32156368E-01 -2.51479984E-07 -9.07597354E-08  2.66816357E-01
 -1.30181525E-01 -1.50020284E-07 -6.49559175E-08  4.15647198E-02 -2.02798363E-02
  1.79215605E-08  4.91190213E-03 -4.29896850E-08  2.17496014E-08 -1.00670974E-02
 -3.02466550E-08 -4.78138672E-08 -1.05986330E-07  1.68634622E-01 -8.22786242E-02
  1.30071731E-07 -1.57950683E-07  2.70861759E-01 -1.32156368E-01  2.23738168E-07
 -1.50106547E-07  2.66816315E-01 -1.30181526E-01  1.53031029E-07 -7.78543663E-08
  4.15647117E-02 -2.02798360E-02  4.74913232E-08 -4.91190297E-03 -2.01632012E-08
  1.18974476E-08  1.00670962E-02  5.08320900E-08  9.96301194E-08  7.03292892E-08
  2.52502154E-09  1.30596185E-02 -6.37190903E-03 -4.70932177E-08 -9.30202017E-08
 -6.36009471E-08 -7.16092957E-10  1.30596179E-02 -6.37190991E-03  4.54853324E-09
  4.54168456E-09 -2.14339586E-09  1.81471665E-01 -8.85408759E-02  8.32883630E-09
 -1.34422623E-08  2.90999873E-01 -1.41980331E-01 -3.25159031E-08  6.74185372E-09
  2.90778398E-01 -1.41871125E-01  1.85896262E-08  1.73150675E-08  6.67114394E-02
 -3.25489615E-02  3.11692604E-08  8.53315976E-03 -4.56258327E-08 -1.50697514E-11
 -1.74893557E-02  1.03586444E-08  1.41613105E-08  6.23268537E-08 -1.81471682E-01
  8.85408892E-02 -2.03939804E-08  1.03123229E-07 -2.90999900E-01  1.41980352E-01
 -7.53454128E-08  1.12658008E-07 -2.90778428E-01  1.41871149E-01 -7.83482885E-08
  4.82139196E-08 -6.67114454E-02  3.25489660E-02 -4.13585948E-08  8.53316131E-03
  2.04216474E-08 -2.77438210E-08 -1.74893582E-02  4.59007335E-09  2.12152328E-09
  5.45295215E-09  2.50112699E-09  1.56276437E-02 -7.62477558E-03  1.42967572E-08
  1.53088317E-08  5.97557189E-09  1.87062585E-09 -1.56276469E-02  7.62477757E-03
  2.88779848E-02  4.93947673E-02  3.80810548E-02  3.65222003E-08  7.61434633E-08
 -1.65215500E-01  8.04006537E-02  7.04254971E-08  1.27604861E-07 -4.29419613E-01
  7.96814865E-02  6.26675296E-08  1.57179898E-07  9.70279517E-01 -4.52699893E-01
 -1.88981434E-07 -5.28761937E-07  6.22934737E-03 -2.57439864E-08  1.74302391E-03
 -8.06797536E-03 -9.01020487E-09  2.88779796E-02  4.93947591E-02 -3.80810049E-02
  2.43356984E-08  8.83270083E-08 -1.65215474E-01 -8.04005886E-02  3.27276100E-08
  1.59888093E-07 -4.29419533E-01 -7.96813531E-02  5.67615460E-08  1.72073565E-07
  9.70279879E-01  4.52699470E-01 -2.41917231E-07 -5.91437147E-07  6.22934772E-03
  2.64551605E-08  1.74302375E-03 -8.06797652E-03  1.22274232E-08  1.09325829E-03
  1.35840328E-01 -2.20092681E-01 -7.26168365E-03 -7.55530331E-10 -4.81505081E-09
  1.09324585E-03  1.35840284E-01 -2.20092754E-01  7.26167136E-03 -2.95566113E-09
 -4.86119600E-09 -1.61849898E-02 -2.83539566E-02 -7.23441340E-02 -2.47506851E-08
 -5.09772661E-08  1.10409449E-01 -1.24464723E-01 -4.29804453E-08 -9.18970049E-08
  1.46008657E-01 -1.34530147E-01 -5.59729611E-08 -1.14928044E-07  6.58380829E-01
  1.35142758E+00  3.74557639E-07  8.90962427E-07 -5.73860281E-03  2.15409168E-08
 -8.54576694E-04  8.60521952E-03  7.04471855E-09  1.61849951E-02  2.83539661E-02
 -7.23441122E-02  2.03982276E-08  6.01061608E-08 -1.10409489E-01 -1.24464706E-01
  3.70305295E-08  1.08273497E-07 -1.46008685E-01 -1.34530027E-01  4.79089063E-08
  1.29841681E-07 -6.58380378E-01  1.35142770E+00 -3.30196807E-07 -9.67686189E-07
  5.73860893E-03  2.21856168E-08  8.54577513E-04 -8.60522902E-03  1.16629245E-08
  8.16826180E-03 -8.97409514E-02  2.48988752E-01  1.56810429E-02  6.89914016E-09
  1.63896445E-08 -8.16828855E-03  8.97409225E-02 -2.48989060E-01  1.56810383E-02
 -5.43590630E-09 -1.89426717E-08 -5.41062489E-09 -8.32149391E-09 -6.88857700E-09
 -8.39694808E-02  4.09711329E-02  2.27303010E-08  5.69265887E-09 -1.00807826E-01
  4.91870962E-02  6.49924420E-08 -7.12832787E-08 -2.84778721E-01  1.38950989E-01
 -9.45680542E-08 -9.10049876E-09  6.16396817E-01 -3.00758334E-01 -6.25251102E-09
 -3.34741225E-03  1.52010923E-08 -7.69284591E-09  6.86047213E-03  7.09107789E-10
  1.85173454E-10  2.65035958E-08 -8.39694765E-02  4.09711311E-02  5.62084158E-09
  5.03593301E-08 -1.00807821E-01  4.91870947E-02  3.04011852E-09  7.47526518E-08
 -2.84778709E-01  1.38950984E-01  9.32545250E-08 -2.02382625E-07  6.16396753E-01
 -3.00758305E-01 -1.40902128E-08  3.34741297E-03  7.48663235E-09 -8.53878305E-09
 -6.86047354E-03 -1.04814580E-08 -3.12555985E-08 -1.08571143E-07  4.28214860E-09
  5.80837496E-04 -2.83437361E-04 -3.93885352E-09 -1.74468623E-08 -4.96434398E-08
  8.91338354E-10  5.80835177E-04 -2.83436201E-04  2.37882749E-08  3.96293884E-08
  2.38799619E-07 -3.81003829E-02 -7.80854928E-02 -1.18684222E-07  2.86560081E-07
 -4.08955620E-02 -8.38141668E-02 -3.70280200E-07  1.06425307E-06 -1.30829068E-01
 -2.68128502E-01 -1.51639055E-07 -1.48757973E-06  3.01040909E-01  6.16974957E-01
 -6.00540153E-09  6.07050311E-03  8.54928103E-09  2.81747665E-08  2.96200121E-03
  2.48150002E-08  4.14149000E-08 -2.46152742E-07 -3.81003805E-02 -7.80854887E-02
 -1.26054293E-07 -2.95640818E-07 -4.08955592E-02 -8.38141632E-02 -3.70343176E-07
 -1.08049425E-06 -1.30829061E-01 -2.68128490E-01 -2.97052333E-07  1.62089510E-06
  3.01040880E-01  6.16974903E-01 -6.91143072E-09 -6.07050452E-03  1.03311790E-08
  2.79604780E-08 -2.96200185E-03  9.49334024E-08  3.73845176E-07  1.19752416E-06
 -3.66957374E-08  8.85840970E-04  1.81557028E-03  9.76977316E-08  3.74110248E-07
  1.19671691E-06  3.71989832E-08  8.85839937E-04  1.81556808E-03 -1.06104551E-03
 -1.48175479E-03  9.61999902E-02  7.32282404E-08  1.93314605E-07  3.66040040E-03
  1.16034476E-01  6.73180689E-08  2.34947022E-07 -9.23575930E-03  4.98583043E-01
  3.59240757E-07  8.77921321E-07 -5.10395475E-01 -5.42271584E-01 -4.16491051E-07
 -1.14364648E-06 -1.02319645E-02 -5.63642996E-09 -1.52728964E-03  1.53373448E-02
 -8.33182989E-10 -1.06104329E-03 -1.48175088E-03 -9.61999544E-02  8.74013109E-08
  2.05449869E-07  3.66038441E-03 -1.16034428E-01  1.23088747E-07  2.30061008E-07
 -9.23579751E-03 -4.98582927E-01  3.72456149E-07  9.59763677E-07 -5.10395196E-01
  5.42271903E-01 -5.71520074E-07 -1.20456898E-06 -1.02319606E-02  3.04711746E-09
 -1.52728931E-03  1.53373388E-02  4.34221094E-09  3.61627658E-02  1.61225189E-01
  6.83483463E-01 -1.72720026E-02 -4.52815119E-09 -9.05432146E-09  3.61627283E-02
  1.61225144E-01  6.83483077E-01  1.72720028E-02 -3.01302792E-09 -1.10936904E-08
 -2.57777912E-10  2.36429285E-10 -1.84626344E-09 -7.23454674E-02  3.52987494E-02
 -6.85760222E-10  3.59604083E-09 -8.47821684E-02  4.13669089E-02 -7.37810009E-08
  3.04812052E-08 -2.66831803E-01  1.30191859E-01  1.62407906E-07  2.69677034E-07
  1.17910366E+00 -5.75308050E-01 -8.78984515E-09  1.22848657E-03  1.50888564E-08