Title Card Required                                                     
Force     UM062X                                                      6-311+G(d,p)        
Number of atoms                            I                6
Info1-9                                    I   N=           9
          15          15           0           0           0         100
           5          18        -502
Full Title                                 C   N=           2
Title Card Required     
Route                                      C   N=           4
#p UM062X/6-311+G** force int=superfine         
Charge                                     I                1
Multiplicity                               I                2
Number of electrons                        I               15
Number of alpha electrons                  I                8
Number of beta electrons                   I                7
Number of basis functions                  I               68
Number of independent functions            I               68
Number of point charges in /Mol/           I                0
Number of translation vectors              I                0
Atomic numbers                             I   N=           6
           6           6           1           1           1           1
Nuclear charges                            R   N=           6
  6.00000000E+00  6.00000000E+00  1.00000000E+00  1.00000000E+00  1.00000000E+00
  1.00000000E+00
Current cartesian coordinates              R   N=          18
  1.97899084E-19  1.00187421E+00  0.00000000E+00 -1.23024036E-16 -1.00187421E+00
  0.00000000E+00 -1.58124345E+00  2.44530749E+00  0.00000000E+00  1.60358002E+00
  2.42624394E+00  0.00000000E+00  1.58124345E+00 -2.44530749E+00  0.00000000E+00
 -1.60358002E+00 -2.42624394E+00  0.00000000E+00
Number of symbols in /Mol/                 I                0
Force Field                                I                0
Atom Types                                 C   N=           6
                                                            
            
Int Atom Types                             I   N=           6
           0           0           0           0           0           0
MM charges                                 R   N=           6
  0.00000000E+00  0.00000000E+00  0.00000000E+00  0.00000000E+00  0.00000000E+00
  0.00000000E+00
Integer atomic weights                     I   N=           6
          12          12           1           1           1           1
Real atomic weights                        R   N=           6
  1.20000000E+01  1.20000000E+01  1.00782504E+00  1.00782504E+00  1.00782504E+00
  1.00782504E+00
Atom fragment info                         I   N=           6
           0           0           0           0           0           0
Atom residue num                           I   N=           6
           0           0           0           0           0           0
Nuclear spins                              I   N=           6
           0           0           1           1           1           1
Nuclear ZEff                               R   N=           6
 -3.60000000E+00 -3.60000000E+00 -1.00000000E+00 -1.00000000E+00 -1.00000000E+00
 -1.00000000E+00
Nuclear ZNuc                               R   N=           6
  6.00000000E+00  6.00000000E+00  1.00000000E+00  1.00000000E+00  1.00000000E+00
  1.00000000E+00
Nuclear QMom                               R   N=           6
  0.00000000E+00  0.00000000E+00  0.00000000E+00  0.00000000E+00  0.00000000E+00
  0.00000000E+00
Nuclear GFac                               R   N=           6
  0.00000000E+00  0.00000000E+00  2.79284600E+00  2.79284600E+00  2.79284600E+00
  2.79284600E+00
MicOpt                                     I   N=           6
          -1          -1          -1          -1          -1          -1
Number of residues                         I                0
Number of secondary structures             I                0
SymInf integers                            I   N=          26
           2           4           1           1           1          -1
          -1           1           1           1          -1          -1
          -1          -1           0           0           0           0
           0           0           0           0           0           0
           0           0
RotTr to input orientation                 R   N=          12
  8.42384802E-18  1.00000000E+00  0.00000000E+00 -1.00000000E+00  8.48969098E-18
  0.00000000E+00  0.00000000E+00  0.00000000E+00  1.00000000E+00 -2.77555756E-17
  0.00000000E+00  0.00000000E+00
Number of contracted shells                I               28
Number of primitive shells                 I               50
Pure/Cartesian d shells                    I                0
Pure/Cartesian f shells                    I                0
Highest angular momentum                   I                2
Largest degree of contraction              I                6
Shell types                                I   N=          28
           0          -1          -1          -1          -1          -2
           0          -1          -1          -1          -1          -2
           0           0           0           1           0           0
           0           1           0           0           0           1
           0           0           0           1
Number of primitives per shell             I   N=          28
           6           3           1           1           1           1
           6           3           1           1           1           1
           3           1           1           1           3           1
           1           1           3           1           1           1
           3           1           1           1
Shell to atom map                          I   N=          28
           1           1           1           1           1           1
           2           2           2           2           2           2
           3           3           3           3           4           4
           4           4           5           5           5           5
           6           6           6           6
Primitive exponents                        R   N=          50
  4.56324000E+03  6.82024000E+02  1.54973000E+02  4.44553000E+01  1.30290000E+01
  1.82773000E+00  2.09642000E+01  4.80331000E+00  1.45933000E+00  4.83456000E-01
  1.45585000E-01  4.38000000E-02  6.26000000E-01  4.56324000E+03  6.82024000E+02
  1.54973000E+02  4.44553000E+01  1.30290000E+01  1.82773000E+00  2.09642000E+01
  4.80331000E+00  1.45933000E+00  4.83456000E-01  1.45585000E-01  4.38000000E-02
  6.26000000E-01  3.38650000E+01  5.09479000E+00  1.15879000E+00  3.25840000E-01
  1.02741000E-01  7.50000000E-01  3.38650000E+01  5.09479000E+00  1.15879000E+00
  3.25840000E-01  1.02741000E-01  7.50000000E-01  3.38650000E+01  5.09479000E+00
  1.15879000E+00  3.25840000E-01  1.02741000E-01  7.50000000E-01  3.38650000E+01
  5.09479000E+00  1.15879000E+00  3.25840000E-01  1.02741000E-01  7.50000000E-01
Contraction coefficients                   R   N=          50
  1.96665025E-03  1.52306019E-02  7.61269097E-02  2.60801033E-01  6.16462078E-01
  2.21006028E-01  1.14660081E-01  9.19999648E-01 -3.03068213E-03  1.00000000E+00
  1.00000000E+00  1.00000000E+00  1.00000000E+00  1.96665025E-03  1.52306019E-02
  7.61269097E-02  2.60801033E-01  6.16462078E-01  2.21006028E-01  1.14660081E-01
  9.19999648E-01 -3.03068213E-03  1.00000000E+00  1.00000000E+00  1.00000000E+00
  1.00000000E+00  2.54938145E-02  1.90373109E-01  8.52161486E-01  1.00000000E+00
  1.00000000E+00  1.00000000E+00  2.54938145E-02  1.90373109E-01  8.52161486E-01
  1.00000000E+00  1.00000000E+00  1.00000000E+00  2.54938145E-02  1.90373109E-01
  8.52161486E-01  1.00000000E+00  1.00000000E+00  1.00000000E+00  2.54938145E-02
  1.90373109E-01  8.52161486E-01  1.00000000E+00  1.00000000E+00  1.00000000E+00
P(S=P) Contraction coefficients            R   N=          50
  0.00000000E+00  0.00000000E+00  0.00000000E+00  0.00000000E+00  0.00000000E+00
  0.00000000E+00  4.02486927E-02  2.37593957E-01  8.15853851E-01  1.00000000E+00
  1.00000000E+00  1.00000000E+00  0.00000000E+00  0.00000000E+00  0.00000000E+00
  0.00000000E+00  0.00000000E+00  0.00000000E+00  0.00000000E+00  4.02486927E-02
  2.37593957E-01  8.15853851E-01  1.00000000E+00  1.00000000E+00  1.00000000E+00
  0.00000000E+00  0.00000000E+00  0.00000000E+00  0.00000000E+00  0.00000000E+00
  0.00000000E+00  0.00000000E+00  0.00000000E+00  0.00000000E+00  0.00000000E+00
  0.00000000E+00  0.00000000E+00  0.00000000E+00  0.00000000E+00  0.00000000E+00
  0.00000000E+00  0.00000000E+00  0.00000000E+00  0.00000000E+00  0.00000000E+00
  0.00000000E+00  0.00000000E+00  0.00000000E+00  0.00000000E+00  0.00000000E+00
Coordinates of each shell                  R   N=          84
  1.31932722E-19  1.00187421E+00  0.00000000E+00  1.31932722E-19  1.00187421E+00
  0.00000000E+00  1.31932722E-19  1.00187421E+00  0.00000000E+00  1.31932722E-19
  1.00187421E+00  0.00000000E+00  1.31932722E-19  1.00187421E+00  0.00000000E+00
  1.31932722E-19  1.00187421E+00  0.00000000E+00 -1.22958070E-16 -1.00187421E+00
  0.00000000E+00 -1.22958070E-16 -1.00187421E+00  0.00000000E+00 -1.22958070E-16
 -1.00187421E+00  0.00000000E+00 -1.22958070E-16 -1.00187421E+00  0.00000000E+00
 -1.22958070E-16 -1.00187421E+00  0.00000000E+00 -1.22958070E-16 -1.00187421E+00
  0.00000000E+00 -1.58124345E+00  2.44530749E+00  0.00000000E+00 -1.58124345E+00
  2.44530749E+00  0.00000000E+00 -1.58124345E+00  2.44530749E+00  0.00000000E+00
 -1.58124345E+00  2.44530749E+00  0.00000000E+00  1.60358002E+00  2.42624394E+00
  0.00000000E+00  1.60358002E+00  2.42624394E+00  0.00000000E+00  1.60358002E+00
  2.42624394E+00  0.00000000E+00  1.60358002E+00  2.42624394E+00  0.00000000E+00
  1.58124345E+00 -2.44530749E+00  0.00000000E+00  1.58124345E+00 -2.44530749E+00
  0.00000000E+00  1.58124345E+00 -2.44530749E+00  0.00000000E+00  1.58124345E+00
 -2.44530749E+00  0.00000000E+00 -1.60358002E+00 -2.42624394E+00  0.00000000E+00
 -1.60358002E+00 -2.42624394E+00  0.00000000E+00 -1.60358002E+00 -2.42624394E+00
  0.00000000E+00 -1.60358002E+00 -2.42624394E+00  0.00000000E+00
Num ILSW                                   I              100
ILSW                                       I   N=         100
           1           0           0           0           2           0
           0           0           0           0        4336          -1
           7           0           0           0           2           0
           0           0           0           0           1           0
           1           0           0           0           0           0
           0           0      100000           0          -1           0
           0           0           0           0           0           0
           0           0           0           1           0           0
           0 -2000000000           1           0           0           0
           0           0           4          52           0           0
           0           0          55           0           0           0
           0           0           0           6           0           1
           0           0           0           0           0           0
           0           0           0           0           0           0
           0           0           0           0           0           0
           0           0           0           0           0           0
           0           0           0           0
Num RLSW                                   I               52
RLSW                                       R   N=          52
  1.00000000E+00  1.00000000E+00  1.00000000E+00  1.00000000E+00  5.40000000E-01
  0.00000000E+00  0.00000000E+00  1.00000000E+00  0.00000000E+00  0.00000000E+00
  0.00000000E+00  0.00000000E+00  1.00000000E+00  0.00000000E+00  0.00000000E+00
  0.00000000E+00  0.00000000E+00  1.00000000E+00  0.00000000E+00  0.00000000E+00
  0.00000000E+00  0.00000000E+00  1.00000000E+00  0.00000000E+00  0.00000000E+00
  0.00000000E+00  0.00000000E+00  1.00000000E+00  0.00000000E+00  0.00000000E+00
  0.00000000E+00  0.00000000E+00  1.00000000E+00  0.00000000E+00  0.00000000E+00
  0.00000000E+00  0.00000000E+00  0.00000000E+00  1.00000000E+00  1.00000000E+00
  0.00000000E+00  1.00000000E+00  0.00000000E+00  0.00000000E+00  0.00000000E+00
  0.00000000E+00  0.00000000E+00  0.00000000E+00  0.00000000E+00  0.00000000E+00
  0.00000000E+00  0.00000000E+00
MxBond                                     I                3
NBond                                      I   N=           6
           3           3           1           1           1           1
IBond                                      I   N=          18
           2           3           4           1           5           6
           1           0           0           1           0           0
           2           0           0           2           0           0
RBond                                      R   N=          18
  3.00000000E+00  1.00000000E+00  1.00000000E+00  3.00000000E+00  1.00000000E+00
  1.00000000E+00  1.00000000E+00  0.00000000E+00  0.00000000E+00  1.00000000E+00
  0.00000000E+00  0.00000000E+00  1.00000000E+00  0.00000000E+00  0.00000000E+00
  1.00000000E+00  0.00000000E+00  0.00000000E+00
Virial Ratio                               R      1.989801269213504E+00
SCF Energy                                 R     -7.801438273291467E+01
Total Energy                               R     -7.801438273291467E+01
S**2                                       R      7.575167815461281E-01
S**2 after annihilation                    R      7.500305916729789E-01
RMS Force                                  R      1.913753961652860E-01
RMS Density                                R      5.502296445556225E-09
Job Status                                 I                1
Nuclear derivative order                   I                1
External E-field                           R   N=          35
  0.00000000E+00  0.00000000E+00  0.00000000E+00  0.00000000E+00  0.00000000E+00
  0.00000000E+00  0.00000000E+00  0.00000000E+00  0.00000000E+00  0.00000000E+00
  0.00000000E+00  0.00000000E+00  0.00000000E+00  0.00000000E+00  0.00000000E+00
  0.00000000E+00  0.00000000E+00  0.00000000E+00  0.00000000E+00  0.00000000E+00
  0.00000000E+00  0.00000000E+00  0.00000000E+00  0.00000000E+00  0.00000000E+00
  0.00000000E+00  0.00000000E+00  0.00000000E+00  0.00000000E+00  0.00000000E+00
  0.00000000E+00  0.00000000E+00  0.00000000E+00  0.00000000E+00  0.00000000E+00
IOpCl                                      I                1
IROHF                                      I                0
Alpha Orbital Energies                     R   N=          68
 -1.08212308E+01 -1.08132335E+01 -1.23029628E+00 -9.72895334E-01 -8.67223747E-01
 -8.60139967E-01 -6.94582859E-01 -6.68522385E-01 -1.78786291E-01 -1.62921037E-01
 -1.51328297E-01 -1.37810851E-01 -1.03806274E-01 -8.74399347E-02 -7.42238265E-02
 -6.81047709E-02 -2.88555042E-02 -2.84590725E-02 -2.02010200E-03  2.37957907E-02
  1.26764172E-01  1.69574575E-01  2.01092937E-01  2.16258588E-01  2.64408463E-01
  2.98412103E-01  3.34423347E-01  3.42453911E-01  4.31802423E-01  4.66890368E-01
  4.91232595E-01  5.19292189E-01  5.48454161E-01  7.41500372E-01  9.03433899E-01
  9.12206154E-01  9.20750258E-01  1.05029809E+00  1.25722589E+00  1.30906066E+00
  1.38538345E+00  1.39381886E+00  1.40172255E+00  1.40214600E+00  1.40870006E+00
  1.64138931E+00  1.73450412E+00  1.76747752E+00  1.82644083E+00  1.89053128E+00
  2.04837764E+00  2.10151375E+00  2.12493569E+00  2.26791629E+00  2.29582615E+00
  2.34058038E+00  2.40796658E+00  2.42719629E+00  2.52655898E+00  2.69590890E+00
  2.78823665E+00  3.05253326E+00  3.07015029E+00  3.49059611E+00  3.58723562E+00
  3.59794378E+00  2.34476605E+01  2.52232808E+01
Beta Orbital Energies                      R   N=          68
 -1.08212538E+01 -1.08130930E+01 -1.21871440E+00 -9.25054875E-01 -8.37149251E-01
 -8.06493705E-01 -6.91155594E-01 -4.60700974E-01 -1.75794575E-01 -1.52613587E-01
 -1.50342992E-01 -1.35571402E-01 -1.02136451E-01 -8.63918568E-02 -5.24626743E-02
 -5.10197540E-02 -2.59159826E-02 -2.18510514E-02  1.92020861E-03  3.12760427E-02
  1.29343693E-01  1.68942356E-01  1.98357898E-01  2.18754645E-01  2.71296599E-01
  2.98510008E-01  3.26495316E-01  3.48357141E-01  4.32165234E-01  4.69236885E-01
  4.88628224E-01  5.14286164E-01  5.44098087E-01  7.45652571E-01  9.06337939E-01
  9.10272875E-01  9.28002704E-01  1.05172456E+00  1.27071108E+00  1.30666401E+00
  1.38125689E+00  1.39552285E+00  1.39904961E+00  1.40077051E+00  1.40496107E+00
  1.63903854E+00  1.75304297E+00  1.76681566E+00  1.82348146E+00  1.88906715E+00
  2.06556440E+00  2.12044345E+00  2.12607559E+00  2.28730193E+00  2.28749566E+00
  2.33388742E+00  2.39714934E+00  2.42322313E+00  2.52232161E+00  2.69313900E+00
  2.78096056E+00  3.06194771E+00  3.06554974E+00  3.48241282E+00  3.58074261E+00
  3.59614631E+00  2.34470050E+01  2.52232542E+01
Alpha MO coefficients                      R   N=        4624
  3.98085846E-01  3.27759439E-01  8.94574674E-06 -6.78506301E-04  0.00000000E+00
  8.48470799E-03 -1.13327661E-05  1.45687261E-03  0.00000000E+00 -1.45953742E-03
 -7.27382822E-05  7.59852504E-04  0.00000000E+00 -5.87381573E-04  1.08624857E-05
 -1.12549508E-03  0.00000000E+00 -1.20526114E-03  0.00000000E+00  0.00000000E+00
 -9.69593601E-04 -5.79087254E-05  3.98085846E-01  3.27759439E-01 -8.94574674E-06
  6.78506301E-04  0.00000000E+00  8.48470799E-03  1.13327661E-05 -1.45687261E-03
  0.00000000E+00 -1.45953742E-03  7.27382822E-05 -7.59852504E-04  0.00000000E+00
 -5.87381573E-04 -1.08624857E-05  1.12549508E-03  0.00000000E+00 -1.20526114E-03
  0.00000000E+00  0.00000000E+00 -9.69593601E-04 -5.79087254E-05  2.23247816E-04
 -2.36763095E-03  1.32339390E-03 -1.28338264E-03  5.45841124E-04  0.00000000E+00
  2.34444669E-04 -2.23589189E-03  1.31200470E-03  1.24416277E-03  4.87944104E-04
  0.00000000E+00  2.23247816E-04 -2.36763095E-03  1.32339390E-03  1.28338264E-03
 -5.45841124E-04  0.00000000E+00  2.34444669E-04 -2.23589189E-03  1.31200470E-03
 -1.24416277E-03 -4.87944104E-04  0.00000000E+00  3.99034996E-01  3.27081409E-01
  8.33221823E-06  3.37280503E-04  0.00000000E+00  2.60812002E-02 -1.59747996E-05
 -2.03782348E-02  0.00000000E+00 -7.48897673E-06  4.32224568E-06  2.75854595E-03
  0.00000000E+00 -3.32560705E-03  1.44612205E-07  9.46077406E-04  0.00000000E+00
 -3.59493359E-03  0.00000000E+00  0.00000000E+00 -6.79716677E-03 -7.47833111E-06
 -3.99034996E-01 -3.27081409E-01  8.33221823E-06  3.37280503E-04  0.00000000E+00
 -2.60812002E-02 -1.59747996E-05 -2.03782348E-02  0.00000000E+00  7.48897673E-06
  4.32224568E-06  2.75854595E-03  0.00000000E+00  3.32560705E-03  1.44612205E-07
  9.46077406E-04  0.00000000E+00  3.59493359E-03  0.00000000E+00  0.00000000E+00
  6.79716677E-03  7.47833111E-06  5.20242244E-04  2.29605078E-04 -1.21689397E-03
 -8.58876198E-05 -3.26655603E-04  0.00000000E+00  5.32746514E-04  2.36948212E-04
 -1.20335490E-03  5.49197723E-05 -3.27297782E-04  0.00000000E+00 -5.20242244E-04
 -2.29605078E-04  1.21689397E-03 -8.58876198E-05 -3.26655603E-04  0.00000000E+00
 -5.32746514E-04 -2.36948212E-04  1.20335490E-03  5.49197723E-05 -3.27297782E-04
  0.00000000E+00 -9.72681400E-02 -1.55971982E-01  9.87316560E-05 -9.50108555E-02
  0.00000000E+00  3.70435435E-01  1.31376888E-04 -8.30095895E-02  0.00000000E+00
  1.57233593E-01 -3.81727942E-04 -2.02016092E-02  0.00000000E+00 -2.18192260E-03
 -7.38733445E-06  1.43162386E-02  0.00000000E+00 -1.58518704E-02  0.00000000E+00
  0.00000000E+00 -1.38057741E-02 -2.17234994E-04 -9.72681400E-02 -1.55971982E-01
 -9.87316560E-05  9.50108555E-02  0.00000000E+00  3.70435435E-01 -1.31376888E-04
  8.30095895E-02  0.00000000E+00  1.57233593E-01  3.81727942E-04  2.02016092E-02
  0.00000000E+00 -2.18192260E-03  7.38733445E-06 -1.43162386E-02  0.00000000E+00
 -1.58518704E-02  0.00000000E+00  0.00000000E+00 -1.38057741E-02 -2.17234994E-04
  4.21418502E-02  4.50145516E-02 -5.02269974E-03  2.78986426E-03 -7.39424052E-03
  0.00000000E+00  4.24839408E-02  4.58830651E-02 -4.85677358E-03 -3.11356049E-03
 -7.58579395E-03  0.00000000E+00  4.21418502E-02  4.50145516E-02 -5.02269974E-03
 -2.78986426E-03  7.39424052E-03  0.00000000E+00  4.24839408E-02  4.58830651E-02
 -4.85677358E-03  3.11356049E-03  7.58579395E-03  0.00000000E+00 -5.97511484E-02
 -9.75815993E-02  6.52751740E-04  8.37437015E-02  0.00000000E+00  2.48107133E-01
  9.85484700E-04  1.40005664E-01  0.00000000E+00  1.94708477E-01  3.61478068E-04
  5.70592319E-02  0.00000000E+00 -1.61541547E-01  2.02107899E-05  3.93964539E-02
  0.00000000E+00 -7.81937657E-03  0.00000000E+00  0.00000000E+00  5.24922096E-03
 -6.10975931E-05  5.97511484E-02  9.75815993E-02  6.52751740E-04  8.37437015E-02
  0.00000000E+00 -2.48107133E-01  9.85484700E-04  1.40005664E-01  0.00000000E+00
 -1.94708477E-01  3.61478068E-04  5.70592319E-02  0.00000000E+00  1.61541547E-01
  2.02107899E-05  3.93964539E-02  0.00000000E+00  7.81937657E-03  0.00000000E+00
  0.00000000E+00 -5.24922096E-03  6.10975931E-05  9.94394422E-02  1.29862275E-01
 -1.94208321E-03  1.43815802E-02 -8.88263954E-03  0.00000000E+00  9.95822364E-02
  1.30393751E-01 -1.80439156E-03 -1.45525140E-02 -8.72516727E-03  0.00000000E+00
 -9.94394422E-02 -1.29862275E-01  1.94208321E-03  1.43815802E-02 -8.88263954E-03
  0.00000000E+00 -9.95822364E-02 -1.30393751E-01  1.80439156E-03 -1.45525140E-02
 -8.72516727E-03  0.00000000E+00  9.19312104E-03  1.39758210E-02 -1.23192922E-04
  2.08568962E-01  0.00000000E+00 -1.40898953E-02  2.14774868E-05  2.44243168E-01
  0.00000000E+00  7.71059630E-02  1.60955081E-05  1.11320266E-01  0.00000000E+00
  8.04294383E-03 -5.25235215E-04  3.52516653E-04  0.00000000E+00  2.79426332E-03
  0.00000000E+00  0.00000000E+00  1.33907044E-02  2.27373730E-04  9.19312104E-03
  1.39758210E-02  1.23192922E-04 -2.08568962E-01  0.00000000E+00 -1.40898953E-02
 -2.14774868E-05 -2.44243168E-01  0.00000000E+00  7.71059630E-02 -1.60955081E-05
 -1.11320266E-01  0.00000000E+00  8.04294383E-03  5.25235215E-04 -3.52516653E-04
  0.00000000E+00  2.79426332E-03  0.00000000E+00  0.00000000E+00  1.33907044E-02
  2.27373730E-04  9.29575138E-02  1.37448969E-01  7.01659186E-03  1.92692058E-02
 -4.52083951E-03  0.00000000E+00  9.17955630E-02  1.35588974E-01  7.69347056E-03
 -1.90379735E-02 -3.88215025E-03  0.00000000E+00  9.29575138E-02  1.37448969E-01
  7.01659186E-03 -1.92692058E-02  4.52083951E-03  0.00000000E+00  9.17955630E-02
  1.35588974E-01  7.69347056E-03  1.90379735E-02  3.88215025E-03  0.00000000E+00
  3.01778685E-04  4.99364952E-04  1.64946781E-01 -6.35844357E-04  0.00000000E+00
 -1.52410191E-03  2.31694620E-01 -5.39911168E-04  0.00000000E+00 -1.30762628E-03
  1.14846859E-01 -3.84315469E-04  0.00000000E+00  6.47548604E-03  3.53182427E-03
 -1.38109156E-03  0.00000000E+00  2.64130150E-05  0.00000000E+00  0.00000000E+00
  2.62974099E-04 -1.04963441E-02 -3.01778685E-04 -4.99364952E-04  1.64946781E-01
 -6.35844357E-04  0.00000000E+00  1.52410191E-03  2.31694620E-01 -5.39911168E-04
  0.00000000E+00  1.30762628E-03  1.14846859E-01 -3.84315469E-04  0.00000000E+00
 -6.47548604E-03  3.53182427E-03 -1.38109156E-03  0.00000000E+00 -2.64130150E-05
  0.00000000E+00  0.00000000E+00 -2.62974099E-04  1.04963441E-02 -9.27234698E-02
 -1.36455337E-01 -2.95970063E-03 -8.31279527E-03  1.64321970E-02  0.00000000E+00
  9.26871391E-02  1.36612167E-01  2.93539749E-03 -8.48984141E-03 -1.62424241E-02
  0.00000000E+00  9.27234698E-02  1.36455337E-01  2.95970063E-03 -8.31279527E-03
  1.64321970E-02  0.00000000E+00 -9.26871391E-02 -1.36612167E-01 -2.93539749E-03
 -8.48984141E-03 -1.62424241E-02  0.00000000E+00  0.00000000E+00  0.00000000E+00
  0.00000000E+00  0.00000000E+00  1.99898419E-01  0.00000000E+00  0.00000000E+00
  0.00000000E+00  3.08958738E-01  0.00000000E+00  0.00000000E+00  0.00000000E+00
  1.87104464E-01  0.00000000E+00  0.00000000E+00  0.00000000E+00 -1.57888899E-03
  0.00000000E+00  1.09466326E-04 -2.58641352E-02  0.00000000E+00  0.00000000E+00
  0.00000000E+00  0.00000000E+00  0.00000000E+00  0.00000000E+00  1.99898419E-01
  0.00000000E+00  0.00000000E+00  0.00000000E+00  3.08958738E-01  0.00000000E+00
  0.00000000E+00  0.00000000E+00  1.87104464E-01  0.00000000E+00  0.00000000E+00
  0.00000000E+00 -1.57888899E-03  0.00000000E+00 -1.09466326E-04  2.58641352E-02
  0.00000000E+00  0.00000000E+00  0.00000000E+00  0.00000000E+00  0.00000000E+00
  0.00000000E+00  0.00000000E+00  1.35407554E-02  0.00000000E+00  0.00000000E+00
  0.00000000E+00  0.00000000E+00  0.00000000E+00  1.35604266E-02  0.00000000E+00
  0.00000000E+00  0.00000000E+00  0.00000000E+00  0.00000000E+00  1.35407554E-02
  0.00000000E+00  0.00000000E+00  0.00000000E+00  0.00000000E+00  0.00000000E+00
  1.35604266E-02  3.30238360E-04  5.61239973E-04  1.23203670E-01  2.92760747E-04
  0.00000000E+00 -1.43856075E-03  1.88213274E-01  2.14502702E-04  0.00000000E+00
 -1.89173983E-03  2.12555788E-01 -5.48009641E-04  0.00000000E+00 -1.07951492E-04
  2.52113047E-02 -4.50636192E-04  0.00000000E+00 -9.75993866E-06  0.00000000E+00
  0.00000000E+00  5.25234461E-04  5.51627485E-02  3.30238360E-04  5.61239973E-04
 -1.23203670E-01 -2.92760747E-04  0.00000000E+00 -1.43856075E-03 -1.88213274E-01
 -2.14502702E-04  0.00000000E+00 -1.89173983E-03 -2.12555788E-01  5.48009641E-04
  0.00000000E+00 -1.07951492E-04 -2.52113047E-02  4.50636192E-04  0.00000000E+00
 -9.75993866E-06  0.00000000E+00  0.00000000E+00  5.25234461E-04  5.51627485E-02
 -1.28758378E-01 -1.97827898E-01 -5.05398511E-02 -3.28008291E-04  9.41571299E-03
  0.00000000E+00  1.30041799E-01  2.00733012E-01  5.20569494E-02 -7.41047014E-04
 -9.47958558E-03  0.00000000E+00 -1.28758378E-01 -1.97827898E-01 -5.05398511E-02
  3.28008291E-04 -9.41571299E-03  0.00000000E+00  1.30041799E-01  2.00733012E-01
  5.20569494E-02  7.41047014E-04  9.47958558E-03  0.00000000E+00  0.00000000E+00
  0.00000000E+00  0.00000000E+00  0.00000000E+00  1.58575250E-01  0.00000000E+00
  0.00000000E+00  0.00000000E+00  2.59924344E-01  0.00000000E+00  0.00000000E+00
  0.00000000E+00  6.36046248E-01  0.00000000E+00  0.00000000E+00  0.00000000E+00
  7.18588140E-01  0.00000000E+00  1.33434618E-04  5.09015386E-02  0.00000000E+00
  0.00000000E+00  0.00000000E+00  0.00000000E+00  0.00000000E+00  0.00000000E+00
 -1.58575250E-01  0.00000000E+00  0.00000000E+00  0.00000000E+00 -2.59924344E-01
  0.00000000E+00  0.00000000E+00  0.00000000E+00 -6.36046248E-01  0.00000000E+00
  0.00000000E+00  0.00000000E+00 -7.18588140E-01  0.00000000E+00  1.33434618E-04
  5.09015386E-02  0.00000000E+00  0.00000000E+00  0.00000000E+00  0.00000000E+00
  0.00000000E+00  0.00000000E+00  0.00000000E+00  2.82628469E-02  0.00000000E+00
  0.00000000E+00  0.00000000E+00  0.00000000E+00  0.00000000E+00  2.82345651E-02
  0.00000000E+00  0.00000000E+00  0.00000000E+00  0.00000000E+00  0.00000000E+00
 -2.82628469E-02  0.00000000E+00  0.00000000E+00  0.00000000E+00  0.00000000E+00
  0.00000000E+00 -2.82345651E-02  1.44198928E-04  2.67028752E-04 -1.28949304E-01
 -4.67117025E-04  0.00000000E+00 -1.18989190E-03 -1.80394062E-01 -2.79769061E-04
  0.00000000E+00 -7.70300322E-03 -3.69753146E-01  1.98594390E-03  0.00000000E+00
  6.76003589E-02  2.49294849E-01 -1.13302027E-02  0.00000000E+00  1.15180406E-04
  0.00000000E+00  0.00000000E+00  5.46424917E-04  5.44806559E-02 -1.44198928E-04
 -2.67028752E-04 -1.28949304E-01 -4.67117025E-04  0.00000000E+00  1.18989190E-03
 -1.80394062E-01 -2.79769061E-04  0.00000000E+00  7.70300322E-03 -3.69753146E-01
  1.98594390E-03  0.00000000E+00 -6.76003589E-02  2.49294849E-01 -1.13302027E-02
  0.00000000E+00 -1.15180406E-04  0.00000000E+00  0.00000000E+00 -5.46424917E-04
 -5.44806559E-02 -6.49743626E-02 -2.12238537E-01 -4.08223025E-01  1.33966639E-02
 -1.67106938E-02  0.00000000E+00  6.56216328E-02  2.15381344E-01  4.08790111E-01
  1.38824383E-02  1.68450863E-02  0.00000000E+00  6.49743626E-02  2.12238537E-01
  4.08223025E-01  1.33966639E-02 -1.67106938E-02  0.00000000E+00 -6.56216328E-02
 -2.15381344E-01 -4.08790111E-01  1.38824383E-02  1.68450863E-02  0.00000000E+00
  2.38850190E-02  4.13784639E-02 -5.16055910E-04 -6.08048380E-02  0.00000000E+00
 -1.20828879E-01 -7.24683411E-04 -9.52188261E-02  0.00000000E+00 -5.37756354E-01
 -5.47296688E-03 -2.21966727E-01  0.00000000E+00  8.90757167E-01 -5.27839055E-03
  4.94262863E-01  0.00000000E+00  7.71696288E-03  0.00000000E+00  0.00000000E+00
  6.23861617E-03 -6.33226465E-05  2.38850190E-02  4.13784639E-02  5.16055910E-04
  6.08048380E-02  0.00000000E+00 -1.20828879E-01  7.24683411E-04  9.52188261E-02
  0.00000000E+00 -5.37756354E-01  5.47296688E-03  2.21966727E-01  0.00000000E+00
  8.90757167E-01  5.27839055E-03 -4.94262863E-01  0.00000000E+00  7.71696288E-03
  0.00000000E+00  0.00000000E+00  6.23861617E-03 -6.33226465E-05 -7.64826136E-03
  8.39014331E-02 -6.88307306E-02 -1.18453992E-02  6.25234468E-03  0.00000000E+00
 -7.56060991E-03  8.40658697E-02 -6.05155563E-02  1.19792302E-02  6.10923417E-03
  0.00000000E+00 -7.64826136E-03  8.39014331E-02 -6.88307306E-02  1.18453992E-02
 -6.25234468E-03  0.00000000E+00 -7.56060991E-03  8.40658697E-02 -6.05155563E-02
 -1.19792302E-02 -6.10923417E-03  0.00000000E+00 -3.09165856E-02 -5.35190756E-02
 -4.94446118E-04  4.19170957E-02  0.00000000E+00  1.57715260E-01 -7.34532181E-04
  7.38343335E-02  0.00000000E+00  5.86202161E-01 -1.30995775E-03  6.69921657E-02
  0.00000000E+00  1.20558561E+01  7.58202630E-04 -3.17079168E+00  0.00000000E+00
  2.36253049E-03  0.00000000E+00  0.00000000E+00  6.12764360E-03  2.72847625E-04
  3.09165856E-02  5.35190756E-02 -4.94446118E-04  4.19170957E-02  0.00000000E+00
 -1.57715260E-01 -7.34532181E-04  7.38343335E-02  0.00000000E+00 -5.86202161E-01
 -1.30995775E-03  6.69921657E-02  0.00000000E+00 -1.20558561E+01  7.58202630E-04
 -3.17079168E+00  0.00000000E+00 -2.36253049E-03  0.00000000E+00  0.00000000E+00