 Entering Gaussian System, Link 0=g16
 Initial command:
 /home/szhao/Apps/g16/l1.exe "/home/szhao/tmp/Gau-72119.inp" -scrdir="/home/szhao/tmp/"
 Default is to use a total of  16 processors:
                               16 via shared-memory
                                1 via Linda
 Entering Link 1 = /home/szhao/Apps/g16/l1.exe PID=     72121.
  
 Copyright (c) 1988,1990,1992,1993,1995,1998,2003,2009,2016,
            Gaussian, Inc.  All Rights Reserved.
  
 This is part of the Gaussian(R) 16 program.  It is based on
 the Gaussian(R) 09 system (copyright 2009, Gaussian, Inc.),
 the Gaussian(R) 03 system (copyright 2003, Gaussian, Inc.),
 the Gaussian(R) 98 system (copyright 1998, Gaussian, Inc.),
 the Gaussian(R) 94 system (copyright 1995, Gaussian, Inc.),
 the Gaussian 92(TM) system (copyright 1992, Gaussian, Inc.),
 the Gaussian 90(TM) system (copyright 1990, Gaussian, Inc.),
 the Gaussian 88(TM) system (copyright 1988, Gaussian, Inc.),
 the Gaussian 86(TM) system (copyright 1986, Carnegie Mellon
 University), and the Gaussian 82(TM) system (copyright 1983,
 Carnegie Mellon University). Gaussian is a federally registered
 trademark of Gaussian, Inc.
  
 This software contains proprietary and confidential information,
 including trade secrets, belonging to Gaussian, Inc.
  
 This software is provided under written license and may be
 used, copied, transmitted, or stored only in accord with that
 written license.
  
 The following legend is applicable only to US Government
 contracts under FAR:
  
                    RESTRICTED RIGHTS LEGEND
  
 Use, reproduction and disclosure by the US Government is
 subject to restrictions as set forth in subparagraphs (a)
 and (c) of the Commercial Computer Software - Restricted
 Rights clause in FAR 52.227-19.
  
 Gaussian, Inc.
 340 Quinnipiac St., Bldg. 40, Wallingford CT 06492
  
  
 ---------------------------------------------------------------
 Warning -- This program may not be used in any manner that
 competes with the business of Gaussian, Inc. or will provide
 assistance to any competitor of Gaussian, Inc.  The licensee
 of this program is prohibited from giving any competitor of
 Gaussian, Inc. access to this program.  By using this program,
 the user acknowledges that Gaussian, Inc. is engaged in the
 business of creating and licensing software in the field of
 computational chemistry and represents and warrants to the
 licensee that it is not a competitor of Gaussian, Inc. and that
 it will not use this program in any manner prohibited above.
 ---------------------------------------------------------------
  

 Cite this work as:
 Gaussian 16, Revision A.03,
 M. J. Frisch, G. W. Trucks, H. B. Schlegel, G. E. Scuseria, 
 M. A. Robb, J. R. Cheeseman, G. Scalmani, V. Barone, 
 G. A. Petersson, H. Nakatsuji, X. Li, M. Caricato, A. V. Marenich, 
 J. Bloino, B. G. Janesko, R. Gomperts, B. Mennucci, H. P. Hratchian, 
 J. V. Ortiz, A. F. Izmaylov, J. L. Sonnenberg, D. Williams-Young, 
 F. Ding, F. Lipparini, F. Egidi, J. Goings, B. Peng, A. Petrone, 
 T. Henderson, D. Ranasinghe, V. G. Zakrzewski, J. Gao, N. Rega, 
 G. Zheng, W. Liang, M. Hada, M. Ehara, K. Toyota, R. Fukuda, 
 J. Hasegawa, M. Ishida, T. Nakajima, Y. Honda, O. Kitao, H. Nakai, 
 T. Vreven, K. Throssell, J. A. Montgomery, Jr., J. E. Peralta, 
 F. Ogliaro, M. J. Bearpark, J. J. Heyd, E. N. Brothers, K. N. Kudin, 
 V. N. Staroverov, T. A. Keith, R. Kobayashi, J. Normand, 
 K. Raghavachari, A. P. Rendell, J. C. Burant, S. S. Iyengar, 
 J. Tomasi, M. Cossi, J. M. Millam, M. Klene, C. Adamo, R. Cammi, 
 J. W. Ochterski, R. L. Martin, K. Morokuma, O. Farkas, 
 J. B. Foresman, and D. J. Fox, Gaussian, Inc., Wallingford CT, 2016.
 
 ******************************************
 Gaussian 16:  ES64L-G16RevA.03 25-Dec-2016
                19-Nov-2024 
 ******************************************
 %chk=opt.chk
 %mem=8GB
 %nprocshared=24
 Will use up to   24 processors via shared memory.
 --------------------------------------------
 #p opt UM062X/6-311+G** nosymm int=superfine
 --------------------------------------------
 1/18=20,19=15,26=5,38=1/1,3;
 2/9=110,12=2,15=1,17=6,18=5,40=1/2;
 3/5=4,6=6,7=111,11=2,25=1,30=1,71=1,74=-55,75=-7,116=2/1,2,3;
 4//1;
 5/5=2,38=5/2;
 6/7=2,8=2,9=2,10=2,28=1/1;
 7/30=1/1,2,3,16;
 1/18=20,19=15,26=5/3(2);
 2/9=110,15=1/2;
 99//99;
 2/9=110,15=1/2;
 3/5=4,6=6,7=111,11=2,25=1,30=1,71=1,74=-55,75=-7,116=2/1,2,3;
 4/5=5,16=3,69=1/1;
 5/5=2,38=5/2;
 7/30=1/1,2,3,16;
 1/18=20,19=15,26=5/3(-5);
 2/9=110,15=1/2;
 6/7=2,8=2,9=2,10=2,19=2,28=1/1;
 99/9=1/99;
 Leave Link    1 at Tue Nov 19 11:53:52 2024, MaxMem=  1073741824 cpu:               1.1 elap:               0.1
 (Enter /home/szhao/Apps/g16/l101.exe)
 -------------------
 Title Card Required
 -------------------
 Symbolic Z-matrix:
 Charge =  0 Multiplicity = 1
 C                    -1   -0.77882   0.        0. 
 C                    -1    0.7789    0.        0. 
 H                    0     1.1821   -0.88075   0.50965 
 H                    0    -1.18181  -0.88202  -0.50795 
 H                    0     1.18189   0.88201   0.50792 
 H                    0     1.1819   -0.00087  -1.01782 
 H                    0    -1.18202   0.88074  -0.50968 
 H                    0    -1.18182   0.00086   1.01779 
 
 ITRead=  2  2  0  0  0  0  0  0
 MicOpt= -2 -2 -1 -1 -1 -1 -1 -1
 NAtoms=      8 NQM=        6 NQMF=       2 NMMI=      0 NMMIF=      0
                NMic=       0 NMicF=      0.
                    Isotopes and Nuclear Properties:
 (Nuclear quadrupole moments (NQMom) in fm**2, nuclear magnetic moments (NMagM)
  in nuclear magnetons)

  Atom         1           2           3           4           5           6           7           8
 IAtWgt=          12          12           1           1           1           1           1           1
 AtmWgt=  12.0000000  12.0000000   1.0078250   1.0078250   1.0078250   1.0078250   1.0078250   1.0078250
 NucSpn=           0           0           1           1           1           1           1           1
 AtZEff=  -0.0000000  -0.0000000  -0.0000000  -0.0000000  -0.0000000  -0.0000000  -0.0000000  -0.0000000
 NQMom=    0.0000000   0.0000000   0.0000000   0.0000000   0.0000000   0.0000000   0.0000000   0.0000000
 NMagM=    0.0000000   0.0000000   2.7928460   2.7928460   2.7928460   2.7928460   2.7928460   2.7928460
 AtZNuc=   6.0000000   6.0000000   1.0000000   1.0000000   1.0000000   1.0000000   1.0000000   1.0000000
 Leave Link  101 at Tue Nov 19 11:53:53 2024, MaxMem=  1073741824 cpu:              13.2 elap:               0.6
 (Enter /home/szhao/Apps/g16/l103.exe)

 GradGradGradGradGradGradGradGradGradGradGradGradGradGradGradGradGradGrad
 Berny optimization.
 Initialization pass.
                           ----------------------------
                           !    Initial Parameters    !
                           ! (Angstroms and Degrees)  !
 --------------------------                            --------------------------
 ! Name  Definition              Value          Derivative Info.                !
 --------------------------------------------------------------------------------
 ! X1    R(1,-1)                -0.7788         Frozen                          !
 ! Y1    R(1,-2)                 0.0            Frozen                          !
 ! Z1    R(1,-3)                 0.0            Frozen                          !
 ! X2    R(2,-1)                 0.7789         Frozen                          !
 ! Y2    R(2,-2)                 0.0            Frozen                          !
 ! Z2    R(2,-3)                 0.0            Frozen                          !
 ! R1    R(1,4)                  1.0947         estimate D2E/DX2                !
 ! R2    R(1,7)                  1.0946         estimate D2E/DX2                !
 ! R3    R(1,8)                  1.0947         estimate D2E/DX2                !
 ! R4    R(2,3)                  1.0946         estimate D2E/DX2                !
 ! R5    R(2,5)                  1.0947         estimate D2E/DX2                !
 ! R6    R(2,6)                  1.0947         estimate D2E/DX2                !
 ! A1    A(2,1,4)              111.6004         estimate D2E/DX2                !
 ! A2    A(2,1,7)              111.6151         estimate D2E/DX2                !
 ! A3    A(2,1,8)              111.6015         estimate D2E/DX2                !
 ! A4    A(4,1,7)              107.2566         estimate D2E/DX2                !
 ! A5    A(4,1,8)              107.2489         estimate D2E/DX2                !
 ! A6    A(7,1,8)              107.2595         estimate D2E/DX2                !
 ! A7    A(1,2,3)              111.6152         estimate D2E/DX2                !
 ! A8    A(1,2,5)              111.6008         estimate D2E/DX2                !
 ! A9    A(1,2,6)              111.6009         estimate D2E/DX2                !
 ! A10   A(3,2,5)              107.2589         estimate D2E/DX2                !
 ! A11   A(3,2,6)              107.2577         estimate D2E/DX2                !
 ! A12   A(5,2,6)              107.2485         estimate D2E/DX2                !
 ! D1    D(4,1,2,3)            -59.9932         estimate D2E/DX2                !
 ! D2    D(4,1,2,5)            179.9987         estimate D2E/DX2                !
 ! D3    D(4,1,2,6)             60.0135         estimate D2E/DX2                !
 ! D4    D(7,1,2,3)           -179.9981         estimate D2E/DX2                !
 ! D5    D(7,1,2,5)             59.9938         estimate D2E/DX2                !
 ! D6    D(7,1,2,6)            -59.9914         estimate D2E/DX2                !
 ! D7    D(8,1,2,3)             59.9926         estimate D2E/DX2                !
 ! D8    D(8,1,2,5)            -60.0156         estimate D2E/DX2                !
 ! D9    D(8,1,2,6)            179.9993         estimate D2E/DX2                !
 --------------------------------------------------------------------------------
 Trust Radius=3.00D-01 FncErr=1.00D-07 GrdErr=1.00D-07 EigMax=2.50D+02 EigMin=1.00D-04
 Number of steps in this run=     43 maximum allowed number of steps=    100.
 GradGradGradGradGradGradGradGradGradGradGradGradGradGradGradGradGradGrad

 Leave Link  103 at Tue Nov 19 11:53:53 2024, MaxMem=  1073741824 cpu:               0.4 elap:               0.0
 (Enter /home/szhao/Apps/g16/l202.exe)
                          Input orientation:                          
 ---------------------------------------------------------------------
 Center     Atomic      Atomic             Coordinates (Angstroms)
 Number     Number       Type             X           Y           Z
 ---------------------------------------------------------------------
      1          6           0       -0.778818    0.000000    0.000000
      2          6           0        0.778898    0.000000    0.000000
      3          1           0        1.182097   -0.880754    0.509649
      4          1           0       -1.181813   -0.882021   -0.507950
      5          1           0        1.181890    0.882009    0.507916
      6          1           0        1.181900   -0.000873   -1.017819
      7          1           0       -1.182019    0.880742   -0.509681
      8          1           0       -1.181820    0.000860    1.017787
 ---------------------------------------------------------------------
                    Distance matrix (angstroms):
                    1          2          3          4          5
     1  C    0.000000
     2  C    1.557715   0.000000
     3  H    2.209221   1.094550   0.000000
     4  H    1.094705   2.209153   2.573632   0.000000
     5  H    2.209139   1.094679   1.762764   3.119436   0.000000
     6  H    2.209156   1.094699   1.762767   2.573621   1.762767
     7  H    1.094556   2.209225   3.119447   1.762764   2.573630
     8  H    1.094670   2.209141   2.573626   1.762768   2.573620
                    6          7          8
     6  H    0.000000
     7  H    2.573628   0.000000
     8  H    3.119433   1.762768   0.000000
 Symmetry turned off by external request.
 This structure is nearly, but not quite of a higher symmetry.
 Consider Symm=Loose if the higher symmetry is desired.
 Stoichiometry    C2H6
 Framework group  C1[X(C2H6)]
 Deg. of freedom    18
 Full point group                 C1      NOp   1
 Rotational constants (GHZ):          80.6886616          19.3352100          19.3351965
 Leave Link  202 at Tue Nov 19 11:53:53 2024, MaxMem=  1073741824 cpu:               0.1 elap:               0.0
 (Enter /home/szhao/Apps/g16/l301.exe)
 Standard basis: 6-311+G(d,p) (5D, 7F)
 Ernie: Thresh=  0.10000D-02 Tol=  0.10000D-05 Strict=F.
    80 basis functions,   120 primitive gaussians,    82 cartesian basis functions
     9 alpha electrons        9 beta electrons
       nuclear repulsion energy        41.8000709350 Hartrees.
 IExCor= 4336 DFT=T Ex+Corr=M062X ExCW=0 ScaHFX=  0.540000
 ScaDFX=  1.000000  1.000000  1.000000  1.000000 ScalE2=  1.000000  1.000000
 IRadAn=      7 IRanWt=     -1 IRanGd=            0 ICorTp=0 IEmpDi=  4
 NAtoms=    8 NActive=    8 NUniq=    8 SFac= 1.00D+00 NAtFMM=   60 NAOKFM=F Big=F
 Integral buffers will be    131072 words long.
 Raffenetti 2 integral format.
 Two-electron integral symmetry is turned off.
 Leave Link  301 at Tue Nov 19 11:53:53 2024, MaxMem=  1073741824 cpu:               1.3 elap:               0.1
 (Enter /home/szhao/Apps/g16/l302.exe)
 NPDir=0 NMtPBC=     1 NCelOv=     1 NCel=       1 NClECP=     1 NCelD=      1
         NCelK=      1 NCelE2=     1 NClLst=     1 CellRange=     0.0.
 One-electron integrals computed using PRISM.
 NBasis=    80 RedAO= T EigKep=  2.03D-04  NBF=    80
 NBsUse=    80 1.00D-06 EigRej= -1.00D+00 NBFU=    80
 Precomputing XC quadrature grid using
 IXCGrd= 4 IRadAn=           7 IRanWt=          -1 IRanGd=           0 AccXCQ= 0.00D+00.
 Generated NRdTot=       0 NPtTot=           0 NUsed=           0 NTot=          32
 NSgBfM=    82    82    82    82    82 MxSgAt=     8 MxSgA2=     8.
 Leave Link  302 at Tue Nov 19 11:53:54 2024, MaxMem=  1073741824 cpu:               3.7 elap:               0.2
 (Enter /home/szhao/Apps/g16/l303.exe)
 DipDrv:  MaxL=1.
 Leave Link  303 at Tue Nov 19 11:53:54 2024, MaxMem=  1073741824 cpu:               1.0 elap:               0.1
 (Enter /home/szhao/Apps/g16/l401.exe)
 ExpMin= 4.38D-02 ExpMax= 4.56D+03 ExpMxC= 6.82D+02 IAcc=3 IRadAn=         7 AccDes= 0.00D+00
 Harris functional with IExCor= 1009 and IRadAn=       7 diagonalized for initial guess.
 HarFok:  IExCor= 1009 AccDes= 0.00D+00 IRadAn=         7 IDoV= 1 UseB2=F ITyADJ=14
 ICtDFT=  3500011 ScaDFX=  1.000000  1.000000  1.000000  1.000000
 FoFCou: FMM=F IPFlag=           0 FMFlag=      100000 FMFlg1=           0
         NFxFlg=           0 DoJE=T BraDBF=F KetDBF=T FulRan=T
         wScrn=  0.000000 ICntrl=       500 IOpCl=  0 I1Cent=   200000004 NGrid=           0
         NMat0=    1 NMatS0=      1 NMatT0=    0 NMatD0=    1 NMtDS0=    0 NMtDT0=    0
 Symmetry not used in FoFCou.
 Harris En= -79.8255894148189    
 JPrj=0 DoOrth=F DoCkMO=F.
 Initial guess <Sx>= 0.0000 <Sy>= 0.0000 <Sz>= 0.0000 <S**2>=-0.0000 S=-0.0000
 Leave Link  401 at Tue Nov 19 11:53:54 2024, MaxMem=  1073741824 cpu:               7.0 elap:               0.3
 (Enter /home/szhao/Apps/g16/l502.exe)
 Keep R1 and R2 ints in memory in canonical form, NReq=32326806.
 FoFCou: FMM=F IPFlag=           0 FMFlag=           0 FMFlg1=           0
         NFxFlg=           0 DoJE=F BraDBF=F KetDBF=F FulRan=T
         wScrn=  0.000000 ICntrl=       600 IOpCl=  0 I1Cent=           0 NGrid=           0
         NMat0=    1 NMatS0=   3240 NMatT0=    0 NMatD0=    1 NMtDS0=    0 NMtDT0=    0
 Symmetry not used in FoFCou.
 Two-electron integral symmetry not used.
 UHF open shell SCF:
 Using DIIS extrapolation, IDIIS=  1040.
 NGot=  1073741824 LenX=  1063224738 LenY=  1063217573
 Requested convergence on RMS density matrix=1.00D-08 within 128 cycles.
 Requested convergence on MAX density matrix=1.00D-06.
 Requested convergence on             energy=1.00D-06.
 No special actions if energy rises.

 Cycle   1  Pass 1  IDiag  1:
 E= -79.6699277922492    
 DIIS: error= 5.47D-02 at cycle   1 NSaved=   1.
 NSaved= 1 IEnMin= 1 EnMin= -79.6699277922492     IErMin= 1 ErrMin= 5.47D-02
 ErrMax= 5.47D-02  0.00D+00 EMaxC= 1.00D-01 BMatC= 5.21D-01 BMatP= 5.21D-01
 IDIUse=3 WtCom= 4.53D-01 WtEn= 5.47D-01
 Coeff-Com:  0.100D+01
 Coeff-En:   0.100D+01
 Coeff:      0.100D+01
 Gap=     0.362 Goal=   None    Shift=    0.000
 Gap=     0.362 Goal=   None    Shift=    0.000
 GapD=    0.362 DampG=1.000 DampE=0.500 DampFc=0.5000 IDamp=-1.
 Damping current iteration by 5.00D-01
 RMSDP=5.06D-03 MaxDP=1.06D-01              OVMax= 1.59D-01

 Cycle   2  Pass 1  IDiag  1:
 E= -79.7350538059437     Delta-E=       -0.065126013695 Rises=F Damp=T
 DIIS: error= 1.14D-02 at cycle   2 NSaved=   2.
 NSaved= 2 IEnMin= 2 EnMin= -79.7350538059437     IErMin= 2 ErrMin= 1.14D-02
 ErrMax= 1.14D-02  0.00D+00 EMaxC= 1.00D-01 BMatC= 1.92D-02 BMatP= 5.21D-01
 IDIUse=3 WtCom= 8.86D-01 WtEn= 1.14D-01
 Coeff-Com: -0.786D-01 0.108D+01
 Coeff-En:   0.000D+00 0.100D+01
 Coeff:     -0.697D-01 0.107D+01
 Gap=     0.450 Goal=   None    Shift=    0.000
 Gap=     0.450 Goal=   None    Shift=    0.000
 RMSDP=1.14D-03 MaxDP=1.52D-02 DE=-6.51D-02 OVMax= 8.36D-02

 Cycle   3  Pass 1  IDiag  1:
 E= -79.7961996584081     Delta-E=       -0.061145852464 Rises=F Damp=F
 DIIS: error= 2.76D-03 at cycle   3 NSaved=   3.
 NSaved= 3 IEnMin= 3 EnMin= -79.7961996584081     IErMin= 3 ErrMin= 2.76D-03
 ErrMax= 2.76D-03  0.00D+00 EMaxC= 1.00D-01 BMatC= 1.01D-03 BMatP= 1.92D-02
 IDIUse=3 WtCom= 9.72D-01 WtEn= 2.76D-02
 Coeff-Com: -0.318D-01 0.154D+00 0.878D+00
 Coeff-En:   0.000D+00 0.000D+00 0.100D+01
 Coeff:     -0.309D-01 0.149D+00 0.882D+00
 Gap=     0.426 Goal=   None    Shift=    0.000
 Gap=     0.426 Goal=   None    Shift=    0.000
 RMSDP=1.29D-04 MaxDP=1.20D-03 DE=-6.11D-02 OVMax= 4.85D-03

 Cycle   4  Pass 1  IDiag  1:
 E= -79.7964259609698     Delta-E=       -0.000226302562 Rises=F Damp=F
 DIIS: error= 7.08D-04 at cycle   4 NSaved=   4.
 NSaved= 4 IEnMin= 4 EnMin= -79.7964259609698     IErMin= 4 ErrMin= 7.08D-04
 ErrMax= 7.08D-04  0.00D+00 EMaxC= 1.00D-01 BMatC= 2.65D-05 BMatP= 1.01D-03
 IDIUse=3 WtCom= 9.93D-01 WtEn= 7.08D-03
 Coeff-Com: -0.126D-02 0.562D-03 0.138D+00 0.863D+00
 Coeff-En:   0.000D+00 0.000D+00 0.000D+00 0.100D+01
 Coeff:     -0.125D-02 0.558D-03 0.137D+00 0.863D+00
 Gap=     0.426 Goal=   None    Shift=    0.000
 Gap=     0.426 Goal=   None    Shift=    0.000
 RMSDP=2.52D-05 MaxDP=3.46D-04 DE=-2.26D-04 OVMax= 1.22D-03

 Cycle   5  Pass 1  IDiag  1:
 E= -79.7964327461441     Delta-E=       -0.000006785174 Rises=F Damp=F
 DIIS: error= 4.21D-05 at cycle   5 NSaved=   5.
 NSaved= 5 IEnMin= 5 EnMin= -79.7964327461441     IErMin= 5 ErrMin= 4.21D-05
 ErrMax= 4.21D-05  0.00D+00 EMaxC= 1.00D-01 BMatC= 3.02D-07 BMatP= 2.65D-05
 IDIUse=1 WtCom= 1.00D+00 WtEn= 0.00D+00
 Coeff-Com:  0.109D-02-0.273D-02-0.308D-01-0.842D-01 0.112D+01
 Coeff:      0.109D-02-0.273D-02-0.308D-01-0.842D-01 0.112D+01
 Gap=     0.427 Goal=   None    Shift=    0.000
 Gap=     0.427 Goal=   None    Shift=    0.000
 RMSDP=5.20D-06 MaxDP=5.88D-05 DE=-6.79D-06 OVMax= 2.33D-04

 Cycle   6  Pass 1  IDiag  1:
 E= -79.7964328724920     Delta-E=       -0.000000126348 Rises=F Damp=F
 DIIS: error= 4.25D-06 at cycle   6 NSaved=   6.
 NSaved= 6 IEnMin= 6 EnMin= -79.7964328724920     IErMin= 6 ErrMin= 4.25D-06
 ErrMax= 4.25D-06  0.00D+00 EMaxC= 1.00D-01 BMatC= 2.97D-09 BMatP= 3.02D-07
 IDIUse=1 WtCom= 1.00D+00 WtEn= 0.00D+00
 Coeff-Com: -0.140D-03 0.267D-03 0.112D-02 0.109D-03-0.110D+00 0.111D+01
 Coeff:     -0.140D-03 0.267D-03 0.112D-02 0.109D-03-0.110D+00 0.111D+01
 Gap=     0.427 Goal=   None    Shift=    0.000
 Gap=     0.427 Goal=   None    Shift=    0.000
 RMSDP=6.66D-07 MaxDP=6.34D-06 DE=-1.26D-07 OVMax= 2.47D-05

 Cycle   7  Pass 1  IDiag  1:
 E= -79.7964328740169     Delta-E=       -0.000000001525 Rises=F Damp=F
 DIIS: error= 2.55D-07 at cycle   7 NSaved=   7.
 NSaved= 7 IEnMin= 7 EnMin= -79.7964328740169     IErMin= 7 ErrMin= 2.55D-07
 ErrMax= 2.55D-07  0.00D+00 EMaxC= 1.00D-01 BMatC= 1.10D-11 BMatP= 2.97D-09
 IDIUse=1 WtCom= 1.00D+00 WtEn= 0.00D+00
 Coeff-Com:  0.162D-04-0.231D-04-0.725D-04 0.940D-05 0.102D-01-0.154D+00
 Coeff-Com:  0.114D+01
 Coeff:      0.162D-04-0.231D-04-0.725D-04 0.940D-05 0.102D-01-0.154D+00
 Coeff:      0.114D+01
 Gap=     0.427 Goal=   None    Shift=    0.000
 Gap=     0.427 Goal=   None    Shift=    0.000
 RMSDP=5.97D-08 MaxDP=6.14D-07 DE=-1.52D-09 OVMax= 2.29D-06

 Cycle   8  Pass 1  IDiag  1:
 E= -79.7964328740249     Delta-E=       -0.000000000008 Rises=F Damp=F
 DIIS: error= 3.07D-08 at cycle   8 NSaved=   8.
 NSaved= 8 IEnMin= 8 EnMin= -79.7964328740249     IErMin= 8 ErrMin= 3.07D-08
 ErrMax= 3.07D-08  0.00D+00 EMaxC= 1.00D-01 BMatC= 1.88D-13 BMatP= 1.10D-11
 IDIUse=1 WtCom= 1.00D+00 WtEn= 0.00D+00
 Coeff-Com:  0.152D-05-0.284D-05-0.557D-05 0.234D-04 0.637D-03-0.843D-02
 Coeff-Com:  0.233D-01 0.985D+00
 Coeff:      0.152D-05-0.284D-05-0.557D-05 0.234D-04 0.637D-03-0.843D-02
 Coeff:      0.233D-01 0.985D+00
 Gap=     0.427 Goal=   None    Shift=    0.000
 Gap=     0.427 Goal=   None    Shift=    0.000
 RMSDP=3.73D-09 MaxDP=8.30D-08 DE=-8.07D-12 OVMax= 1.45D-07

 SCF Done:  E(UM062X) =  -79.7964328740     A.U. after    8 cycles
            NFock=  8  Conv=0.37D-08     -V/T= 2.0059
 <Sx>= 0.0000 <Sy>= 0.0000 <Sz>= 0.0000 <S**2>=-0.0000 S=-0.0000
 <L.S>=  0.00000000000    
 KE= 7.932494235275D+01 PE=-2.677199453877D+02 EE= 6.679849922596D+01
 Annihilation of the first spin contaminant:
 S**2 before annihilation    -0.0000,   after     0.0000
 Leave Link  502 at Tue Nov 19 11:53:59 2024, MaxMem=  1073741824 cpu:              97.9 elap:               4.3
 (Enter /home/szhao/Apps/g16/l601.exe)
 Copying SCF densities to generalized density rwf, IOpCl= 1 IROHF=0.

 **********************************************************************

            Population analysis using the SCF density.

 **********************************************************************

 Alpha  occ. eigenvalues --  -10.52520 -10.52487  -0.84155  -0.70279  -0.49795
 Alpha  occ. eigenvalues --   -0.49791  -0.42406  -0.40475  -0.40470
 Alpha virt. eigenvalues --    0.02183   0.03997   0.05558   0.05558   0.08751
 Alpha virt. eigenvalues --    0.08752   0.08976   0.13877   0.18787   0.18792
 Alpha virt. eigenvalues --    0.20883   0.20885   0.24173   0.26410   0.28663
 Alpha virt. eigenvalues --    0.42800   0.42802   0.48534   0.48537   0.48756
 Alpha virt. eigenvalues --    0.62673   0.65129   0.65138   0.67380   0.67384
 Alpha virt. eigenvalues --    0.69501   0.78064   0.88738   0.93925   1.01702
 Alpha virt. eigenvalues --    1.01706   1.29945   1.29953   1.51729   1.52287
 Alpha virt. eigenvalues --    1.57252   1.57256   1.58339   1.58796   1.58797
 Alpha virt. eigenvalues --    1.72888   1.72889   1.77542   1.85675   1.85685
 Alpha virt. eigenvalues --    2.09576   2.14131   2.15803   2.15808   2.34216
 Alpha virt. eigenvalues --    2.34223   2.40323   2.50359   2.50364   2.51711
 Alpha virt. eigenvalues --    2.60794   2.60797   2.63513   2.63519   2.68745
 Alpha virt. eigenvalues --    2.68781   2.81079   2.84133   3.16353   3.82912
 Alpha virt. eigenvalues --    3.82926   3.84534   3.84566   4.23608  23.96834
 Alpha virt. eigenvalues --   24.07566
  Beta  occ. eigenvalues --  -10.52520 -10.52487  -0.84155  -0.70279  -0.49795
  Beta  occ. eigenvalues --   -0.49791  -0.42406  -0.40475  -0.40470
  Beta virt. eigenvalues --    0.02183   0.03997   0.05558   0.05558   0.08751
  Beta virt. eigenvalues --    0.08752   0.08976   0.13877   0.18787   0.18792
  Beta virt. eigenvalues --    0.20883   0.20885   0.24173   0.26410   0.28663
  Beta virt. eigenvalues --    0.42800   0.42802   0.48534   0.48537   0.48756
  Beta virt. eigenvalues --    0.62673   0.65129   0.65138   0.67380   0.67384
  Beta virt. eigenvalues --    0.69501   0.78064   0.88738   0.93925   1.01702
  Beta virt. eigenvalues --    1.01706   1.29945   1.29953   1.51729   1.52287
  Beta virt. eigenvalues --    1.57252   1.57256   1.58339   1.58796   1.58797
  Beta virt. eigenvalues --    1.72888   1.72889   1.77542   1.85675   1.85685
  Beta virt. eigenvalues --    2.09576   2.14131   2.15803   2.15808   2.34216
  Beta virt. eigenvalues --    2.34223   2.40323   2.50359   2.50364   2.51711
  Beta virt. eigenvalues --    2.60794   2.60797   2.63513   2.63519   2.68745
  Beta virt. eigenvalues --    2.68781   2.81079   2.84133   3.16353   3.82912
  Beta virt. eigenvalues --    3.82926   3.84534   3.84566   4.23608  23.96834
  Beta virt. eigenvalues --   24.07566
          Condensed to atoms (all electrons):
               1          2          3          4          5          6
     1  C    5.137155   0.223094  -0.041832   0.412914  -0.041878  -0.041880
     2  C    0.223094   5.137154   0.412893  -0.041882   0.412910   0.412913
     3  H   -0.041832   0.412893   0.537628  -0.005915  -0.030885  -0.030886
     4  H    0.412914  -0.041882  -0.005915   0.537696   0.007110  -0.005919
     5  H   -0.041878   0.412910  -0.030885   0.007110   0.537690  -0.030899
     6  H   -0.041880   0.412913  -0.030886  -0.005919  -0.030899   0.537692
     7  H    0.412894  -0.041833   0.007105  -0.030887  -0.005915  -0.005914
     8  H    0.412908  -0.041875  -0.005914  -0.030899  -0.005918   0.007109
               7          8
     1  C    0.412894   0.412908
     2  C   -0.041833  -0.041875
     3  H    0.007105  -0.005914
     4  H   -0.030887  -0.030899
     5  H   -0.005915  -0.005918
     6  H   -0.005914   0.007109
     7  H    0.537630  -0.030884
     8  H   -0.030884   0.537685
          Atomic-Atomic Spin Densities.
               1          2          3          4          5          6
     1  C   -0.000000   0.000000   0.000000  -0.000000   0.000000  -0.000000
     2  C    0.000000   0.000000  -0.000000   0.000000  -0.000000  -0.000000
     3  H    0.000000  -0.000000   0.000000  -0.000000   0.000000   0.000000
     4  H   -0.000000   0.000000  -0.000000   0.000000   0.000000  -0.000000
     5  H    0.000000  -0.000000   0.000000   0.000000   0.000000   0.000000
     6  H   -0.000000  -0.000000   0.000000  -0.000000   0.000000   0.000000
     7  H   -0.000000   0.000000  -0.000000   0.000000  -0.000000  -0.000000
     8  H    0.000000  -0.000000  -0.000000  -0.000000   0.000000   0.000000
               7          8
     1  C   -0.000000   0.000000
     2  C    0.000000  -0.000000
     3  H   -0.000000  -0.000000
     4  H    0.000000  -0.000000
     5  H   -0.000000   0.000000
     6  H   -0.000000   0.000000
     7  H   -0.000000  -0.000000
     8  H   -0.000000  -0.000000
 Mulliken charges and spin densities:
               1          2
     1  C   -0.473375  -0.000000
     2  C   -0.473375   0.000000
     3  H    0.157805   0.000000
     4  H    0.157782  -0.000000
     5  H    0.157786   0.000000
     6  H    0.157784   0.000000
     7  H    0.157805  -0.000000
     8  H    0.157788  -0.000000
 Sum of Mulliken charges =  -0.00000   0.00000
 Mulliken charges and spin densities with hydrogens summed into heavy atoms:
               1          2
     1  C   -0.000000  -0.000000
     2  C    0.000000   0.000000
 Electronic spatial extent (au):  <R**2>=            111.9769
 Charge=             -0.0000 electrons
 Dipole moment (field-independent basis, Debye):
    X=              0.0000    Y=              0.0000    Z=              0.0000  Tot=              0.0000
 Quadrupole moment (field-independent basis, Debye-Ang):
   XX=            -15.4801   YY=            -15.0293   ZZ=            -15.0296
   XY=             -0.0005   XZ=              0.0002   YZ=             -0.0004
 Traceless Quadrupole moment (field-independent basis, Debye-Ang):
   XX=             -0.3004   YY=              0.1504   ZZ=              0.1500
   XY=             -0.0005   XZ=              0.0002   YZ=             -0.0004
 Octapole moment (field-independent basis, Debye-Ang**2):
  XXX=             -0.0018  YYY=              0.0001  ZZZ=              0.0003  XYY=             -0.0005
  XXY=              0.0000  XXZ=              0.0001  XZZ=             -0.0007  YZZ=              0.0000
  YYZ=              0.0001  XYZ=              0.0000
 Hexadecapole moment (field-independent basis, Debye-Ang**3):
 XXXX=            -99.0837 YYYY=            -30.3989 ZZZZ=            -30.4002 XXXY=             -0.0045
 XXXZ=              0.0023 YYYX=              0.0023 YYYZ=             -0.0002 ZZZX=             -1.6109
 ZZZY=             -0.0011 XXYY=            -20.2284 XXZZ=            -20.2297 YYZZ=            -10.1335
 XXYZ=             -0.0013 YYXZ=              1.6126 ZZXY=             -0.0056
 N-N= 4.180007093496D+01 E-N=-2.677199467989D+02  KE= 7.932494235275D+01
                          Isotropic Fermi Contact Couplings
        Atom                 a.u.       MegaHertz       Gauss      10(-4) cm-1
     1  C(13)             -0.00000      -0.00000      -0.00000      -0.00000
     2  C(13)             -0.00000      -0.00000      -0.00000      -0.00000
     3  H(1)               0.00000       0.00000       0.00000       0.00000
     4  H(1)              -0.00000      -0.00000      -0.00000      -0.00000
     5  H(1)               0.00000       0.00000       0.00000       0.00000
     6  H(1)               0.00000       0.00000       0.00000       0.00000
     7  H(1)              -0.00000      -0.00000      -0.00000      -0.00000
     8  H(1)              -0.00000      -0.00000      -0.00000      -0.00000
 --------------------------------------------------------
       Center         ----  Spin Dipole Couplings  ----
                      3XX-RR        3YY-RR        3ZZ-RR
 --------------------------------------------------------
     1   Atom        0.000000      0.000000      0.000000
     2   Atom        0.000000      0.000000      0.000000
     3   Atom        0.000000      0.000000      0.000000
     4   Atom        0.000000      0.000000      0.000000
     5   Atom        0.000000      0.000000      0.000000
     6   Atom        0.000000      0.000000      0.000000
     7   Atom        0.000000      0.000000      0.000000
     8   Atom        0.000000      0.000000      0.000000
 --------------------------------------------------------
                        XY            XZ            YZ
 --------------------------------------------------------
     1   Atom        0.000000      0.000000      0.000000
     2   Atom        0.000000      0.000000      0.000000
     3   Atom        0.000000      0.000000      0.000000
     4   Atom        0.000000      0.000000      0.000000
     5   Atom        0.000000      0.000000      0.000000
     6   Atom        0.000000      0.000000      0.000000
     7   Atom        0.000000      0.000000      0.000000
     8   Atom        0.000000      0.000000      0.000000
 --------------------------------------------------------


 ---------------------------------------------------------------------------------
              Anisotropic Spin Dipole Couplings in Principal Axis System
 ---------------------------------------------------------------------------------

       Atom             a.u.   MegaHertz   Gauss  10(-4) cm-1        Axes

              Baa     0.0000     0.000     0.000     0.000  1.0000  0.0000  0.0000
     1 C(13)  Bbb     0.0000     0.000     0.000     0.000 -0.0000  1.0000  0.0000
              Bcc     0.0000     0.000     0.000     0.000  0.0000  0.0000  1.0000
 
              Baa     0.0000     0.000     0.000     0.000  1.0000  0.0000  0.0000
     2 C(13)  Bbb     0.0000     0.000     0.000     0.000 -0.0000  1.0000  0.0000
              Bcc     0.0000     0.000     0.000     0.000  0.0000  0.0000  1.0000
 
              Baa     0.0000     0.000     0.000     0.000  1.0000  0.0000  0.0000
     3 H(1)   Bbb     0.0000     0.000     0.000     0.000 -0.0000  1.0000  0.0000
              Bcc     0.0000     0.000     0.000     0.000  0.0000  0.0000  1.0000
 
              Baa     0.0000     0.000     0.000     0.000  1.0000  0.0000  0.0000
     4 H(1)   Bbb     0.0000     0.000     0.000     0.000 -0.0000  1.0000  0.0000
              Bcc     0.0000     0.000     0.000     0.000  0.0000  0.0000  1.0000
 
              Baa     0.0000     0.000     0.000     0.000  1.0000  0.0000  0.0000
     5 H(1)   Bbb     0.0000     0.000     0.000     0.000 -0.0000  1.0000  0.0000
              Bcc     0.0000     0.000     0.000     0.000  0.0000  0.0000  1.0000
 
              Baa     0.0000     0.000     0.000     0.000  1.0000  0.0000  0.0000
     6 H(1)   Bbb     0.0000     0.000     0.000     0.000 -0.0000  1.0000  0.0000
              Bcc     0.0000     0.000     0.000     0.000  0.0000  0.0000  1.0000
 
              Baa     0.0000     0.000     0.000     0.000  1.0000  0.0000  0.0000
     7 H(1)   Bbb     0.0000     0.000     0.000     0.000 -0.0000  1.0000  0.0000
              Bcc     0.0000     0.000     0.000     0.000  0.0000  0.0000  1.0000
 
              Baa     0.0000     0.000     0.000     0.000  1.0000  0.0000  0.0000
     8 H(1)   Bbb     0.0000     0.000     0.000     0.000 -0.0000  1.0000  0.0000
              Bcc     0.0000     0.000     0.000     0.000  0.0000  0.0000  1.0000
 

 ---------------------------------------------------------------------------------

 No NMR shielding tensors so no spin-rotation constants.
 Leave Link  601 at Tue Nov 19 11:53:59 2024, MaxMem=  1073741824 cpu:               3.6 elap:               0.2
 (Enter /home/szhao/Apps/g16/l701.exe)
 ... and contract with generalized density number  0.
 Compute integral first derivatives.
 Leave Link  701 at Tue Nov 19 11:53:59 2024, MaxMem=  1073741824 cpu:               2.5 elap:               0.1
 (Enter /home/szhao/Apps/g16/l702.exe)
 L702 exits ... SP integral derivatives will be done elsewhere.
 Leave Link  702 at Tue Nov 19 11:53:59 2024, MaxMem=  1073741824 cpu:               0.9 elap:               0.1
 (Enter /home/szhao/Apps/g16/l703.exe)
 Integral derivatives from FoFJK, PRISM(SPDF).
 Compute integral first derivatives, UseDBF=F ICtDFT=           0.
 Calling FoFJK, ICntrl=      2127 FMM=F ISym2X=0 I1Cent= 0 IOpClX= 1 NMat=1 NMatS=1 NMatT=0.
 FoFJK:  IHMeth= 1 ICntrl=    2127 DoSepK=F KAlg= 0 I1Cent=           0 FoldK=F
 IRaf=         0 NMat=       1 IRICut=       1 DoRegI=T DoRafI=F ISym2E= 0 IDoP0=0 IntGTp=1.
 FoFCou: FMM=F IPFlag=           0 FMFlag=      100000 FMFlg1=         800
         NFxFlg=           0 DoJE=F BraDBF=F KetDBF=F FulRan=T
         wScrn=  0.000000 ICntrl=      2127 IOpCl=  1 I1Cent=           0 NGrid=           0
         NMat0=    1 NMatS0=      1 NMatT0=    0 NMatD0=    1 NMtDS0=    0 NMtDT0=    0
 Symmetry not used in FoFCou.
 Leave Link  703 at Tue Nov 19 11:54:00 2024, MaxMem=  1073741824 cpu:              22.1 elap:               0.9
 (Enter /home/szhao/Apps/g16/l716.exe)
 Dipole        = 2.81518269D-07 1.67227959D-06 3.79696026D-06
 -------------------------------------------------------------------
 Center     Atomic                   Forces (Hartrees/Bohr)
 Number     Number              X              Y              Z
 -------------------------------------------------------------------
      1        6          -0.000000000   -0.000000000   -0.000000000
      2        6          -0.000000000   -0.000000000   -0.000000000
      3        1          -0.002409879    0.001034790   -0.000597458
      4        1           0.002428530    0.001116277    0.000635464
      5        1          -0.002422101   -0.001104618   -0.000626271
      6        1          -0.002427381   -0.000006218    0.001279873
      7        1           0.002411320   -0.001035855    0.000601826
      8        1           0.002420190    0.000007355   -0.001263158
 -------------------------------------------------------------------
 Cartesian Forces:  Max     0.002428530 RMS     0.001361598
 Leave Link  716 at Tue Nov 19 11:54:00 2024, MaxMem=  1073741824 cpu:               0.9 elap:               0.1
 (Enter /home/szhao/Apps/g16/l103.exe)

 GradGradGradGradGradGradGradGradGradGradGradGradGradGradGradGradGradGrad
 Berny optimization.
 FormGI is forming the generalized inverse of G from B-inverse, IUseBI=4.
 Internal  Forces:  Max     0.007260040 RMS     0.002262046
 Search for a local minimum.
 Step number   1 out of a maximum of   43
 All quantities printed in internal units (Hartrees-Bohrs-Radians)
 RMS Force = .15326D-02 SwitMx=.10000D-02 MixMth= 1
 Mixed Optimization -- RFO/linear search
 Second derivative matrix not updated -- first step.
 ITU=  0
     Eigenvalues ---    0.00230   0.05319   0.05319   0.05322   0.05322
     Eigenvalues ---    0.16000   0.16000   0.16000   0.16000   0.16000
     Eigenvalues ---    0.16000   0.34275   0.34275   0.34277   0.34279
     Eigenvalues ---    0.34291   0.342921000.000001000.000001000.00000
     Eigenvalues --- 1000.000001000.000001000.000001000.000001000.00000
     Eigenvalues --- 1000.000001000.000001000.000001000.000001000.00000
     Eigenvalues --- 1000.000001000.000001000.00000
 RFO step:  Lambda=-3.11648274D-04 EMin= 2.30000000D-03
 Linear search not attempted -- first point.
 Iteration  1 RMS(Cart)=  0.00978688 RMS(Int)=  0.00006243
 Iteration  2 RMS(Cart)=  0.00005539 RMS(Int)=  0.00003281
 Iteration  3 RMS(Cart)=  0.00000000 RMS(Int)=  0.00003281
 ITry= 1 IFail=0 DXMaxC= 2.32D-02 DCOld= 1.00D+10 DXMaxT= 3.00D-01 DXLimC= 3.00D+00 Rises=F
 Variable       Old X    -DE/DX   Delta X   Delta X   Delta X     New X
                                 (Linear)    (Quad)   (Total)
    X1       -1.47175   0.00726   0.00000   0.00000   0.00000  -1.47175
    Y1        0.00000   0.00011   0.00000   0.00000   0.00000   0.00000
    Z1        0.00000  -0.00004   0.00000   0.00000   0.00000   0.00000
    X2        1.47190  -0.00726   0.00000   0.00000   0.00000   1.47190
    Y2        0.00000  -0.00010   0.00000   0.00000   0.00000   0.00000
    Z2        0.00000   0.00007   0.00000   0.00000   0.00000   0.00000
    R1        2.06869  -0.00209   0.00000  -0.00609  -0.00609   2.06261
    R2        2.06841  -0.00200   0.00000  -0.00583  -0.00583   2.06258
    R3        2.06863  -0.00207   0.00000  -0.00602  -0.00602   2.06261
    R4        2.06840  -0.00200   0.00000  -0.00582  -0.00582   2.06258
    R5        2.06864  -0.00207   0.00000  -0.00604  -0.00604   2.06260
    R6        2.06868  -0.00208   0.00000  -0.00607  -0.00607   2.06261
    A1        1.94779  -0.00171   0.00000  -0.01062  -0.01068   1.93712
    A2        1.94805  -0.00174   0.00000  -0.01088  -0.01093   1.93712
    A3        1.94781  -0.00171   0.00000  -0.01064  -0.01069   1.93712
    A4        1.87198   0.00185   0.00000   0.01150   0.01145   1.88343
    A5        1.87185   0.00184   0.00000   0.01159   0.01154   1.88338
    A6        1.87203   0.00185   0.00000   0.01147   0.01142   1.88345
    A7        1.94805  -0.00174   0.00000  -0.01088  -0.01094   1.93712
    A8        1.94780  -0.00171   0.00000  -0.01062  -0.01068   1.93712
    A9        1.94780  -0.00171   0.00000  -0.01063  -0.01069   1.93712
   A10        1.87202   0.00185   0.00000   0.01147   0.01142   1.88344
   A11        1.87200   0.00185   0.00000   0.01149   0.01144   1.88344
   A12        1.87184   0.00184   0.00000   0.01159   0.01154   1.88338
    D1       -1.04708  -0.00001   0.00000  -0.00010  -0.00010  -1.04718
    D2        3.14157   0.00000   0.00000   0.00002   0.00002   3.14159
    D3        1.04743  -0.00001   0.00000  -0.00020  -0.00020   1.04724
    D4       -3.14156  -0.00000   0.00000  -0.00002  -0.00002  -3.14158
    D5        1.04709   0.00001   0.00000   0.00009   0.00009   1.04718
    D6       -1.04705  -0.00001   0.00000  -0.00012  -0.00012  -1.04717
    D7        1.04707   0.00001   0.00000   0.00011   0.00011   1.04717
    D8       -1.04747   0.00001   0.00000   0.00022   0.00022  -1.04725
    D9        3.14158   0.00000   0.00000   0.00001   0.00001   3.14159
         Item               Value     Threshold  Converged?
 Maximum Force            0.002088     0.000450     NO 
 RMS     Force            0.001533     0.000300     NO 
 Maximum Displacement     0.023162     0.001800     NO 
 RMS     Displacement     0.009821     0.001200     NO 
 Predicted change in Energy=-1.560864D-04
 Lowest energy point so far.  Saving SCF results.
 GradGradGradGradGradGradGradGradGradGradGradGradGradGradGradGradGradGrad

 Leave Link  103 at Tue Nov 19 11:54:01 2024, MaxMem=  1073741824 cpu:               1.3 elap:               0.1
 (Enter /home/szhao/Apps/g16/l202.exe)
                          Input orientation:                          
 ---------------------------------------------------------------------
 Center     Atomic      Atomic             Coordinates (Angstroms)
 Number     Number       Type             X           Y           Z
 ---------------------------------------------------------------------
      1          6           0       -0.778818    0.000000    0.000000
      2          6           0        0.778898    0.000000    0.000000
      3          1           0        1.169842   -0.882028    0.510385
      4          1           0       -1.169770   -0.883042   -0.508656
      5          1           0        1.169853    0.883043    0.508648
      6          1           0        1.169849   -0.000973   -1.019067
      7          1           0       -1.169762    0.882022   -0.510396
      8          1           0       -1.169774    0.000969    1.019063
 ---------------------------------------------------------------------
                    Distance matrix (angstroms):
                    1          2          3          4          5
     1  C    0.000000
     2  C    1.557715   0.000000
     3  H    2.199032   1.091469   0.000000
     4  H    1.091484   2.199045   2.551907   0.000000
     5  H    2.199047   1.091483   1.765072   3.102869   0.000000
     6  H    2.199045   1.091485   1.765072   2.551937   1.765049
     7  H    1.091469   2.199032   3.102840   1.765065   2.551911
     8  H    1.091484   2.199048   2.551909   1.765050   2.551947
                    6          7          8
     6  H    0.000000
     7  H    2.551903   0.000000
     8  H    3.102872   1.765078   0.000000
 Symmetry turned off by external request.
 Stoichiometry    C2H6
 Framework group  C1[X(C2H6)]
 Deg. of freedom    18
 Full point group                 C1      NOp   1
 Rotational constants (GHZ):          80.4787183          19.4574123          19.4573290
 Leave Link  202 at Tue Nov 19 11:54:01 2024, MaxMem=  1073741824 cpu:               0.5 elap:               0.0
 (Enter /home/szhao/Apps/g16/l301.exe)
 Standard basis: 6-311+G(d,p) (5D, 7F)
 Ernie: Thresh=  0.10000D-02 Tol=  0.10000D-05 Strict=F.
    80 basis functions,   120 primitive gaussians,    82 cartesian basis functions
     9 alpha electrons        9 beta electrons
       nuclear repulsion energy        41.9011187690 Hartrees.
 IExCor= 4336 DFT=T Ex+Corr=M062X ExCW=0 ScaHFX=  0.540000
 ScaDFX=  1.000000  1.000000  1.000000  1.000000 ScalE2=  1.000000  1.000000
 IRadAn=      7 IRanWt=     -1 IRanGd=            0 ICorTp=0 IEmpDi=  4
 NAtoms=    8 NActive=    8 NUniq=    8 SFac= 1.00D+00 NAtFMM=   60 NAOKFM=F Big=F
 Integral buffers will be    131072 words long.
 Raffenetti 2 integral format.
 Two-electron integral symmetry is turned off.
 Leave Link  301 at Tue Nov 19 11:54:01 2024, MaxMem=  1073741824 cpu:               1.2 elap:               0.1
 (Enter /home/szhao/Apps/g16/l302.exe)
 NPDir=0 NMtPBC=     1 NCelOv=     1 NCel=       1 NClECP=     1 NCelD=      1
         NCelK=      1 NCelE2=     1 NClLst=     1 CellRange=     0.0.
 One-electron integrals computed using PRISM.
 NBasis=    80 RedAO= T EigKep=  2.01D-04  NBF=    80
 NBsUse=    80 1.00D-06 EigRej= -1.00D+00 NBFU=    80
 Precomputing XC quadrature grid using
 IXCGrd= 4 IRadAn=           7 IRanWt=          -1 IRanGd=           0 AccXCQ= 0.00D+00.
 Generated NRdTot=       0 NPtTot=           0 NUsed=           0 NTot=          32
 NSgBfM=    82    82    82    82    82 MxSgAt=     8 MxSgA2=     8.
 Leave Link  302 at Tue Nov 19 11:54:01 2024, MaxMem=  1073741824 cpu:               9.0 elap:               0.4
 (Enter /home/szhao/Apps/g16/l303.exe)
 DipDrv:  MaxL=1.
 Leave Link  303 at Tue Nov 19 11:54:01 2024, MaxMem=  1073741824 cpu:               0.9 elap:               0.0
 (Enter /home/szhao/Apps/g16/l401.exe)
 Initial guess from the checkpoint file:  "opt.chk"
 B after Tr=     0.000000    0.000003    0.000008
         Rot=    1.000000   -0.000003    0.000017    0.000032 Ang=  -0.00 deg.
 Guess basis will be translated and rotated to current coordinates.
 JPrj=2 DoOrth=T DoCkMO=T.
 Initial guess <Sx>= 0.0000 <Sy>= 0.0000 <Sz>= 0.0000 <S**2>=-0.0000 S=-0.0000
 Generating alternative initial guess.
 ExpMin= 4.38D-02 ExpMax= 4.56D+03 ExpMxC= 6.82D+02 IAcc=3 IRadAn=         5 AccDes= 0.00D+00
 Harris functional with IExCor= 1009 and IRadAn=       5 diagonalized for initial guess.
 HarFok:  IExCor= 1009 AccDes= 0.00D+00 IRadAn=         5 IDoV= 1 UseB2=F ITyADJ=14
 ICtDFT=  3500011 ScaDFX=  1.000000  1.000000  1.000000  1.000000
 FoFCou: FMM=F IPFlag=           0 FMFlag=      100000 FMFlg1=           0
         NFxFlg=           0 DoJE=T BraDBF=F KetDBF=T FulRan=T
         wScrn=  0.000000 ICntrl=       500 IOpCl=  0 I1Cent=   200000004 NGrid=           0
         NMat0=    1 NMatS0=      1 NMatT0=    0 NMatD0=    1 NMtDS0=    0 NMtDT0=    0
 Symmetry not used in FoFCou.
 Harris En= -79.8276242197834    
 Leave Link  401 at Tue Nov 19 11:54:02 2024, MaxMem=  1073741824 cpu:               5.4 elap:               0.2
 (Enter /home/szhao/Apps/g16/l502.exe)
 Keep R1 and R2 ints in memory in canonical form, NReq=32326806.
 FoFCou: FMM=F IPFlag=           0 FMFlag=           0 FMFlg1=           0
         NFxFlg=           0 DoJE=F BraDBF=F KetDBF=F FulRan=T
         wScrn=  0.000000 ICntrl=       600 IOpCl=  0 I1Cent=           0 NGrid=           0
         NMat0=    1 NMatS0=   3240 NMatT0=    0 NMatD0=    1 NMtDS0=    0 NMtDT0=    0
 Symmetry not used in FoFCou.
 Two-electron integral symmetry not used.
 UHF open shell SCF:
 Using DIIS extrapolation, IDIIS=  1040.
 NGot=  1073741824 LenX=  1063224738 LenY=  1063217573
 Requested convergence on RMS density matrix=1.00D-08 within 128 cycles.
 Requested convergence on MAX density matrix=1.00D-06.
 Requested convergence on             energy=1.00D-06.
 No special actions if energy rises.

 Cycle   1  Pass 1  IDiag  1:
 E= -79.7965811864751    
 DIIS: error= 8.75D-04 at cycle   1 NSaved=   1.
 NSaved= 1 IEnMin= 1 EnMin= -79.7965811864751     IErMin= 1 ErrMin= 8.75D-04
 ErrMax= 8.75D-04  0.00D+00 EMaxC= 1.00D-01 BMatC= 1.27D-04 BMatP= 1.27D-04
 IDIUse=3 WtCom= 9.91D-01 WtEn= 8.75D-03
 Coeff-Com:  0.100D+01
 Coeff-En:   0.100D+01
 Coeff:      0.100D+01
 Gap=     0.628 Goal=   None    Shift=    0.000
 Gap=     0.628 Goal=   None    Shift=    0.000
 RMSDP=6.05D-05 MaxDP=5.51D-04              OVMax= 1.50D-03

 Cycle   2  Pass 1  IDiag  1:
 E= -79.7966118963328     Delta-E=       -0.000030709858 Rises=F Damp=F
 DIIS: error= 3.70D-04 at cycle   2 NSaved=   2.
 NSaved= 2 IEnMin= 2 EnMin= -79.7966118963328     IErMin= 2 ErrMin= 3.70D-04
 ErrMax= 3.70D-04  0.00D+00 EMaxC= 1.00D-01 BMatC= 1.13D-05 BMatP= 1.27D-04
 IDIUse=3 WtCom= 9.96D-01 WtEn= 3.70D-03
 Coeff-Com:  0.874D-01 0.913D+00
 Coeff-En:   0.000D+00 0.100D+01
 Coeff:      0.871D-01 0.913D+00
 Gap=     0.427 Goal=   None    Shift=    0.000
 Gap=     0.427 Goal=   None    Shift=    0.000
 RMSDP=2.13D-05 MaxDP=4.93D-04 DE=-3.07D-05 OVMax= 9.14D-04

 Cycle   3  Pass 1  IDiag  1:
 E= -79.7966135229125     Delta-E=       -0.000001626580 Rises=F Damp=F
 DIIS: error= 2.12D-04 at cycle   3 NSaved=   3.
 NSaved= 3 IEnMin= 3 EnMin= -79.7966135229125     IErMin= 3 ErrMin= 2.12D-04
 ErrMax= 2.12D-04  0.00D+00 EMaxC= 1.00D-01 BMatC= 5.89D-06 BMatP= 1.13D-05
 IDIUse=3 WtCom= 9.98D-01 WtEn= 2.12D-03
 Coeff-Com: -0.398D-01 0.419D+00 0.621D+00
 Coeff-En:   0.000D+00 0.277D+00 0.723D+00
 Coeff:     -0.397D-01 0.419D+00 0.621D+00
 Gap=     0.428 Goal=   None    Shift=    0.000
 Gap=     0.428 Goal=   None    Shift=    0.000
 RMSDP=8.52D-06 MaxDP=1.86D-04 DE=-1.63D-06 OVMax= 2.96D-04

 Cycle   4  Pass 1  IDiag  1:
 E= -79.7966149897152     Delta-E=       -0.000001466803 Rises=F Damp=F
 DIIS: error= 7.33D-06 at cycle   4 NSaved=   4.
 NSaved= 4 IEnMin= 4 EnMin= -79.7966149897152     IErMin= 4 ErrMin= 7.33D-06
 ErrMax= 7.33D-06  0.00D+00 EMaxC= 1.00D-01 BMatC= 7.50D-09 BMatP= 5.89D-06
 IDIUse=1 WtCom= 1.00D+00 WtEn= 0.00D+00
 Coeff-Com: -0.129D-02-0.254D-01-0.220D-01 0.105D+01
 Coeff:     -0.129D-02-0.254D-01-0.220D-01 0.105D+01
 Gap=     0.428 Goal=   None    Shift=    0.000
 Gap=     0.428 Goal=   None    Shift=    0.000
 RMSDP=8.82D-07 MaxDP=9.44D-06 DE=-1.47D-06 OVMax= 3.31D-05

 Cycle   5  Pass 1  IDiag  1:
 E= -79.7966149931230     Delta-E=       -0.000000003408 Rises=F Damp=F
 DIIS: error= 2.10D-06 at cycle   5 NSaved=   5.
 NSaved= 5 IEnMin= 5 EnMin= -79.7966149931230     IErMin= 5 ErrMin= 2.10D-06
 ErrMax= 2.10D-06  0.00D+00 EMaxC= 1.00D-01 BMatC= 3.05D-10 BMatP= 7.50D-09
 IDIUse=1 WtCom= 1.00D+00 WtEn= 0.00D+00
 Coeff-Com:  0.791D-03-0.130D-01-0.175D-01 0.133D+00 0.897D+00
 Coeff:      0.791D-03-0.130D-01-0.175D-01 0.133D+00 0.897D+00
 Gap=     0.428 Goal=   None    Shift=    0.000
 Gap=     0.428 Goal=   None    Shift=    0.000
 RMSDP=1.80D-07 MaxDP=1.86D-06 DE=-3.41D-09 OVMax= 6.51D-06

 Cycle   6  Pass 1  IDiag  1:
 E= -79.7966149932290     Delta-E=       -0.000000000106 Rises=F Damp=F
 DIIS: error= 2.04D-07 at cycle   6 NSaved=   6.
 NSaved= 6 IEnMin= 6 EnMin= -79.7966149932290     IErMin= 6 ErrMin= 2.04D-07
 ErrMax= 2.04D-07  0.00D+00 EMaxC= 1.00D-01 BMatC= 6.26D-12 BMatP= 3.05D-10
 IDIUse=1 WtCom= 1.00D+00 WtEn= 0.00D+00
 Coeff-Com: -0.205D-04 0.119D-02 0.142D-02-0.351D-01-0.520D-02 0.104D+01
 Coeff:     -0.205D-04 0.119D-02 0.142D-02-0.351D-01-0.520D-02 0.104D+01
 Gap=     0.428 Goal=   None    Shift=    0.000
 Gap=     0.428 Goal=   None    Shift=    0.000
 RMSDP=3.51D-08 MaxDP=4.15D-07 DE=-1.06D-10 OVMax= 1.01D-06

 Cycle   7  Pass 1  IDiag  1:
 E= -79.7966149932315     Delta-E=       -0.000000000002 Rises=F Damp=F
 DIIS: error= 1.59D-08 at cycle   7 NSaved=   7.
 NSaved= 7 IEnMin= 7 EnMin= -79.7966149932315     IErMin= 7 ErrMin= 1.59D-08
 ErrMax= 1.59D-08  0.00D+00 EMaxC= 1.00D-01 BMatC= 3.61D-14 BMatP= 6.26D-12
 IDIUse=1 WtCom= 1.00D+00 WtEn= 0.00D+00
 Coeff-Com: -0.783D-05 0.306D-04 0.223D-04 0.230D-02-0.718D-02-0.120D+00
 Coeff-Com:  0.112D+01
 Coeff:     -0.783D-05 0.306D-04 0.223D-04 0.230D-02-0.718D-02-0.120D+00
 Coeff:      0.112D+01
 Gap=     0.428 Goal=   None    Shift=    0.000
 Gap=     0.428 Goal=   None    Shift=    0.000
 RMSDP=3.46D-09 MaxDP=4.00D-08 DE=-2.44D-12 OVMax= 1.27D-07

 SCF Done:  E(UM062X) =  -79.7966149932     A.U. after    7 cycles
            NFock=  7  Conv=0.35D-08     -V/T= 2.0056
 <Sx>= 0.0000 <Sy>= 0.0000 <Sz>= 0.0000 <S**2>=-0.0000 S=-0.0000
 <L.S>=  0.00000000000    
 KE= 7.935360128238D+01 PE=-2.679459028815D+02 EE= 6.689456783687D+01
 Annihilation of the first spin contaminant:
 S**2 before annihilation    -0.0000,   after     0.0000
 Leave Link  502 at Tue Nov 19 11:54:05 2024, MaxMem=  1073741824 cpu:              80.6 elap:               3.5
 (Enter /home/szhao/Apps/g16/l701.exe)
 ... and contract with generalized density number  0.
 Compute integral first derivatives.
 Leave Link  701 at Tue Nov 19 11:54:06 2024, MaxMem=  1073741824 cpu:               2.6 elap:               0.1
 (Enter /home/szhao/Apps/g16/l702.exe)
 L702 exits ... SP integral derivatives will be done elsewhere.
 Leave Link  702 at Tue Nov 19 11:54:06 2024, MaxMem=  1073741824 cpu:               0.9 elap:               0.1
 (Enter /home/szhao/Apps/g16/l703.exe)
 Integral derivatives from FoFJK, PRISM(SPDF).
 Compute integral first derivatives, UseDBF=F ICtDFT=           0.
 Calling FoFJK, ICntrl=      2127 FMM=F ISym2X=0 I1Cent= 0 IOpClX= 1 NMat=1 NMatS=1 NMatT=0.
 FoFJK:  IHMeth= 1 ICntrl=    2127 DoSepK=F KAlg= 0 I1Cent=           0 FoldK=F
 IRaf=         0 NMat=       1 IRICut=       1 DoRegI=T DoRafI=F ISym2E= 0 IDoP0=0 IntGTp=1.
 FoFCou: FMM=F IPFlag=           0 FMFlag=      100000 FMFlg1=         800
         NFxFlg=           0 DoJE=F BraDBF=F KetDBF=F FulRan=T
         wScrn=  0.000000 ICntrl=      2127 IOpCl=  1 I1Cent=           0 NGrid=           0
         NMat0=    1 NMatS0=      1 NMatT0=    0 NMatD0=    1 NMtDS0=    0 NMtDT0=    0
 Symmetry not used in FoFCou.
 Leave Link  703 at Tue Nov 19 11:54:07 2024, MaxMem=  1073741824 cpu:              22.2 elap:               0.9
 (Enter /home/szhao/Apps/g16/l716.exe)
 Dipole        =-2.87867192D-08-7.53120212D-07-1.96430116D-06
 -------------------------------------------------------------------
 Center     Atomic                   Forces (Hartrees/Bohr)
 Number     Number              X              Y              Z
 -------------------------------------------------------------------
      1        6          -0.000000000   -0.000000000   -0.000000000
      2        6          -0.000000000   -0.000000000   -0.000000000
      3        1          -0.000375558    0.000041102   -0.000023717
      4        1           0.000381018    0.000048200    0.000025331
      5        1          -0.000380681   -0.000048184   -0.000024400
      6        1          -0.000381939   -0.000002785    0.000054401
      7        1           0.000375664   -0.000040571    0.000024844
      8        1           0.000381613    0.000003233   -0.000053806
 -------------------------------------------------------------------
 Cartesian Forces:  Max     0.000381939 RMS     0.000191489
 Leave Link  716 at Tue Nov 19 11:54:07 2024, MaxMem=  1073741824 cpu:               0.9 elap:               0.1
 (Enter /home/szhao/Apps/g16/l103.exe)

 GradGradGradGradGradGradGradGradGradGradGradGradGradGradGradGradGradGrad
 Berny optimization.
 Using GEDIIS/GDIIS optimizer.
 FormGI is forming the generalized inverse of G from B-inverse, IUseBI=4.
 Internal  Forces:  Max     0.001138295 RMS     0.000354932
 Search for a local minimum.
 Step number   2 out of a maximum of   43
 All quantities printed in internal units (Hartrees-Bohrs-Radians)
 RMS Force = .24082D-03 SwitMx=.10000D-02 MixMth= 2
 Mixed Optimization -- En-DIIS/RFO-DIIS
 Update second derivatives using D2CorX and points    1    2
 DE= -1.82D-04 DEPred=-1.56D-04 R= 1.17D+00
 TightC=F SS=  1.41D+00  RLast= 4.12D-02 DXNew= 5.0454D-01 1.2367D-01
 Trust test= 1.17D+00 RLast= 4.12D-02 DXMaxT set to 3.00D-01
 ITU=  1  0
 Use linear search instead of GDIIS.
     Eigenvalues ---    0.00230   0.05434   0.05434   0.05434   0.05434
     Eigenvalues ---    0.13373   0.16000   0.16000   0.16000   0.16000
     Eigenvalues ---    0.16000   0.34275   0.34276   0.34277   0.34278
     Eigenvalues ---    0.34292   0.342951000.000001000.000001000.00000
     Eigenvalues --- 1000.000001000.000001000.000001000.000001000.00000
     Eigenvalues --- 1000.000001000.000001000.000001000.000001000.00000
     Eigenvalues --- 1000.000001000.000001000.00000
 RFO step:  Lambda=-7.75116813D-07 EMin= 2.30000000D-03
 Quartic linear search produced a step of  0.19557.
 Iteration  1 RMS(Cart)=  0.00216727 RMS(Int)=  0.00000880
 Iteration  2 RMS(Cart)=  0.00000325 RMS(Int)=  0.00000829
 Iteration  3 RMS(Cart)=  0.00000000 RMS(Int)=  0.00000829
 ITry= 1 IFail=0 DXMaxC= 4.98D-03 DCOld= 1.00D+10 DXMaxT= 3.00D-01 DXLimC= 3.00D+00 Rises=F
 Variable       Old X    -DE/DX   Delta X   Delta X   Delta X     New X
                                 (Linear)    (Quad)   (Total)
    X1       -1.47175   0.00114   0.00000   0.00000   0.00000  -1.47175
    Y1        0.00000   0.00001   0.00000   0.00000   0.00000   0.00000
    Z1        0.00000  -0.00000   0.00000   0.00000   0.00000   0.00000
    X2        1.47190  -0.00114   0.00000   0.00000   0.00000   1.47190
    Y2        0.00000  -0.00001   0.00000   0.00000   0.00000   0.00000
    Z2        0.00000   0.00000   0.00000   0.00000   0.00000   0.00000
    R1        2.06261  -0.00019  -0.00119   0.00053  -0.00066   2.06195
    R2        2.06258  -0.00018  -0.00114   0.00051  -0.00063   2.06195
    R3        2.06261  -0.00019  -0.00118   0.00052  -0.00066   2.06195
    R4        2.06258  -0.00018  -0.00114   0.00051  -0.00063   2.06195
    R5        2.06260  -0.00019  -0.00118   0.00052  -0.00066   2.06195
    R6        2.06261  -0.00019  -0.00119   0.00053  -0.00066   2.06195
    A1        1.93712  -0.00033  -0.00209  -0.00034  -0.00244   1.93468
    A2        1.93712  -0.00033  -0.00214  -0.00028  -0.00243   1.93468
    A3        1.93712  -0.00033  -0.00209  -0.00036  -0.00247   1.93466
    A4        1.88343   0.00034   0.00224   0.00034   0.00257   1.88600
    A5        1.88338   0.00035   0.00226   0.00036   0.00261   1.88599
    A6        1.88345   0.00034   0.00223   0.00033   0.00255   1.88599
    A7        1.93712  -0.00033  -0.00214  -0.00028  -0.00243   1.93468
    A8        1.93712  -0.00033  -0.00209  -0.00034  -0.00245   1.93468
    A9        1.93712  -0.00033  -0.00209  -0.00036  -0.00246   1.93466
   A10        1.88344   0.00034   0.00223   0.00034   0.00256   1.88600
   A11        1.88344   0.00034   0.00224   0.00033   0.00256   1.88599
   A12        1.88338   0.00035   0.00226   0.00036   0.00261   1.88599
    D1       -1.04718  -0.00000  -0.00002   0.00001  -0.00001  -1.04719
    D2        3.14159   0.00000   0.00000   0.00000   0.00001   3.14159
    D3        1.04724  -0.00000  -0.00004   0.00001  -0.00003   1.04721
    D4       -3.14158  -0.00000  -0.00000  -0.00001  -0.00001  -3.14159
    D5        1.04718   0.00000   0.00002  -0.00002   0.00000   1.04719
    D6       -1.04717  -0.00000  -0.00002  -0.00001  -0.00003  -1.04720
    D7        1.04717   0.00000   0.00002   0.00001   0.00003   1.04720
    D8       -1.04725   0.00000   0.00004  -0.00000   0.00004  -1.04721
    D9        3.14159   0.00000   0.00000   0.00000   0.00000   3.14159
         Item               Value     Threshold  Converged?
 Maximum Force            0.000348     0.000450     YES
 RMS     Force            0.000241     0.000300     YES
 Maximum Displacement     0.004984     0.001800     NO 
 RMS     Displacement     0.002170     0.001200     NO 
 Predicted change in Energy=-5.511469D-06
 Lowest energy point so far.  Saving SCF results.
 GradGradGradGradGradGradGradGradGradGradGradGradGradGradGradGradGradGrad

 Leave Link  103 at Tue Nov 19 11:54:07 2024, MaxMem=  1073741824 cpu:               1.3 elap:               0.1
 (Enter /home/szhao/Apps/g16/l202.exe)
                          Input orientation:                          
 ---------------------------------------------------------------------
 Center     Atomic      Atomic             Coordinates (Angstroms)
 Number     Number       Type             X           Y           Z
 ---------------------------------------------------------------------
      1          6           0       -0.778818    0.000000    0.000000
      2          6           0        0.778898    0.000000    0.000000
      3          1           0        1.167242   -0.882581    0.510702
      4          1           0       -1.167156   -0.883579   -0.508977
      5          1           0        1.167236    0.883579    0.508976
      6          1           0        1.167216   -0.000992   -1.019699
      7          1           0       -1.167162    0.882581   -0.510702
      8          1           0       -1.167137    0.000992    1.019698
 ---------------------------------------------------------------------
                    Distance matrix (angstroms):
                    1          2          3          4          5
     1  C    0.000000
     2  C    1.557715   0.000000
     3  H    2.197024   1.091136   0.000000
     4  H    1.091135   2.197019   2.547382   0.000000
     5  H    2.197019   1.091135   1.766161   3.099751   0.000000
     6  H    2.197006   1.091136   1.766161   2.547369   1.766157
     7  H    1.091136   2.197024   3.099759   1.766160   2.547383
     8  H    1.091136   2.197006   2.547372   1.766157   2.547370
                    6          7          8
     6  H    0.000000
     7  H    2.547371   0.000000
     8  H    3.099733   1.766161   0.000000
 Symmetry turned off by external request.
 Stoichiometry    C2H6
 Framework group  C1[X(C2H6)]
 Deg. of freedom    18
 Full point group                 C1      NOp   1
 Rotational constants (GHZ):          80.3789305          19.4821926          19.4821811
 Leave Link  202 at Tue Nov 19 11:54:07 2024, MaxMem=  1073741824 cpu:               0.5 elap:               0.0
 (Enter /home/szhao/Apps/g16/l301.exe)
 Standard basis: 6-311+G(d,p) (5D, 7F)
 Ernie: Thresh=  0.10000D-02 Tol=  0.10000D-05 Strict=F.
    80 basis functions,   120 primitive gaussians,    82 cartesian basis functions
     9 alpha electrons        9 beta electrons
       nuclear repulsion energy        41.9162203091 Hartrees.
 IExCor= 4336 DFT=T Ex+Corr=M062X ExCW=0 ScaHFX=  0.540000
 ScaDFX=  1.000000  1.000000  1.000000  1.000000 ScalE2=  1.000000  1.000000
 IRadAn=      7 IRanWt=     -1 IRanGd=            0 ICorTp=0 IEmpDi=  4
 NAtoms=    8 NActive=    8 NUniq=    8 SFac= 1.00D+00 NAtFMM=   60 NAOKFM=F Big=F
 Integral buffers will be    131072 words long.
 Raffenetti 2 integral format.
 Two-electron integral symmetry is turned off.
 Leave Link  301 at Tue Nov 19 11:54:07 2024, MaxMem=  1073741824 cpu:               1.2 elap:               0.1
 (Enter /home/szhao/Apps/g16/l302.exe)
 NPDir=0 NMtPBC=     1 NCelOv=     1 NCel=       1 NClECP=     1 NCelD=      1
         NCelK=      1 NCelE2=     1 NClLst=     1 CellRange=     0.0.
 One-electron integrals computed using PRISM.
 NBasis=    80 RedAO= T EigKep=  2.01D-04  NBF=    80
 NBsUse=    80 1.00D-06 EigRej= -1.00D+00 NBFU=    80
 Precomputing XC quadrature grid using
 IXCGrd= 4 IRadAn=           7 IRanWt=          -1 IRanGd=           0 AccXCQ= 0.00D+00.
 Generated NRdTot=       0 NPtTot=           0 NUsed=           0 NTot=          32
 NSgBfM=    82    82    82    82    82 MxSgAt=     8 MxSgA2=     8.
 Leave Link  302 at Tue Nov 19 11:54:08 2024, MaxMem=  1073741824 cpu:               4.6 elap:               0.2
 (Enter /home/szhao/Apps/g16/l303.exe)
 DipDrv:  MaxL=1.
 Leave Link  303 at Tue Nov 19 11:54:08 2024, MaxMem=  1073741824 cpu:               1.2 elap:               0.1
 (Enter /home/szhao/Apps/g16/l401.exe)
 Initial guess from the checkpoint file:  "opt.chk"
 B after Tr=     0.000000    0.000001    0.000002
         Rot=    1.000000   -0.000000   -0.000001    0.000002 Ang=  -0.00 deg.
 Guess basis will be translated and rotated to current coordinates.
 JPrj=2 DoOrth=T DoCkMO=T.
 Initial guess <Sx>= 0.0000 <Sy>= 0.0000 <Sz>= 0.0000 <S**2>= 0.0000 S= 0.0000
 Leave Link  401 at Tue Nov 19 11:54:08 2024, MaxMem=  1073741824 cpu:               2.3 elap:               0.1
 (Enter /home/szhao/Apps/g16/l502.exe)
 Keep R1 and R2 ints in memory in canonical form, NReq=32326806.
 FoFCou: FMM=F IPFlag=           0 FMFlag=           0 FMFlg1=           0
         NFxFlg=           0 DoJE=F BraDBF=F KetDBF=F FulRan=T
         wScrn=  0.000000 ICntrl=       600 IOpCl=  0 I1Cent=           0 NGrid=           0
         NMat0=    1 NMatS0=   3240 NMatT0=    0 NMatD0=    1 NMtDS0=    0 NMtDT0=    0
 Symmetry not used in FoFCou.
 Two-electron integral symmetry not used.
 UHF open shell SCF:
 Using DIIS extrapolation, IDIIS=  1040.
 NGot=  1073741824 LenX=  1063224738 LenY=  1063217573
 Requested convergence on RMS density matrix=1.00D-08 within 128 cycles.
 Requested convergence on MAX density matrix=1.00D-06.
 Requested convergence on             energy=1.00D-06.
 No special actions if energy rises.

 Cycle   1  Pass 1  IDiag  1:
 E= -79.7966190041361    
 DIIS: error= 2.19D-04 at cycle   1 NSaved=   1.
 NSaved= 1 IEnMin= 1 EnMin= -79.7966190041361     IErMin= 1 ErrMin= 2.19D-04
 ErrMax= 2.19D-04  0.00D+00 EMaxC= 1.00D-01 BMatC= 5.24D-06 BMatP= 5.24D-06
 IDIUse=3 WtCom= 9.98D-01 WtEn= 2.19D-03
 Coeff-Com:  0.100D+01
 Coeff-En:   0.100D+01
 Coeff:      0.100D+01
 Gap=     0.629 Goal=   None    Shift=    0.000
 Gap=     0.629 Goal=   None    Shift=    0.000
 RMSDP=1.26D-05 MaxDP=1.40D-04              OVMax= 3.68D-04

 Cycle   2  Pass 1  IDiag  1:
 E= -79.7966203505374     Delta-E=       -0.000001346401 Rises=F Damp=F
 DIIS: error= 6.62D-05 at cycle   2 NSaved=   2.
 NSaved= 2 IEnMin= 2 EnMin= -79.7966203505374     IErMin= 2 ErrMin= 6.62D-05
 ErrMax= 6.62D-05  0.00D+00 EMaxC= 1.00D-01 BMatC= 2.43D-07 BMatP= 5.24D-06
 IDIUse=1 WtCom= 1.00D+00 WtEn= 0.00D+00
 Coeff-Com:  0.947D-02 0.991D+00
 Coeff:      0.947D-02 0.991D+00
 Gap=     0.428 Goal=   None    Shift=    0.000
 Gap=     0.428 Goal=   None    Shift=    0.000
 RMSDP=3.26D-06 MaxDP=6.22D-05 DE=-1.35D-06 OVMax= 1.64D-04

 Cycle   3  Pass 1  IDiag  1:
 E= -79.7966203881891     Delta-E=       -0.000000037652 Rises=F Damp=F
 DIIS: error= 3.23D-05 at cycle   3 NSaved=   3.
 NSaved= 3 IEnMin= 3 EnMin= -79.7966203881891     IErMin= 3 ErrMin= 3.23D-05
 ErrMax= 3.23D-05  0.00D+00 EMaxC= 1.00D-01 BMatC= 1.39D-07 BMatP= 2.43D-07
 IDIUse=1 WtCom= 1.00D+00 WtEn= 0.00D+00
 Coeff-Com: -0.408D-01 0.438D+00 0.603D+00
 Coeff:     -0.408D-01 0.438D+00 0.603D+00
 Gap=     0.428 Goal=   None    Shift=    0.000
 Gap=     0.428 Goal=   None    Shift=    0.000
 RMSDP=1.37D-06 MaxDP=3.00D-05 DE=-3.77D-08 OVMax= 4.70D-05

 Cycle   4  Pass 1  IDiag  1:
 E= -79.7966204223584     Delta-E=       -0.000000034169 Rises=F Damp=F
 DIIS: error= 2.63D-06 at cycle   4 NSaved=   4.
 NSaved= 4 IEnMin= 4 EnMin= -79.7966204223584     IErMin= 4 ErrMin= 2.63D-06
 ErrMax= 2.63D-06  0.00D+00 EMaxC= 1.00D-01 BMatC= 1.13D-09 BMatP= 1.39D-07
 IDIUse=1 WtCom= 1.00D+00 WtEn= 0.00D+00
 Coeff-Com: -0.824D-02 0.388D-01 0.102D+00 0.867D+00
 Coeff:     -0.824D-02 0.388D-01 0.102D+00 0.867D+00
 Gap=     0.428 Goal=   None    Shift=    0.000
 Gap=     0.428 Goal=   None    Shift=    0.000
 RMSDP=1.88D-07 MaxDP=3.09D-06 DE=-3.42D-08 OVMax= 7.61D-06

 Cycle   5  Pass 1  IDiag  1:
 E= -79.7966204226758     Delta-E=       -0.000000000317 Rises=F Damp=F
 DIIS: error= 4.92D-07 at cycle   5 NSaved=   5.
 NSaved= 5 IEnMin= 5 EnMin= -79.7966204226758     IErMin= 5 ErrMin= 4.92D-07
 ErrMax= 4.92D-07  0.00D+00 EMaxC= 1.00D-01 BMatC= 2.71D-11 BMatP= 1.13D-09
 IDIUse=1 WtCom= 1.00D+00 WtEn= 0.00D+00
 Coeff-Com:  0.140D-02-0.178D-01-0.244D-01 0.467D-01 0.994D+00
 Coeff:      0.140D-02-0.178D-01-0.244D-01 0.467D-01 0.994D+00
 Gap=     0.428 Goal=   None    Shift=    0.000
 Gap=     0.428 Goal=   None    Shift=    0.000
 RMSDP=5.90D-08 MaxDP=6.05D-07 DE=-3.17D-10 OVMax= 1.96D-06

 Cycle   6  Pass 1  IDiag  1:
 E= -79.7966204226865     Delta-E=       -0.000000000011 Rises=F Damp=F
 DIIS: error= 2.95D-08 at cycle   6 NSaved=   6.
 NSaved= 6 IEnMin= 6 EnMin= -79.7966204226865     IErMin= 6 ErrMin= 2.95D-08
 ErrMax= 2.95D-08  0.00D+00 EMaxC= 1.00D-01 BMatC= 1.34D-13 BMatP= 2.71D-11
 IDIUse=1 WtCom= 1.00D+00 WtEn= 0.00D+00
 Coeff-Com: -0.903D-04 0.162D-02 0.157D-02-0.160D-01-0.863D-01 0.110D+01
 Coeff:     -0.903D-04 0.162D-02 0.157D-02-0.160D-01-0.863D-01 0.110D+01
 Gap=     0.428 Goal=   None    Shift=    0.000
 Gap=     0.428 Goal=   None    Shift=    0.000
 RMSDP=7.33D-09 MaxDP=9.26D-08 DE=-1.07D-11 OVMax= 1.86D-07

 SCF Done:  E(UM062X) =  -79.7966204227     A.U. after    6 cycles
            NFock=  6  Conv=0.73D-08     -V/T= 2.0055
 <Sx>= 0.0000 <Sy>= 0.0000 <Sz>= 0.0000 <S**2>=-0.0000 S=-0.0000
 <L.S>=  0.00000000000    
 KE= 7.935713199432D+01 PE=-2.679792379561D+02 EE= 6.690926522996D+01
 Annihilation of the first spin contaminant:
 S**2 before annihilation    -0.0000,   after     0.0000
 Leave Link  502 at Tue Nov 19 11:54:11 2024, MaxMem=  1073741824 cpu:              69.9 elap:               3.0
 (Enter /home/szhao/Apps/g16/l701.exe)
 ... and contract with generalized density number  0.
 Compute integral first derivatives.
 Leave Link  701 at Tue Nov 19 11:54:11 2024, MaxMem=  1073741824 cpu:               2.5 elap:               0.1
 (Enter /home/szhao/Apps/g16/l702.exe)
 L702 exits ... SP integral derivatives will be done elsewhere.
 Leave Link  702 at Tue Nov 19 11:54:11 2024, MaxMem=  1073741824 cpu:               1.0 elap:               0.1
 (Enter /home/szhao/Apps/g16/l703.exe)
 Integral derivatives from FoFJK, PRISM(SPDF).
 Compute integral first derivatives, UseDBF=F ICtDFT=           0.
 Calling FoFJK, ICntrl=      2127 FMM=F ISym2X=0 I1Cent= 0 IOpClX= 1 NMat=1 NMatS=1 NMatT=0.
 FoFJK:  IHMeth= 1 ICntrl=    2127 DoSepK=F KAlg= 0 I1Cent=           0 FoldK=F
 IRaf=         0 NMat=       1 IRICut=       1 DoRegI=T DoRafI=F ISym2E= 0 IDoP0=0 IntGTp=1.
 FoFCou: FMM=F IPFlag=           0 FMFlag=      100000 FMFlg1=         800
         NFxFlg=           0 DoJE=F BraDBF=F KetDBF=F FulRan=T
         wScrn=  0.000000 ICntrl=      2127 IOpCl=  1 I1Cent=           0 NGrid=           0
         NMat0=    1 NMatS0=      1 NMatT0=    0 NMatD0=    1 NMtDS0=    0 NMtDT0=    0
 Symmetry not used in FoFCou.
 Leave Link  703 at Tue Nov 19 11:54:12 2024, MaxMem=  1073741824 cpu:              21.8 elap:               0.9
 (Enter /home/szhao/Apps/g16/l716.exe)
 Dipole        =-8.91059670D-10-2.56138301D-08-7.05756609D-08
 -------------------------------------------------------------------
 Center     Atomic                   Forces (Hartrees/Bohr)
 Number     Number              X              Y              Z
 -------------------------------------------------------------------
      1        6          -0.000000000   -0.000000000   -0.000000000
      2        6          -0.000000000   -0.000000000   -0.000000000
      3        1          -0.000000652    0.000003437   -0.000002037
      4        1           0.000000034    0.000003009    0.000001539
      5        1          -0.000000023   -0.000002963   -0.000001486
      6        1           0.000000350   -0.000000233    0.000003129
      7        1           0.000000658   -0.000003433    0.000002073
      8        1          -0.000000352    0.000000246   -0.000003056
 -------------------------------------------------------------------
 Cartesian Forces:  Max     0.000003437 RMS     0.000001765
 Leave Link  716 at Tue Nov 19 11:54:13 2024, MaxMem=  1073741824 cpu:               0.9 elap:               0.1
 (Enter /home/szhao/Apps/g16/l103.exe)

 GradGradGradGradGradGradGradGradGradGradGradGradGradGradGradGradGradGrad
 Berny optimization.
 Using GEDIIS/GDIIS optimizer.
 FormGI is forming the generalized inverse of G from B-inverse, IUseBI=4.
 Internal  Forces:  Max     0.000003981 RMS     0.000001600
 Search for a local minimum.
 Step number   3 out of a maximum of   43
 All quantities printed in internal units (Hartrees-Bohrs-Radians)
 RMS Force = .17627D-05 SwitMx=.10000D-02 MixMth= 2
 Mixed Optimization -- En-DIIS/RFO-DIIS
 Swapping is turned off.
 Update second derivatives using D2CorX and points    1    2    3
 DE= -5.43D-06 DEPred=-5.51D-06 R= 9.85D-01
 TightC=F SS=  1.41D+00  RLast= 8.84D-03 DXNew= 5.0454D-01 2.6532D-02
 Trust test= 9.85D-01 RLast= 8.84D-03 DXMaxT set to 3.00D-01
 ITU=  1  1  0
     Eigenvalues ---    0.00230   0.05460   0.05460   0.05460   0.05460
     Eigenvalues ---    0.13606   0.16000   0.16000   0.16000   0.16000
     Eigenvalues ---    0.16000   0.34226   0.34275   0.34276   0.34278
     Eigenvalues ---    0.34287   0.342921000.000001000.000001000.00000
     Eigenvalues --- 1000.000001000.000001000.000001000.000001000.00000
     Eigenvalues --- 1000.000001000.000001000.000001000.000001000.00000
     Eigenvalues --- 1000.000001000.000001000.00000
 En-DIIS/RFO-DIIS/Sim-DIIS IScMMF=       -3 using points:     3    2
 RFO step:  Lambda=-2.56621447D-10.
 NNeg= 0 NGDIIS= 2 SimSw=  2.50D-03 Rises=F DC= -5.43D-06 SmlDif=  1.00D-05
 NRisDI= 0 DoIntr=F SqrtH=F CThrHd= 10.0 CDAdj=  3.0
 RMS Error=  0.6667870029D-05 NUsed= 2 OKEnD=F EnDIS=F
 InvSVX:  RCond= 8.80D-05 Info=           0 Equed=N FErr=  8.91D-16 BErr=  1.68D-17
 DidBck=F Rises=F RFO-DIIS coefs:    0.99746    0.00254
 Iteration  1 RMS(Cart)=  0.00000873 RMS(Int)=  0.00000000
 Iteration  2 RMS(Cart)=  0.00000000 RMS(Int)=  0.00000000
 ITry= 1 IFail=0 DXMaxC= 2.01D-05 DCOld= 1.00D+10 DXMaxT= 3.00D-01 DXLimC= 3.00D+00 Rises=F
 Variable       Old X    -DE/DX   Delta X   Delta X   Delta X     New X
                                 (Linear)    (Quad)   (Total)
    X1       -1.47175   0.00000   0.00000   0.00000   0.00000  -1.47175
    Y1        0.00000   0.00000   0.00000   0.00000   0.00000   0.00000
    Z1        0.00000  -0.00000   0.00000   0.00000   0.00000   0.00000
    X2        1.47190  -0.00000   0.00000   0.00000   0.00000   1.47190
    Y2        0.00000  -0.00000   0.00000   0.00000   0.00000   0.00000
    Z2        0.00000   0.00000   0.00000   0.00000   0.00000   0.00000
    R1        2.06195  -0.00000   0.00000  -0.00001  -0.00001   2.06194
    R2        2.06195  -0.00000   0.00000  -0.00001  -0.00001   2.06194
    R3        2.06195  -0.00000   0.00000  -0.00001  -0.00001   2.06194
    R4        2.06195  -0.00000   0.00000  -0.00001  -0.00001   2.06194
    R5        2.06195  -0.00000   0.00000  -0.00001  -0.00001   2.06194
    R6        2.06195  -0.00000   0.00000  -0.00001  -0.00001   2.06194
    A1        1.93468   0.00000   0.00001   0.00000   0.00001   1.93469
    A2        1.93468   0.00000   0.00001  -0.00000   0.00000   1.93468
    A3        1.93466   0.00000   0.00001   0.00001   0.00001   1.93467
    A4        1.88600  -0.00000  -0.00001  -0.00000  -0.00001   1.88599
    A5        1.88599  -0.00000  -0.00001   0.00000  -0.00001   1.88598
    A6        1.88599  -0.00000  -0.00001  -0.00000  -0.00001   1.88599
    A7        1.93468   0.00000   0.00001  -0.00000   0.00000   1.93468
    A8        1.93468   0.00000   0.00001   0.00000   0.00001   1.93469
    A9        1.93466   0.00000   0.00001   0.00001   0.00001   1.93467
   A10        1.88600  -0.00000  -0.00001  -0.00000  -0.00001   1.88599
   A11        1.88599  -0.00000  -0.00001  -0.00000  -0.00001   1.88599
   A12        1.88599  -0.00000  -0.00001   0.00000  -0.00001   1.88598
    D1       -1.04719  -0.00000   0.00000  -0.00000  -0.00000  -1.04719
    D2        3.14159   0.00000  -0.00000   0.00000   0.00000   3.14159
    D3        1.04721  -0.00000   0.00000  -0.00001  -0.00001   1.04720
    D4       -3.14159  -0.00000   0.00000  -0.00000  -0.00000  -3.14159
    D5        1.04719   0.00000  -0.00000   0.00000   0.00000   1.04719
    D6       -1.04720  -0.00000   0.00000  -0.00000  -0.00000  -1.04720
    D7        1.04720   0.00000  -0.00000   0.00000   0.00000   1.04720
    D8       -1.04721   0.00000  -0.00000   0.00001   0.00001  -1.04720
    D9        3.14159   0.00000  -0.00000   0.00000   0.00000   3.14159
         Item               Value     Threshold  Converged?
 Maximum Force            0.000004     0.000450     YES
 RMS     Force            0.000002     0.000300     YES
 Maximum Displacement     0.000020     0.001800     YES
 RMS     Displacement     0.000009     0.001200     YES
 Predicted change in Energy=-1.554191D-10
 Optimization completed.
    -- Stationary point found.
                           ----------------------------
                           !   Optimized Parameters   !
                           ! (Angstroms and Degrees)  !
 --------------------------                            --------------------------
 ! Name  Definition              Value          Derivative Info.                !
 --------------------------------------------------------------------------------
 ! X1    R(1,-1)                -0.7788         -DE/DX =    0.0                 !
 ! Y1    R(1,-2)                 0.0            -DE/DX =    0.0                 !
 ! Z1    R(1,-3)                 0.0            -DE/DX =    0.0                 !
 ! X2    R(2,-1)                 0.7789         -DE/DX =    0.0                 !
 ! Y2    R(2,-2)                 0.0            -DE/DX =    0.0                 !
 ! Z2    R(2,-3)                 0.0            -DE/DX =    0.0                 !
 ! R1    R(1,4)                  1.0911         -DE/DX =    0.0                 !
 ! R2    R(1,7)                  1.0911         -DE/DX =    0.0                 !
 ! R3    R(1,8)                  1.0911         -DE/DX =    0.0                 !
 ! R4    R(2,3)                  1.0911         -DE/DX =    0.0                 !
 ! R5    R(2,5)                  1.0911         -DE/DX =    0.0                 !
 ! R6    R(2,6)                  1.0911         -DE/DX =    0.0                 !
 ! A1    A(2,1,4)              110.8488         -DE/DX =    0.0                 !
 ! A2    A(2,1,7)              110.8491         -DE/DX =    0.0                 !
 ! A3    A(2,1,8)              110.8477         -DE/DX =    0.0                 !
 ! A4    A(4,1,7)              108.0596         -DE/DX =    0.0                 !
 ! A5    A(4,1,8)              108.0593         -DE/DX =    0.0                 !
 ! A6    A(7,1,8)              108.0595         -DE/DX =    0.0                 !
 ! A7    A(1,2,3)              110.8491         -DE/DX =    0.0                 !
 ! A8    A(1,2,5)              110.8488         -DE/DX =    0.0                 !
 ! A9    A(1,2,6)              110.8477         -DE/DX =    0.0                 !
 ! A10   A(3,2,5)              108.0596         -DE/DX =    0.0                 !
 ! A11   A(3,2,6)              108.0595         -DE/DX =    0.0                 !
 ! A12   A(5,2,6)              108.0593         -DE/DX =    0.0                 !
 ! D1    D(4,1,2,3)            -59.9993         -DE/DX =    0.0                 !
 ! D2    D(4,1,2,5)            180.0            -DE/DX =    0.0                 !
 ! D3    D(4,1,2,6)             60.0006         -DE/DX =    0.0                 !
 ! D4    D(7,1,2,3)           -180.0            -DE/DX =    0.0                 !
 ! D5    D(7,1,2,5)             59.9993         -DE/DX =    0.0                 !
 ! D6    D(7,1,2,6)            -60.0001         -DE/DX =    0.0                 !
 ! D7    D(8,1,2,3)             60.0001         -DE/DX =    0.0                 !
 ! D8    D(8,1,2,5)            -60.0006         -DE/DX =    0.0                 !
 ! D9    D(8,1,2,6)            180.0            -DE/DX =    0.0                 !
 --------------------------------------------------------------------------------
 Lowest energy point so far.  Saving SCF results.
 Largest change from initial coordinates is atom    7       0.015 Angstoms.
 GradGradGradGradGradGradGradGradGradGradGradGradGradGradGradGradGradGrad

 Leave Link  103 at Tue Nov 19 11:54:13 2024, MaxMem=  1073741824 cpu:               1.3 elap:               0.1
 (Enter /home/szhao/Apps/g16/l202.exe)
                          Input orientation:                          
 ---------------------------------------------------------------------
 Center     Atomic      Atomic             Coordinates (Angstroms)
 Number     Number       Type             X           Y           Z
 ---------------------------------------------------------------------
      1          6           0       -0.778818    0.000000    0.000000
      2          6           0        0.778898    0.000000    0.000000
      3          1           0        1.167242   -0.882581    0.510702
      4          1           0       -1.167156   -0.883579   -0.508977
      5          1           0        1.167236    0.883579    0.508976
      6          1           0        1.167216   -0.000992   -1.019699
      7          1           0       -1.167162    0.882581   -0.510702
      8          1           0       -1.167137    0.000992    1.019698
 ---------------------------------------------------------------------
                    Distance matrix (angstroms):
                    1          2          3          4          5
     1  C    0.000000
     2  C    1.557715   0.000000
     3  H    2.197024   1.091136   0.000000
     4  H    1.091135   2.197019   2.547382   0.000000
     5  H    2.197019   1.091135   1.766161   3.099751   0.000000
     6  H    2.197006   1.091136   1.766161   2.547369   1.766157
     7  H    1.091136   2.197024   3.099759   1.766160   2.547383
     8  H    1.091136   2.197006   2.547372   1.766157   2.547370
                    6          7          8
     6  H    0.000000
     7  H    2.547371   0.000000
     8  H    3.099733   1.766161   0.000000
 Symmetry turned off by external request.
 Stoichiometry    C2H6
 Framework group  C1[X(C2H6)]
 Deg. of freedom    18
 Full point group                 C1      NOp   1
 Rotational constants (GHZ):          80.3789305          19.4821926          19.4821811
 Leave Link  202 at Tue Nov 19 11:54:13 2024, MaxMem=  1073741824 cpu:               0.4 elap:               0.0
 (Enter /home/szhao/Apps/g16/l601.exe)
 Copying SCF densities to generalized density rwf, IOpCl= 1 IROHF=0.

 **********************************************************************

            Population analysis using the SCF density.

 **********************************************************************

 Alpha  occ. eigenvalues --  -10.52354 -10.52321  -0.84290  -0.70198  -0.50039
 Alpha  occ. eigenvalues --   -0.50039  -0.42031  -0.40610  -0.40610
 Alpha virt. eigenvalues --    0.02190   0.04066   0.05506   0.05506   0.08758
 Alpha virt. eigenvalues --    0.08758   0.08954   0.13891   0.18691   0.18691
 Alpha virt. eigenvalues --    0.21179   0.21179   0.24146   0.26645   0.28501
 Alpha virt. eigenvalues --    0.42894   0.42894   0.48156   0.48157   0.48608
 Alpha virt. eigenvalues --    0.62934   0.65395   0.65395   0.67700   0.67700
 Alpha virt. eigenvalues --    0.69804   0.77923   0.88988   0.93513   1.01683
 Alpha virt. eigenvalues --    1.01683   1.30636   1.30636   1.51417   1.52070
 Alpha virt. eigenvalues --    1.57649   1.57650   1.58124   1.58124   1.58774
 Alpha virt. eigenvalues --    1.73456   1.73456   1.77184   1.86393   1.86394
 Alpha virt. eigenvalues --    2.07908   2.13482   2.15907   2.15908   2.35713
 Alpha virt. eigenvalues --    2.35714   2.41386   2.49875   2.49875   2.52927
 Alpha virt. eigenvalues --    2.61018   2.61018   2.65033   2.65034   2.67916
 Alpha virt. eigenvalues --    2.67917   2.81349   2.85369   3.16173   3.84708
 Alpha virt. eigenvalues --    3.84709   3.85066   3.85066   4.23248  23.97668
 Alpha virt. eigenvalues --   24.08380
  Beta  occ. eigenvalues --  -10.52354 -10.52321  -0.84290  -0.70198  -0.50039
  Beta  occ. eigenvalues --   -0.50039  -0.42031  -0.40610  -0.40610
  Beta virt. eigenvalues --    0.02190   0.04066   0.05506   0.05506   0.08758
  Beta virt. eigenvalues --    0.08758   0.08954   0.13891   0.18691   0.18691
  Beta virt. eigenvalues --    0.21179   0.21179   0.24146   0.26645   0.28501
  Beta virt. eigenvalues --    0.42894   0.42894   0.48156   0.48157   0.48608
  Beta virt. eigenvalues --    0.62934   0.65395   0.65395   0.67700   0.67700
  Beta virt. eigenvalues --    0.69804   0.77923   0.88988   0.93513   1.01683
  Beta virt. eigenvalues --    1.01683   1.30636   1.30636   1.51417   1.52070
  Beta virt. eigenvalues --    1.57649   1.57650   1.58124   1.58124   1.58774
  Beta virt. eigenvalues --    1.73456   1.73456   1.77184   1.86393   1.86394
  Beta virt. eigenvalues --    2.07908   2.13482   2.15907   2.15908   2.35713
  Beta virt. eigenvalues --    2.35714   2.41386   2.49875   2.49875   2.52927
  Beta virt. eigenvalues --    2.61018   2.61018   2.65033   2.65034   2.67916
  Beta virt. eigenvalues --    2.67917   2.81349   2.85369   3.16173   3.84708
  Beta virt. eigenvalues --    3.84709   3.85066   3.85066   4.23248  23.97668
  Beta virt. eigenvalues --   24.08380
          Condensed to atoms (all electrons):
               1          2          3          4          5          6
     1  C    5.135884   0.223911  -0.042773   0.413660  -0.042774  -0.042778
     2  C    0.223911   5.135884   0.413659  -0.042774   0.413660   0.413661
     3  H   -0.042773   0.413659   0.537202  -0.006154  -0.030317  -0.030318
     4  H    0.413660  -0.042774  -0.006154   0.537203   0.007373  -0.006154
     5  H   -0.042774   0.413660  -0.030317   0.007373   0.537203  -0.030318
     6  H   -0.042778   0.413661  -0.030318  -0.006154  -0.030318   0.537205
     7  H    0.413659  -0.042773   0.007372  -0.030317  -0.006154  -0.006154
     8  H    0.413661  -0.042777  -0.006154  -0.030318  -0.006154   0.007373
               7          8
     1  C    0.413659   0.413661
     2  C   -0.042773  -0.042777
     3  H    0.007372  -0.006154
     4  H   -0.030317  -0.030318
     5  H   -0.006154  -0.006154
     6  H   -0.006154   0.007373
     7  H    0.537202  -0.030317
     8  H   -0.030317   0.537205
          Atomic-Atomic Spin Densities.
               1          2          3          4          5          6
     1  C    0.000000  -0.000000   0.000000   0.000000   0.000000   0.000000
     2  C   -0.000000  -0.000000  -0.000000  -0.000000  -0.000000  -0.000000
     3  H    0.000000  -0.000000   0.000000   0.000000   0.000000   0.000000
     4  H    0.000000  -0.000000   0.000000  -0.000000   0.000000   0.000000
     5  H    0.000000  -0.000000   0.000000   0.000000   0.000000   0.000000
     6  H    0.000000  -0.000000   0.000000   0.000000   0.000000   0.000000
     7  H    0.000000  -0.000000   0.000000  -0.000000  -0.000000   0.000000
     8  H    0.000000  -0.000000  -0.000000  -0.000000  -0.000000  -0.000000
               7          8
     1  C    0.000000   0.000000
     2  C   -0.000000  -0.000000
     3  H    0.000000  -0.000000
     4  H   -0.000000  -0.000000
     5  H   -0.000000  -0.000000
     6  H    0.000000  -0.000000
     7  H   -0.000000  -0.000000
     8  H   -0.000000  -0.000000
 Mulliken charges and spin densities:
               1          2
     1  C   -0.472449   0.000000
     2  C   -0.472449  -0.000000
     3  H    0.157483   0.000000
     4  H    0.157483  -0.000000
     5  H    0.157483   0.000000
     6  H    0.157483   0.000000
     7  H    0.157483  -0.000000
     8  H    0.157483  -0.000000
 Sum of Mulliken charges =  -0.00000  -0.00000
 Mulliken charges and spin densities with hydrogens summed into heavy atoms:
               1          2
     1  C   -0.000000   0.000000
     2  C    0.000000  -0.000000
 Electronic spatial extent (au):  <R**2>=            111.3363
 Charge=             -0.0000 electrons
 Dipole moment (field-independent basis, Debye):
    X=             -0.0000    Y=             -0.0000    Z=             -0.0000  Tot=              0.0000
 Quadrupole moment (field-independent basis, Debye-Ang):
   XX=            -15.6294   YY=            -14.9651   ZZ=            -14.9651
   XY=             -0.0000   XZ=              0.0000   YZ=             -0.0000
 Traceless Quadrupole moment (field-independent basis, Debye-Ang):
   XX=             -0.4429   YY=              0.2214   ZZ=              0.2214
   XY=             -0.0000   XZ=              0.0000   YZ=             -0.0000
 Octapole moment (field-independent basis, Debye-Ang**2):
  XXX=             -0.0019  YYY=              0.0000  ZZZ=              0.0000  XYY=             -0.0006
  XXY=              0.0000  XXZ=              0.0000  XZZ=             -0.0006  YZZ=              0.0000
  YYZ=              0.0000  XYZ=              0.0000
 Hexadecapole moment (field-independent basis, Debye-Ang**3):
 XXXX=            -98.6580 YYYY=            -30.2438 ZZZZ=            -30.2438 XXXY=             -0.0000
 XXXZ=              0.0002 YYYX=              0.0047 YYYZ=              0.0000 ZZZX=             -1.6014
 ZZZY=              0.0000 XXYY=            -20.1270 XXZZ=            -20.1272 YYZZ=            -10.0813
 XXYZ=             -0.0000 YYXZ=              1.6015 ZZXY=             -0.0047
 N-N= 4.191622030909D+01 E-N=-2.679792375596D+02  KE= 7.935713199432D+01
                          Isotropic Fermi Contact Couplings
        Atom                 a.u.       MegaHertz       Gauss      10(-4) cm-1
     1  C(13)             -0.00000      -0.00000      -0.00000      -0.00000
     2  C(13)             -0.00000      -0.00000      -0.00000      -0.00000
     3  H(1)              -0.00000      -0.00000      -0.00000      -0.00000
     4  H(1)               0.00000       0.00000       0.00000       0.00000
     5  H(1)               0.00000       0.00000       0.00000       0.00000
     6  H(1)              -0.00000      -0.00000      -0.00000      -0.00000
     7  H(1)              -0.00000      -0.00000      -0.00000      -0.00000
     8  H(1)               0.00000       0.00000       0.00000       0.00000
 --------------------------------------------------------
       Center         ----  Spin Dipole Couplings  ----
                      3XX-RR        3YY-RR        3ZZ-RR
 --------------------------------------------------------
     1   Atom        0.000000      0.000000      0.000000
     2   Atom        0.000000      0.000000      0.000000
     3   Atom        0.000000      0.000000      0.000000
     4   Atom        0.000000      0.000000      0.000000
     5   Atom        0.000000      0.000000      0.000000
     6   Atom        0.000000      0.000000      0.000000
     7   Atom        0.000000      0.000000      0.000000
     8   Atom        0.000000      0.000000      0.000000
 --------------------------------------------------------
                        XY            XZ            YZ
 --------------------------------------------------------
     1   Atom        0.000000      0.000000      0.000000
     2   Atom        0.000000      0.000000      0.000000
     3   Atom        0.000000      0.000000      0.000000
     4   Atom        0.000000      0.000000      0.000000
     5   Atom        0.000000      0.000000      0.000000
     6   Atom        0.000000      0.000000      0.000000
     7   Atom        0.000000      0.000000      0.000000
     8   Atom        0.000000      0.000000      0.000000
 --------------------------------------------------------


 ---------------------------------------------------------------------------------
              Anisotropic Spin Dipole Couplings in Principal Axis System
 ---------------------------------------------------------------------------------

       Atom             a.u.   MegaHertz   Gauss  10(-4) cm-1        Axes

              Baa     0.0000     0.000     0.000     0.000  1.0000  0.0000  0.0000
     1 C(13)  Bbb     0.0000     0.000     0.000     0.000 -0.0000  1.0000  0.0000
              Bcc     0.0000     0.000     0.000     0.000  0.0000  0.0000  1.0000
 
              Baa     0.0000     0.000     0.000     0.000  1.0000  0.0000  0.0000
     2 C(13)  Bbb     0.0000     0.000     0.000     0.000 -0.0000  1.0000  0.0000
              Bcc     0.0000     0.000     0.000     0.000  0.0000  0.0000  1.0000
 
              Baa     0.0000     0.000     0.000     0.000  1.0000  0.0000  0.0000
     3 H(1)   Bbb     0.0000     0.000     0.000     0.000 -0.0000  1.0000  0.0000
              Bcc     0.0000     0.000     0.000     0.000  0.0000  0.0000  1.0000
 
              Baa     0.0000     0.000     0.000     0.000  1.0000  0.0000  0.0000
     4 H(1)   Bbb     0.0000     0.000     0.000     0.000 -0.0000  1.0000  0.0000
              Bcc     0.0000     0.000     0.000     0.000  0.0000  0.0000  1.0000
 
              Baa     0.0000     0.000     0.000     0.000  1.0000  0.0000  0.0000
     5 H(1)   Bbb     0.0000     0.000     0.000     0.000 -0.0000  1.0000  0.0000
              Bcc     0.0000     0.000     0.000     0.000  0.0000  0.0000  1.0000
 
              Baa     0.0000     0.000     0.000     0.000  1.0000  0.0000  0.0000
     6 H(1)   Bbb     0.0000     0.000     0.000     0.000 -0.0000  1.0000  0.0000
              Bcc     0.0000     0.000     0.000     0.000  0.0000  0.0000  1.0000
 
              Baa     0.0000     0.000     0.000     0.000  1.0000  0.0000  0.0000
     7 H(1)   Bbb     0.0000     0.000     0.000     0.000 -0.0000  1.0000  0.0000
              Bcc     0.0000     0.000     0.000     0.000  0.0000  0.0000  1.0000
 
              Baa     0.0000     0.000     0.000     0.000  1.0000  0.0000  0.0000
     8 H(1)   Bbb     0.0000     0.000     0.000     0.000 -0.0000  1.0000  0.0000
              Bcc     0.0000     0.000     0.000     0.000  0.0000  0.0000  1.0000
 

 ---------------------------------------------------------------------------------

 No NMR shielding tensors so no spin-rotation constants.
 Leave Link  601 at Tue Nov 19 11:54:13 2024, MaxMem=  1073741824 cpu:               3.6 elap:               0.2
 (Enter /home/szhao/Apps/g16/l9999.exe)
 1\1\GINC-NODE02\FOpt\UM062X\6-311+G(d,p)\C2H6\SZHAO\19-Nov-2024\0\\#p 
 opt UM062X/6-311+G** nosymm int=superfine\\Title Card Required\\0,1\C,
 -0.77881794,0.,0.\C,0.7788975,0.,0.\H,1.1672418258,-0.882581061,0.5107
 015285\H,-1.1671557564,-0.8835786242,-0.5089767349\H,1.1672357198,0.88
 35786129,0.5089761975\H,1.167215908,-0.0009920914,-1.0196985115\H,-1.1
 671622118,0.8825809142,-0.5107018829\H,-1.1671369124,0.0009917792,1.01
 96981667\\Version=ES64L-G16RevA.03\HF=-79.7966204\S2=0.\S2-1=0.\S2A=0.
 \RMSD=7.329e-09\RMSF=1.765e-06\Dipole=0.,0.,0.\Quadrupole=-0.3292673,0
 .1646397,0.1646276,-0.0000057,0.0000301,-0.0000074\PG=C01 [X(C2H6)]\\@


 TIMES HAVE CHANGED. IN THE BIBLE WHEN AN ASS
 SPOKE IT WAS CONSIDERED A MIRACLE.
 Job cpu time:       0 days  0 hours  6 minutes 35.8 seconds.
 Elapsed time:       0 days  0 hours  0 minutes 17.7 seconds.
 File lengths (MBytes):  RWF=     22 Int=      0 D2E=      0 Chk=      3 Scr=      2
 Normal termination of Gaussian 16 at Tue Nov 19 11:54:13 2024.
