 Entering Gaussian System, Link 0=g16
 Initial command:
 /home/szhao/Apps/g16/l1.exe "/home/szhao/tmp/Gau-110251.inp" -scrdir="/home/szhao/tmp/"
 Default is to use a total of  16 processors:
                               16 via shared-memory
                                1 via Linda
 Entering Link 1 = /home/szhao/Apps/g16/l1.exe PID=    110253.
  
 Copyright (c) 1988,1990,1992,1993,1995,1998,2003,2009,2016,
            Gaussian, Inc.  All Rights Reserved.
  
 This is part of the Gaussian(R) 16 program.  It is based on
 the Gaussian(R) 09 system (copyright 2009, Gaussian, Inc.),
 the Gaussian(R) 03 system (copyright 2003, Gaussian, Inc.),
 the Gaussian(R) 98 system (copyright 1998, Gaussian, Inc.),
 the Gaussian(R) 94 system (copyright 1995, Gaussian, Inc.),
 the Gaussian 92(TM) system (copyright 1992, Gaussian, Inc.),
 the Gaussian 90(TM) system (copyright 1990, Gaussian, Inc.),
 the Gaussian 88(TM) system (copyright 1988, Gaussian, Inc.),
 the Gaussian 86(TM) system (copyright 1986, Carnegie Mellon
 University), and the Gaussian 82(TM) system (copyright 1983,
 Carnegie Mellon University). Gaussian is a federally registered
 trademark of Gaussian, Inc.
  
 This software contains proprietary and confidential information,
 including trade secrets, belonging to Gaussian, Inc.
  
 This software is provided under written license and may be
 used, copied, transmitted, or stored only in accord with that
 written license.
  
 The following legend is applicable only to US Government
 contracts under FAR:
  
                    RESTRICTED RIGHTS LEGEND
  
 Use, reproduction and disclosure by the US Government is
 subject to restrictions as set forth in subparagraphs (a)
 and (c) of the Commercial Computer Software - Restricted
 Rights clause in FAR 52.227-19.
  
 Gaussian, Inc.
 340 Quinnipiac St., Bldg. 40, Wallingford CT 06492
  
  
 ---------------------------------------------------------------
 Warning -- This program may not be used in any manner that
 competes with the business of Gaussian, Inc. or will provide
 assistance to any competitor of Gaussian, Inc.  The licensee
 of this program is prohibited from giving any competitor of
 Gaussian, Inc. access to this program.  By using this program,
 the user acknowledges that Gaussian, Inc. is engaged in the
 business of creating and licensing software in the field of
 computational chemistry and represents and warrants to the
 licensee that it is not a competitor of Gaussian, Inc. and that
 it will not use this program in any manner prohibited above.
 ---------------------------------------------------------------
  

 Cite this work as:
 Gaussian 16, Revision A.03,
 M. J. Frisch, G. W. Trucks, H. B. Schlegel, G. E. Scuseria, 
 M. A. Robb, J. R. Cheeseman, G. Scalmani, V. Barone, 
 G. A. Petersson, H. Nakatsuji, X. Li, M. Caricato, A. V. Marenich, 
 J. Bloino, B. G. Janesko, R. Gomperts, B. Mennucci, H. P. Hratchian, 
 J. V. Ortiz, A. F. Izmaylov, J. L. Sonnenberg, D. Williams-Young, 
 F. Ding, F. Lipparini, F. Egidi, J. Goings, B. Peng, A. Petrone, 
 T. Henderson, D. Ranasinghe, V. G. Zakrzewski, J. Gao, N. Rega, 
 G. Zheng, W. Liang, M. Hada, M. Ehara, K. Toyota, R. Fukuda, 
 J. Hasegawa, M. Ishida, T. Nakajima, Y. Honda, O. Kitao, H. Nakai, 
 T. Vreven, K. Throssell, J. A. Montgomery, Jr., J. E. Peralta, 
 F. Ogliaro, M. J. Bearpark, J. J. Heyd, E. N. Brothers, K. N. Kudin, 
 V. N. Staroverov, T. A. Keith, R. Kobayashi, J. Normand, 
 K. Raghavachari, A. P. Rendell, J. C. Burant, S. S. Iyengar, 
 J. Tomasi, M. Cossi, J. M. Millam, M. Klene, C. Adamo, R. Cammi, 
 J. W. Ochterski, R. L. Martin, K. Morokuma, O. Farkas, 
 J. B. Foresman, and D. J. Fox, Gaussian, Inc., Wallingford CT, 2016.
 
 ******************************************
 Gaussian 16:  ES64L-G16RevA.03 25-Dec-2016
                19-Nov-2024 
 ******************************************
 %chk=opt.chk
 %mem=16GB
 %nprocshared=24
 Will use up to   24 processors via shared memory.
 ---------------------------------------
 #p UM062X/6-311+G** force int=superfine
 ---------------------------------------
 1/10=7,30=1,38=1/1,3;
 2/12=2,17=6,18=5,40=1/2;
 3/5=4,6=6,7=111,11=2,25=1,30=1,71=1,74=-55,75=-7,116=2/1,2,3;
 4//1;
 5/5=2,38=5/2;
 6/7=2,8=2,9=2,10=2,28=1/1;
 7/29=1/1,2,3,16;
 1/10=7,30=1/3;
 99//99;
 Leave Link    1 at Tue Nov 19 13:38:55 2024, MaxMem=  2147483648 cpu:               1.7 elap:               0.1
 (Enter /home/szhao/Apps/g16/l101.exe)
 -------------------
 Title Card Required
 -------------------
 Symbolic Z-matrix:
 Charge =  1 Multiplicity = 2
 C                    -0.90095   0.        0. 
 C                     0.90095   0.        0. 
 H                    -1.41943  -0.9351   -0.19954 
 H                     1.62286   0.02096   0.80268 
 
 ITRead=  0  0  0  0
 MicOpt= -1 -1 -1 -1
 NAtoms=      4 NQM=        4 NQMF=       0 NMMI=      0 NMMIF=      0
                NMic=       0 NMicF=      0.
                    Isotopes and Nuclear Properties:
 (Nuclear quadrupole moments (NQMom) in fm**2, nuclear magnetic moments (NMagM)
  in nuclear magnetons)

  Atom         1           2           3           4
 IAtWgt=          12          12           1           1
 AtmWgt=  12.0000000  12.0000000   1.0078250   1.0078250
 NucSpn=           0           0           1           1
 AtZEff=  -0.0000000  -0.0000000  -0.0000000  -0.0000000
 NQMom=    0.0000000   0.0000000   0.0000000   0.0000000
 NMagM=    0.0000000   0.0000000   2.7928460   2.7928460
 AtZNuc=   6.0000000   6.0000000   1.0000000   1.0000000
 Leave Link  101 at Tue Nov 19 13:38:55 2024, MaxMem=  2147483648 cpu:               5.0 elap:               0.3
 (Enter /home/szhao/Apps/g16/l103.exe)

 GradGradGradGradGradGradGradGradGradGradGradGradGradGradGradGradGradGrad
 Berny optimization.
 Initialization pass.
 Trust Radius=3.00D-01 FncErr=1.00D-07 GrdErr=1.00D-07 EigMax=2.50D+02 EigMin=1.00D-04
 Number of steps in this run=      2 maximum allowed number of steps=      2.
 GradGradGradGradGradGradGradGradGradGradGradGradGradGradGradGradGradGrad

 Leave Link  103 at Tue Nov 19 13:38:55 2024, MaxMem=  2147483648 cpu:               1.1 elap:               0.1
 (Enter /home/szhao/Apps/g16/l202.exe)
                          Input orientation:                          
 ---------------------------------------------------------------------
 Center     Atomic      Atomic             Coordinates (Angstroms)
 Number     Number       Type             X           Y           Z
 ---------------------------------------------------------------------
      1          6           0       -0.900947    0.000000    0.000000
      2          6           0        0.900947    0.000000    0.000000
      3          1           0       -1.419425   -0.935097   -0.199535
      4          1           0        1.622860    0.020960    0.802684
 ---------------------------------------------------------------------
                    Distance matrix (angstroms):
                    1          2          3          4
     1  C    0.000000
     2  C    1.801894   0.000000
     3  H    1.087676   2.509651   0.000000
     4  H    2.648460   1.079768   3.342751   0.000000
 Stoichiometry    C2H2(1+,2)
 Framework group  C1[X(C2H2)]
 Deg. of freedom     6
 Full point group                 C1      NOp   1
 Largest Abelian subgroup         C1      NOp   1
 Largest concise Abelian subgroup C1      NOp   1
                         Standard orientation:                         
 ---------------------------------------------------------------------
 Center     Atomic      Atomic             Coordinates (Angstroms)
 Number     Number       Type             X           Y           Z
 ---------------------------------------------------------------------
      1          6           0        0.903382   -0.167683    0.001999
      2          6           0       -0.877972    0.071436   -0.126152
      3          1           0        1.531773    0.702054    0.180106
      4          1           0       -1.684229   -0.124576    0.564810
 ---------------------------------------------------------------------
 Rotational constants (GHZ):         378.7426867          20.3328569          20.0648502
 Leave Link  202 at Tue Nov 19 13:38:55 2024, MaxMem=  2147483648 cpu:               0.1 elap:               0.0
 (Enter /home/szhao/Apps/g16/l301.exe)
 Standard basis: 6-311+G(d,p) (5D, 7F)
 Ernie: Thresh=  0.10000D-02 Tol=  0.10000D-05 Strict=F.
 There are    58 symmetry adapted cartesian basis functions of A   symmetry.
 There are    56 symmetry adapted basis functions of A   symmetry.
    56 basis functions,    88 primitive gaussians,    58 cartesian basis functions
     7 alpha electrons        6 beta electrons
       nuclear repulsion energy        19.0543299905 Hartrees.
 IExCor= 4336 DFT=T Ex+Corr=M062X ExCW=0 ScaHFX=  0.540000
 ScaDFX=  1.000000  1.000000  1.000000  1.000000 ScalE2=  1.000000  1.000000
 IRadAn=      7 IRanWt=     -1 IRanGd=            0 ICorTp=0 IEmpDi=  4
 NAtoms=    4 NActive=    4 NUniq=    4 SFac= 1.00D+00 NAtFMM=   60 NAOKFM=F Big=F
 Integral buffers will be    131072 words long.
 Raffenetti 2 integral format.
 Two-electron integral symmetry is turned on.
 Leave Link  301 at Tue Nov 19 13:38:56 2024, MaxMem=  2147483648 cpu:               2.7 elap:               0.2
 (Enter /home/szhao/Apps/g16/l302.exe)
 NPDir=0 NMtPBC=     1 NCelOv=     1 NCel=       1 NClECP=     1 NCelD=      1
         NCelK=      1 NCelE2=     1 NClLst=     1 CellRange=     0.0.
 One-electron integrals computed using PRISM.
 One-electron integral symmetry used in STVInt
 NBasis=    56 RedAO= T EigKep=  1.07D-03  NBF=    56
 NBsUse=    56 1.00D-06 EigRej= -1.00D+00 NBFU=    56
 Precomputing XC quadrature grid using
 IXCGrd= 4 IRadAn=           7 IRanWt=          -1 IRanGd=           0 AccXCQ= 0.00D+00.
 Generated NRdTot=       0 NPtTot=           0 NUsed=           0 NTot=          32
 NSgBfM=    58    58    58    58    58 MxSgAt=     4 MxSgA2=     4.
 Leave Link  302 at Tue Nov 19 13:38:56 2024, MaxMem=  2147483648 cpu:              11.6 elap:               0.7
 (Enter /home/szhao/Apps/g16/l303.exe)
 DipDrv:  MaxL=1.
 Leave Link  303 at Tue Nov 19 13:38:57 2024, MaxMem=  2147483648 cpu:               3.0 elap:               0.2
 (Enter /home/szhao/Apps/g16/l401.exe)
 ExpMin= 4.38D-02 ExpMax= 4.56D+03 ExpMxC= 6.82D+02 IAcc=3 IRadAn=         7 AccDes= 0.00D+00
 Harris functional with IExCor= 1009 and IRadAn=       7 diagonalized for initial guess.
 HarFok:  IExCor= 1009 AccDes= 0.00D+00 IRadAn=         7 IDoV= 1 UseB2=F ITyADJ=14
 ICtDFT=  3500011 ScaDFX=  1.000000  1.000000  1.000000  1.000000
 FoFCou: FMM=F IPFlag=           0 FMFlag=      100000 FMFlg1=           0
         NFxFlg=           0 DoJE=T BraDBF=F KetDBF=T FulRan=T
         wScrn=  0.000000 ICntrl=       500 IOpCl=  0 I1Cent=   200000004 NGrid=           0
         NMat0=    1 NMatS0=      1 NMatT0=    0 NMatD0=    1 NMtDS0=    0 NMtDT0=    0
 Petite list used in FoFCou.
 Harris En= -76.7634061820430    
 JPrj=0 DoOrth=F DoCkMO=F.
 Initial guess <Sx>= 0.0000 <Sy>= 0.0000 <Sz>= 0.5000 <S**2>= 0.7500 S= 0.5000
 Leave Link  401 at Tue Nov 19 13:38:58 2024, MaxMem=  2147483648 cpu:              16.3 elap:               1.0
 (Enter /home/szhao/Apps/g16/l502.exe)
 Keep R1 and R2 ints in memory in canonical form, NReq=23774428.
 FoFCou: FMM=F IPFlag=           0 FMFlag=           0 FMFlg1=           0
         NFxFlg=           0 DoJE=F BraDBF=F KetDBF=F FulRan=T
         wScrn=  0.000000 ICntrl=       600 IOpCl=  0 I1Cent=           0 NGrid=           0
         NMat0=    1 NMatS0=   1596 NMatT0=    0 NMatD0=    1 NMtDS0=    0 NMtDT0=    0
 Symmetry not used in FoFCou.
 Two-electron integral symmetry not used.
 UHF open shell SCF:
 Using DIIS extrapolation, IDIIS=  1040.
 NGot=  2147483648 LenX=  2144926012 LenY=  2144922207
 Requested convergence on RMS density matrix=1.00D-08 within 128 cycles.
 Requested convergence on MAX density matrix=1.00D-06.
 Requested convergence on             energy=1.00D-06.
 No special actions if energy rises.

 Cycle   1  Pass 1  IDiag  1:
 E= -76.6902414196076    
 DIIS: error= 1.57D-02 at cycle   1 NSaved=   1.
 NSaved= 1 IEnMin= 1 EnMin= -76.6902414196076     IErMin= 1 ErrMin= 1.57D-02
 ErrMax= 1.57D-02  0.00D+00 EMaxC= 1.00D-01 BMatC= 8.64D-02 BMatP= 8.64D-02
 IDIUse=3 WtCom= 8.43D-01 WtEn= 1.57D-01
 Coeff-Com:  0.100D+01
 Coeff-En:   0.100D+01
 Coeff:      0.100D+01
 Gap=     0.229 Goal=   None    Shift=    0.000
 Gap=     0.198 Goal=   None    Shift=    0.000
 GapD=    0.198 DampG=1.000 DampE=0.500 DampFc=0.5000 IDamp=-1.
 Damping current iteration by 5.00D-01
 RMSDP=4.05D-03 MaxDP=9.20D-02              OVMax= 1.57D-01

 Cycle   2  Pass 1  IDiag  1:
 E= -76.6994669648672     Delta-E=       -0.009225545260 Rises=F Damp=T
 DIIS: error= 8.50D-03 at cycle   2 NSaved=   2.
 NSaved= 2 IEnMin= 2 EnMin= -76.6994669648672     IErMin= 2 ErrMin= 8.50D-03
 ErrMax= 8.50D-03  0.00D+00 EMaxC= 1.00D-01 BMatC= 2.20D-02 BMatP= 8.64D-02
 IDIUse=3 WtCom= 9.15D-01 WtEn= 8.50D-02
 Coeff-Com:  0.172D-01 0.983D+00
 Coeff-En:   0.541D-01 0.946D+00
 Coeff:      0.203D-01 0.980D+00
 Gap=     0.252 Goal=   None    Shift=    0.000
 Gap=     0.223 Goal=   None    Shift=    0.000
 RMSDP=2.24D-03 MaxDP=4.79D-02 DE=-9.23D-03 OVMax= 1.53D-01

 Cycle   3  Pass 1  IDiag  1:
 E= -76.7041526065543     Delta-E=       -0.004685641687 Rises=F Damp=F
 DIIS: error= 1.81D-02 at cycle   3 NSaved=   3.
 NSaved= 3 IEnMin= 3 EnMin= -76.7041526065543     IErMin= 2 ErrMin= 8.50D-03
 ErrMax= 1.81D-02  0.00D+00 EMaxC= 1.00D-01 BMatC= 4.17D-02 BMatP= 2.20D-02
 IDIUse=2 WtCom= 0.00D+00 WtEn= 1.00D+00
 Coeff-En:   0.000D+00 0.365D+00 0.635D+00
 Coeff:      0.000D+00 0.365D+00 0.635D+00
 Gap=     0.261 Goal=   None    Shift=    0.000
 Gap=     0.215 Goal=   None    Shift=    0.000
 RMSDP=2.43D-03 MaxDP=3.93D-02 DE=-4.69D-03 OVMax= 1.28D-01

 Cycle   4  Pass 1  IDiag  1:
 E= -76.7022722194397     Delta-E=        0.001880387115 Rises=F Damp=F
 DIIS: error= 1.95D-02 at cycle   4 NSaved=   4.
 NSaved= 4 IEnMin= 3 EnMin= -76.7041526065543     IErMin= 2 ErrMin= 8.50D-03
 ErrMax= 1.95D-02  0.00D+00 EMaxC= 1.00D-01 BMatC= 4.99D-02 BMatP= 2.20D-02
 IDIUse=2 WtCom= 0.00D+00 WtEn= 1.00D+00
 Coeff-En:   0.000D+00 0.000D+00 0.524D+00 0.476D+00
 Coeff:      0.000D+00 0.000D+00 0.524D+00 0.476D+00
 Gap=     0.243 Goal=   None    Shift=    0.000
 Gap=     0.217 Goal=   None    Shift=    0.000
 RMSDP=1.38D-03 MaxDP=2.15D-02 DE= 1.88D-03 OVMax= 7.91D-02

 Cycle   5  Pass 1  IDiag  1:
 E= -76.7188325313454     Delta-E=       -0.016560311906 Rises=F Damp=F
 DIIS: error= 2.59D-03 at cycle   5 NSaved=   5.
 NSaved= 5 IEnMin= 5 EnMin= -76.7188325313454     IErMin= 5 ErrMin= 2.59D-03
 ErrMax= 2.59D-03  0.00D+00 EMaxC= 1.00D-01 BMatC= 4.73D-04 BMatP= 2.20D-02
 IDIUse=3 WtCom= 9.74D-01 WtEn= 2.59D-02
 Coeff-Com: -0.205D+00 0.414D+00-0.257D+00-0.470D+00 0.152D+01
 Coeff-En:   0.000D+00 0.000D+00 0.000D+00 0.000D+00 0.100D+01
 Coeff:     -0.200D+00 0.404D+00-0.250D+00-0.458D+00 0.150D+01
 Gap=     0.247 Goal=   None    Shift=    0.000
 Gap=     0.217 Goal=   None    Shift=    0.000
 RMSDP=5.50D-04 MaxDP=6.77D-03 DE=-1.66D-02 OVMax= 4.27D-02

 Cycle   6  Pass 1  IDiag  1:
 E= -76.7200493513645     Delta-E=       -0.001216820019 Rises=F Damp=F
 DIIS: error= 1.98D-03 at cycle   6 NSaved=   6.
 NSaved= 6 IEnMin= 6 EnMin= -76.7200493513645     IErMin= 6 ErrMin= 1.98D-03
 ErrMax= 1.98D-03  0.00D+00 EMaxC= 1.00D-01 BMatC= 2.29D-04 BMatP= 4.73D-04
 IDIUse=3 WtCom= 9.80D-01 WtEn= 1.98D-02
 Coeff-Com: -0.592D-02 0.351D-01-0.121D+00-0.120D+00-0.669D+00 0.188D+01
 Coeff-En:   0.000D+00 0.000D+00 0.000D+00 0.000D+00 0.000D+00 0.100D+01
 Coeff:     -0.580D-02 0.344D-01-0.119D+00-0.118D+00-0.655D+00 0.186D+01
 Gap=     0.253 Goal=   None    Shift=    0.000
 Gap=     0.221 Goal=   None    Shift=    0.000
 RMSDP=7.62D-04 MaxDP=8.27D-03 DE=-1.22D-03 OVMax= 5.89D-02

 Cycle   7  Pass 1  IDiag  1:
 E= -76.7211761631511     Delta-E=       -0.001126811787 Rises=F Damp=F
 DIIS: error= 1.20D-03 at cycle   7 NSaved=   7.
 NSaved= 7 IEnMin= 7 EnMin= -76.7211761631511     IErMin= 7 ErrMin= 1.20D-03
 ErrMax= 1.20D-03  0.00D+00 EMaxC= 1.00D-01 BMatC= 9.17D-05 BMatP= 2.29D-04
 IDIUse=3 WtCom= 9.88D-01 WtEn= 1.20D-02
 Coeff-Com: -0.577D-03 0.506D-02 0.604D-01 0.718D-01 0.371D+00-0.179D+01
 Coeff-Com:  0.228D+01
 Coeff-En:   0.000D+00 0.000D+00 0.000D+00 0.000D+00 0.000D+00 0.000D+00
 Coeff-En:   0.100D+01
 Coeff:     -0.570D-03 0.500D-02 0.596D-01 0.709D-01 0.366D+00-0.177D+01
 Coeff:      0.227D+01
 Gap=     0.256 Goal=   None    Shift=    0.000
 Gap=     0.225 Goal=   None    Shift=    0.000
 RMSDP=6.76D-04 MaxDP=6.92D-03 DE=-1.13D-03 OVMax= 4.92D-02

 Cycle   8  Pass 1  IDiag  1:
 E= -76.7216500451476     Delta-E=       -0.000473881996 Rises=F Damp=F
 DIIS: error= 4.02D-04 at cycle   8 NSaved=   8.
 NSaved= 8 IEnMin= 8 EnMin= -76.7216500451476     IErMin= 8 ErrMin= 4.02D-04
 ErrMax= 4.02D-04  0.00D+00 EMaxC= 1.00D-01 BMatC= 2.40D-05 BMatP= 9.17D-05
 IDIUse=3 WtCom= 9.96D-01 WtEn= 4.02D-03
 Coeff-Com: -0.111D-01 0.181D-01 0.428D-02 0.172D-02 0.243D+00-0.269D+00
 Coeff-Com: -0.212D+00 0.122D+01
 Coeff-En:   0.000D+00 0.000D+00 0.000D+00 0.000D+00 0.000D+00 0.000D+00
 Coeff-En:   0.000D+00 0.100D+01
 Coeff:     -0.111D-01 0.180D-01 0.427D-02 0.171D-02 0.242D+00-0.268D+00
 Coeff:     -0.211D+00 0.122D+01
 Gap=     0.255 Goal=   None    Shift=    0.000
 Gap=     0.225 Goal=   None    Shift=    0.000
 RMSDP=1.31D-04 MaxDP=1.36D-03 DE=-4.74D-04 OVMax= 8.00D-03

 Cycle   9  Pass 1  IDiag  1:
 E= -76.7217100193628     Delta-E=       -0.000059974215 Rises=F Damp=F
 DIIS: error= 4.06D-04 at cycle   9 NSaved=   9.
 NSaved= 9 IEnMin= 9 EnMin= -76.7217100193628     IErMin= 8 ErrMin= 4.02D-04
 ErrMax= 4.06D-04  0.00D+00 EMaxC= 1.00D-01 BMatC= 1.15D-05 BMatP= 2.40D-05
 IDIUse=3 WtCom= 9.96D-01 WtEn= 4.02D-03
 Coeff-Com:  0.416D-02-0.881D-02-0.597D-02-0.381D-02-0.115D+00 0.255D+00
 Coeff-Com: -0.257D+00-0.294D+00 0.142D+01
 Coeff-En:   0.000D+00 0.000D+00 0.000D+00 0.000D+00 0.000D+00 0.000D+00
 Coeff-En:   0.000D+00 0.000D+00 0.100D+01
 Coeff:      0.415D-02-0.877D-02-0.594D-02-0.379D-02-0.115D+00 0.254D+00
 Coeff:     -0.256D+00-0.292D+00 0.142D+01
 Gap=     0.256 Goal=   None    Shift=    0.000
 Gap=     0.227 Goal=   None    Shift=    0.000
 RMSDP=1.64D-04 MaxDP=1.70D-03 DE=-6.00D-05 OVMax= 1.12D-02

 Cycle  10  Pass 1  IDiag  1:
 E= -76.7217684786316     Delta-E=       -0.000058459269 Rises=F Damp=F
 DIIS: error= 2.92D-04 at cycle  10 NSaved=  10.
 NSaved=10 IEnMin=10 EnMin= -76.7217684786316     IErMin=10 ErrMin= 2.92D-04
 ErrMax= 2.92D-04  0.00D+00 EMaxC= 1.00D-01 BMatC= 9.95D-06 BMatP= 1.15D-05
 IDIUse=3 WtCom= 9.97D-01 WtEn= 2.92D-03
 Coeff-Com: -0.152D-01 0.310D-01-0.172D-01-0.251D-01 0.138D+00-0.941D-01
 Coeff-Com:  0.748D-01-0.397D+00-0.885D+00 0.219D+01
 Coeff-En:   0.000D+00 0.000D+00 0.000D+00 0.000D+00 0.000D+00 0.000D+00
 Coeff-En:   0.000D+00 0.000D+00 0.000D+00 0.100D+01
 Coeff:     -0.151D-01 0.309D-01-0.171D-01-0.250D-01 0.137D+00-0.938D-01
 Coeff:      0.745D-01-0.395D+00-0.883D+00 0.219D+01
 Gap=     0.254 Goal=   None    Shift=    0.000
 Gap=     0.227 Goal=   None    Shift=    0.000
 RMSDP=2.26D-04 MaxDP=2.17D-03 DE=-5.85D-05 OVMax= 1.42D-02

 Cycle  11  Pass 1  IDiag  1:
 E= -76.7218404986788     Delta-E=       -0.000072020047 Rises=F Damp=F
 DIIS: error= 2.65D-04 at cycle  11 NSaved=  11.
 NSaved=11 IEnMin=11 EnMin= -76.7218404986788     IErMin=11 ErrMin= 2.65D-04
 ErrMax= 2.65D-04  0.00D+00 EMaxC= 1.00D-01 BMatC= 6.10D-06 BMatP= 9.95D-06
 IDIUse=3 WtCom= 9.97D-01 WtEn= 2.65D-03
 Coeff-Com: -0.104D-01 0.203D-01-0.553D-02-0.121D-01 0.133D+00-0.191D+00
 Coeff-Com:  0.325D-01 0.616D+00-0.109D+01-0.156D+00 0.166D+01
 Coeff-En:   0.000D+00 0.000D+00 0.000D+00 0.000D+00 0.000D+00 0.000D+00
 Coeff-En:   0.000D+00 0.000D+00 0.000D+00 0.000D+00 0.100D+01
 Coeff:     -0.104D-01 0.202D-01-0.552D-02-0.120D-01 0.133D+00-0.190D+00
 Coeff:      0.324D-01 0.615D+00-0.109D+01-0.156D+00 0.166D+01
 Gap=     0.252 Goal=   None    Shift=    0.000
 Gap=     0.228 Goal=   None    Shift=    0.000
 RMSDP=2.09D-04 MaxDP=1.77D-03 DE=-7.20D-05 OVMax= 1.42D-02

 Cycle  12  Pass 1  IDiag  1:
 E= -76.7218972197039     Delta-E=       -0.000056721025 Rises=F Damp=F
 DIIS: error= 2.60D-04 at cycle  12 NSaved=  12.
 NSaved=12 IEnMin=12 EnMin= -76.7218972197039     IErMin=12 ErrMin= 2.60D-04
 ErrMax= 2.60D-04  0.00D+00 EMaxC= 1.00D-01 BMatC= 4.76D-06 BMatP= 6.10D-06
 IDIUse=3 WtCom= 9.97D-01 WtEn= 2.60D-03
 Coeff-Com: -0.313D-02 0.522D-02-0.396D-02-0.322D-02 0.417D-01 0.368D-01
 Coeff-Com: -0.123D+00 0.626D-01-0.566D-01 0.306D+00-0.116D+01 0.189D+01
 Coeff-En:   0.000D+00 0.000D+00 0.000D+00 0.000D+00 0.000D+00 0.000D+00
 Coeff-En:   0.000D+00 0.000D+00 0.000D+00 0.000D+00 0.000D+00 0.100D+01
 Coeff:     -0.312D-02 0.521D-02-0.395D-02-0.321D-02 0.416D-01 0.367D-01
 Coeff:     -0.122D+00 0.624D-01-0.564D-01 0.305D+00-0.115D+01 0.189D+01
 Gap=     0.251 Goal=   None    Shift=    0.000
 Gap=     0.228 Goal=   None    Shift=    0.000
 RMSDP=1.75D-04 MaxDP=1.58D-03 DE=-5.67D-05 OVMax= 1.17D-02

 Cycle  13  Pass 1  IDiag  1:
 E= -76.7219405950406     Delta-E=       -0.000043375337 Rises=F Damp=F
 DIIS: error= 2.66D-04 at cycle  13 NSaved=  13.
 NSaved=13 IEnMin=13 EnMin= -76.7219405950406     IErMin=12 ErrMin= 2.60D-04
 ErrMax= 2.66D-04  0.00D+00 EMaxC= 1.00D-01 BMatC= 4.15D-06 BMatP= 4.76D-06
 IDIUse=3 WtCom= 9.97D-01 WtEn= 2.60D-03
 Coeff-Com: -0.520D-02 0.956D-02 0.345D-02-0.529D-04 0.104D+00-0.163D+00
 Coeff-Com:  0.107D+00-0.192D+00-0.428D+00 0.129D+01-0.681D+00-0.148D+01
 Coeff-Com:  0.244D+01
 Coeff-En:   0.000D+00 0.000D+00 0.000D+00 0.000D+00 0.000D+00 0.000D+00
 Coeff-En:   0.000D+00 0.000D+00 0.000D+00 0.000D+00 0.000D+00 0.000D+00
 Coeff-En:   0.100D+01
 Coeff:     -0.519D-02 0.953D-02 0.344D-02-0.528D-04 0.104D+00-0.163D+00
 Coeff:      0.107D+00-0.192D+00-0.427D+00 0.128D+01-0.680D+00-0.147D+01
 Coeff:      0.243D+01
 Gap=     0.249 Goal=   None    Shift=    0.000
 Gap=     0.229 Goal=   None    Shift=    0.000
 RMSDP=2.11D-04 MaxDP=1.91D-03 DE=-4.34D-05 OVMax= 1.46D-02

 Cycle  14  Pass 1  IDiag  1:
 E= -76.7219915394375     Delta-E=       -0.000050944397 Rises=F Damp=F
 DIIS: error= 2.44D-04 at cycle  14 NSaved=  14.
 NSaved=14 IEnMin=14 EnMin= -76.7219915394375     IErMin=14 ErrMin= 2.44D-04
 ErrMax= 2.44D-04  0.00D+00 EMaxC= 1.00D-01 BMatC= 3.90D-06 BMatP= 4.15D-06
 IDIUse=3 WtCom= 9.98D-01 WtEn= 2.44D-03
 Coeff-Com: -0.457D-02 0.812D-02 0.277D-02 0.354D-03 0.941D-01-0.155D+00
 Coeff-Com:  0.897D-01 0.376D-01-0.553D+00 0.747D+00-0.401D-01-0.400D+00
 Coeff-Com: -0.499D+00 0.167D+01
 Coeff-En:   0.000D+00 0.000D+00 0.000D+00 0.000D+00 0.000D+00 0.000D+00
 Coeff-En:   0.000D+00 0.000D+00 0.000D+00 0.000D+00 0.000D+00 0.000D+00
 Coeff-En:   0.000D+00 0.100D+01
 Coeff:     -0.455D-02 0.810D-02 0.276D-02 0.353D-03 0.939D-01-0.155D+00
 Coeff:      0.895D-01 0.375D-01-0.552D+00 0.745D+00-0.400D-01-0.399D+00
 Coeff:     -0.498D+00 0.167D+01
 Gap=     0.248 Goal=   None    Shift=    0.000
 Gap=     0.230 Goal=   None    Shift=    0.000
 RMSDP=1.67D-04 MaxDP=1.62D-03 DE=-5.09D-05 OVMax= 1.19D-02

 Cycle  15  Pass 1  IDiag  1:
 E= -76.7220315719323     Delta-E=       -0.000040032495 Rises=F Damp=F
 DIIS: error= 2.31D-04 at cycle  15 NSaved=  15.
 NSaved=15 IEnMin=15 EnMin= -76.7220315719323     IErMin=15 ErrMin= 2.31D-04
 ErrMax= 2.31D-04  0.00D+00 EMaxC= 1.00D-01 BMatC= 3.70D-06 BMatP= 3.90D-06
 IDIUse=3 WtCom= 9.98D-01 WtEn= 2.31D-03
 Coeff-Com: -0.239D-02 0.405D-02 0.170D-02 0.471D-03 0.615D-01-0.294D-01
 Coeff-Com: -0.486D-01-0.139D+00 0.104D+00 0.470D+00-0.904D+00-0.177D+00
 Coeff-Com:  0.256D+01-0.592D+01 0.502D+01
 Coeff-En:   0.000D+00 0.000D+00 0.000D+00 0.000D+00 0.000D+00 0.000D+00
 Coeff-En:   0.000D+00 0.000D+00 0.000D+00 0.000D+00 0.000D+00 0.000D+00
 Coeff-En:   0.000D+00 0.000D+00 0.100D+01
 Coeff:     -0.238D-02 0.404D-02 0.169D-02 0.470D-03 0.614D-01-0.293D-01
 Coeff:     -0.484D-01-0.139D+00 0.103D+00 0.469D+00-0.902D+00-0.177D+00
 Coeff:      0.255D+01-0.591D+01 0.501D+01
 Gap=     0.243 Goal=   None    Shift=    0.000
 Gap=     0.231 Goal=   None    Shift=    0.000
 RMSDP=4.57D-04 MaxDP=4.66D-03 DE=-4.00D-05 OVMax= 3.18D-02

 Cycle  16  Pass 1  IDiag  1:
 E= -76.7221376692242     Delta-E=       -0.000106097292 Rises=F Damp=F
 DIIS: error= 3.00D-04 at cycle  16 NSaved=  16.
 NSaved=16 IEnMin=16 EnMin= -76.7221376692242     IErMin=15 ErrMin= 2.31D-04
 ErrMax= 3.00D-04  0.00D+00 EMaxC= 1.00D-01 BMatC= 5.27D-06 BMatP= 3.70D-06
 IDIUse=3 WtCom= 9.98D-01 WtEn= 2.31D-03
 Coeff-Com: -0.353D-02 0.642D-02 0.172D-02-0.230D-02 0.764D-01-0.497D-01
 Coeff-Com: -0.416D-01-0.142D+00 0.753D-01 0.558D+00-0.934D+00-0.322D+00
 Coeff-Com:  0.277D+01-0.563D+01 0.432D+01 0.319D+00
 Coeff-En:   0.000D+00 0.000D+00 0.000D+00 0.000D+00 0.000D+00 0.000D+00
 Coeff-En:   0.000D+00 0.000D+00 0.000D+00 0.000D+00 0.000D+00 0.000D+00
 Coeff-En:   0.000D+00 0.000D+00 0.000D+00 0.100D+01
 Coeff:     -0.353D-02 0.641D-02 0.171D-02-0.230D-02 0.762D-01-0.496D-01
 Coeff:     -0.415D-01-0.141D+00 0.751D-01 0.557D+00-0.932D+00-0.322D+00
 Coeff:      0.276D+01-0.562D+01 0.431D+01 0.320D+00
 Gap=     0.243 Goal=   None    Shift=    0.000
 Gap=     0.231 Goal=   None    Shift=    0.000
 RMSDP=7.29D-05 MaxDP=7.68D-04 DE=-1.06D-04 OVMax= 5.15D-03

 Cycle  17  Pass 1  IDiag  1:
 E= -76.7221546191087     Delta-E=       -0.000016949884 Rises=F Damp=F
 DIIS: error= 3.00D-04 at cycle  17 NSaved=  17.
 NSaved=17 IEnMin=17 EnMin= -76.7221546191087     IErMin=15 ErrMin= 2.31D-04
 ErrMax= 3.00D-04  0.00D+00 EMaxC= 1.00D-01 BMatC= 5.22D-06 BMatP= 3.70D-06
 IDIUse=3 WtCom= 9.98D-01 WtEn= 2.31D-03
 Large coefficients: NSaved= 17 BigCof=   14.35 CofMax=   10.00 Det=-6.06D-10
 Inversion failed.  Reducing to 16 matrices.
 Large coefficients: NSaved= 16 BigCof=   10.68 CofMax=   10.00 Det=-7.12D-10
 Inversion failed.  Reducing to 15 matrices.
 Large coefficients: NSaved= 15 BigCof=   10.85 CofMax=   10.00 Det=-7.17D-10
 Inversion failed.  Reducing to 14 matrices.
 Large coefficients: NSaved= 14 BigCof=   10.68 CofMax=   10.00 Det=-8.40D-10
 Inversion failed.  Reducing to 13 matrices.
 Coeff-Com:  0.339D-01 0.429D-01-0.951D-01-0.299D+00 0.494D+00 0.290D+00
 Coeff-Com: -0.121D+01 0.259D+00 0.301D+01-0.749D+01 0.607D+01 0.669D+01
 Coeff-Com: -0.679D+01
 Coeff-En:   0.000D+00 0.000D+00 0.000D+00 0.000D+00 0.000D+00 0.000D+00
 Coeff-En:   0.000D+00 0.000D+00 0.000D+00 0.000D+00 0.000D+00 0.000D+00
 Coeff-En:   0.100D+01
 Coeff:      0.338D-01 0.428D-01-0.948D-01-0.298D+00 0.493D+00 0.290D+00
 Coeff:     -0.120D+01 0.258D+00 0.300D+01-0.748D+01 0.605D+01 0.667D+01
 Coeff:     -0.677D+01
 Gap=     0.248 Goal=   None    Shift=    0.000
 Gap=     0.229 Goal=   None    Shift=    0.000
 RMSDP=5.81D-04 MaxDP=5.79D-03 DE=-1.69D-05 OVMax= 4.15D-02

 Cycle  18  Pass 1  IDiag  1:
 E= -76.7220163363907     Delta-E=        0.000138282718 Rises=F Damp=F
 DIIS: error= 3.90D-04 at cycle  18 NSaved=  14.
 NSaved=14 IEnMin=13 EnMin= -76.7221546191087     IErMin=11 ErrMin= 2.31D-04
 ErrMax= 3.90D-04  0.00D+00 EMaxC= 1.00D-01 BMatC= 1.07D-05 BMatP= 3.70D-06
 IDIUse=3 WtCom= 9.98D-01 WtEn= 2.31D-03
 Large coefficients: NSaved= 14 BigCof=   19.70 CofMax=   10.00 Det=-8.69D-10
 Inversion failed.  Reducing to 13 matrices.
 Large coefficients: NSaved= 13 BigCof=   18.90 CofMax=   10.00 Det=-9.15D-10
 Inversion failed.  Reducing to 12 matrices.
 Large coefficients: NSaved= 12 BigCof=   19.10 CofMax=   10.00 Det=-9.15D-10
 Inversion failed.  Reducing to 11 matrices.
 Large coefficients: NSaved= 11 BigCof=   18.24 CofMax=   10.00 Det=-9.51D-10
 Inversion failed.  Reducing to 10 matrices.
 Large coefficients: NSaved= 10 BigCof=   15.51 CofMax=   10.00 Det=-1.05D-09
 Inversion failed.  Reducing to  9 matrices.
 Large coefficients: NSaved=  9 BigCof=   15.30 CofMax=   10.00 Det=-1.15D-09
 Inversion failed.  Reducing to  8 matrices.
 Large coefficients: NSaved=  8 BigCof=   15.72 CofMax=   10.00 Det=-1.25D-09
 Inversion failed.  Reducing to  7 matrices.
 Large coefficients: NSaved=  7 BigCof=   15.70 CofMax=   10.00 Det=-1.31D-09
 Inversion failed.  Reducing to  6 matrices.
 Large coefficients: NSaved=  6 BigCof=   15.73 CofMax=   10.00 Det=-1.31D-09
 Inversion failed.  Reducing to  5 matrices.
 Large coefficients: NSaved=  5 BigCof=   13.53 CofMax=   10.00 Det=-1.39D-09
 Inversion failed.  Reducing to  4 matrices.
 Large coefficients: NSaved=  4 BigCof=   15.77 CofMax=   10.00 Det=-1.70D-09
 Inversion failed.  Reducing to  3 matrices.
 Rare condition: small coef for last iteration:  0.000D+00
 Coeff-Com:  0.938D+01-0.718D+01-0.120D+01
 Coeff-En:   0.000D+00 0.000D+00 0.100D+01
 Coeff:      0.938D+01-0.718D+01-0.120D+01
 Gap=     0.242 Goal=   None    Shift=    0.000
 Gap=     0.231 Goal=   None    Shift=    0.000
 RMSDP=6.40D-04 MaxDP=6.33D-03 DE= 1.38D-04 OVMax= 4.57D-02

 Cycle  19  Pass 1  IDiag  1:
 E= -76.7221680932712     Delta-E=       -0.000151756881 Rises=F Damp=F
 DIIS: error= 3.20D-04 at cycle  19 NSaved=   4.
 NSaved= 4 IEnMin= 4 EnMin= -76.7221680932712     IErMin= 2 ErrMin= 3.00D-04
 ErrMax= 3.20D-04  0.00D+00 EMaxC= 1.00D-01 BMatC= 6.56D-06 BMatP= 5.22D-06
 IDIUse=3 WtCom= 9.98D-01 WtEn= 2.31D-03
 Coeff-Com:  0.290D+00 0.854D+00-0.151D+01 0.136D+01
 Coeff-En:   0.000D+00 0.000D+00 0.000D+00 0.100D+01
 Coeff:      0.290D+00 0.852D+00-0.151D+01 0.136D+01
 Gap=     0.234 Goal=   None    Shift=    0.000
 Gap=     0.235 Goal=   None    Shift=    0.000
 RMSDP=9.11D-04 MaxDP=1.06D-02 DE=-1.52D-04 OVMax= 6.24D-02

 Cycle  20  Pass 1  IDiag  1:
 E= -76.7223658665116     Delta-E=       -0.000197773240 Rises=F Damp=F
 DIIS: error= 6.29D-04 at cycle  20 NSaved=   5.
 NSaved= 5 IEnMin= 5 EnMin= -76.7223658665116     IErMin= 2 ErrMin= 3.00D-04
 ErrMax= 6.29D-04  0.00D+00 EMaxC= 1.00D-01 BMatC= 5.65D-05 BMatP= 5.22D-06
 IDIUse=3 WtCom= 9.98D-01 WtEn= 2.31D-03
 Coeff-Com:  0.708D+01-0.285D+01-0.408D+01 0.185D+00 0.656D+00
 Coeff-En:   0.000D+00 0.000D+00 0.000D+00 0.000D+00 0.100D+01
 Coeff:      0.706D+01-0.284D+01-0.407D+01 0.185D+00 0.657D+00
 Gap=     0.227 Goal=   None    Shift=    0.000
 Gap=     0.246 Goal=   None    Shift=    0.000
 RMSDP=1.49D-03 MaxDP=2.13D-02 DE=-1.98D-04 OVMax= 9.66D-02

 Cycle  21  Pass 1  IDiag  1:
 E= -76.7222968896585     Delta-E=        0.000068976853 Rises=F Damp=F
 DIIS: error= 3.04D-03 at cycle  21 NSaved=   6.
 NSaved= 6 IEnMin= 5 EnMin= -76.7223658665116     IErMin= 2 ErrMin= 3.00D-04
 ErrMax= 3.04D-03  0.00D+00 EMaxC= 1.00D-01 BMatC= 1.10D-03 BMatP= 5.22D-06
 IDIUse=3 WtCom= 9.98D-01 WtEn= 2.31D-03
 Rare condition: small coef for last iteration:  0.000D+00
 Coeff-Com:  0.167D+01-0.157D+00-0.182D+01 0.224D+01-0.115D+01 0.221D+00
 Coeff-En:   0.000D+00 0.000D+00 0.000D+00 0.000D+00 0.000D+00 0.100D+01
 Coeff:      0.167D+01-0.157D+00-0.182D+01 0.224D+01-0.115D+01 0.221D+00
 Gap=     0.231 Goal=   None    Shift=    0.000
 Gap=     0.230 Goal=   None    Shift=    0.000
 RMSDP=1.93D-03 MaxDP=2.66D-02 DE= 6.90D-05 OVMax= 1.24D-01

 Cycle  22  Pass 1  IDiag  1:
 E= -76.7222769464142     Delta-E=        0.000019943244 Rises=F Damp=F
 DIIS: error= 3.92D-04 at cycle  22 NSaved=   7.
 NSaved= 7 IEnMin= 5 EnMin= -76.7223658665116     IErMin= 2 ErrMin= 3.00D-04
 ErrMax= 3.92D-04  0.00D+00 EMaxC= 1.00D-01 BMatC= 1.31D-05 BMatP= 5.22D-06
 IDIUse=3 WtCom= 9.98D-01 WtEn= 2.31D-03
 Rare condition: small coef for last iteration:  0.000D+00
 Coeff-Com:  0.125D+01 0.102D+00-0.152D+01 0.176D+01-0.180D+01 0.288D+00
 Coeff-Com:  0.925D+00
 Coeff-En:   0.000D+00 0.000D+00 0.000D+00 0.000D+00 0.000D+00 0.000D+00
 Coeff-En:   0.100D+01
 Coeff:      0.125D+01 0.102D+00-0.152D+01 0.176D+01-0.180D+01 0.288D+00
 Coeff:      0.925D+00
 Gap=     0.239 Goal=   None    Shift=    0.000
 Gap=     0.233 Goal=   None    Shift=    0.000
 RMSDP=1.45D-04 MaxDP=1.67D-03 DE= 1.99D-05 OVMax= 9.81D-03

 Cycle  23  Pass 1  IDiag  1:
 E= -76.7222451824709     Delta-E=        0.000031763943 Rises=F Damp=F
 DIIS: error= 3.11D-04 at cycle  23 NSaved=   8.
 NSaved= 8 IEnMin= 5 EnMin= -76.7223658665116     IErMin= 2 ErrMin= 3.00D-04
 ErrMax= 3.11D-04  0.00D+00 EMaxC= 1.00D-01 BMatC= 6.79D-06 BMatP= 5.22D-06
 IDIUse=3 WtCom= 9.98D-01 WtEn= 2.31D-03
 Rare condition: small coef for last iteration:  0.000D+00
 Coeff-Com:  0.138D+01 0.179D+00-0.173D+01 0.178D+01-0.210D+01 0.290D+00
 Coeff-Com:  0.233D+01-0.112D+01
 Coeff-En:   0.000D+00 0.000D+00 0.000D+00 0.000D+00 0.000D+00 0.000D+00
 Coeff-En:   0.000D+00 0.100D+01
 Coeff:      0.138D+01 0.179D+00-0.173D+01 0.178D+01-0.210D+01 0.290D+00
 Coeff:      0.233D+01-0.112D+01
 Gap=     0.238 Goal=   None    Shift=    0.000
 Gap=     0.234 Goal=   None    Shift=    0.000
 RMSDP=1.35D-04 MaxDP=1.56D-03 DE= 3.18D-05 OVMax= 9.11D-03

 Cycle  24  Pass 1  IDiag  1:
 E= -76.7222748594265     Delta-E=       -0.000029676956 Rises=F Damp=F
 DIIS: error= 3.80D-04 at cycle  24 NSaved=   9.
 NSaved= 9 IEnMin= 5 EnMin= -76.7223658665116     IErMin= 2 ErrMin= 3.00D-04
 ErrMax= 3.80D-04  0.00D+00 EMaxC= 1.00D-01 BMatC= 1.22D-05 BMatP= 5.22D-06
 IDIUse=3 WtCom= 9.98D-01 WtEn= 2.31D-03
 Coeff-Com:  0.172D+01 0.114D+00-0.197D+01 0.195D+01-0.234D+01 0.291D+00
 Coeff-Com:  0.226D+01-0.248D+01 0.145D+01
 Coeff-En:   0.000D+00 0.000D+00 0.000D+00 0.000D+00 0.000D+00 0.000D+00
 Coeff-En:   0.000D+00 0.000D+00 0.100D+01
 Coeff:      0.172D+01 0.113D+00-0.196D+01 0.195D+01-0.233D+01 0.290D+00
 Coeff:      0.226D+01-0.247D+01 0.144D+01
 Gap=     0.238 Goal=   None    Shift=    0.000
 Gap=     0.235 Goal=   None    Shift=    0.000
 RMSDP=9.00D-05 MaxDP=1.09D-03 DE=-2.97D-05 OVMax= 5.97D-03

 Cycle  25  Pass 1  IDiag  1:
 E= -76.7222931663643     Delta-E=       -0.000018306938 Rises=F Damp=F
 DIIS: error= 4.41D-04 at cycle  25 NSaved=  10.
 NSaved=10 IEnMin= 5 EnMin= -76.7223658665116     IErMin= 2 ErrMin= 3.00D-04
 ErrMax= 4.41D-04  0.00D+00 EMaxC= 1.00D-01 BMatC= 1.96D-05 BMatP= 5.22D-06
 IDIUse=3 WtCom= 9.98D-01 WtEn= 2.31D-03
 Large coefficients: NSaved= 10 BigCof=   15.54 CofMax=   10.00 Det=-1.67D-10
 Inversion failed.  Reducing to  9 matrices.
 Large coefficients: NSaved=  9 BigCof=   12.81 CofMax=   10.00 Det=-1.72D-10
 Inversion failed.  Reducing to  8 matrices.
 Large coefficients: NSaved=  8 BigCof=   11.51 CofMax=   10.00 Det=-1.77D-10
 Inversion failed.  Reducing to  7 matrices.
 Large coefficients: NSaved=  7 BigCof=   11.91 CofMax=   10.00 Det=-2.34D-10
 Inversion failed.  Reducing to  6 matrices.
 Coeff-Com: -0.675D+00 0.319D+00 0.240D+01 0.118D+01 0.549D+01-0.771D+01
 Coeff-En:   0.000D+00 0.000D+00 0.000D+00 0.000D+00 0.000D+00 0.100D+01
 Coeff:     -0.674D+00 0.318D+00 0.239D+01 0.118D+01 0.548D+01-0.769D+01
 Gap=     0.241 Goal=   None    Shift=    0.000
 Gap=     0.231 Goal=   None    Shift=    0.000
 RMSDP=5.64D-04 MaxDP=6.60D-03 DE=-1.83D-05 OVMax= 3.71D-02

 Cycle  26  Pass 1  IDiag  1:
 E= -76.7221628744313     Delta-E=        0.000130291933 Rises=F Damp=F
 DIIS: error= 3.83D-04 at cycle  26 NSaved=   7.
 NSaved= 7 IEnMin= 1 EnMin= -76.7223658665116     IErMin= 4 ErrMin= 3.11D-04
 ErrMax= 3.83D-04  0.00D+00 EMaxC= 1.00D-01 BMatC= 1.77D-05 BMatP= 6.79D-06
 IDIUse=3 WtCom= 9.98D-01 WtEn= 2.31D-03
 Large coefficients: NSaved=  7 BigCof=   30.50 CofMax=   10.00 Det=-1.20D-10
 Inversion failed.  Reducing to  6 matrices.
 Large coefficients: NSaved=  6 BigCof=   28.16 CofMax=   10.00 Det=-2.80D-10
 Inversion failed.  Reducing to  5 matrices.
 Rare condition: small coef for last iteration:  0.000D+00
 Coeff-Com: -0.118D+01 0.299D+00 0.513D+01-0.376D+01 0.518D+00
 Coeff-En:   0.000D+00 0.000D+00 0.000D+00 0.000D+00 0.100D+01
 Coeff:     -0.118D+01 0.299D+00 0.513D+01-0.376D+01 0.518D+00
 Gap=     0.241 Goal=   None    Shift=    0.000
 Gap=     0.231 Goal=   None    Shift=    0.000
 RMSDP=3.14D-05 MaxDP=3.14D-04 DE= 1.30D-04 OVMax= 2.24D-03

 Cycle  27  Pass 1  IDiag  1:
 E= -76.7221706142704     Delta-E=       -0.000007739839 Rises=F Damp=F
 DIIS: error= 3.72D-04 at cycle  27 NSaved=   6.
 NSaved= 6 IEnMin= 1 EnMin= -76.7223658665116     IErMin= 6 ErrMin= 3.72D-04
 ErrMax= 3.72D-04  0.00D+00 EMaxC= 1.00D-01 BMatC= 1.67D-05 BMatP= 1.31D-05
 IDIUse=3 WtCom= 9.98D-01 WtEn= 2.31D-03
 Coeff-Com: -0.169D+01 0.328D+00 0.552D+01-0.357D+01-0.245D+01 0.285D+01
 Coeff-En:   0.000D+00 0.000D+00 0.000D+00 0.000D+00 0.000D+00 0.100D+01
 Coeff:     -0.169D+01 0.327D+00 0.551D+01-0.356D+01-0.244D+01 0.285D+01
 Gap=     0.241 Goal=   None    Shift=    0.000
 Gap=     0.231 Goal=   None    Shift=    0.000
 RMSDP=1.40D-05 MaxDP=1.37D-04 DE=-7.74D-06 OVMax= 9.26D-04

 Cycle  28  Pass 1  IDiag  1:
 E= -76.7221693414755     Delta-E=        0.000001272795 Rises=F Damp=F
 DIIS: error= 3.24D-04 at cycle  28 NSaved=   7.
 NSaved= 7 IEnMin= 1 EnMin= -76.7223658665116     IErMin= 7 ErrMin= 3.24D-04
 ErrMax= 3.24D-04  0.00D+00 EMaxC= 1.00D-01 BMatC= 1.30D-05 BMatP= 1.31D-05
 IDIUse=3 WtCom= 9.98D-01 WtEn= 2.31D-03
 Rare condition: small coef for last iteration:  0.000D+00
 Coeff-Com: -0.177D+01 0.332D+00 0.564D+01-0.356D+01-0.280D+01 0.355D+01
 Coeff-Com: -0.395D+00
 Coeff-En:   0.000D+00 0.000D+00 0.000D+00 0.000D+00 0.000D+00 0.000D+00
 Coeff-En:   0.100D+01
 Coeff:     -0.177D+01 0.332D+00 0.564D+01-0.356D+01-0.280D+01 0.355D+01
 Coeff:     -0.395D+00
 Gap=     0.241 Goal=   None    Shift=    0.000
 Gap=     0.231 Goal=   None    Shift=    0.000
 RMSDP=1.50D-05 MaxDP=1.67D-04 DE= 1.27D-06 OVMax= 1.03D-03

 Cycle  29  Pass 1  IDiag  1:
 E= -76.7221728956062     Delta-E=       -0.000003554131 Rises=F Damp=F
 DIIS: error= 3.22D-04 at cycle  29 NSaved=   8.
 NSaved= 8 IEnMin= 1 EnMin= -76.7223658665116     IErMin= 8 ErrMin= 3.22D-04
 ErrMax= 3.22D-04  0.00D+00 EMaxC= 1.00D-01 BMatC= 1.29D-05 BMatP= 1.30D-05
 IDIUse=3 WtCom= 9.98D-01 WtEn= 2.31D-03
 Coeff-Com: -0.170D+01 0.326D+00 0.554D+01-0.351D+01-0.208D+01 0.287D+01
 Coeff-Com:  0.286D+01-0.330D+01
 Coeff-En:   0.000D+00 0.000D+00 0.000D+00 0.000D+00 0.000D+00 0.000D+00
 Coeff-En:   0.000D+00 0.100D+01
 Coeff:     -0.170D+01 0.325D+00 0.553D+01-0.350D+01-0.208D+01 0.286D+01
 Coeff:      0.285D+01-0.329D+01
 Gap=     0.242 Goal=   None    Shift=    0.000
 Gap=     0.231 Goal=   None    Shift=    0.000
 RMSDP=4.47D-05 MaxDP=4.81D-04 DE=-3.55D-06 OVMax= 3.12D-03

 Cycle  30  Pass 1  IDiag  1:
 E= -76.7221623440875     Delta-E=        0.000010551519 Rises=F Damp=F
 DIIS: error= 3.25D-04 at cycle  30 NSaved=   9.
 NSaved= 9 IEnMin= 1 EnMin= -76.7223658665116     IErMin= 8 ErrMin= 3.22D-04
 ErrMax= 3.25D-04  0.00D+00 EMaxC= 1.00D-01 BMatC= 1.31D-05 BMatP= 1.29D-05
 IDIUse=3 WtCom= 9.98D-01 WtEn= 2.31D-03
 Large coefficients: NSaved=  9 BigCof=   23.87 CofMax=   10.00 Det=-1.19D-10
 Inversion failed.  Reducing to  8 matrices.
 Large coefficients: NSaved=  8 BigCof=   20.15 CofMax=   10.00 Det=-1.76D-10
 Inversion failed.  Reducing to  7 matrices.
 Large coefficients: NSaved=  7 BigCof=   19.33 CofMax=   10.00 Det=-2.68D-10
 Inversion failed.  Reducing to  6 matrices.
 Large coefficients: NSaved=  6 BigCof=   17.24 CofMax=   10.00 Det=-3.13D-10
 Inversion failed.  Reducing to  5 matrices.
 Large coefficients: NSaved=  5 BigCof=   18.08 CofMax=   10.00 Det=-3.13D-10
 Inversion failed.  Reducing to  4 matrices.
 Large coefficients: NSaved=  4 BigCof=   18.73 CofMax=   10.00 Det=-4.13D-10
 Inversion failed.  Reducing to  3 matrices.
 Large coefficients: NSaved=  3 BigCof=   35.49 CofMax=   10.00 Det=-5.23D-10
 Inversion failed.  Reducing to  2 matrices.
 Large coefficients: NSaved=  2 BigCof=   48.23 CofMax=   10.00 Det=-2.45D-09
 Coeff-Com:  0.482D+02-0.472D+02
 Coeff-En:   0.000D+00 0.100D+01
 Coeff:      0.481D+02-0.471D+02
 Gap=     0.222 Goal=   None    Shift=    0.000
 Gap=     0.239 Goal=   None    Shift=    0.000
 RMSDP=2.15D-03 MaxDP=2.83D-02 DE= 1.06D-05 OVMax= 1.41D-01

 Cycle  31  Pass 1  IDiag  1:
 E= -76.7224463215540     Delta-E=       -0.000283977467 Rises=F Damp=F
 DIIS: error= 2.19D-03 at cycle  31 NSaved=   3.
 NSaved= 3 IEnMin= 3 EnMin= -76.7224463215540     IErMin= 1 ErrMin= 3.22D-04
 ErrMax= 2.19D-03  0.00D+00 EMaxC= 1.00D-01 BMatC= 5.91D-04 BMatP= 1.29D-05
 IDIUse=3 WtCom= 9.98D-01 WtEn= 2.31D-03
 Large coefficients: NSaved=  3 BigCof=   29.12 CofMax=   10.00 Det=-6.35D-10
 Inversion failed.  Reducing to  2 matrices.
 Coeff-Com:  0.884D+00 0.116D+00
 Coeff-En:   0.000D+00 0.100D+01
 Coeff:      0.882D+00 0.118D+00
 Gap=     0.233 Goal=   None    Shift=    0.000
 Gap=     0.228 Goal=   None    Shift=    0.000
 RMSDP=1.85D-03 MaxDP=2.50D-02 DE=-2.84D-04 OVMax= 1.20D-01

 Cycle  32  Pass 1  IDiag  1:
 E= -76.7222343445989     Delta-E=        0.000211976955 Rises=F Damp=F
 DIIS: error= 2.77D-04 at cycle  32 NSaved=   3.
 NSaved= 3 IEnMin= 2 EnMin= -76.7224463215540     IErMin= 3 ErrMin= 2.77D-04
 ErrMax= 2.77D-04  0.00D+00 EMaxC= 1.00D-01 BMatC= 9.61D-06 BMatP= 1.31D-05
 IDIUse=3 WtCom= 9.98D-01 WtEn= 2.31D-03
 Rare condition: small coef for last iteration:  0.000D+00
 Coeff-Com:  0.870D+00 0.116D+00 0.143D-01
 Coeff-En:   0.000D+00 0.000D+00 0.100D+01
 Coeff:      0.870D+00 0.116D+00 0.143D-01
 Gap=     0.239 Goal=   None    Shift=    0.000
 Gap=     0.232 Goal=   None    Shift=    0.000
 RMSDP=1.20D-06 MaxDP=2.19D-05 DE= 2.12D-04 OVMax= 9.56D-05

 Cycle  33  Pass 1  IDiag  1:
 E= -76.7222343845572     Delta-E=       -0.000000039958 Rises=F Damp=F
 DIIS: error= 2.71D-04 at cycle  33 NSaved=   4.
 NSaved= 4 IEnMin= 2 EnMin= -76.7224463215540     IErMin= 4 ErrMin= 2.71D-04
 ErrMax= 2.71D-04  0.00D+00 EMaxC= 1.00D-01 BMatC= 8.96D-06 BMatP= 9.61D-06
 IDIUse=3 WtCom= 9.98D-01 WtEn= 2.31D-03
 Coeff-Com:  0.825D+00 0.140D+00 0.495D+01-0.491D+01
 Coeff-En:   0.000D+00 0.000D+00 0.000D+00 0.100D+01
 Coeff:      0.823D+00 0.139D+00 0.494D+01-0.490D+01
 Gap=     0.239 Goal=   None    Shift=    0.000
 Gap=     0.232 Goal=   None    Shift=    0.000
 RMSDP=6.07D-05 MaxDP=6.64D-04 DE=-4.00D-08 OVMax= 4.29D-03

 Cycle  34  Pass 1  IDiag  1:
 E= -76.7222483597186     Delta-E=       -0.000013975161 Rises=F Damp=F
 DIIS: error= 2.82D-04 at cycle  34 NSaved=   5.
 NSaved= 5 IEnMin= 2 EnMin= -76.7224463215540     IErMin= 4 ErrMin= 2.71D-04
 ErrMax= 2.82D-04  0.00D+00 EMaxC= 1.00D-01 BMatC= 1.02D-05 BMatP= 8.96D-06
 IDIUse=3 WtCom= 9.98D-01 WtEn= 2.31D-03
 Coeff-Com:  0.860D+00 0.128D+00 0.457D+01-0.332D+01-0.124D+01
 Coeff-En:   0.000D+00 0.000D+00 0.000D+00 0.000D+00 0.100D+01
 Coeff:      0.858D+00 0.127D+00 0.456D+01-0.331D+01-0.123D+01
 Gap=     0.240 Goal=   None    Shift=    0.000
 Gap=     0.232 Goal=   None    Shift=    0.000
 RMSDP=1.08D-04 MaxDP=1.19D-03 DE=-1.40D-05 OVMax= 7.57D-03

 Cycle  35  Pass 1  IDiag  1:
 E= -76.7222231058738     Delta-E=        0.000025253845 Rises=F Damp=F
 DIIS: error= 2.72D-04 at cycle  35 NSaved=   6.
 NSaved= 6 IEnMin= 2 EnMin= -76.7224463215540     IErMin= 4 ErrMin= 2.71D-04
 ErrMax= 2.72D-04  0.00D+00 EMaxC= 1.00D-01 BMatC= 9.17D-06 BMatP= 8.96D-06
 IDIUse=3 WtCom= 9.98D-01 WtEn= 2.31D-03
 Large coefficients: NSaved=  6 BigCof=   16.29 CofMax=   10.00 Det=-6.47D-10
 Inversion failed.  Reducing to  5 matrices.
 Large coefficients: NSaved=  5 BigCof=   18.02 CofMax=   10.00 Det=-6.87D-10
 Inversion failed.  Reducing to  4 matrices.
 Rare condition: small coef for last iteration:  0.000D+00
 Coeff-Com:  0.548D-01-0.236D+01-0.606D+01 0.936D+01
 Coeff-En:   0.000D+00 0.000D+00 0.000D+00 0.100D+01
 Coeff:      0.548D-01-0.236D+01-0.606D+01 0.936D+01
 Gap=     0.245 Goal=   None    Shift=    0.000
 Gap=     0.230 Goal=   None    Shift=    0.000
 RMSDP=6.18D-04 MaxDP=6.36D-03 DE= 2.53D-05 OVMax= 4.42D-02

 Cycle  36  Pass 1  IDiag  1:
 E= -76.7220802985205     Delta-E=        0.000142807353 Rises=F Damp=F
 DIIS: error= 3.02D-04 at cycle  36 NSaved=   5.
 NSaved= 5 IEnMin= 1 EnMin= -76.7224463215540     IErMin= 2 ErrMin= 2.71D-04
 ErrMax= 3.02D-04  0.00D+00 EMaxC= 1.00D-01 BMatC= 5.05D-06 BMatP= 8.96D-06
 IDIUse=3 WtCom= 9.98D-01 WtEn= 2.31D-03
 Large coefficients: NSaved=  5 BigCof=   14.27 CofMax=   10.00 Det=-2.19D-09
 Inversion failed.  Reducing to  4 matrices.
 Large coefficients: NSaved=  4 BigCof=   12.74 CofMax=   10.00 Det=-2.79D-09
 Inversion failed.  Reducing to  3 matrices.
 Rare condition: small coef for last iteration:  0.000D+00
 Coeff-Com:  0.172D+00 0.142D+01-0.595D+00
 Coeff-En:   0.000D+00 0.000D+00 0.100D+01
 Coeff:      0.172D+00 0.142D+01-0.595D+00
 Gap=     0.231 Goal=   None    Shift=    0.000
 Gap=     0.233 Goal=   None    Shift=    0.000
 RMSDP=1.35D-03 MaxDP=1.51D-02 DE= 1.43D-04 OVMax= 9.45D-02

 Cycle  37  Pass 1  IDiag  1:
 E= -76.7224039565604     Delta-E=       -0.000323658040 Rises=F Damp=F
 DIIS: error= 2.85D-04 at cycle  37 NSaved=   4.
 NSaved= 4 IEnMin= 1 EnMin= -76.7224463215540     IErMin= 2 ErrMin= 2.72D-04
 ErrMax= 2.85D-04  0.00D+00 EMaxC= 1.00D-01 BMatC= 4.58D-06 BMatP= 5.05D-06
 IDIUse=3 WtCom= 9.98D-01 WtEn= 2.31D-03
 Coeff-Com:  0.278D+00 0.229D+01 0.440D+00-0.201D+01
 Coeff-En:   0.000D+00 0.000D+00 0.000D+00 0.100D+01
 Coeff:      0.277D+00 0.229D+01 0.439D+00-0.201D+01
 Gap=     0.246 Goal=   None    Shift=    0.000
 Gap=     0.225 Goal=   None    Shift=    0.000
 RMSDP=1.91D-03 MaxDP=2.03D-02 DE=-3.24D-04 OVMax= 1.35D-01

 Cycle  38  Pass 1  IDiag  1:
 E= -76.7219272530296     Delta-E=        0.000476703531 Rises=F Damp=F
 DIIS: error= 6.53D-04 at cycle  38 NSaved=   5.
 NSaved= 5 IEnMin= 1 EnMin= -76.7224463215540     IErMin= 2 ErrMin= 2.72D-04
 ErrMax= 6.53D-04  0.00D+00 EMaxC= 1.00D-01 BMatC= 4.84D-05 BMatP= 4.58D-06
 IDIUse=3 WtCom= 9.98D-01 WtEn= 2.31D-03
 Rare condition: small coef for last iteration:  0.000D+00
 Coeff-Com:  0.223D+00 0.124D+01 0.125D+01-0.129D+01-0.429D+00
 Coeff-En:   0.000D+00 0.000D+00 0.000D+00 0.000D+00 0.100D+01
 Coeff:      0.223D+00 0.124D+01 0.125D+01-0.129D+01-0.429D+00
 Gap=     0.247 Goal=   None    Shift=    0.000
 Gap=     0.231 Goal=   None    Shift=    0.000
 RMSDP=4.24D-04 MaxDP=4.29D-03 DE= 4.77D-04 OVMax= 3.10D-02

 Cycle  39  Pass 1  IDiag  1:
 E= -76.7220447624599     Delta-E=       -0.000117509430 Rises=F Damp=F
 DIIS: error= 4.12D-04 at cycle  39 NSaved=   6.
 NSaved= 6 IEnMin= 1 EnMin= -76.7224463215540     IErMin= 2 ErrMin= 2.72D-04
 ErrMax= 4.12D-04  0.00D+00 EMaxC= 1.00D-01 BMatC= 1.28D-05 BMatP= 4.58D-06
 IDIUse=3 WtCom= 9.98D-01 WtEn= 2.31D-03
 Coeff-Com:  0.990D-01-0.509D+00-0.794D-01-0.137D-01-0.224D+01 0.374D+01
 Coeff-En:   0.000D+00 0.000D+00 0.000D+00 0.000D+00 0.000D+00 0.100D+01
 Coeff:      0.988D-01-0.508D+00-0.792D-01-0.137D-01-0.224D+01 0.374D+01
 Gap=     0.239 Goal=   None    Shift=    0.000
 Gap=     0.232 Goal=   None    Shift=    0.000
 RMSDP=8.30D-04 MaxDP=8.70D-03 DE=-1.18D-04 OVMax= 5.85D-02

 Cycle  40  Pass 1  IDiag  1:
 E= -76.7222394559113     Delta-E=       -0.000194693451 Rises=F Damp=F
 DIIS: error= 4.09D-04 at cycle  40 NSaved=   7.
 NSaved= 7 IEnMin= 1 EnMin= -76.7224463215540     IErMin= 2 ErrMin= 2.72D-04
 ErrMax= 4.09D-04  0.00D+00 EMaxC= 1.00D-01 BMatC= 1.33D-05 BMatP= 4.58D-06
 IDIUse=3 WtCom= 9.98D-01 WtEn= 2.31D-03
 Coeff-Com:  0.117D+00-0.340D+00-0.321D+00-0.121D+00-0.226D+01 0.433D+01
 Coeff-Com: -0.408D+00
 Coeff-En:   0.000D+00 0.000D+00 0.000D+00 0.000D+00 0.000D+00 0.000D+00
 Coeff-En:   0.100D+01
 Coeff:      0.116D+00-0.339D+00-0.320D+00-0.121D+00-0.226D+01 0.432D+01
 Coeff:     -0.404D+00
 Gap=     0.243 Goal=   None    Shift=    0.000
 Gap=     0.232 Goal=   None    Shift=    0.000
 RMSDP=3.46D-04 MaxDP=3.79D-03 DE=-1.95D-04 OVMax= 2.41D-02

 Cycle  41  Pass 1  IDiag  1:
 E= -76.7221596332200     Delta-E=        0.000079822691 Rises=F Damp=F
 DIIS: error= 3.67D-04 at cycle  41 NSaved=   8.
 NSaved= 8 IEnMin= 1 EnMin= -76.7224463215540     IErMin= 2 ErrMin= 2.72D-04
 ErrMax= 3.67D-04  0.00D+00 EMaxC= 1.00D-01 BMatC= 9.39D-06 BMatP= 4.58D-06
 IDIUse=3 WtCom= 9.98D-01 WtEn= 2.31D-03
 Large coefficients: NSaved=  8 BigCof=   14.53 CofMax=   10.00 Det=-2.47D-09
 Inversion failed.  Reducing to  7 matrices.
 Large coefficients: NSaved=  7 BigCof=   11.00 CofMax=   10.00 Det=-2.62D-09
 Inversion failed.  Reducing to  6 matrices.
 Large coefficients: NSaved=  6 BigCof=   10.27 CofMax=   10.00 Det=-2.89D-09
 Inversion failed.  Reducing to  5 matrices.
 Rare condition: small coef for last iteration:  0.000D+00
 Coeff-Com:  0.364D+00 0.127D+01-0.132D+01-0.868D+01 0.936D+01
 Coeff-En:   0.000D+00 0.000D+00 0.000D+00 0.000D+00 0.100D+01
 Coeff:      0.364D+00 0.127D+01-0.132D+01-0.868D+01 0.936D+01
 Gap=     0.272 Goal=   None    Shift=    0.000
 Gap=     0.222 Goal=   None    Shift=    0.000
 RMSDP=3.00D-03 MaxDP=3.07D-02 DE= 7.98D-05 OVMax= 2.24D-01

 Cycle  42  Pass 1  IDiag  1:
 E= -76.7203478365008     Delta-E=        0.001811796719 Rises=F Damp=F
 DIIS: error= 3.54D-03 at cycle  42 NSaved=   6.
 NSaved= 6 IEnMin= 1 EnMin= -76.7224463215540     IErMin= 2 ErrMin= 2.72D-04
 ErrMax= 3.54D-03  0.00D+00 EMaxC= 1.00D-01 BMatC= 1.88D-03 BMatP= 4.58D-06
 IDIUse=3 WtCom= 9.98D-01 WtEn= 2.31D-03
 Large coefficients: NSaved=  6 BigCof=   10.21 CofMax=   10.00 Det=-3.09D-09
 Inversion failed.  Reducing to  5 matrices.
 Rare condition: small coef for last iteration:  0.000D+00
 Coeff-Com:  0.219D+00-0.400D+00-0.730D+01 0.854D+01-0.651D-01
 Coeff-En:   0.000D+00 0.000D+00 0.000D+00 0.000D+00 0.100D+01
 Coeff:      0.219D+00-0.400D+00-0.730D+01 0.854D+01-0.651D-01
 Gap=     0.271 Goal=   None    Shift=    0.000
 Gap=     0.232 Goal=   None    Shift=    0.000
 RMSDP=8.56D-04 MaxDP=8.73D-03 DE= 1.81D-03 OVMax= 6.59D-02

 Cycle  43  Pass 1  IDiag  1:
 E= -76.7212779685122     Delta-E=       -0.000930132011 Rises=F Damp=F
 DIIS: error= 2.14D-03 at cycle  43 NSaved=   6.
 NSaved= 6 IEnMin= 1 EnMin= -76.7224463215540     IErMin= 2 ErrMin= 2.85D-04
 ErrMax= 2.14D-03  0.00D+00 EMaxC= 1.00D-01 BMatC= 6.68D-04 BMatP= 4.58D-06
 IDIUse=3 WtCom= 9.98D-01 WtEn= 2.31D-03
 Large coefficients: NSaved=  6 BigCof=   10.63 CofMax=   10.00 Det=-3.31D-09
 Inversion failed.  Reducing to  5 matrices.
 Coeff-Com:  0.455D-01 0.235D-01 0.108D+01-0.474D-01-0.101D+00
 Coeff-En:   0.000D+00 0.000D+00 0.000D+00 0.000D+00 0.100D+01
 Coeff:      0.454D-01 0.235D-01 0.108D+01-0.473D-01-0.983D-01
 Gap=     0.234 Goal=   None    Shift=    0.000
 Gap=     0.223 Goal=   None    Shift=    0.000
 RMSDP=3.02D-03 MaxDP=3.04D-02 DE=-9.30D-04 OVMax= 2.19D-01

 Cycle  44  Pass 1  IDiag  1:
 E= -76.7223591627423     Delta-E=       -0.001081194230 Rises=F Damp=F
 DIIS: error= 5.71D-04 at cycle  44 NSaved=   6.
 NSaved= 6 IEnMin= 1 EnMin= -76.7224463215540     IErMin= 2 ErrMin= 2.85D-04
 ErrMax= 5.71D-04  0.00D+00 EMaxC= 1.00D-01 BMatC= 3.98D-05 BMatP= 4.58D-06
 IDIUse=3 WtCom= 9.98D-01 WtEn= 2.31D-03
 Coeff-Com:  0.176D+00-0.397D-01 0.230D+01-0.688D-01-0.136D-01-0.135D+01
 Coeff-En:   0.000D+00 0.000D+00 0.000D+00 0.000D+00 0.000D+00 0.100D+01
 Coeff:      0.176D+00-0.396D-01 0.229D+01-0.686D-01-0.136D-01-0.135D+01
 Gap=     0.240 Goal=   None    Shift=    0.000
 Gap=     0.232 Goal=   None    Shift=    0.000
 RMSDP=6.66D-04 MaxDP=7.77D-03 DE=-1.08D-03 OVMax= 4.57D-02

 Cycle  45  Pass 1  IDiag  1:
 E= -76.7222086814961     Delta-E=        0.000150481246 Rises=F Damp=F
 DIIS: error= 4.15D-04 at cycle  45 NSaved=   7.
 NSaved= 7 IEnMin= 1 EnMin= -76.7224463215540     IErMin= 2 ErrMin= 2.85D-04
 ErrMax= 4.15D-04  0.00D+00 EMaxC= 1.00D-01 BMatC= 1.42D-05 BMatP= 4.58D-06
 IDIUse=3 WtCom= 9.98D-01 WtEn= 2.31D-03
 Rare condition: small coef for last iteration:  0.000D+00
 Coeff-Com:  0.309D+00-0.440D-01 0.145D+00-0.125D+00 0.136D+00-0.284D+01
 Coeff-Com:  0.342D+01
 Coeff-En:   0.000D+00 0.000D+00 0.000D+00 0.000D+00 0.000D+00 0.000D+00
 Coeff-En:   0.100D+01
 Coeff:      0.309D+00-0.440D-01 0.145D+00-0.125D+00 0.136D+00-0.284D+01
 Coeff:      0.342D+01
 Gap=     0.251 Goal=   None    Shift=    0.000
 Gap=     0.229 Goal=   None    Shift=    0.000
 RMSDP=1.18D-03 MaxDP=1.18D-02 DE= 1.50D-04 OVMax= 8.53D-02

 Cycle  46  Pass 1  IDiag  1:
 E= -76.7218912687043     Delta-E=        0.000317412792 Rises=F Damp=F
 DIIS: error= 8.53D-04 at cycle  46 NSaved=   8.
 NSaved= 8 IEnMin= 1 EnMin= -76.7224463215540     IErMin= 2 ErrMin= 2.85D-04
 ErrMax= 8.53D-04  0.00D+00 EMaxC= 1.00D-01 BMatC= 1.01D-04 BMatP= 4.58D-06
 IDIUse=3 WtCom= 9.98D-01 WtEn= 2.31D-03
 Rare condition: small coef for last iteration:  0.000D+00
 Coeff-Com:  0.199D+00-0.108D+00-0.906D+00 0.112D+00-0.644D+00-0.201D+01
 Coeff-Com:  0.319D+01 0.117D+01
 Coeff-En:   0.000D+00 0.000D+00 0.000D+00 0.000D+00 0.000D+00 0.000D+00
 Coeff-En:   0.000D+00 0.100D+01
 Coeff:      0.199D+00-0.108D+00-0.906D+00 0.112D+00-0.644D+00-0.201D+01
 Coeff:      0.319D+01 0.117D+01
 Gap=     0.255 Goal=   None    Shift=    0.000
 Gap=     0.231 Goal=   None    Shift=    0.000
 RMSDP=1.39D-04 MaxDP=1.53D-03 DE= 3.17D-04 OVMax= 1.06D-02

 Cycle  47  Pass 1  IDiag  1:
 E= -76.7218198195344     Delta-E=        0.000071449170 Rises=F Damp=F
 DIIS: error= 1.13D-03 at cycle  47 NSaved=   9.
 NSaved= 9 IEnMin= 1 EnMin= -76.7224463215540     IErMin= 2 ErrMin= 2.85D-04
 ErrMax= 1.13D-03  0.00D+00 EMaxC= 1.00D-01 BMatC= 1.89D-04 BMatP= 4.58D-06
 IDIUse=3 WtCom= 9.98D-01 WtEn= 2.31D-03
 Rare condition: small coef for last iteration:  0.000D+00
 Coeff-Com:  0.140D+00-0.877D-01-0.742D+00 0.216D+00-0.100D+01-0.167D+01
 Coeff-Com:  0.310D+01-0.306D+00 0.136D+01
 Coeff-En:   0.000D+00 0.000D+00 0.000D+00 0.000D+00 0.000D+00 0.000D+00
 Coeff-En:   0.000D+00 0.000D+00 0.100D+01
 Coeff:      0.140D+00-0.877D-01-0.742D+00 0.216D+00-0.100D+01-0.167D+01
 Coeff:      0.310D+01-0.306D+00 0.136D+01
 Gap=     0.248 Goal=   None    Shift=    0.000
 Gap=     0.232 Goal=   None    Shift=    0.000
 RMSDP=6.18D-04 MaxDP=6.11D-03 DE= 7.14D-05 OVMax= 4.45D-02

 Cycle  48  Pass 1  IDiag  1:
 E= -76.7219994275964     Delta-E=       -0.000179608062 Rises=F Damp=F
 DIIS: error= 9.16D-04 at cycle  48 NSaved=  10.
 NSaved=10 IEnMin= 1 EnMin= -76.7224463215540     IErMin= 2 ErrMin= 2.85D-04
 ErrMax= 9.16D-04  0.00D+00 EMaxC= 1.00D-01 BMatC= 1.24D-04 BMatP= 4.58D-06
 IDIUse=3 WtCom= 9.98D-01 WtEn= 2.31D-03
 Coeff-Com:  0.154D+00 0.276D+00-0.108D+01 0.428D-01-0.185D+00-0.246D+01
 Coeff-Com:  0.304D+01 0.749D+00-0.204D+01 0.250D+01
 Coeff-En:   0.000D+00 0.000D+00 0.000D+00 0.000D+00 0.000D+00 0.000D+00
 Coeff-En:   0.000D+00 0.000D+00 0.000D+00 0.100D+01
 Coeff:      0.154D+00 0.276D+00-0.108D+01 0.427D-01-0.184D+00-0.245D+01
 Coeff:      0.304D+01 0.747D+00-0.204D+01 0.250D+01
 Gap=     0.251 Goal=   None    Shift=    0.000
 Gap=     0.233 Goal=   None    Shift=    0.000
 RMSDP=1.69D-04 MaxDP=1.78D-03 DE=-1.80D-04 OVMax= 1.27D-02

 Cycle  49  Pass 1  IDiag  1:
 E= -76.7219202236482     Delta-E=        0.000079203948 Rises=F Damp=F
 DIIS: error= 1.22D-03 at cycle  49 NSaved=  11.
 NSaved=11 IEnMin= 1 EnMin= -76.7224463215540     IErMin= 2 ErrMin= 2.85D-04
 ErrMax= 1.22D-03  0.00D+00 EMaxC= 1.00D-01 BMatC= 2.15D-04 BMatP= 4.58D-06
 IDIUse=3 WtCom= 9.98D-01 WtEn= 2.31D-03
 Rare condition: small coef for last iteration:  0.000D+00
 Coeff-Com:  0.171D+00-0.152D+00 0.147D+01 0.218D-01 0.269D+00-0.321D+01
 Coeff-Com:  0.235D+01 0.119D+01-0.520D+01 0.150D+01 0.258D+01
 Coeff-En:   0.000D+00 0.000D+00 0.000D+00 0.000D+00 0.000D+00 0.000D+00
 Coeff-En:   0.000D+00 0.000D+00 0.000D+00 0.000D+00 0.100D+01
 Coeff:      0.171D+00-0.152D+00 0.147D+01 0.218D-01 0.269D+00-0.321D+01
 Coeff:      0.235D+01 0.119D+01-0.520D+01 0.150D+01 0.258D+01
 Gap=     0.245 Goal=   None    Shift=    0.000
 Gap=     0.235 Goal=   None    Shift=    0.000
 RMSDP=6.22D-04 MaxDP=6.39D-03 DE= 7.92D-05 OVMax= 4.20D-02

 Cycle  50  Pass 1  IDiag  1:
 E= -76.7219934480371     Delta-E=       -0.000073224389 Rises=F Damp=F
 DIIS: error= 1.66D-03 at cycle  50 NSaved=  12.
 NSaved=12 IEnMin= 1 EnMin= -76.7224463215540     IErMin= 2 ErrMin= 2.85D-04
 ErrMax= 1.66D-03  0.00D+00 EMaxC= 1.00D-01 BMatC= 3.73D-04 BMatP= 4.58D-06
 IDIUse=3 WtCom= 9.98D-01 WtEn= 2.31D-03
 Coeff-Com:  0.104D+00-0.913D-01 0.282D+00 0.154D+00-0.135D+00-0.326D+01
 Coeff-Com:  0.393D+01 0.747D+00-0.388D+01 0.106D+01 0.132D+01 0.767D+00
 Coeff-En:   0.000D+00 0.000D+00 0.000D+00 0.000D+00 0.000D+00 0.000D+00
 Coeff-En:   0.000D+00 0.000D+00 0.000D+00 0.000D+00 0.000D+00 0.100D+01
 Coeff:      0.104D+00-0.910D-01 0.281D+00 0.154D+00-0.135D+00-0.325D+01
 Coeff:      0.392D+01 0.746D+00-0.387D+01 0.106D+01 0.131D+01 0.768D+00
 Gap=     0.244 Goal=   None    Shift=    0.000
 Gap=     0.237 Goal=   None    Shift=    0.000
 RMSDP=2.54D-04 MaxDP=2.84D-03 DE=-7.32D-05 OVMax= 1.70D-02

 Cycle  51  Pass 1  IDiag  1:
 E= -76.7220051359457     Delta-E=       -0.000011687909 Rises=F Damp=F
 DIIS: error= 1.92D-03 at cycle  51 NSaved=  13.
 NSaved=13 IEnMin= 1 EnMin= -76.7224463215540     IErMin= 2 ErrMin= 2.85D-04
 ErrMax= 1.92D-03  0.00D+00 EMaxC= 1.00D-01 BMatC= 4.81D-04 BMatP= 4.58D-06
 IDIUse=3 WtCom= 9.98D-01 WtEn= 2.31D-03
 Coeff-Com:  0.265D+00-0.751D+00 0.251D+01 0.405D-01 0.346D+00-0.294D+01
 Coeff-Com:  0.189D+01 0.235D+01-0.650D+01 0.181D+00 0.185D+01 0.565D+01
 Coeff-Com: -0.390D+01
 Coeff-En:   0.000D+00 0.000D+00 0.000D+00 0.000D+00 0.000D+00 0.000D+00
 Coeff-En:   0.000D+00 0.000D+00 0.000D+00 0.000D+00 0.000D+00 0.000D+00
 Coeff-En:   0.100D+01
 Coeff:      0.264D+00-0.750D+00 0.250D+01 0.404D-01 0.346D+00-0.293D+01
 Coeff:      0.188D+01 0.235D+01-0.649D+01 0.180D+00 0.185D+01 0.564D+01
 Coeff:     -0.389D+01
 Gap=     0.244 Goal=   None    Shift=    0.000
 Gap=     0.237 Goal=   None    Shift=    0.000
 RMSDP=1.41D-05 MaxDP=2.09D-04 DE=-1.17D-05 OVMax= 9.63D-04

 Cycle  52  Pass 1  IDiag  1:
 E= -76.7219952316166     Delta-E=        0.000009904329 Rises=F Damp=F
 DIIS: error= 1.95D-03 at cycle  52 NSaved=  14.
 NSaved=14 IEnMin= 1 EnMin= -76.7224463215540     IErMin= 2 ErrMin= 2.85D-04
 ErrMax= 1.95D-03  0.00D+00 EMaxC= 1.00D-01 BMatC= 4.98D-04 BMatP= 4.58D-06
 IDIUse=3 WtCom= 9.98D-01 WtEn= 2.31D-03
 Rare condition: small coef for last iteration:  0.000D+00
 Coeff-Com:  0.240D+00-0.726D+00 0.361D+01-0.728D-01 0.112D+01-0.376D+01
 Coeff-Com:  0.123D+01 0.326D+01-0.994D+01 0.210D+01 0.129D+01 0.746D+01
 Coeff-Com: -0.295D+01-0.187D+01
 Coeff-En:   0.000D+00 0.000D+00 0.000D+00 0.000D+00 0.000D+00 0.000D+00
 Coeff-En:   0.000D+00 0.000D+00 0.000D+00 0.000D+00 0.000D+00 0.000D+00
 Coeff-En:   0.000D+00 0.100D+01
 Coeff:      0.240D+00-0.726D+00 0.361D+01-0.728D-01 0.112D+01-0.376D+01
 Coeff:      0.123D+01 0.326D+01-0.994D+01 0.210D+01 0.129D+01 0.746D+01
 Coeff:     -0.295D+01-0.187D+01
 Gap=     0.243 Goal=   None    Shift=    0.000
 Gap=     0.239 Goal=   None    Shift=    0.000
 RMSDP=2.31D-04 MaxDP=2.72D-03 DE= 9.90D-06 OVMax= 1.35D-02

 Cycle  53  Pass 1  IDiag  1:
 E= -76.7218987141878     Delta-E=        0.000096517429 Rises=F Damp=F
 DIIS: error= 2.56D-03 at cycle  53 NSaved=  15.
 NSaved=15 IEnMin= 1 EnMin= -76.7224463215540     IErMin= 2 ErrMin= 2.85D-04
 ErrMax= 2.56D-03  0.00D+00 EMaxC= 1.00D-01 BMatC= 8.36D-04 BMatP= 4.58D-06
 IDIUse=3 WtCom= 9.98D-01 WtEn= 2.31D-03
 Rare condition: small coef for last iteration:  0.000D+00
 Coeff-Com:  0.201D+00-0.663D+00 0.897D+00 0.313D+00-0.294D+00-0.433D+01
 Coeff-Com:  0.428D+01 0.305D+01-0.560D+01 0.134D+00-0.113D+01 0.341D+01
 Coeff-Com:  0.282D+01 0.109D+01-0.317D+01
 Coeff-En:   0.000D+00 0.000D+00 0.000D+00 0.000D+00 0.000D+00 0.000D+00
 Coeff-En:   0.000D+00 0.000D+00 0.000D+00 0.000D+00 0.000D+00 0.000D+00
 Coeff-En:   0.000D+00 0.000D+00 0.100D+01
 Coeff:      0.201D+00-0.663D+00 0.897D+00 0.313D+00-0.294D+00-0.433D+01
 Coeff:      0.428D+01 0.305D+01-0.560D+01 0.134D+00-0.113D+01 0.341D+01
 Coeff:      0.282D+01 0.109D+01-0.317D+01
 Gap=     0.246 Goal=   None    Shift=    0.000
 Gap=     0.239 Goal=   None    Shift=    0.000
 RMSDP=2.75D-04 MaxDP=2.98D-03 DE= 9.65D-05 OVMax= 1.95D-02

 Cycle  54  Pass 1  IDiag  1:
 E= -76.7217896509000     Delta-E=        0.000109063288 Rises=F Damp=F
 DIIS: error= 2.70D-03 at cycle  54 NSaved=  16.
 NSaved=16 IEnMin= 1 EnMin= -76.7224463215540     IErMin= 2 ErrMin= 2.85D-04
 ErrMax= 2.70D-03  0.00D+00 EMaxC= 1.00D-01 BMatC= 9.41D-04 BMatP= 4.58D-06
 IDIUse=3 WtCom= 9.98D-01 WtEn= 2.31D-03
 Rare condition: small coef for last iteration:  0.000D+00
 Coeff-Com:  0.332D+00-0.597D+00 0.892D+00 0.463D-01 0.619D+00-0.428D+01
 Coeff-Com:  0.403D+01 0.322D+01-0.777D+01 0.207D+01-0.112D+01 0.380D+01
 Coeff-Com:  0.743D+00 0.173D+01-0.397D+01 0.125D+01
 Coeff-En:   0.000D+00 0.000D+00 0.000D+00 0.000D+00 0.000D+00 0.000D+00
 Coeff-En:   0.000D+00 0.000D+00 0.000D+00 0.000D+00 0.000D+00 0.000D+00
 Coeff-En:   0.000D+00 0.000D+00 0.000D+00 0.100D+01
 Coeff:      0.332D+00-0.597D+00 0.892D+00 0.463D-01 0.619D+00-0.428D+01
 Coeff:      0.403D+01 0.322D+01-0.777D+01 0.207D+01-0.112D+01 0.380D+01
 Coeff:      0.743D+00 0.173D+01-0.397D+01 0.125D+01
 Gap=     0.246 Goal=   None    Shift=    0.000
 Gap=     0.238 Goal=   None    Shift=    0.000
 RMSDP=4.38D-05 MaxDP=4.59D-04 DE= 1.09D-04 OVMax= 2.35D-03

 Cycle  55  Pass 1  IDiag  1:
 E= -76.7218313899524     Delta-E=       -0.000041739052 Rises=F Damp=F
 DIIS: error= 2.53D-03 at cycle  55 NSaved=  17.
 NSaved=17 IEnMin= 1 EnMin= -76.7224463215540     IErMin= 2 ErrMin= 2.85D-04
 ErrMax= 2.53D-03  0.00D+00 EMaxC= 1.00D-01 BMatC= 8.27D-04 BMatP= 4.58D-06
 IDIUse=3 WtCom= 9.98D-01 WtEn= 2.31D-03
 Coeff-Com:  0.299D+00-0.440D+00 0.807D+00 0.548D-01 0.598D+00-0.418D+01
 Coeff-Com:  0.373D+01 0.312D+01-0.791D+01 0.275D+01-0.115D+01 0.367D+01
 Coeff-Com:  0.102D+01 0.714D+00-0.357D+01 0.404D+00 0.107D+01
 Coeff-En:   0.000D+00 0.000D+00 0.000D+00 0.000D+00 0.000D+00 0.000D+00
 Coeff-En:   0.000D+00 0.000D+00 0.000D+00 0.000D+00 0.000D+00 0.000D+00
 Coeff-En:   0.000D+00 0.000D+00 0.000D+00 0.000D+00 0.100D+01
 Coeff:      0.298D+00-0.439D+00 0.805D+00 0.546D-01 0.597D+00-0.417D+01
 Coeff:      0.373D+01 0.311D+01-0.789D+01 0.274D+01-0.115D+01 0.367D+01
 Coeff:      0.101D+01 0.713D+00-0.356D+01 0.404D+00 0.107D+01
 Gap=     0.245 Goal=   None    Shift=    0.000
 Gap=     0.238 Goal=   None    Shift=    0.000
 RMSDP=6.23D-05 MaxDP=6.79D-04 DE=-4.17D-05 OVMax= 4.39D-03

 Cycle  56  Pass 1  IDiag  1:
 E= -76.7218437173967     Delta-E=       -0.000012327444 Rises=F Damp=F
 DIIS: error= 2.54D-03 at cycle  56 NSaved=  18.
 NSaved=18 IEnMin= 1 EnMin= -76.7224463215540     IErMin= 2 ErrMin= 2.85D-04
 ErrMax= 2.54D-03  0.00D+00 EMaxC= 1.00D-01 BMatC= 8.29D-04 BMatP= 4.58D-06
 IDIUse=3 WtCom= 9.98D-01 WtEn= 2.31D-03
 Coeff-Com:  0.279D+00-0.350D+00 0.599D+00 0.645D-01 0.661D+00-0.392D+01
 Coeff-Com:  0.361D+01 0.318D+01-0.868D+01 0.348D+01-0.991D+00 0.289D+01
 Coeff-Com:  0.125D+01 0.856D+00-0.354D+01 0.205D+00 0.358D+01-0.217D+01
 Coeff-En:   0.000D+00 0.000D+00 0.000D+00 0.000D+00 0.000D+00 0.000D+00
 Coeff-En:   0.000D+00 0.000D+00 0.000D+00 0.000D+00 0.000D+00 0.000D+00
 Coeff-En:   0.000D+00 0.000D+00 0.000D+00 0.000D+00 0.000D+00 0.100D+01
 Coeff:      0.278D+00-0.349D+00 0.598D+00 0.643D-01 0.659D+00-0.391D+01
 Coeff:      0.360D+01 0.317D+01-0.866D+01 0.347D+01-0.989D+00 0.289D+01
 Coeff:      0.124D+01 0.854D+00-0.353D+01 0.204D+00 0.357D+01-0.216D+01
 Gap=     0.242 Goal=   None    Shift=    0.000
 Gap=     0.240 Goal=   None    Shift=    0.000
 RMSDP=3.30D-04 MaxDP=3.81D-03 DE=-1.23D-05 OVMax= 2.26D-02

 Cycle  57  Pass 1  IDiag  1:
 E= -76.7218819748290     Delta-E=       -0.000038257432 Rises=F Damp=F
 DIIS: error= 2.69D-03 at cycle  57 NSaved=  19.
 NSaved=19 IEnMin= 1 EnMin= -76.7224463215540     IErMin= 2 ErrMin= 2.85D-04
 ErrMax= 2.69D-03  0.00D+00 EMaxC= 1.00D-01 BMatC= 9.17D-04 BMatP= 4.58D-06
 IDIUse=3 WtCom= 9.98D-01 WtEn= 2.31D-03
 Coeff-Com:  0.390D+00-0.591D+00 0.754D+00 0.654D-01 0.576D+00-0.427D+01
 Coeff-Com:  0.444D+01 0.252D+01-0.779D+01 0.283D+01-0.127D+01 0.249D+01
 Coeff-Com:  0.646D+00 0.123D+01-0.293D+00-0.137D+01-0.236D+01 0.772D+01
 Coeff-Com: -0.471D+01
 Coeff-En:   0.000D+00 0.000D+00 0.000D+00 0.000D+00 0.000D+00 0.000D+00
 Coeff-En:   0.000D+00 0.000D+00 0.000D+00 0.000D+00 0.000D+00 0.000D+00
 Coeff-En:   0.000D+00 0.000D+00 0.000D+00 0.000D+00 0.000D+00 0.000D+00
 Coeff-En:   0.100D+01
 Coeff:      0.389D+00-0.590D+00 0.752D+00 0.652D-01 0.575D+00-0.426D+01
 Coeff:      0.443D+01 0.251D+01-0.777D+01 0.282D+01-0.126D+01 0.249D+01
 Coeff:      0.644D+00 0.122D+01-0.293D+00-0.137D+01-0.235D+01 0.770D+01
 Coeff:     -0.470D+01
 Gap=     0.243 Goal=   None    Shift=    0.000
 Gap=     0.241 Goal=   None    Shift=    0.000
 RMSDP=5.07D-05 MaxDP=5.43D-04 DE=-3.83D-05 OVMax= 3.32D-03

 Cycle  58  Pass 1  IDiag  1:
 E= -76.7218085881918     Delta-E=        0.000073386637 Rises=F Damp=F
 DIIS: error= 2.95D-03 at cycle  58 NSaved=  20.
 NSaved=20 IEnMin= 1 EnMin= -76.7224463215540     IErMin= 2 ErrMin= 2.85D-04
 ErrMax= 2.95D-03  0.00D+00 EMaxC= 1.00D-01 BMatC= 1.10D-03 BMatP= 4.58D-06
 IDIUse=3 WtCom= 9.98D-01 WtEn= 2.31D-03
 Rare condition: small coef for last iteration:  0.000D+00
 Coeff-Com:  0.390D+00-0.591D+00 0.751D+00 0.662D-01 0.571D+00-0.427D+01
 Coeff-Com:  0.444D+01 0.252D+01-0.778D+01 0.281D+01-0.126D+01 0.247D+01
 Coeff-Com:  0.665D+00 0.125D+01-0.323D+00-0.136D+01-0.232D+01 0.766D+01
 Coeff-Com: -0.472D+01 0.219D-01
 Coeff-En:   0.000D+00 0.000D+00 0.000D+00 0.000D+00 0.000D+00 0.000D+00
 Coeff-En:   0.000D+00 0.000D+00 0.000D+00 0.000D+00 0.000D+00 0.000D+00
 Coeff-En:   0.000D+00 0.000D+00 0.000D+00 0.000D+00 0.000D+00 0.000D+00
 Coeff-En:   0.000D+00 0.100D+01
 Coeff:      0.390D+00-0.591D+00 0.751D+00 0.662D-01 0.571D+00-0.427D+01
 Coeff:      0.444D+01 0.252D+01-0.778D+01 0.281D+01-0.126D+01 0.247D+01
 Coeff:      0.665D+00 0.125D+01-0.323D+00-0.136D+01-0.232D+01 0.766D+01
 Coeff:     -0.472D+01 0.219D-01
 Gap=     0.243 Goal=   None    Shift=    0.000
 Gap=     0.241 Goal=   None    Shift=    0.000
 RMSDP=3.28D-06 MaxDP=4.28D-05 DE= 7.34D-05 OVMax= 2.58D-04

 Cycle  59  Pass 1  IDiag  1:
 E= -76.7218048814158     Delta-E=        0.000003706776 Rises=F Damp=F
 DIIS: error= 2.97D-03 at cycle  59 NSaved=  20.
 NSaved=20 IEnMin= 1 EnMin= -76.7224463215540     IErMin= 2 ErrMin= 2.85D-04
 ErrMax= 2.97D-03  0.00D+00 EMaxC= 1.00D-01 BMatC= 1.11D-03 BMatP= 4.58D-06
 IDIUse=3 WtCom= 9.98D-01 WtEn= 2.31D-03
 Rare condition: small coef for last iteration:  0.000D+00
 Coeff-Com:  0.448D+00-0.524D+00 0.556D+00 0.906D+00-0.404D+01 0.422D+01
 Coeff-Com:  0.194D+01-0.899D+01 0.484D+01-0.651D+00 0.267D+00 0.193D+01
 Coeff-Com:  0.854D+00-0.733D+00-0.237D+01 0.597D+01 0.376D+00-0.459D+01
 Coeff-Com:  0.993D+01-0.933D+01
 Coeff-En:   0.000D+00 0.000D+00 0.000D+00 0.000D+00 0.000D+00 0.000D+00
 Coeff-En:   0.000D+00 0.000D+00 0.000D+00 0.000D+00 0.000D+00 0.000D+00
 Coeff-En:   0.000D+00 0.000D+00 0.000D+00 0.000D+00 0.000D+00 0.000D+00
 Coeff-En:   0.000D+00 0.100D+01
 Coeff:      0.448D+00-0.524D+00 0.556D+00 0.906D+00-0.404D+01 0.422D+01
 Coeff:      0.194D+01-0.899D+01 0.484D+01-0.651D+00 0.267D+00 0.193D+01
 Coeff:      0.854D+00-0.733D+00-0.237D+01 0.597D+01 0.376D+00-0.459D+01
 Coeff:      0.993D+01-0.933D+01
 Gap=     0.240 Goal=   None    Shift=    0.000
 Gap=     0.242 Goal=   None    Shift=    0.000
 RMSDP=2.77D-04 MaxDP=3.29D-03 DE= 3.71D-06 OVMax= 1.91D-02

 Cycle  60  Pass 1  IDiag  1:
 E= -76.7218544953339     Delta-E=       -0.000049613918 Rises=F Damp=F
 DIIS: error= 3.04D-03 at cycle  60 NSaved=  20.
 NSaved=20 IEnMin= 1 EnMin= -76.7224463215540     IErMin= 2 ErrMin= 2.85D-04
 ErrMax= 3.04D-03  0.00D+00 EMaxC= 1.00D-01 BMatC= 1.14D-03 BMatP= 4.58D-06
 IDIUse=3 WtCom= 9.98D-01 WtEn= 2.31D-03
 Coeff-Com:  0.501D+00-0.503D+00-0.612D+00-0.380D+01 0.511D+01 0.138D+01
 Coeff-Com: -0.303D+01 0.767D+00-0.832D+00-0.960D+00 0.234D+01 0.372D+01
 Coeff-Com: -0.331D+01-0.159D+00 0.107D+01 0.259D+01-0.570D+01 0.737D+01
 Coeff-Com: -0.525D+01 0.315D+00
 Coeff-En:   0.000D+00 0.000D+00 0.000D+00 0.000D+00 0.000D+00 0.000D+00
 Coeff-En:   0.000D+00 0.000D+00 0.000D+00 0.000D+00 0.000D+00 0.000D+00
 Coeff-En:   0.000D+00 0.000D+00 0.000D+00 0.000D+00 0.000D+00 0.000D+00
 Coeff-En:   0.000D+00 0.100D+01
 Coeff:      0.500D+00-0.501D+00-0.611D+00-0.379D+01 0.510D+01 0.138D+01
 Coeff:     -0.303D+01 0.765D+00-0.830D+00-0.958D+00 0.233D+01 0.371D+01
 Coeff:     -0.330D+01-0.158D+00 0.107D+01 0.259D+01-0.569D+01 0.735D+01
 Coeff:     -0.524D+01 0.316D+00
 Gap=     0.249 Goal=   None    Shift=    0.000
 Gap=     0.232 Goal=   None    Shift=    0.000
 RMSDP=1.49D-03 MaxDP=1.67D-02 DE=-4.96D-05 OVMax= 1.01D-01

 Cycle  61  Pass 1  IDiag  1:
 E= -76.7217593252029     Delta-E=        0.000095170131 Rises=F Damp=F
 DIIS: error= 2.04D-03 at cycle  61 NSaved=  20.
 NSaved=20 IEnMin= 1 EnMin= -76.7224463215540     IErMin= 2 ErrMin= 2.85D-04
 ErrMax= 2.04D-03  0.00D+00 EMaxC= 1.00D-01 BMatC= 5.64D-04 BMatP= 4.58D-06
 IDIUse=3 WtCom= 9.98D-01 WtEn= 2.31D-03
 Rare condition: small coef for last iteration:  0.000D+00
 Coeff-Com:  0.451D+00-0.711D+00 0.571D+00-0.417D+01 0.487D+01 0.182D+01
 Coeff-Com: -0.537D+01 0.150D+01-0.226D+01 0.115D+01 0.246D+01 0.288D+00
 Coeff-Com:  0.476D-01 0.748D+00-0.650D+01 0.462D+01 0.960D+01-0.912D+01
 Coeff-Com: -0.277D+01 0.378D+01
 Coeff-En:   0.000D+00 0.000D+00 0.000D+00 0.000D+00 0.000D+00 0.000D+00
 Coeff-En:   0.000D+00 0.000D+00 0.000D+00 0.000D+00 0.000D+00 0.000D+00
 Coeff-En:   0.000D+00 0.000D+00 0.000D+00 0.000D+00 0.000D+00 0.000D+00
 Coeff-En:   0.000D+00 0.100D+01
 Coeff:      0.451D+00-0.711D+00 0.571D+00-0.417D+01 0.487D+01 0.182D+01
 Coeff:     -0.537D+01 0.150D+01-0.226D+01 0.115D+01 0.246D+01 0.288D+00
 Coeff:      0.476D-01 0.748D+00-0.650D+01 0.462D+01 0.960D+01-0.912D+01
 Coeff:     -0.277D+01 0.378D+01
 Gap=     0.245 Goal=   None    Shift=    0.000
 Gap=     0.237 Goal=   None    Shift=    0.000
 RMSDP=7.46D-04 MaxDP=7.62D-03 DE= 9.52D-05 OVMax= 5.15D-02

 Cycle  62  Pass 1  IDiag  1:
 E= -76.7218474468979     Delta-E=       -0.000088121695 Rises=F Damp=F
 DIIS: error= 2.41D-03 at cycle  62 NSaved=  20.
 NSaved=20 IEnMin= 1 EnMin= -76.7224463215540     IErMin= 2 ErrMin= 2.85D-04
 ErrMax= 2.41D-03  0.00D+00 EMaxC= 1.00D-01 BMatC= 7.47D-04 BMatP= 4.58D-06
 IDIUse=3 WtCom= 9.98D-01 WtEn= 2.31D-03
 Coeff-Com:  0.401D+00-0.413D+00 0.227D+01-0.696D+01 0.599D+01 0.153D+01
 Coeff-Com: -0.400D+01-0.677D+00-0.319D+01 0.744D+01-0.290D+00-0.530D+01
 Coeff-Com:  0.422D+01-0.844D+01 0.297D+01 0.845D+01-0.662D+01-0.148D+01
 Coeff-Com:  0.288D+01 0.220D+01
 Coeff-En:   0.000D+00 0.000D+00 0.000D+00 0.000D+00 0.000D+00 0.000D+00
 Coeff-En:   0.000D+00 0.000D+00 0.000D+00 0.000D+00 0.000D+00 0.000D+00
 Coeff-En:   0.000D+00 0.000D+00 0.000D+00 0.000D+00 0.000D+00 0.000D+00
 Coeff-En:   0.000D+00 0.100D+01
 Coeff:      0.400D+00-0.412D+00 0.227D+01-0.695D+01 0.597D+01 0.153D+01
 Coeff:     -0.399D+01-0.676D+00-0.318D+01 0.743D+01-0.289D+00-0.528D+01
 Coeff:      0.421D+01-0.842D+01 0.296D+01 0.843D+01-0.660D+01-0.147D+01
 Coeff:      0.288D+01 0.219D+01
 Gap=     0.254 Goal=   None    Shift=    0.000
 Gap=     0.237 Goal=   None    Shift=    0.000
 RMSDP=7.08D-04 MaxDP=7.20D-03 DE=-8.81D-05 OVMax= 5.19D-02

 Cycle  63  Pass 1  IDiag  1:
 E= -76.7214208514491     Delta-E=        0.000426595449 Rises=F Damp=F
 DIIS: error= 3.19D-03 at cycle  63 NSaved=  20.
 NSaved=20 IEnMin= 1 EnMin= -76.7224463215540     IErMin= 2 ErrMin= 2.85D-04
 ErrMax= 3.19D-03  0.00D+00 EMaxC= 1.00D-01 BMatC= 1.34D-03 BMatP= 4.58D-06
 IDIUse=3 WtCom= 9.98D-01 WtEn= 2.31D-03
 Rare condition: small coef for last iteration:  0.000D+00
 Coeff-Com:  0.475D+00-0.322D+00 0.132D+01-0.661D+01 0.617D+01 0.109D+01
 Coeff-Com: -0.247D+01-0.744D+00-0.189D+01 0.475D+01 0.223D+00-0.183D+01
 Coeff-Com:  0.623D+00-0.540D+01 0.642D+01 0.111D+01-0.512D+01 0.100D+01
 Coeff-Com:  0.198D+01 0.213D+00
 Coeff-En:   0.000D+00 0.000D+00 0.000D+00 0.000D+00 0.000D+00 0.000D+00
 Coeff-En:   0.000D+00 0.000D+00 0.000D+00 0.000D+00 0.000D+00 0.000D+00
 Coeff-En:   0.000D+00 0.000D+00 0.000D+00 0.000D+00 0.000D+00 0.000D+00
 Coeff-En:   0.000D+00 0.100D+01
 Coeff:      0.475D+00-0.322D+00 0.132D+01-0.661D+01 0.617D+01 0.109D+01
 Coeff:     -0.247D+01-0.744D+00-0.189D+01 0.475D+01 0.223D+00-0.183D+01
 Coeff:      0.623D+00-0.540D+01 0.642D+01 0.111D+01-0.512D+01 0.100D+01
 Coeff:      0.198D+01 0.213D+00
 Gap=     0.260 Goal=   None    Shift=    0.000
 Gap=     0.236 Goal=   None    Shift=    0.000
 RMSDP=5.08D-04 MaxDP=4.78D-03 DE= 4.27D-04 OVMax= 3.56D-02

 Cycle  64  Pass 1  IDiag  1:
 E= -76.7213223019391     Delta-E=        0.000098549510 Rises=F Damp=F
 DIIS: error= 3.09D-03 at cycle  64 NSaved=  20.
 NSaved=20 IEnMin= 1 EnMin= -76.7224463215540     IErMin= 2 ErrMin= 2.85D-04
 ErrMax= 3.09D-03  0.00D+00 EMaxC= 1.00D-01 BMatC= 1.29D-03 BMatP= 4.58D-06
 IDIUse=3 WtCom= 9.98D-01 WtEn= 2.31D-03
 Rare condition: small coef for last iteration:  0.000D+00
 Coeff-Com:  0.452D+00-0.570D+00 0.265D+01-0.615D+01 0.463D+01 0.271D+01
 Coeff-Com: -0.540D+01-0.311D+00-0.121D+01 0.493D+01-0.108D+00-0.197D+01
 Coeff-Com:  0.144D+01-0.601D+01 0.115D+01 0.587D+01-0.408D+01 0.296D+01
 Coeff-Com: -0.176D+01 0.179D+01
 Coeff-En:   0.000D+00 0.000D+00 0.000D+00 0.000D+00 0.000D+00 0.000D+00
 Coeff-En:   0.000D+00 0.000D+00 0.000D+00 0.000D+00 0.000D+00 0.000D+00
 Coeff-En:   0.000D+00 0.000D+00 0.000D+00 0.000D+00 0.000D+00 0.000D+00
 Coeff-En:   0.000D+00 0.100D+01
 Coeff:      0.452D+00-0.570D+00 0.265D+01-0.615D+01 0.463D+01 0.271D+01
 Coeff:     -0.540D+01-0.311D+00-0.121D+01 0.493D+01-0.108D+00-0.197D+01
 Coeff:      0.144D+01-0.601D+01 0.115D+01 0.587D+01-0.408D+01 0.296D+01
 Coeff:     -0.176D+01 0.179D+01
 Gap=     0.251 Goal=   None    Shift=    0.000
 Gap=     0.237 Goal=   None    Shift=    0.000
 RMSDP=7.79D-04 MaxDP=7.56D-03 DE= 9.85D-05 OVMax= 5.54D-02

 Cycle  65  Pass 1  IDiag  1:
 E= -76.7215841761539     Delta-E=       -0.000261874215 Rises=F Damp=F
 DIIS: error= 2.94D-03 at cycle  65 NSaved=  20.
 NSaved=20 IEnMin= 1 EnMin= -76.7224463215540     IErMin= 2 ErrMin= 2.85D-04
 ErrMax= 2.94D-03  0.00D+00 EMaxC= 1.00D-01 BMatC= 1.13D-03 BMatP= 4.58D-06
 IDIUse=3 WtCom= 9.98D-01 WtEn= 2.31D-03
 Coeff-Com:  0.519D+00-0.628D+00 0.194D+01-0.593D+01 0.505D+01 0.275D+01
 Coeff-Com: -0.526D+01 0.234D-01-0.150D+01 0.380D+01 0.937D+00-0.611D+00
 Coeff-Com: -0.188D+00-0.334D+01 0.187D-01 0.445D+01-0.312D+01 0.232D+01
 Coeff-Com:  0.123D+01-0.146D+01
 Coeff-En:   0.000D+00 0.000D+00 0.000D+00 0.000D+00 0.000D+00 0.000D+00
 Coeff-En:   0.000D+00 0.000D+00 0.000D+00 0.000D+00 0.000D+00 0.000D+00
 Coeff-En:   0.000D+00 0.000D+00 0.000D+00 0.000D+00 0.000D+00 0.000D+00
 Coeff-En:   0.000D+00 0.100D+01
 Coeff:      0.518D+00-0.627D+00 0.193D+01-0.591D+01 0.504D+01 0.275D+01
 Coeff:     -0.525D+01 0.234D-01-0.150D+01 0.379D+01 0.935D+00-0.609D+00
 Coeff:     -0.187D+00-0.334D+01 0.187D-01 0.444D+01-0.311D+01 0.231D+01
 Coeff:      0.123D+01-0.145D+01
 Gap=     0.251 Goal=   None    Shift=    0.000
 Gap=     0.237 Goal=   None    Shift=    0.000
 RMSDP=4.06D-05 MaxDP=4.06D-04 DE=-2.62D-04 OVMax= 2.52D-03

 Cycle  66  Pass 1  IDiag  1:
 E= -76.7216404225816     Delta-E=       -0.000056246428 Rises=F Damp=F
 DIIS: error= 2.75D-03 at cycle  66 NSaved=  20.
 NSaved=20 IEnMin= 1 EnMin= -76.7224463215540     IErMin= 2 ErrMin= 2.85D-04
 ErrMax= 2.75D-03  0.00D+00 EMaxC= 1.00D-01 BMatC= 9.86D-04 BMatP= 4.58D-06
 IDIUse=3 WtCom= 9.98D-01 WtEn= 2.31D-03
 Coeff-Com:  0.611D+00-0.638D+00 0.135D+01-0.530D+01 0.480D+01 0.161D+01
 Coeff-Com: -0.448D+01 0.141D+01-0.130D+00 0.884D+00 0.585D-02 0.116D+01
 Coeff-Com: -0.627D+00-0.296D+01 0.728D+00 0.222D+01-0.179D+01 0.209D+00
 Coeff-Com: -0.232D+01 0.427D+01
 Coeff-En:   0.000D+00 0.000D+00 0.000D+00 0.000D+00 0.000D+00 0.000D+00
 Coeff-En:   0.000D+00 0.000D+00 0.000D+00 0.000D+00 0.000D+00 0.000D+00
 Coeff-En:   0.000D+00 0.000D+00 0.000D+00 0.000D+00 0.000D+00 0.000D+00
 Coeff-En:   0.000D+00 0.100D+01
 Coeff:      0.609D+00-0.637D+00 0.134D+01-0.529D+01 0.479D+01 0.160D+01
 Coeff:     -0.447D+01 0.140D+01-0.130D+00 0.882D+00 0.584D-02 0.116D+01
 Coeff:     -0.626D+00-0.295D+01 0.726D+00 0.222D+01-0.179D+01 0.209D+00
 Coeff:     -0.232D+01 0.426D+01
 Gap=     0.257 Goal=   None    Shift=    0.000
 Gap=     0.235 Goal=   None    Shift=    0.000
 RMSDP=6.45D-04 MaxDP=6.17D-03 DE=-5.62D-05 OVMax= 4.53D-02

 Cycle  67  Pass 1  IDiag  1:
 E= -76.7214666616803     Delta-E=        0.000173760901 Rises=F Damp=F
 DIIS: error= 2.76D-03 at cycle  67 NSaved=  20.
 NSaved=20 IEnMin= 1 EnMin= -76.7224463215540     IErMin= 2 ErrMin= 2.85D-04
 ErrMax= 2.76D-03  0.00D+00 EMaxC= 1.00D-01 BMatC= 1.02D-03 BMatP= 4.58D-06
 IDIUse=3 WtCom= 9.98D-01 WtEn= 2.31D-03
 Rare condition: small coef for last iteration:  0.000D+00
 Coeff-Com:  0.560D+00-0.767D+00 0.197D+01-0.541D+01 0.453D+01 0.236D+01
 Coeff-Com: -0.522D+01 0.706D+00-0.588D+00 0.237D+01 0.197D+00 0.112D+01
 Coeff-Com: -0.910D+00-0.405D+01 0.141D+01 0.300D+01-0.216D+01 0.726D+00
 Coeff-Com:  0.339D+00 0.817D+00
 Coeff-En:   0.000D+00 0.000D+00 0.000D+00 0.000D+00 0.000D+00 0.000D+00
 Coeff-En:   0.000D+00 0.000D+00 0.000D+00 0.000D+00 0.000D+00 0.000D+00
 Coeff-En:   0.000D+00 0.000D+00 0.000D+00 0.000D+00 0.000D+00 0.000D+00
 Coeff-En:   0.000D+00 0.100D+01
 Coeff:      0.560D+00-0.767D+00 0.197D+01-0.541D+01 0.453D+01 0.236D+01
 Coeff:     -0.522D+01 0.706D+00-0.588D+00 0.237D+01 0.197D+00 0.112D+01
 Coeff:     -0.910D+00-0.405D+01 0.141D+01 0.300D+01-0.216D+01 0.726D+00
 Coeff:      0.339D+00 0.817D+00
 Gap=     0.254 Goal=   None    Shift=    0.000
 Gap=     0.236 Goal=   None    Shift=    0.000
 RMSDP=3.37D-04 MaxDP=3.23D-03 DE= 1.74D-04 OVMax= 2.38D-02

 Cycle  68  Pass 1  IDiag  1:
 E= -76.7215679379384     Delta-E=       -0.000101276258 Rises=F Damp=F
 DIIS: error= 2.73D-03 at cycle  68 NSaved=  20.
 NSaved=20 IEnMin= 1 EnMin= -76.7224463215540     IErMin= 2 ErrMin= 2.85D-04
 ErrMax= 2.73D-03  0.00D+00 EMaxC= 1.00D-01 BMatC= 9.87D-04 BMatP= 4.58D-06
 IDIUse=3 WtCom= 9.98D-01 WtEn= 2.31D-03
 Coeff-Com:  0.554D+00-0.762D+00 0.204D+01-0.541D+01 0.445D+01 0.248D+01
 Coeff-Com: -0.530D+01 0.584D+00-0.599D+00 0.262D+01 0.209D+00 0.810D+00
 Coeff-Com: -0.746D+00-0.431D+01 0.176D+01 0.296D+01-0.222D+01 0.831D+00
 Coeff-Com:  0.740D+00 0.298D+00
 Coeff-En:   0.000D+00 0.000D+00 0.000D+00 0.000D+00 0.000D+00 0.000D+00
 Coeff-En:   0.000D+00 0.000D+00 0.000D+00 0.000D+00 0.000D+00 0.000D+00
 Coeff-En:   0.000D+00 0.000D+00 0.000D+00 0.000D+00 0.000D+00 0.000D+00
 Coeff-En:   0.000D+00 0.100D+01
 Coeff:      0.553D+00-0.760D+00 0.204D+01-0.540D+01 0.444D+01 0.247D+01
 Coeff:     -0.528D+01 0.583D+00-0.597D+00 0.261D+01 0.208D+00 0.808D+00
 Coeff:     -0.745D+00-0.430D+01 0.176D+01 0.295D+01-0.221D+01 0.829D+00
 Coeff:      0.738D+00 0.300D+00
 Gap=     0.254 Goal=   None    Shift=    0.000
 Gap=     0.236 Goal=   None    Shift=    0.000
 RMSDP=1.02D-05 MaxDP=9.15D-05 DE=-1.01D-04 OVMax= 7.15D-04

 Cycle  69  Pass 1  IDiag  1:
 E= -76.7215697532855     Delta-E=       -0.000001815347 Rises=F Damp=F
 DIIS: error= 2.73D-03 at cycle  69 NSaved=  20.
 NSaved=20 IEnMin= 1 EnMin= -76.7224463215540     IErMin= 2 ErrMin= 2.85D-04
 ErrMax= 2.73D-03  0.00D+00 EMaxC= 1.00D-01 BMatC= 9.85D-04 BMatP= 4.58D-06
 IDIUse=3 WtCom= 9.98D-01 WtEn= 2.31D-03
 Coeff-Com:  0.596D+00-0.785D+00 0.194D+01-0.534D+01 0.442D+01 0.194D+01
 Coeff-Com: -0.501D+01 0.110D+01 0.282D-01 0.515D+00 0.140D+01 0.177D+01
 Coeff-Com: -0.227D+01 0.167D+01-0.400D+01 0.233D+01-0.119D+01 0.539D+00
 Coeff-Com: -0.623D+01 0.757D+01
 Coeff-En:   0.000D+00 0.000D+00 0.000D+00 0.000D+00 0.000D+00 0.000D+00
 Coeff-En:   0.000D+00 0.000D+00 0.000D+00 0.000D+00 0.000D+00 0.000D+00
 Coeff-En:   0.000D+00 0.000D+00 0.000D+00 0.000D+00 0.000D+00 0.000D+00
 Coeff-En:   0.000D+00 0.100D+01
 Coeff:      0.594D+00-0.784D+00 0.194D+01-0.533D+01 0.441D+01 0.194D+01
 Coeff:     -0.500D+01 0.110D+01 0.281D-01 0.513D+00 0.140D+01 0.176D+01
 Coeff:     -0.227D+01 0.167D+01-0.399D+01 0.233D+01-0.118D+01 0.538D+00
 Coeff:     -0.622D+01 0.756D+01
 Gap=     0.256 Goal=   None    Shift=    0.000
 Gap=     0.236 Goal=   None    Shift=    0.000
 RMSDP=1.95D-04 MaxDP=1.85D-03 DE=-1.82D-06 OVMax= 1.36D-02

 Cycle  70  Pass 1  IDiag  1:
 E= -76.7215215102490     Delta-E=        0.000048243036 Rises=F Damp=F
 DIIS: error= 2.72D-03 at cycle  70 NSaved=  20.
 NSaved=20 IEnMin= 1 EnMin= -76.7224463215540     IErMin= 2 ErrMin= 2.85D-04
 ErrMax= 2.72D-03  0.00D+00 EMaxC= 1.00D-01 BMatC= 9.87D-04 BMatP= 4.58D-06
 IDIUse=3 WtCom= 9.98D-01 WtEn= 2.31D-03
 Rare condition: small coef for last iteration:  0.000D+00
[...]
 RMSDP=1.01D-04 MaxDP=9.96D-04 DE=-7.84D-06 OVMax= 7.29D-03

 Cycle 114  Pass 1  IDiag  1:
 E= -76.7214446939977     Delta-E=       -0.000045147282 Rises=F Damp=F
 DIIS: error= 2.90D-03 at cycle 114 NSaved=  20.
 NSaved=20 IEnMin= 1 EnMin= -76.7224463215540     IErMin= 2 ErrMin= 2.85D-04
 ErrMax= 2.90D-03  0.00D+00 EMaxC= 1.00D-01 BMatC= 1.12D-03 BMatP= 4.58D-06
 IDIUse=3 WtCom= 9.98D-01 WtEn= 2.31D-03
 Coeff-Com:  0.532D+00-0.633D+00 0.207D+01-0.603D+01 0.493D+01 0.192D+01
 Coeff-Com: -0.417D+01 0.322D-01-0.491D+00 0.186D+01 0.937D+00 0.134D+01
 Coeff-Com: -0.151D+01-0.211D+01-0.170D+01 0.400D+01-0.209D+01 0.127D+01
 Coeff-Com: -0.840D+00 0.169D+01
 Coeff-En:   0.000D+00 0.000D+00 0.000D+00 0.000D+00 0.000D+00 0.000D+00
 Coeff-En:   0.000D+00 0.000D+00 0.000D+00 0.000D+00 0.000D+00 0.000D+00
 Coeff-En:   0.000D+00 0.000D+00 0.000D+00 0.000D+00 0.000D+00 0.000D+00
 Coeff-En:   0.000D+00 0.100D+01
 Coeff:      0.531D+00-0.632D+00 0.206D+01-0.602D+01 0.491D+01 0.192D+01
 Coeff:     -0.416D+01 0.321D-01-0.490D+00 0.186D+01 0.934D+00 0.134D+01
 Coeff:     -0.151D+01-0.211D+01-0.170D+01 0.399D+01-0.209D+01 0.127D+01
 Coeff:     -0.838D+00 0.169D+01
 Gap=     0.258 Goal=   None    Shift=    0.000
 Gap=     0.236 Goal=   None    Shift=    0.000
 RMSDP=7.75D-05 MaxDP=7.15D-04 DE=-4.51D-05 OVMax= 5.36D-03

 Cycle 115  Pass 1  IDiag  1:
 E= -76.7214267583407     Delta-E=        0.000017935657 Rises=F Damp=F
 DIIS: error= 2.89D-03 at cycle 115 NSaved=  20.
 NSaved=20 IEnMin= 1 EnMin= -76.7224463215540     IErMin= 2 ErrMin= 2.85D-04
 ErrMax= 2.89D-03  0.00D+00 EMaxC= 1.00D-01 BMatC= 1.12D-03 BMatP= 4.58D-06
 IDIUse=3 WtCom= 9.98D-01 WtEn= 2.31D-03
 Rare condition: small coef for last iteration:  0.000D+00
 Coeff-Com:  0.530D+00-0.681D+00 0.241D+01-0.590D+01 0.453D+01 0.209D+01
 Coeff-Com: -0.428D+01-0.287D+00-0.425D+00 0.262D+01 0.533D+00 0.925D+00
 Coeff-Com: -0.122D+01-0.275D+01-0.462D+00 0.345D+01-0.210D+01 0.132D+01
 Coeff-Com:  0.121D+01-0.516D+00
 Coeff-En:   0.000D+00 0.000D+00 0.000D+00 0.000D+00 0.000D+00 0.000D+00
 Coeff-En:   0.000D+00 0.000D+00 0.000D+00 0.000D+00 0.000D+00 0.000D+00
 Coeff-En:   0.000D+00 0.000D+00 0.000D+00 0.000D+00 0.000D+00 0.000D+00
 Coeff-En:   0.000D+00 0.100D+01
 Coeff:      0.530D+00-0.681D+00 0.241D+01-0.590D+01 0.453D+01 0.209D+01
 Coeff:     -0.428D+01-0.287D+00-0.425D+00 0.262D+01 0.533D+00 0.925D+00
 Coeff:     -0.122D+01-0.275D+01-0.462D+00 0.345D+01-0.210D+01 0.132D+01
 Coeff:      0.121D+01-0.516D+00
 Gap=     0.257 Goal=   None    Shift=    0.000
 Gap=     0.236 Goal=   None    Shift=    0.000
 RMSDP=7.31D-05 MaxDP=6.79D-04 DE= 1.79D-05 OVMax= 5.07D-03

 Cycle 116  Pass 1  IDiag  1:
 E= -76.7214448097722     Delta-E=       -0.000018051432 Rises=F Damp=F
 DIIS: error= 2.90D-03 at cycle 116 NSaved=  20.
 NSaved=20 IEnMin= 1 EnMin= -76.7224463215540     IErMin= 2 ErrMin= 2.85D-04
 ErrMax= 2.90D-03  0.00D+00 EMaxC= 1.00D-01 BMatC= 1.12D-03 BMatP= 4.58D-06
 IDIUse=3 WtCom= 9.98D-01 WtEn= 2.31D-03
 Coeff-Com:  0.524D+00-0.646D+00 0.217D+01-0.593D+01 0.477D+01 0.218D+01
 Coeff-Com: -0.434D+01-0.264D+00-0.533D+00 0.262D+01 0.627D+00 0.785D+00
 Coeff-Com: -0.106D+01-0.300D+01-0.583D-01 0.336D+01-0.215D+01 0.134D+01
 Coeff-Com:  0.502D+00 0.121D+00
 Coeff-En:   0.000D+00 0.000D+00 0.000D+00 0.000D+00 0.000D+00 0.000D+00
 Coeff-En:   0.000D+00 0.000D+00 0.000D+00 0.000D+00 0.000D+00 0.000D+00
 Coeff-En:   0.000D+00 0.000D+00 0.000D+00 0.000D+00 0.000D+00 0.000D+00
 Coeff-En:   0.000D+00 0.100D+01
 Coeff:      0.523D+00-0.645D+00 0.216D+01-0.592D+01 0.476D+01 0.218D+01
 Coeff:     -0.433D+01-0.264D+00-0.531D+00 0.262D+01 0.625D+00 0.783D+00
 Coeff:     -0.106D+01-0.300D+01-0.581D-01 0.335D+01-0.214D+01 0.133D+01
 Coeff:      0.501D+00 0.123D+00
 Gap=     0.257 Goal=   None    Shift=    0.000
 Gap=     0.236 Goal=   None    Shift=    0.000
 RMSDP=6.96D-06 MaxDP=7.16D-05 DE=-1.81D-05 OVMax= 4.27D-04

 Cycle 117  Pass 1  IDiag  1:
 E= -76.7214460514461     Delta-E=       -0.000001241674 Rises=F Damp=F
 DIIS: error= 2.88D-03 at cycle 117 NSaved=  20.
 NSaved=20 IEnMin= 1 EnMin= -76.7224463215540     IErMin= 2 ErrMin= 2.85D-04
 ErrMax= 2.88D-03  0.00D+00 EMaxC= 1.00D-01 BMatC= 1.12D-03 BMatP= 4.58D-06
 IDIUse=3 WtCom= 9.98D-01 WtEn= 2.31D-03
 Coeff-Com:  0.530D+00-0.631D+00 0.200D+01-0.597D+01 0.494D+01 0.206D+01
 Coeff-Com: -0.430D+01-0.311D-01-0.553D+00 0.213D+01 0.921D+00 0.104D+01
 Coeff-Com: -0.134D+01-0.216D+01-0.114D+01 0.360D+01-0.210D+01 0.131D+01
 Coeff-Com: -0.768D+00 0.147D+01
 Coeff-En:   0.000D+00 0.000D+00 0.000D+00 0.000D+00 0.000D+00 0.000D+00
 Coeff-En:   0.000D+00 0.000D+00 0.000D+00 0.000D+00 0.000D+00 0.000D+00
 Coeff-En:   0.000D+00 0.000D+00 0.000D+00 0.000D+00 0.000D+00 0.000D+00
 Coeff-En:   0.000D+00 0.100D+01
 Coeff:      0.529D+00-0.629D+00 0.199D+01-0.595D+01 0.492D+01 0.206D+01
 Coeff:     -0.429D+01-0.311D-01-0.552D+00 0.212D+01 0.919D+00 0.104D+01
 Coeff:     -0.134D+01-0.215D+01-0.114D+01 0.360D+01-0.209D+01 0.130D+01
 Coeff:     -0.767D+00 0.147D+01
 Gap=     0.257 Goal=   None    Shift=    0.000
 Gap=     0.236 Goal=   None    Shift=    0.000
 RMSDP=1.48D-05 MaxDP=1.39D-04 DE=-1.24D-06 OVMax= 9.64D-04

 Cycle 118  Pass 1  IDiag  1:
 E= -76.7214469802928     Delta-E=       -0.000000928847 Rises=F Damp=F
 DIIS: error= 2.87D-03 at cycle 118 NSaved=  20.
 NSaved=20 IEnMin= 1 EnMin= -76.7224463215540     IErMin= 2 ErrMin= 2.85D-04
 ErrMax= 2.87D-03  0.00D+00 EMaxC= 1.00D-01 BMatC= 1.11D-03 BMatP= 4.58D-06
 IDIUse=3 WtCom= 9.98D-01 WtEn= 2.31D-03
 Coeff-Com:  0.526D+00-0.643D+00 0.205D+01-0.592D+01 0.484D+01 0.222D+01
 Coeff-Com: -0.442D+01-0.127D+00-0.584D+00 0.250D+01 0.701D+00 0.831D+00
 Coeff-Com: -0.108D+01-0.307D+01-0.498D-01 0.341D+01-0.215D+01 0.128D+01
 Coeff-Com: -0.104D+01 0.173D+01
 Coeff-En:   0.000D+00 0.000D+00 0.000D+00 0.000D+00 0.000D+00 0.000D+00
 Coeff-En:   0.000D+00 0.000D+00 0.000D+00 0.000D+00 0.000D+00 0.000D+00
 Coeff-En:   0.000D+00 0.000D+00 0.000D+00 0.000D+00 0.000D+00 0.000D+00
 Coeff-En:   0.000D+00 0.100D+01
 Coeff:      0.525D+00-0.641D+00 0.204D+01-0.591D+01 0.483D+01 0.221D+01
 Coeff:     -0.441D+01-0.127D+00-0.583D+00 0.249D+01 0.700D+00 0.829D+00
 Coeff:     -0.108D+01-0.306D+01-0.497D-01 0.340D+01-0.215D+01 0.128D+01
 Coeff:     -0.104D+01 0.172D+01
 Gap=     0.257 Goal=   None    Shift=    0.000
 Gap=     0.236 Goal=   None    Shift=    0.000
 RMSDP=8.93D-06 MaxDP=8.13D-05 DE=-9.29D-07 OVMax= 5.81D-04

 Cycle 119  Pass 1  IDiag  1:
 E= -76.7214459568851     Delta-E=        0.000001023408 Rises=F Damp=F
 DIIS: error= 2.88D-03 at cycle 119 NSaved=  20.
 NSaved=20 IEnMin= 1 EnMin= -76.7224463215540     IErMin= 2 ErrMin= 2.85D-04
 ErrMax= 2.88D-03  0.00D+00 EMaxC= 1.00D-01 BMatC= 1.11D-03 BMatP= 4.58D-06
 IDIUse=3 WtCom= 9.98D-01 WtEn= 2.31D-03
 Rare condition: small coef for last iteration:  0.000D+00
 Coeff-Com:  0.525D+00-0.667D+00 0.217D+01-0.587D+01 0.471D+01 0.229D+01
 Coeff-Com: -0.458D+01-0.126D+00-0.581D+00 0.281D+01 0.523D+00 0.624D+00
 Coeff-Com: -0.905D+00-0.333D+01 0.123D+00 0.350D+01-0.223D+01 0.131D+01
 Coeff-Com:  0.599D+01-0.528D+01
 Coeff-En:   0.000D+00 0.000D+00 0.000D+00 0.000D+00 0.000D+00 0.000D+00
 Coeff-En:   0.000D+00 0.000D+00 0.000D+00 0.000D+00 0.000D+00 0.000D+00
 Coeff-En:   0.000D+00 0.000D+00 0.000D+00 0.000D+00 0.000D+00 0.000D+00
 Coeff-En:   0.000D+00 0.100D+01
 Coeff:      0.525D+00-0.667D+00 0.217D+01-0.587D+01 0.471D+01 0.229D+01
 Coeff:     -0.458D+01-0.126D+00-0.581D+00 0.281D+01 0.523D+00 0.624D+00
 Coeff:     -0.905D+00-0.333D+01 0.123D+00 0.350D+01-0.223D+01 0.131D+01
 Coeff:      0.599D+01-0.528D+01
 Gap=     0.257 Goal=   None    Shift=    0.000
 Gap=     0.236 Goal=   None    Shift=    0.000
 RMSDP=4.59D-05 MaxDP=4.43D-04 DE= 1.02D-06 OVMax= 3.25D-03

 Cycle 120  Pass 1  IDiag  1:
 E= -76.7214603902849     Delta-E=       -0.000014433400 Rises=F Damp=F
 DIIS: error= 2.88D-03 at cycle 120 NSaved=  20.
 NSaved=20 IEnMin= 1 EnMin= -76.7224463215540     IErMin= 2 ErrMin= 2.85D-04
 ErrMax= 2.88D-03  0.00D+00 EMaxC= 1.00D-01 BMatC= 1.11D-03 BMatP= 4.58D-06
 IDIUse=3 WtCom= 9.98D-01 WtEn= 2.31D-03
 Coeff-Com:  0.545D+00-0.582D+00 0.151D+01-0.606D+01 0.538D+01 0.202D+01
 Coeff-Com: -0.456D+01 0.624D+00-0.828D+00 0.117D+01 0.214D+01 0.922D+00
 Coeff-Com: -0.192D+01 0.180D+01-0.519D+01 0.390D+01-0.202D+01 0.167D+01
 Coeff-Com:  0.578D+01-0.529D+01
 Coeff-En:   0.000D+00 0.000D+00 0.000D+00 0.000D+00 0.000D+00 0.000D+00
 Coeff-En:   0.000D+00 0.000D+00 0.000D+00 0.000D+00 0.000D+00 0.000D+00
 Coeff-En:   0.000D+00 0.000D+00 0.000D+00 0.000D+00 0.000D+00 0.000D+00
 Coeff-En:   0.000D+00 0.100D+01
 Coeff:      0.544D+00-0.580D+00 0.150D+01-0.605D+01 0.536D+01 0.202D+01
 Coeff:     -0.455D+01 0.623D+00-0.826D+00 0.117D+01 0.214D+01 0.920D+00
 Coeff:     -0.192D+01 0.180D+01-0.518D+01 0.389D+01-0.201D+01 0.166D+01
 Coeff:      0.576D+01-0.527D+01
 Gap=     0.257 Goal=   None    Shift=    0.000
 Gap=     0.236 Goal=   None    Shift=    0.000
 RMSDP=7.78D-06 MaxDP=8.62D-05 DE=-1.44D-05 OVMax= 6.68D-04

 Cycle 121  Pass 1  IDiag  1:
 E= -76.7214718571121     Delta-E=       -0.000011466827 Rises=F Damp=F
 DIIS: error= 2.84D-03 at cycle 121 NSaved=  20.
 NSaved=20 IEnMin= 1 EnMin= -76.7224463215540     IErMin= 2 ErrMin= 2.85D-04
 ErrMax= 2.84D-03  0.00D+00 EMaxC= 1.00D-01 BMatC= 1.08D-03 BMatP= 4.58D-06
 IDIUse=3 WtCom= 9.98D-01 WtEn= 2.31D-03
 Coeff-Com:  0.543D+00-0.651D+00 0.185D+01-0.592D+01 0.500D+01 0.219D+01
 Coeff-Com: -0.442D+01 0.521D-01-0.583D+00 0.213D+01 0.959D+00 0.101D+01
 Coeff-Com: -0.135D+01-0.253D+01-0.786D+00 0.364D+01-0.212D+01 0.120D+01
 Coeff-Com: -0.651D+00 0.145D+01
 Coeff-En:   0.000D+00 0.000D+00 0.000D+00 0.000D+00 0.000D+00 0.000D+00
 Coeff-En:   0.000D+00 0.000D+00 0.000D+00 0.000D+00 0.000D+00 0.000D+00
 Coeff-En:   0.000D+00 0.000D+00 0.000D+00 0.000D+00 0.000D+00 0.000D+00
 Coeff-En:   0.000D+00 0.100D+01
 Coeff:      0.542D+00-0.649D+00 0.184D+01-0.590D+01 0.498D+01 0.218D+01
 Coeff:     -0.441D+01 0.520D-01-0.582D+00 0.213D+01 0.956D+00 0.100D+01
 Coeff:     -0.135D+01-0.252D+01-0.785D+00 0.363D+01-0.212D+01 0.119D+01
 Coeff:     -0.649D+00 0.145D+01
 Gap=     0.258 Goal=   None    Shift=    0.000
 Gap=     0.236 Goal=   None    Shift=    0.000
 RMSDP=9.73D-05 MaxDP=9.55D-04 DE=-1.15D-05 OVMax= 7.00D-03

 Cycle 122  Pass 1  IDiag  1:
 E= -76.7214339846175     Delta-E=        0.000037872495 Rises=F Damp=F
 DIIS: error= 2.87D-03 at cycle 122 NSaved=  20.
 NSaved=20 IEnMin= 1 EnMin= -76.7224463215540     IErMin= 2 ErrMin= 2.85D-04
 ErrMax= 2.87D-03  0.00D+00 EMaxC= 1.00D-01 BMatC= 1.11D-03 BMatP= 4.58D-06
 IDIUse=3 WtCom= 9.98D-01 WtEn= 2.31D-03
 Rare condition: small coef for last iteration:  0.000D+00
 Coeff-Com:  0.537D+00-0.669D+00 0.203D+01-0.588D+01 0.483D+01 0.220D+01
 Coeff-Com: -0.445D+01-0.350D-01-0.529D+00 0.233D+01 0.716D+00 0.105D+01
 Coeff-Com: -0.126D+01-0.310D+01-0.213D+00 0.358D+01-0.212D+01 0.115D+01
 Coeff-Com:  0.103D+01-0.200D+00
 Coeff-En:   0.000D+00 0.000D+00 0.000D+00 0.000D+00 0.000D+00 0.000D+00
 Coeff-En:   0.000D+00 0.000D+00 0.000D+00 0.000D+00 0.000D+00 0.000D+00
 Coeff-En:   0.000D+00 0.000D+00 0.000D+00 0.000D+00 0.000D+00 0.000D+00
 Coeff-En:   0.000D+00 0.100D+01
 Coeff:      0.537D+00-0.669D+00 0.203D+01-0.588D+01 0.483D+01 0.220D+01
 Coeff:     -0.445D+01-0.350D-01-0.529D+00 0.233D+01 0.716D+00 0.105D+01
 Coeff:     -0.126D+01-0.310D+01-0.213D+00 0.358D+01-0.212D+01 0.115D+01
 Coeff:      0.103D+01-0.200D+00
 Gap=     0.258 Goal=   None    Shift=    0.000
 Gap=     0.236 Goal=   None    Shift=    0.000
 RMSDP=2.85D-05 MaxDP=2.68D-04 DE= 3.79D-05 OVMax= 1.99D-03

 Cycle 123  Pass 1  IDiag  1:
 E= -76.7214417783825     Delta-E=       -0.000007793765 Rises=F Damp=F
 DIIS: error= 2.88D-03 at cycle 123 NSaved=  20.
 NSaved=20 IEnMin= 1 EnMin= -76.7224463215540     IErMin= 2 ErrMin= 2.85D-04
 ErrMax= 2.88D-03  0.00D+00 EMaxC= 1.00D-01 BMatC= 1.12D-03 BMatP= 4.58D-06
 IDIUse=3 WtCom= 9.98D-01 WtEn= 2.31D-03
 Coeff-Com:  0.542D+00-0.624D+00 0.167D+01-0.597D+01 0.521D+01 0.211D+01
 Coeff-Com: -0.446D+01 0.276D+00-0.740D+00 0.182D+01 0.136D+01 0.986D+00
 Coeff-Com: -0.152D+01-0.134D+01-0.186D+01 0.367D+01-0.212D+01 0.133D+01
 Coeff-Com:  0.265D+01-0.199D+01
 Coeff-En:   0.000D+00 0.000D+00 0.000D+00 0.000D+00 0.000D+00 0.000D+00
 Coeff-En:   0.000D+00 0.000D+00 0.000D+00 0.000D+00 0.000D+00 0.000D+00
 Coeff-En:   0.000D+00 0.000D+00 0.000D+00 0.000D+00 0.000D+00 0.000D+00
 Coeff-En:   0.000D+00 0.100D+01
 Coeff:      0.540D+00-0.623D+00 0.166D+01-0.596D+01 0.520D+01 0.211D+01
 Coeff:     -0.445D+01 0.275D+00-0.739D+00 0.182D+01 0.136D+01 0.983D+00
 Coeff:     -0.152D+01-0.134D+01-0.186D+01 0.366D+01-0.212D+01 0.133D+01
 Coeff:      0.265D+01-0.198D+01
 Gap=     0.257 Goal=   None    Shift=    0.000
 Gap=     0.236 Goal=   None    Shift=    0.000
 RMSDP=3.91D-05 MaxDP=3.93D-04 DE=-7.79D-06 OVMax= 2.87D-03

 Cycle 124  Pass 1  IDiag  1:
 E= -76.7214607407694     Delta-E=       -0.000018962387 Rises=F Damp=F
 DIIS: error= 2.85D-03 at cycle 124 NSaved=  20.
 NSaved=20 IEnMin= 1 EnMin= -76.7224463215540     IErMin= 2 ErrMin= 2.85D-04
 ErrMax= 2.85D-03  0.00D+00 EMaxC= 1.00D-01 BMatC= 1.09D-03 BMatP= 4.58D-06
 IDIUse=3 WtCom= 9.98D-01 WtEn= 2.31D-03
 Coeff-Com:  0.547D+00-0.635D+00 0.170D+01-0.594D+01 0.513D+01 0.206D+01
 Coeff-Com: -0.437D+01 0.289D+00-0.609D+00 0.168D+01 0.121D+01 0.123D+01
 Coeff-Com: -0.158D+01-0.184D+01-0.163D+01 0.379D+01-0.206D+01 0.116D+01
 Coeff-Com: -0.148D+01 0.236D+01
 Coeff-En:   0.000D+00 0.000D+00 0.000D+00 0.000D+00 0.000D+00 0.000D+00
 Coeff-En:   0.000D+00 0.000D+00 0.000D+00 0.000D+00 0.000D+00 0.000D+00
 Coeff-En:   0.000D+00 0.000D+00 0.000D+00 0.000D+00 0.000D+00 0.000D+00
 Coeff-En:   0.000D+00 0.100D+01
 Coeff:      0.546D+00-0.634D+00 0.170D+01-0.593D+01 0.512D+01 0.205D+01
 Coeff:     -0.436D+01 0.288D+00-0.608D+00 0.167D+01 0.121D+01 0.123D+01
 Coeff:     -0.157D+01-0.184D+01-0.163D+01 0.378D+01-0.206D+01 0.116D+01
 Coeff:     -0.148D+01 0.236D+01
 Gap=     0.258 Goal=   None    Shift=    0.000
 Gap=     0.236 Goal=   None    Shift=    0.000
 RMSDP=7.70D-05 MaxDP=7.42D-04 DE=-1.90D-05 OVMax= 5.47D-03

 Cycle 125  Pass 1  IDiag  1:
 E= -76.7214341343784     Delta-E=        0.000026606391 Rises=F Damp=F
 DIIS: error= 2.87D-03 at cycle 125 NSaved=  20.
 NSaved=20 IEnMin= 1 EnMin= -76.7224463215540     IErMin= 2 ErrMin= 2.85D-04
 ErrMax= 2.87D-03  0.00D+00 EMaxC= 1.00D-01 BMatC= 1.11D-03 BMatP= 4.58D-06
 IDIUse=3 WtCom= 9.98D-01 WtEn= 2.31D-03
 Rare condition: small coef for last iteration:  0.000D+00
 Coeff-Com:  0.553D+00-0.661D+00 0.211D+01-0.600D+01 0.476D+01 0.182D+01
 Coeff-Com: -0.389D+01 0.603D-01-0.209D+00 0.135D+01 0.866D+00 0.194D+01
 Coeff-Com: -0.188D+01-0.279D+01-0.158D+01 0.425D+01-0.191D+01 0.872D+00
 Coeff-Com:  0.746D+01-0.614D+01
 Coeff-En:   0.000D+00 0.000D+00 0.000D+00 0.000D+00 0.000D+00 0.000D+00
 Coeff-En:   0.000D+00 0.000D+00 0.000D+00 0.000D+00 0.000D+00 0.000D+00
 Coeff-En:   0.000D+00 0.000D+00 0.000D+00 0.000D+00 0.000D+00 0.000D+00
 Coeff-En:   0.000D+00 0.100D+01
 Coeff:      0.553D+00-0.661D+00 0.211D+01-0.600D+01 0.476D+01 0.182D+01
 Coeff:     -0.389D+01 0.603D-01-0.209D+00 0.135D+01 0.866D+00 0.194D+01
 Coeff:     -0.188D+01-0.279D+01-0.158D+01 0.425D+01-0.191D+01 0.872D+00
 Coeff:      0.746D+01-0.614D+01
 Gap=     0.261 Goal=   None    Shift=    0.000
 Gap=     0.236 Goal=   None    Shift=    0.000
 RMSDP=2.35D-04 MaxDP=2.32D-03 DE= 2.66D-05 OVMax= 1.70D-02

 Cycle 126  Pass 1  IDiag  1:
 E= -76.7213233595010     Delta-E=        0.000110774877 Rises=F Damp=F
 DIIS: error= 3.00D-03 at cycle 126 NSaved=  20.
 NSaved=20 IEnMin= 1 EnMin= -76.7224463215540     IErMin= 2 ErrMin= 2.85D-04
 ErrMax= 3.00D-03  0.00D+00 EMaxC= 1.00D-01 BMatC= 1.22D-03 BMatP= 4.58D-06
 IDIUse=3 WtCom= 9.98D-01 WtEn= 2.31D-03
 Rare condition: small coef for last iteration:  0.000D+00
 Coeff-Com:  0.573D+00-0.622D+00 0.157D+01-0.594D+01 0.522D+01 0.170D+01
 Coeff-Com: -0.400D+01 0.491D+00-0.335D+00 0.916D+00 0.114D+01 0.165D+01
 Coeff-Com: -0.174D+01-0.199D+01-0.197D+01 0.416D+01-0.198D+01 0.871D+00
 Coeff-Com:  0.305D+01-0.177D+01
 Coeff-En:   0.000D+00 0.000D+00 0.000D+00 0.000D+00 0.000D+00 0.000D+00
 Coeff-En:   0.000D+00 0.000D+00 0.000D+00 0.000D+00 0.000D+00 0.000D+00
 Coeff-En:   0.000D+00 0.000D+00 0.000D+00 0.000D+00 0.000D+00 0.000D+00
 Coeff-En:   0.000D+00 0.100D+01
 Coeff:      0.573D+00-0.622D+00 0.157D+01-0.594D+01 0.522D+01 0.170D+01
 Coeff:     -0.400D+01 0.491D+00-0.335D+00 0.916D+00 0.114D+01 0.165D+01
 Coeff:     -0.174D+01-0.199D+01-0.197D+01 0.416D+01-0.198D+01 0.871D+00
 Coeff:      0.305D+01-0.177D+01
 Gap=     0.260 Goal=   None    Shift=    0.000
 Gap=     0.236 Goal=   None    Shift=    0.000
 RMSDP=2.88D-05 MaxDP=3.14D-04 DE= 1.11D-04 OVMax= 2.26D-03

 Cycle 127  Pass 1  IDiag  1:
 E= -76.7213476427144     Delta-E=       -0.000024283213 Rises=F Damp=F
 DIIS: error= 2.95D-03 at cycle 127 NSaved=  20.
 NSaved=20 IEnMin= 1 EnMin= -76.7224463215540     IErMin= 2 ErrMin= 2.85D-04
 ErrMax= 2.95D-03  0.00D+00 EMaxC= 1.00D-01 BMatC= 1.18D-03 BMatP= 4.58D-06
 IDIUse=3 WtCom= 9.98D-01 WtEn= 2.31D-03
 Coeff-Com:  0.523D+00-0.612D+00 0.174D+01-0.590D+01 0.511D+01 0.233D+01
 Coeff-Com: -0.446D+01-0.154D+00-0.789D+00 0.268D+01 0.736D+00 0.531D+00
 Coeff-Com: -0.812D+00-0.352D+01 0.115D+01 0.284D+01-0.220D+01 0.128D+01
 Coeff-Com: -0.999D+00 0.153D+01
 Coeff-En:   0.000D+00 0.000D+00 0.000D+00 0.000D+00 0.000D+00 0.000D+00
 Coeff-En:   0.000D+00 0.000D+00 0.000D+00 0.000D+00 0.000D+00 0.000D+00
 Coeff-En:   0.000D+00 0.000D+00 0.000D+00 0.000D+00 0.000D+00 0.000D+00
 Coeff-En:   0.000D+00 0.100D+01
 Coeff:      0.522D+00-0.611D+00 0.173D+01-0.588D+01 0.510D+01 0.232D+01
 Coeff:     -0.445D+01-0.154D+00-0.788D+00 0.268D+01 0.734D+00 0.530D+00
 Coeff:     -0.810D+00-0.351D+01 0.114D+01 0.284D+01-0.220D+01 0.127D+01
 Coeff:     -0.996D+00 0.152D+01
 Gap=     0.257 Goal=   None    Shift=    0.000
 Gap=     0.236 Goal=   None    Shift=    0.000
 RMSDP=2.86D-04 MaxDP=2.73D-03 DE=-2.43D-05 OVMax= 2.02D-02

 Cycle 128  Pass 1  IDiag  1:
 E= -76.7214448315215     Delta-E=       -0.000097188807 Rises=F Damp=F
 DIIS: error= 2.90D-03 at cycle 128 NSaved=  20.
 NSaved=20 IEnMin= 1 EnMin= -76.7224463215540     IErMin= 2 ErrMin= 2.85D-04
 ErrMax= 2.90D-03  0.00D+00 EMaxC= 1.00D-01 BMatC= 1.13D-03 BMatP= 4.58D-06
 IDIUse=3 WtCom= 9.98D-01 WtEn= 2.31D-03
 Coeff-Com:  0.550D+00-0.639D+00 0.217D+01-0.606D+01 0.484D+01 0.161D+01
 Coeff-Com: -0.380D+01 0.107D+00-0.267D+00 0.123D+01 0.996D+00 0.195D+01
 Coeff-Com: -0.197D+01-0.165D+01-0.272D+01 0.441D+01-0.197D+01 0.113D+01
 Coeff-Com: -0.104D+01 0.212D+01
 Coeff-En:   0.000D+00 0.000D+00 0.000D+00 0.000D+00 0.000D+00 0.000D+00
 Coeff-En:   0.000D+00 0.000D+00 0.000D+00 0.000D+00 0.000D+00 0.000D+00
 Coeff-En:   0.000D+00 0.000D+00 0.000D+00 0.000D+00 0.000D+00 0.000D+00
 Coeff-En:   0.000D+00 0.100D+01
 Coeff:      0.549D+00-0.637D+00 0.217D+01-0.604D+01 0.483D+01 0.160D+01
 Coeff:     -0.379D+01 0.107D+00-0.266D+00 0.122D+01 0.994D+00 0.194D+01
 Coeff:     -0.196D+01-0.165D+01-0.271D+01 0.440D+01-0.197D+01 0.113D+01
 Coeff:     -0.104D+01 0.212D+01
 Gap=     0.259 Goal=   None    Shift=    0.000
 Gap=     0.236 Goal=   None    Shift=    0.000
 RMSDP=1.87D-04 MaxDP=1.77D-03 DE=-9.72D-05 OVMax= 1.31D-02

 >>>>>>>>>> Convergence criterion not met.
 SCF Done:  E(UM062X) =  -76.7214448315     A.U. after  129 cycles
            NFock=128  Conv=0.19D-03     -V/T= 2.0076
 <Sx>= 0.0000 <Sy>= 0.0000 <Sz>= 0.5000 <S**2>= 0.9787 S= 0.6085
 <L.S>=  0.00000000000    
 KE= 7.614257883679D+01 PE=-2.117980169271D+02 EE= 3.987966326838D+01
 Annihilation of the first spin contaminant:
 S**2 before annihilation     0.9787,   after     0.7510
 Convergence failure -- run terminated.
 Error termination via Lnk1e in /home/szhao/Apps/g16/l502.exe at Tue Nov 19 13:40:02 2024.
 Job cpu time:       0 days  0 hours 20 minutes 11.8 seconds.
 Elapsed time:       0 days  0 hours  1 minutes  6.7 seconds.
 File lengths (MBytes):  RWF=     17 Int=      0 D2E=      0 Chk=      2 Scr=      2
