Title Card Required                                                     
FOpt      UM062X                                                      6-311+G(d,p)        
Number of atoms                            I                6
Info1-9                                    I   N=           9
          15          15           0           0           0         110
           2          18        -502
Full Title                                 C   N=           2
Title Card Required     
Route                                      C   N=           4
#p opt UM062X/6-311+G** nosymm int=superfine    
Charge                                     I                0
Multiplicity                               I                1
Number of electrons                        I               16
Number of alpha electrons                  I                8
Number of beta electrons                   I                8
Number of basis functions                  I               68
Number of independent functions            I               68
Number of point charges in /Mol/           I                0
Number of translation vectors              I                0
Atomic numbers                             I   N=           6
           6           6           1           1           1           1
Nuclear charges                            R   N=           6
  6.00000000E+00  6.00000000E+00  1.00000000E+00  1.00000000E+00  1.00000000E+00
  1.00000000E+00
Current cartesian coordinates              R   N=          18
 -2.66563822E+00  0.00000000E+00  0.00000000E+00  2.66563822E+00  0.00000000E+00
  0.00000000E+00 -3.39765732E+00 -1.89999022E+00 -9.01105732E-08 -3.39764508E+00
  1.89999532E+00 -8.86137247E-08  3.39765733E+00  1.89999022E+00  9.17635442E-08
  3.39764510E+00 -1.89999531E+00  9.32624050E-08
Number of symbols in /Mol/                 I                0
Force Field                                I                0
Atom Types                                 C   N=           6
                                                            
            
Int Atom Types                             I   N=           6
           0           0           0           0           0           0
MM charges                                 R   N=           6
  0.00000000E+00  0.00000000E+00  0.00000000E+00  0.00000000E+00  0.00000000E+00
  0.00000000E+00
Integer atomic weights                     I   N=           6
          12          12           1           1           1           1
Real atomic weights                        R   N=           6
  1.20000000E+01  1.20000000E+01  1.00782504E+00  1.00782504E+00  1.00782504E+00
  1.00782504E+00
Atom fragment info                         I   N=           6
           0           0           0           0           0           0
Atom residue num                           I   N=           6
           0           0           0           0           0           0
Nuclear spins                              I   N=           6
           0           0           1           1           1           1
Nuclear ZEff                               R   N=           6
 -3.60000000E+00 -3.60000000E+00 -1.00000000E+00 -1.00000000E+00 -1.00000000E+00
 -1.00000000E+00
Nuclear ZNuc                               R   N=           6
  6.00000000E+00  6.00000000E+00  1.00000000E+00  1.00000000E+00  1.00000000E+00
  1.00000000E+00
Nuclear QMom                               R   N=           6
  0.00000000E+00  0.00000000E+00  0.00000000E+00  0.00000000E+00  0.00000000E+00
  0.00000000E+00
Nuclear GFac                               R   N=           6
  0.00000000E+00  0.00000000E+00  2.79284600E+00  2.79284600E+00  2.79284600E+00
  2.79284600E+00
MicOpt                                     I   N=           6
          -2          -2          -1          -1          -1          -1
Number of residues                         I                0
Number of secondary structures             I                0
Redundant internal dimensions              I   N=           4
          20          10           6           4
Redundant internal coordinate indices      I   N=          80
           1          -1           0           0           1          -2
           0           0           1          -3           0           0
           2          -1           0           0           2          -2
           0           0           2          -3           0           0
           1           3           0           0           1           4
           0           0           2           5           0           0
           2           6           0           0           2           1
           3           0           2           1           4           0
           3           1           4           0           1           2
           5           0           1           2           6           0
           5           2           6           0           3           1
           2           5           3           1           2           6
           4           1           2           5           4           1
           2           6
Redundant internal coordinates             R   N=          20
 -2.66563822E+00  0.00000000E+00  0.00000000E+00  2.66563822E+00  0.00000000E+00
  0.00000000E+00  2.03612740E+00  2.03612776E+00  2.03612740E+00  2.03612776E+00
  1.93854481E+00  1.93853831E+00  2.40610219E+00  1.93854482E+00  1.93853832E+00
  2.40610217E+00  3.14159265E+00 -9.54139864E-08  9.42432183E-08  3.14159265E+00
ZRed-IntVec                                I   N=          20
          -1          -1          -1          -1          -1          -1
           0           0           0           0           0           0
           0           0           0           0           0           0
           0           0
ZRed-FPVec                                 R   N=          20
  0.00000000E+00  0.00000000E+00  0.00000000E+00  0.00000000E+00  0.00000000E+00
  0.00000000E+00  0.00000000E+00  0.00000000E+00  0.00000000E+00  0.00000000E+00
  0.00000000E+00  0.00000000E+00  0.00000000E+00  0.00000000E+00  0.00000000E+00
  0.00000000E+00  0.00000000E+00  0.00000000E+00  0.00000000E+00  0.00000000E+00
ZRed-Constraint1                           R   N=          20
 -2.66563822E+00  0.00000000E+00  0.00000000E+00  2.66563822E+00  0.00000000E+00
  0.00000000E+00  2.03694512E+00  2.03669844E+00  2.03694512E+00  2.03669844E+00
  2.00316847E+00  2.00313852E+00  2.27687832E+00  2.00316847E+00  2.00313852E+00
  2.27687832E+00  3.14159265E+00  0.00000000E+00  0.00000000E+00  3.14159265E+00
ZRed-Constraint2                           R   N=          20
 -2.66563822E+00  0.00000000E+00  0.00000000E+00  2.66563822E+00  0.00000000E+00
  0.00000000E+00  0.00000000E+00  0.00000000E+00  0.00000000E+00  0.00000000E+00
  0.00000000E+00  0.00000000E+00  0.00000000E+00  0.00000000E+00  0.00000000E+00
  0.00000000E+00  0.00000000E+00  0.00000000E+00  0.00000000E+00  0.00000000E+00
Number of contracted shells                I               28
Number of primitive shells                 I               50
Pure/Cartesian d shells                    I                0
Pure/Cartesian f shells                    I                0
Highest angular momentum                   I                2
Largest degree of contraction              I                6
Shell types                                I   N=          28
           0          -1          -1          -1          -1          -2
           0          -1          -1          -1          -1          -2
           0           0           0           1           0           0
           0           1           0           0           0           1
           0           0           0           1
Number of primitives per shell             I   N=          28
           6           3           1           1           1           1
           6           3           1           1           1           1
           3           1           1           1           3           1
           1           1           3           1           1           1
           3           1           1           1
Shell to atom map                          I   N=          28
           1           1           1           1           1           1
           2           2           2           2           2           2
           3           3           3           3           4           4
           4           4           5           5           5           5
           6           6           6           6
Primitive exponents                        R   N=          50
  4.56324000E+03  6.82024000E+02  1.54973000E+02  4.44553000E+01  1.30290000E+01
  1.82773000E+00  2.09642000E+01  4.80331000E+00  1.45933000E+00  4.83456000E-01
  1.45585000E-01  4.38000000E-02  6.26000000E-01  4.56324000E+03  6.82024000E+02
  1.54973000E+02  4.44553000E+01  1.30290000E+01  1.82773000E+00  2.09642000E+01
  4.80331000E+00  1.45933000E+00  4.83456000E-01  1.45585000E-01  4.38000000E-02
  6.26000000E-01  3.38650000E+01  5.09479000E+00  1.15879000E+00  3.25840000E-01
  1.02741000E-01  7.50000000E-01  3.38650000E+01  5.09479000E+00  1.15879000E+00
  3.25840000E-01  1.02741000E-01  7.50000000E-01  3.38650000E+01  5.09479000E+00
  1.15879000E+00  3.25840000E-01  1.02741000E-01  7.50000000E-01  3.38650000E+01
  5.09479000E+00  1.15879000E+00  3.25840000E-01  1.02741000E-01  7.50000000E-01
Contraction coefficients                   R   N=          50
  1.96665025E-03  1.52306019E-02  7.61269097E-02  2.60801033E-01  6.16462078E-01
  2.21006028E-01  1.14660081E-01  9.19999648E-01 -3.03068213E-03  1.00000000E+00
  1.00000000E+00  1.00000000E+00  1.00000000E+00  1.96665025E-03  1.52306019E-02
  7.61269097E-02  2.60801033E-01  6.16462078E-01  2.21006028E-01  1.14660081E-01
  9.19999648E-01 -3.03068213E-03  1.00000000E+00  1.00000000E+00  1.00000000E+00
  1.00000000E+00  2.54938145E-02  1.90373109E-01  8.52161486E-01  1.00000000E+00
  1.00000000E+00  1.00000000E+00  2.54938145E-02  1.90373109E-01  8.52161486E-01
  1.00000000E+00  1.00000000E+00  1.00000000E+00  2.54938145E-02  1.90373109E-01
  8.52161486E-01  1.00000000E+00  1.00000000E+00  1.00000000E+00  2.54938145E-02
  1.90373109E-01  8.52161486E-01  1.00000000E+00  1.00000000E+00  1.00000000E+00
P(S=P) Contraction coefficients            R   N=          50
  0.00000000E+00  0.00000000E+00  0.00000000E+00  0.00000000E+00  0.00000000E+00
  0.00000000E+00  4.02486927E-02  2.37593957E-01  8.15853851E-01  1.00000000E+00
  1.00000000E+00  1.00000000E+00  0.00000000E+00  0.00000000E+00  0.00000000E+00
  0.00000000E+00  0.00000000E+00  0.00000000E+00  0.00000000E+00  4.02486927E-02
  2.37593957E-01  8.15853851E-01  1.00000000E+00  1.00000000E+00  1.00000000E+00
  0.00000000E+00  0.00000000E+00  0.00000000E+00  0.00000000E+00  0.00000000E+00
  0.00000000E+00  0.00000000E+00  0.00000000E+00  0.00000000E+00  0.00000000E+00
  0.00000000E+00  0.00000000E+00  0.00000000E+00  0.00000000E+00  0.00000000E+00
  0.00000000E+00  0.00000000E+00  0.00000000E+00  0.00000000E+00  0.00000000E+00
  0.00000000E+00  0.00000000E+00  0.00000000E+00  0.00000000E+00  0.00000000E+00
Coordinates of each shell                  R   N=          84
 -2.66563822E+00  0.00000000E+00  0.00000000E+00 -2.66563822E+00  0.00000000E+00
  0.00000000E+00 -2.66563822E+00  0.00000000E+00  0.00000000E+00 -2.66563822E+00
  0.00000000E+00  0.00000000E+00 -2.66563822E+00  0.00000000E+00  0.00000000E+00
 -2.66563822E+00  0.00000000E+00  0.00000000E+00  2.66563822E+00  0.00000000E+00
  0.00000000E+00  2.66563822E+00  0.00000000E+00  0.00000000E+00  2.66563822E+00
  0.00000000E+00  0.00000000E+00  2.66563822E+00  0.00000000E+00  0.00000000E+00
  2.66563822E+00  0.00000000E+00  0.00000000E+00  2.66563822E+00  0.00000000E+00
  0.00000000E+00 -3.39765732E+00 -1.89999022E+00 -9.01105732E-08 -3.39765732E+00
 -1.89999022E+00 -9.01105732E-08 -3.39765732E+00 -1.89999022E+00 -9.01105732E-08
 -3.39765732E+00 -1.89999022E+00 -9.01105732E-08 -3.39764508E+00  1.89999532E+00
 -8.86137247E-08 -3.39764508E+00  1.89999532E+00 -8.86137247E-08 -3.39764508E+00
  1.89999532E+00 -8.86137247E-08 -3.39764508E+00  1.89999532E+00 -8.86137247E-08
  3.39765733E+00  1.89999022E+00  9.17635442E-08  3.39765733E+00  1.89999022E+00
  9.17635442E-08  3.39765733E+00  1.89999022E+00  9.17635442E-08  3.39765733E+00
  1.89999022E+00  9.17635442E-08  3.39764510E+00 -1.89999531E+00  9.32624050E-08
  3.39764510E+00 -1.89999531E+00  9.32624050E-08  3.39764510E+00 -1.89999531E+00
  9.32624050E-08  3.39764510E+00 -1.89999531E+00  9.32624050E-08
Num ILSW                                   I              100
ILSW                                       I   N=         100
           1           0           0           1           2           0
           0           0           0           0        4336          -1
           7           0           0           0           2           0
           0           0           0           0           1           0
           1           1           0           0           0           0
           0           0      100000           0          -1           0
           0           0           0           0           0           0
           0           0           0           1           0           0
           0 -2000000000           1           0           0           0
           0           0           4          52           0           0
           0           0          55           0           0           0
           0           0           0           6           0           1
           0           0           0           0           0           0
           0           0           0           0           0           0
           0           0           0           0           0           0
           0           0           0           0           0           0
           0           0           0           0
Num RLSW                                   I               52
RLSW                                       R   N=          52
  1.00000000E+00  1.00000000E+00  1.00000000E+00  1.00000000E+00  5.40000000E-01
  0.00000000E+00  0.00000000E+00  1.00000000E+00  0.00000000E+00  0.00000000E+00
  0.00000000E+00  0.00000000E+00  1.00000000E+00  0.00000000E+00  0.00000000E+00
  0.00000000E+00  0.00000000E+00  1.00000000E+00  0.00000000E+00  0.00000000E+00
  0.00000000E+00  0.00000000E+00  1.00000000E+00  0.00000000E+00  0.00000000E+00
  0.00000000E+00  0.00000000E+00  1.00000000E+00  0.00000000E+00  0.00000000E+00
  0.00000000E+00  0.00000000E+00  1.00000000E+00  0.00000000E+00  0.00000000E+00
  0.00000000E+00  0.00000000E+00  0.00000000E+00  1.00000000E+00  1.00000000E+00
  0.00000000E+00  1.00000000E+00  0.00000000E+00  0.00000000E+00  0.00000000E+00
  0.00000000E+00  0.00000000E+00  0.00000000E+00  0.00000000E+00  0.00000000E+00
  0.00000000E+00  0.00000000E+00
MxBond                                     I                3
NBond                                      I   N=           6
           3           3           1           1           1           1
IBond                                      I   N=          18
           2           3           4           1           5           6
           1           0           0           1           0           0
           2           0           0           2           0           0
RBond                                      R   N=          18
  1.00000000E-01  1.00000000E+00  1.00000000E+00  1.00000000E-01  1.00000000E+00
  1.00000000E+00  1.00000000E+00  0.00000000E+00  0.00000000E+00  1.00000000E+00
  0.00000000E+00  0.00000000E+00  1.00000000E+00  0.00000000E+00  0.00000000E+00
  1.00000000E+00  0.00000000E+00  0.00000000E+00
Virial Ratio                               R      2.009720065629506E+00
SCF Energy                                 R     -7.819206273296025E+01
Total Energy                               R     -7.819206273296025E+01
S**2                                       R     -4.085620730620576E-14
S**2 after annihilation                    R     -1.847411112976221E-13
RMS Force                                  R      2.911037147839951E-06
RMS Density                                R      6.522627355131505E-09
Job Status                                 I                1
Nuclear derivative order                   I                1
External E-field                           R   N=          35
  0.00000000E+00  0.00000000E+00  0.00000000E+00  0.00000000E+00  0.00000000E+00
  0.00000000E+00  0.00000000E+00  0.00000000E+00  0.00000000E+00  0.00000000E+00
  0.00000000E+00  0.00000000E+00  0.00000000E+00  0.00000000E+00  0.00000000E+00
  0.00000000E+00  0.00000000E+00  0.00000000E+00  0.00000000E+00  0.00000000E+00
  0.00000000E+00  0.00000000E+00  0.00000000E+00  0.00000000E+00  0.00000000E+00
  0.00000000E+00  0.00000000E+00  0.00000000E+00  0.00000000E+00  0.00000000E+00
  0.00000000E+00  0.00000000E+00  0.00000000E+00  0.00000000E+00  0.00000000E+00
IOpCl                                      I                1
IROHF                                      I                0
Alpha Orbital Energies                     R   N=          68
 -1.06315931E+01 -1.06315467E+01 -7.57828539E-01 -7.42173857E-01 -5.38706631E-01
 -5.32683904E-01 -2.99301503E-01 -2.31233961E-01 -1.15216787E-01 -8.75813482E-02
  3.39043799E-02  5.18731136E-02  5.25590378E-02  6.90658680E-02  9.36507511E-02
  1.03963737E-01  1.10779185E-01  1.38410607E-01  1.62214536E-01  1.84373082E-01
  2.14946191E-01  2.69396117E-01  4.02232972E-01  4.18181147E-01  4.29508706E-01
  5.66910499E-01  5.87039843E-01  6.07059226E-01  6.17542288E-01  6.50232340E-01
  6.83533658E-01  6.91868944E-01  7.50297185E-01  8.25256269E-01  1.06764652E+00
  1.06918962E+00  1.25304302E+00  1.26522550E+00  1.30922189E+00  1.31257766E+00
  1.36124852E+00  1.43253161E+00  1.51919261E+00  1.53114865E+00  1.70009533E+00
  1.70442174E+00  1.83712020E+00  1.85900684E+00  1.87751931E+00  1.91979225E+00
  2.06092014E+00  2.06294487E+00  2.36552529E+00  2.47913462E+00  2.51464776E+00
  2.52151762E+00  2.55817185E+00  2.61004763E+00  2.70436549E+00  2.72711301E+00
  2.74743843E+00  2.76328481E+00  2.98899411E+00  3.02383797E+00  3.64027912E+00
  3.66466945E+00  2.38121199E+01  2.38235202E+01
Beta Orbital Energies                      R   N=          68
 -1.06315931E+01 -1.06315467E+01 -7.57828539E-01 -7.42173857E-01 -5.38706631E-01
 -5.32683904E-01 -2.99301503E-01 -2.31233961E-01 -1.15216787E-01 -8.75813482E-02
  3.39043799E-02  5.18731136E-02  5.25590378E-02  6.90658680E-02  9.36507511E-02
  1.03963737E-01  1.10779185E-01  1.38410607E-01  1.62214536E-01  1.84373082E-01
  2.14946191E-01  2.69396117E-01  4.02232972E-01  4.18181147E-01  4.29508706E-01
  5.66910499E-01  5.87039843E-01  6.07059226E-01  6.17542288E-01  6.50232340E-01
  6.83533658E-01  6.91868944E-01  7.50297185E-01  8.25256269E-01  1.06764652E+00
  1.06918962E+00  1.25304302E+00  1.26522550E+00  1.30922189E+00  1.31257766E+00
  1.36124852E+00  1.43253161E+00  1.51919261E+00  1.53114865E+00  1.70009533E+00
  1.70442174E+00  1.83712020E+00  1.85900684E+00  1.87751931E+00  1.91979225E+00
  2.06092014E+00  2.06294487E+00  2.36552529E+00  2.47913462E+00  2.51464776E+00
  2.52151762E+00  2.55817185E+00  2.61004763E+00  2.70436549E+00  2.72711301E+00
  2.74743843E+00  2.76328481E+00  2.98899411E+00  3.02383797E+00  3.64027912E+00
  3.66466945E+00  2.38121199E+01  2.38235202E+01
Alpha MO coefficients                      R   N=        4624
  3.98940505E-01  3.28137412E-01  4.18483777E-04 -1.89010959E-09 -1.58524925E-10
  8.05871141E-03 -1.47877246E-03  2.51848596E-09 -9.98690518E-11 -1.76691361E-03
  2.55149971E-04  5.60034232E-09 -2.38098319E-11 -6.10861092E-04  1.85787023E-04
  4.47784836E-09  5.59339027E-11 -9.87799449E-04  5.57442707E-12  1.23192762E-12
 -1.29369647E-03  8.88052827E-09  3.98940691E-01  3.28137564E-01 -4.18483914E-04
  1.89011427E-09  1.57574325E-10  8.05871520E-03  1.47877310E-03 -2.51853368E-09
  1.05916599E-10 -1.76691475E-03 -2.55149930E-04 -5.60032751E-09  2.32586181E-11
 -6.10861183E-04 -1.85787268E-04 -4.47783730E-09 -5.68131680E-11 -9.87799859E-04
  7.30212988E-12 -1.23339698E-12 -1.29369704E-03  8.88051978E-09  5.65130707E-05
 -2.49271683E-03  1.56129205E-03 -6.87729743E-04 -1.45970149E-03 -9.29948368E-11
  5.65139168E-05 -2.49271667E-03  1.56127733E-03 -6.87720521E-04  1.45970495E-03
 -9.18762357E-11  5.65131043E-05 -2.49271791E-03  1.56129282E-03  6.87730040E-04
  1.45970213E-03  9.47909908E-11  5.65139504E-05 -2.49271775E-03  1.56127810E-03
  6.87720819E-04 -1.45970559E-03  9.59118796E-11  3.98945887E-01  3.28134600E-01
  3.77690351E-04 -1.96965907E-09 -1.56968298E-10  8.16726062E-03 -1.38058489E-03
  2.43963992E-09 -1.03410411E-10 -2.33547014E-03 -4.29078799E-05 -3.29613159E-09
 -3.60092968E-12 -2.92747964E-04  4.67572117E-04 -8.94511724E-10  3.55108428E-11
 -9.31665880E-04  5.82570816E-12  1.17218615E-12 -1.28818172E-03  9.14853144E-09
 -3.98945701E-01 -3.28134447E-01  3.77690120E-04 -1.96966158E-09 -1.56044788E-10
 -8.16725685E-03 -1.38058421E-03  2.43968544E-09 -1.09211822E-10  2.33546934E-03
 -4.29080000E-05 -3.29613648E-09 -3.01538136E-12  2.92747678E-04  4.67572040E-04
 -8.94526403E-10  3.71498536E-11  9.31665402E-04 -7.53598919E-12  1.17357194E-12
  1.28818109E-03 -9.14851273E-09  5.23265068E-05 -2.38847350E-03  1.66567200E-03
 -6.34224478E-04 -1.41806759E-03 -9.15651547E-11  5.23266280E-05 -2.38846710E-03
  1.66567297E-03 -6.34214289E-04  1.41806982E-03 -9.04809701E-11 -5.23264907E-05
  2.38847233E-03 -1.66567127E-03 -6.34224164E-04 -1.41806689E-03 -9.33097647E-11
 -5.23266119E-05  2.38846592E-03 -1.66567224E-03 -6.34213975E-04  1.41806912E-03
 -9.43958488E-11 -7.78132758E-02 -1.25595954E-01 -2.21813513E-02  2.32454520E-08
 -3.55739784E-09  3.42665663E-01 -3.20103563E-02  4.10780735E-08 -6.94690120E-09
  2.35659577E-01 -1.10421120E-02 -1.63919833E-08 -1.84581462E-09  4.13398275E-03
 -1.30153159E-03 -3.45253397E-08 -5.96053682E-10 -7.42624500E-03 -1.18885573E-09
  8.25911851E-12 -7.80942346E-03  5.80162205E-08 -7.78132777E-02 -1.25595957E-01
  2.21813526E-02 -2.32459968E-08  3.66499185E-09  3.42665672E-01  3.20103585E-02
 -4.10786267E-08  7.09543317E-09  2.35659583E-01  1.10421130E-02  1.63917760E-08
  1.90692288E-09  4.13398248E-03  1.30153185E-03  3.45253071E-08  6.01771807E-10
 -7.42624471E-03 -1.16807937E-09 -8.26056069E-12 -7.80942363E-03  5.80161865E-08
  7.77486214E-02  9.04650679E-02  5.97315037E-03  2.87407983E-03  1.14470623E-02
  2.80409840E-10  7.77485352E-02  9.04649542E-02  5.97322646E-03  2.87399981E-03
 -1.14470696E-02  2.71405164E-10  7.77486234E-02  9.04650704E-02  5.97315055E-03
 -2.87408001E-03 -1.14470626E-02 -2.84468252E-10  7.77485371E-02  9.04649566E-02
  5.97322663E-03 -2.87399999E-03  1.14470699E-02 -2.93485116E-10 -7.73996167E-02
 -1.24974996E-01 -3.33110411E-02  2.00017428E-08 -4.05234820E-09  3.41898731E-01
 -4.98469988E-02  4.07048333E-08 -7.59298331E-09  2.31381398E-01 -2.31984235E-02
  2.83890933E-08 -2.21364706E-09 -1.09040208E-02 -7.61227458E-03 -3.05119753E-09
 -1.44184489E-10 -7.71997448E-03 -9.76712170E-10  8.76692590E-12 -9.41144568E-03
  6.32730864E-08  7.73996148E-02  1.24974993E-01 -3.33110412E-02  2.00023326E-08
 -4.16704891E-09 -3.41898722E-01 -4.98469992E-02  4.07054522E-08 -7.75147536E-09
 -2.31381392E-01 -2.31984237E-02  2.83892975E-08 -2.27809350E-09  1.09040209E-02
 -7.61227462E-03 -3.05116196E-09 -1.50946775E-10  7.71997386E-03  9.53497809E-10
  8.76897489E-12  9.41144539E-03 -6.32730387E-08  8.14977177E-02  9.62724808E-02
  9.66466911E-03  2.32620015E-03  1.18753506E-02  2.54948641E-10  8.14975845E-02
  9.62722892E-02  9.66466827E-03  2.32610640E-03 -1.18753478E-02  2.45378889E-10
 -8.14977158E-02 -9.62724788E-02 -9.66466896E-03  2.32620020E-03  1.18753504E-02
  2.59385187E-10 -8.14975826E-02 -9.62722871E-02 -9.66466812E-03  2.32610645E-03
 -1.18753476E-02  2.68965041E-10 -4.01032269E-08 -6.61215253E-08  4.22663485E-07
  1.52104465E-01  5.79318093E-11  1.92122617E-07  5.54112364E-07  2.06278143E-01
  7.80054452E-11  1.90165105E-07  2.42194263E-07  1.06578254E-01  3.87835525E-11
  1.07869975E-07  4.20252037E-08  2.22145838E-03  1.46843477E-12 -9.11445219E-10
 -5.38995401E-12 -2.36506733E-09 -8.38714005E-08 -1.26005514E-02  4.01030340E-08
  6.61211976E-08  4.22663262E-07  1.52104440E-01 -5.80229528E-11 -1.92121620E-07
  5.54112144E-07  2.06278110E-01 -7.81312699E-11 -1.90163788E-07  2.42194165E-07
  1.06578236E-01 -3.88565784E-11 -1.07869877E-07  4.20252019E-08  2.22145705E-03
 -1.46835193E-12  9.11436394E-10 -5.38265654E-12  2.41647631E-09  8.38713829E-08
  1.26005496E-02 -1.09143453E-01 -1.57025035E-01 -4.70260811E-02 -7.08145568E-03
 -1.23644676E-02 -9.85221801E-10  1.09143548E-01  1.57025131E-01  4.70260336E-02
  7.08136236E-03 -1.23645270E-02  9.75002412E-10  1.09143435E-01  1.57025009E-01
  4.70260746E-02 -7.08145470E-03 -1.23644653E-02 -1.00734765E-09 -1.09143530E-01
 -1.57025105E-01 -4.70260271E-02  7.08136138E-03 -1.23645248E-02  1.01758123E-09
 -2.44031061E-08 -4.03975683E-08  5.36006466E-07  1.53580539E-01  6.13324382E-11
  1.18020671E-07  7.18038683E-07  2.07526092E-01  8.31216672E-11  1.44416579E-07
  3.85426962E-07  1.11852422E-01  4.49366005E-11  7.60290553E-09  2.50768472E-08
  7.29010024E-03  1.23482164E-12  2.25480171E-09 -5.24985393E-12 -2.44575276E-09
 -7.63659443E-08 -1.40581486E-02 -2.44029079E-08 -4.03972319E-08 -5.36006512E-07
 -1.53580564E-01  6.14099464E-11  1.18019654E-07 -7.18038862E-07 -2.07526126E-01
  8.32321561E-11  1.44415289E-07 -3.85427079E-07 -1.11852440E-01  4.49904969E-11
  7.60298481E-09 -2.50769444E-08 -7.29010046E-03  1.23526947E-12  2.25481626E-09
  5.23874307E-12 -2.49873537E-09 -7.63659366E-08 -1.40581511E-02 -1.10743866E-01
 -1.58877164E-01 -4.34542973E-02 -6.76043832E-03 -1.24457781E-02 -9.83644520E-10
  1.10743851E-01  1.58877088E-01  4.34542890E-02  6.76035093E-03 -1.24458246E-02
  9.73791576E-10 -1.10743884E-01 -1.58877189E-01 -4.34543055E-02  6.76043959E-03
  1.24457799E-02  1.00623880E-09  1.10743869E-01  1.58877114E-01  4.34542972E-02
 -6.76035220E-03  1.24458264E-02 -1.01610538E-09 -1.65859889E-02 -2.73455836E-02
  1.65443372E-01 -6.14653910E-07  1.39505199E-08  7.54088511E-02  2.50637332E-01
 -9.20945966E-07  1.76095910E-08  1.54497495E-01  2.50850802E-01 -8.10494800E-07
  2.07333761E-08  2.59538552E-02  4.57253662E-02 -1.63589957E-07  5.63354733E-09
  4.56808638E-03 -3.68829194E-09 -4.37484203E-12  3.45718914E-03  6.24846750E-09
 -1.65859900E-02 -2.73455854E-02 -1.65443375E-01  6.14653908E-07 -1.43064392E-08
  7.54088565E-02 -2.50637335E-01  9.20945839E-07 -1.81457931E-08  1.54497502E-01
 -2.50850807E-01  8.10494683E-07 -2.12340185E-08  2.59538592E-02 -4.57253687E-02
  1.63589923E-07 -5.71080000E-09  4.56808684E-03 -3.71986696E-09  4.40208194E-12
  3.45718842E-03  6.24848132E-09 -4.22020580E-02 -7.14709578E-02 -4.43938480E-02
  1.06852355E-02 -7.07949006E-03  9.72696003E-10 -4.22022001E-02 -7.14712408E-02
 -4.43940698E-02  1.06852852E-02  7.07944052E-03  9.78529527E-10 -4.22020589E-02
 -7.14709594E-02 -4.43938490E-02 -1.06852356E-02  7.07949036E-03 -9.93839307E-10
 -4.22022011E-02 -7.14712424E-02 -4.43940708E-02 -1.06852852E-02 -7.07944081E-03
 -9.87992957E-10 -5.70326962E-09 -9.55020097E-09  1.39690878E-08 -7.25182926E-11
  1.75648063E-01  2.82274635E-08  1.67049673E-08 -1.11761688E-10  2.71628325E-01
  4.27499214E-08  2.23499647E-08 -1.06376409E-10  3.12183445E-01  3.07531794E-09
  4.78601744E-09 -2.16231122E-11  8.22984900E-02 -1.41333905E-09 -1.93435146E-03
  3.26537235E-09 -1.13546986E-09  2.68506820E-12  5.76082201E-09  9.64616481E-09
  1.35646099E-08  7.25361119E-11  1.75648059E-01 -2.85074920E-08  1.60675438E-08
  1.11801345E-10  2.71628319E-01 -4.32274763E-08  2.16631698E-08  1.06358475E-10
  3.12183438E-01 -3.08350936E-09  4.56019950E-09  2.16247418E-11  8.22984883E-02
  1.44056685E-09  1.93435152E-03 -3.26539565E-09  1.12060775E-09  2.68031145E-12
 -6.15355573E-09 -1.09871768E-08 -5.08287394E-09  6.11178448E-10 -1.75744435E-09
  1.61118293E-02 -6.16092201E-09 -1.10103475E-08 -5.12640015E-09  6.11617867E-10
  1.74693525E-09  1.61118237E-02  6.22335957E-09  1.11166627E-08  5.15876900E-09
  5.66014412E-10 -1.75621247E-09  1.61118288E-02  6.21595104E-09  1.10933659E-08
  5.11512279E-09  5.65597067E-10  1.76671254E-09  1.61118232E-02 -1.54127110E-09
 -2.66262968E-09 -1.30774506E-08 -6.73511599E-11  1.84651593E-01  7.88535512E-09
 -2.43986589E-08 -1.05506962E-10  2.85122764E-01  1.21656875E-08 -2.26743242E-08
 -1.17093581E-10  3.26374916E-01  1.90830640E-09 -9.80324821E-09 -4.78866633E-11
  1.52563478E-01 -2.71637769E-09 -1.21772935E-02  6.72144116E-09 -3.37658993E-10
  1.41971968E-12 -1.75641404E-09 -3.02027627E-09  1.25622650E-08 -6.75250998E-11
 -1.84651596E-01  8.93020287E-09  2.36723515E-08 -1.05800795E-10 -2.85122769E-01
  1.40023454E-08  2.18804334E-08 -1.17282957E-10 -3.26374922E-01  2.35556258E-09
  9.37135183E-09 -4.79157729E-11 -1.52563481E-01 -2.69950621E-09 -1.21772938E-02
  6.72146232E-09 -3.50709838E-10 -1.41910263E-12 -1.33866221E-09 -3.47717624E-09
  1.16568996E-09 -1.42627384E-09 -9.39411363E-10  1.85602997E-02 -1.32971541E-09
 -3.46732284E-09  1.16021287E-09 -1.42789526E-09  9.25032881E-10  1.85602712E-02
 -1.59478628E-09 -3.96282555E-09  7.87072984E-10  1.39571669E-09  9.70615403E-10
 -1.85602999E-02 -1.60371376E-09 -3.97258623E-09  7.92910803E-10  1.39407594E-09
 -9.85017971E-10 -1.85602714E-02 -3.57014174E-02 -5.93400969E-02  1.82379559E-01
 -5.01221974E-07 -1.21487194E-08  1.74897777E-01  2.64223511E-01 -7.76109425E-07
 -2.36402289E-08  2.97290509E-01  3.32262959E-01 -9.05857335E-07 -2.46689322E-08
  2.79534392E-01  2.83490851E-01 -4.79080681E-07 -1.07347381E-08  9.72410669E-03
 -3.46055106E-09 -2.03333398E-12 -1.19522177E-02 -1.68282035E-08  3.57014176E-02
  5.93400973E-02  1.82379556E-01 -5.01222068E-07 -1.27570955E-08 -1.74897778E-01
  2.64223505E-01 -7.76109398E-07 -2.45974170E-08 -2.97290509E-01  3.32262953E-01