 Entering Gaussian System, Link 0=g16
 Initial command:
 /home/szhao/Apps/g16/l1.exe "/home/szhao/tmp/Gau-15139.inp" -scrdir="/home/szhao/tmp/"
 Default is to use a total of  16 processors:
                               16 via shared-memory
                                1 via Linda
 Entering Link 1 = /home/szhao/Apps/g16/l1.exe PID=     15140.
  
 Copyright (c) 1988,1990,1992,1993,1995,1998,2003,2009,2016,
            Gaussian, Inc.  All Rights Reserved.
  
 This is part of the Gaussian(R) 16 program.  It is based on
 the Gaussian(R) 09 system (copyright 2009, Gaussian, Inc.),
 the Gaussian(R) 03 system (copyright 2003, Gaussian, Inc.),
 the Gaussian(R) 98 system (copyright 1998, Gaussian, Inc.),
 the Gaussian(R) 94 system (copyright 1995, Gaussian, Inc.),
 the Gaussian 92(TM) system (copyright 1992, Gaussian, Inc.),
 the Gaussian 90(TM) system (copyright 1990, Gaussian, Inc.),
 the Gaussian 88(TM) system (copyright 1988, Gaussian, Inc.),
 the Gaussian 86(TM) system (copyright 1986, Carnegie Mellon
 University), and the Gaussian 82(TM) system (copyright 1983,
 Carnegie Mellon University). Gaussian is a federally registered
 trademark of Gaussian, Inc.
  
 This software contains proprietary and confidential information,
 including trade secrets, belonging to Gaussian, Inc.
  
 This software is provided under written license and may be
 used, copied, transmitted, or stored only in accord with that
 written license.
  
 The following legend is applicable only to US Government
 contracts under FAR:
  
                    RESTRICTED RIGHTS LEGEND
  
 Use, reproduction and disclosure by the US Government is
 subject to restrictions as set forth in subparagraphs (a)
 and (c) of the Commercial Computer Software - Restricted
 Rights clause in FAR 52.227-19.
  
 Gaussian, Inc.
 340 Quinnipiac St., Bldg. 40, Wallingford CT 06492
  
  
 ---------------------------------------------------------------
 Warning -- This program may not be used in any manner that
 competes with the business of Gaussian, Inc. or will provide
 assistance to any competitor of Gaussian, Inc.  The licensee
 of this program is prohibited from giving any competitor of
 Gaussian, Inc. access to this program.  By using this program,
 the user acknowledges that Gaussian, Inc. is engaged in the
 business of creating and licensing software in the field of
 computational chemistry and represents and warrants to the
 licensee that it is not a competitor of Gaussian, Inc. and that
 it will not use this program in any manner prohibited above.
 ---------------------------------------------------------------
  

 Cite this work as:
 Gaussian 16, Revision A.03,
 M. J. Frisch, G. W. Trucks, H. B. Schlegel, G. E. Scuseria, 
 M. A. Robb, J. R. Cheeseman, G. Scalmani, V. Barone, 
 G. A. Petersson, H. Nakatsuji, X. Li, M. Caricato, A. V. Marenich, 
 J. Bloino, B. G. Janesko, R. Gomperts, B. Mennucci, H. P. Hratchian, 
 J. V. Ortiz, A. F. Izmaylov, J. L. Sonnenberg, D. Williams-Young, 
 F. Ding, F. Lipparini, F. Egidi, J. Goings, B. Peng, A. Petrone, 
 T. Henderson, D. Ranasinghe, V. G. Zakrzewski, J. Gao, N. Rega, 
 G. Zheng, W. Liang, M. Hada, M. Ehara, K. Toyota, R. Fukuda, 
 J. Hasegawa, M. Ishida, T. Nakajima, Y. Honda, O. Kitao, H. Nakai, 
 T. Vreven, K. Throssell, J. A. Montgomery, Jr., J. E. Peralta, 
 F. Ogliaro, M. J. Bearpark, J. J. Heyd, E. N. Brothers, K. N. Kudin, 
 V. N. Staroverov, T. A. Keith, R. Kobayashi, J. Normand, 
 K. Raghavachari, A. P. Rendell, J. C. Burant, S. S. Iyengar, 
 J. Tomasi, M. Cossi, J. M. Millam, M. Klene, C. Adamo, R. Cammi, 
 J. W. Ochterski, R. L. Martin, K. Morokuma, O. Farkas, 
 J. B. Foresman, and D. J. Fox, Gaussian, Inc., Wallingford CT, 2016.
 
 ******************************************
 Gaussian 16:  ES64L-G16RevA.03 25-Dec-2016
                15-Nov-2024 
 ******************************************
 %chk=opt.chk
 %mem=24GB
 %nprocshared=28
 Will use up to   28 processors via shared memory.
 --------------------------------------------
 #p opt UM062X/6-311+G** nosymm int=superfine
 --------------------------------------------
 1/18=20,19=15,26=5,38=1/1,3;
 2/9=110,12=2,15=1,17=6,18=5,40=1/2;
 3/5=4,6=6,7=111,11=2,25=1,30=1,71=1,74=-55,75=-7,116=2/1,2,3;
 4//1;
 5/5=2,38=5/2;
 6/7=2,8=2,9=2,10=2,28=1/1;
 7/30=1/1,2,3,16;
 1/18=20,19=15,26=5/3(2);
 2/9=110,15=1/2;
 99//99;
 2/9=110,15=1/2;
 3/5=4,6=6,7=111,11=2,25=1,30=1,71=1,74=-55,75=-7,116=2/1,2,3;
 4/5=5,16=3,69=1/1;
 5/5=2,38=5/2;
 7/30=1/1,2,3,16;
 1/18=20,19=15,26=5/3(-5);
 2/9=110,15=1/2;
 6/7=2,8=2,9=2,10=2,19=2,28=1/1;
 99/9=1/99;
 Leave Link    1 at Fri Nov 15 12:38:15 2024, MaxMem=  3221225472 cpu:               1.5 elap:               0.1
 (Enter /home/szhao/Apps/g16/l101.exe)
 -------------------
 Title Card Required
 -------------------
 Symbolic Z-matrix:
 Charge =  1 Multiplicity = 2
 C                    -1   -1.79756   0.        0. 
 C                    -1    1.79756   0.        0. 
 C                    0    -0.00001  -2.05545  -0.00218 
 C                    0    -0.00002  -3.45663  -0.00371 
 C                    0    -1.24126  -4.28965   0.19342 
 C                    0    -1.44879  -1.46623   0.1642 
 C                    0     0.72815  -5.68273  -0.12501 
 H                    0     1.42119  -6.55103  -0.24207 
 C                    0    -1.81992   0.76446   1.22074 
 C                    0    -0.72822  -5.68298   0.11279 
 H                    0    -1.42125  -6.55152   0.22811 
 C                    0     1.24121  -4.28923  -0.20263 
 C                    0     1.44877  -1.46588  -0.16728 
 C                    0     1.95648   2.19169  -1.3377 
 C                    0    -1.92109   0.40954  -1.37421 
 C                    0    -2.01764   2.76909   2.62285 
 H                    0    -2.14023   3.84515   2.68869 
 C                    0    -2.57234  -3.70309   0.41334 
 H                    0    -3.56064  -4.27951   0.58257 
 C                    0    -1.91259   1.75683  -1.86868 
 C                    0     2.64176  -2.28649  -0.38846 
 H                    0     3.7042   -1.81329  -0.50709 
 C                    0     1.92112   0.40666   1.37506 
 C                    0     1.91263   1.7529    1.87236 
 C                    0     2.57233  -3.70221  -0.42114 
 H                    0     3.56064  -4.27827  -0.59154 
 C                    0    -1.95672   2.18887   1.34229 
 C                    0    -1.66121   0.04225   2.44255 
 H                    0    -1.50606  -1.02703   2.40771 
 C                    0     1.9987   -0.6279    2.36195 
 H                    0     2.03711  -1.65906   2.04522 
 C                    0    -1.91883   2.02408   3.78017 
 H                    0    -1.98002   2.50708   4.74815 
 C                    0    -2.64177  -2.2873    0.38372 
 H                    0    -3.70419  -1.81434   0.50343 
 C                    0    -1.93647   1.98025  -3.26009 
 H                    0    -1.91006   3.00603  -3.6092 
 C                    0     1.81988   0.76702  -1.21914 
 C                    0    -1.95886   3.13594   0.25924 
 H                    0    -1.98895   4.17143   0.58431 
 C                    0    -2.0115    0.95519  -4.17546 
 H                    0    -2.04765   1.17003  -5.2367 
 C                    0    -1.90442   2.95543  -1.07579 
 H                    0    -1.88601   3.86784  -1.66424 
 C                    0     1.93673   1.9734    3.26424 
 H                    0     1.91036   2.99844   3.61551 
 C                    0    -1.71646   0.64359   3.67979 
 H                    0    -1.60047   0.03773   4.57152 
 C                    0    -1.99858  -0.62294  -2.36328 
 H                    0    -2.03706  -1.65476  -2.0487 
 C                    0     2.01191   0.94641   4.17744 
 H                    0     2.04825   1.15903   5.23912 
 C                    0     2.0174    2.7746   -2.61703 
 H                    0     2.13984   3.85082  -2.6806 
 C                    0     2.06165  -0.37237   3.71002 
 H                    0     2.14492  -1.19838   4.40662 
 C                    0     1.9188    2.03202  -3.77592 
 H                    0     1.98001   2.51706  -4.74288 
 C                    0     1.95837   3.13649  -0.25266 
 H                    0     1.98815   4.17267  -0.57555 
 C                    0    -2.06135  -0.36457  -3.71082 
 H                    0    -2.14459  -1.18911  -4.40915 
 C                    0     1.90411   2.95316   1.082 
 H                    0     1.88554   3.86434   1.67236 
 C                    0     1.66129   0.04736  -2.44247 
 H                    0     1.50624  -1.02199  -2.40988 
 C                    0     1.71657   0.6513   -3.67844 
 H                    0     1.6007    0.0473   -4.57144 
 
 ITRead=  2  2  0  0  0  0  0  0  0  0  0  0  0  0  0  0  0  0  0  0
 ITRead=  0  0  0  0  0  0  0  0  0  0  0  0  0  0  0  0  0  0  0  0
 ITRead=  0  0  0  0  0  0  0  0  0  0  0  0  0  0  0  0  0  0  0  0
 ITRead=  0  0  0  0  0  0  0  0
 MicOpt= -2 -2 -1 -1 -1 -1 -1 -1 -1 -1 -1 -1 -1 -1 -1 -1 -1 -1 -1 -1
 MicOpt= -1 -1 -1 -1 -1 -1 -1 -1 -1 -1 -1 -1 -1 -1 -1 -1 -1 -1 -1 -1
 MicOpt= -1 -1 -1 -1 -1 -1 -1 -1 -1 -1 -1 -1 -1 -1 -1 -1 -1 -1 -1 -1
 MicOpt= -1 -1 -1 -1 -1 -1 -1 -1
 NAtoms=     68 NQM=       66 NQMF=       2 NMMI=      0 NMMIF=      0
                NMic=       0 NMicF=      0.
                    Isotopes and Nuclear Properties:
 (Nuclear quadrupole moments (NQMom) in fm**2, nuclear magnetic moments (NMagM)
  in nuclear magnetons)

  Atom         1           2           3           4           5           6           7           8           9          10
 IAtWgt=          12          12          12          12          12          12          12           1          12          12
 AtmWgt=  12.0000000  12.0000000  12.0000000  12.0000000  12.0000000  12.0000000  12.0000000   1.0078250  12.0000000  12.0000000
 NucSpn=           0           0           0           0           0           0           0           1           0           0
 AtZEff=  -0.0000000  -0.0000000  -0.0000000  -0.0000000  -0.0000000  -0.0000000  -0.0000000  -0.0000000  -0.0000000  -0.0000000
 NQMom=    0.0000000   0.0000000   0.0000000   0.0000000   0.0000000   0.0000000   0.0000000   0.0000000   0.0000000   0.0000000
 NMagM=    0.0000000   0.0000000   0.0000000   0.0000000   0.0000000   0.0000000   0.0000000   2.7928460   0.0000000   0.0000000
 AtZNuc=   6.0000000   6.0000000   6.0000000   6.0000000   6.0000000   6.0000000   6.0000000   1.0000000   6.0000000   6.0000000

  Atom        11          12          13          14          15          16          17          18          19          20
 IAtWgt=           1          12          12          12          12          12           1          12           1          12
 AtmWgt=   1.0078250  12.0000000  12.0000000  12.0000000  12.0000000  12.0000000   1.0078250  12.0000000   1.0078250  12.0000000
 NucSpn=           1           0           0           0           0           0           1           0           1           0
 AtZEff=  -0.0000000  -0.0000000  -0.0000000  -0.0000000  -0.0000000  -0.0000000  -0.0000000  -0.0000000  -0.0000000  -0.0000000
 NQMom=    0.0000000   0.0000000   0.0000000   0.0000000   0.0000000   0.0000000   0.0000000   0.0000000   0.0000000   0.0000000
 NMagM=    2.7928460   0.0000000   0.0000000   0.0000000   0.0000000   0.0000000   2.7928460   0.0000000   2.7928460   0.0000000
 AtZNuc=   1.0000000   6.0000000   6.0000000   6.0000000   6.0000000   6.0000000   1.0000000   6.0000000   1.0000000   6.0000000

  Atom        21          22          23          24          25          26          27          28          29          30
 IAtWgt=          12           1          12          12          12           1          12          12           1          12
 AtmWgt=  12.0000000   1.0078250  12.0000000  12.0000000  12.0000000   1.0078250  12.0000000  12.0000000   1.0078250  12.0000000
 NucSpn=           0           1           0           0           0           1           0           0           1           0
 AtZEff=  -0.0000000  -0.0000000  -0.0000000  -0.0000000  -0.0000000  -0.0000000  -0.0000000  -0.0000000  -0.0000000  -0.0000000
 NQMom=    0.0000000   0.0000000   0.0000000   0.0000000   0.0000000   0.0000000   0.0000000   0.0000000   0.0000000   0.0000000
 NMagM=    0.0000000   2.7928460   0.0000000   0.0000000   0.0000000   2.7928460   0.0000000   0.0000000   2.7928460   0.0000000
 AtZNuc=   6.0000000   1.0000000   6.0000000   6.0000000   6.0000000   1.0000000   6.0000000   6.0000000   1.0000000   6.0000000

  Atom        31          32          33          34          35          36          37          38          39          40
 IAtWgt=           1          12           1          12           1          12           1          12          12           1
 AtmWgt=   1.0078250  12.0000000   1.0078250  12.0000000   1.0078250  12.0000000   1.0078250  12.0000000  12.0000000   1.0078250
 NucSpn=           1           0           1           0           1           0           1           0           0           1
 AtZEff=  -0.0000000  -0.0000000  -0.0000000  -0.0000000  -0.0000000  -0.0000000  -0.0000000  -0.0000000  -0.0000000  -0.0000000
 NQMom=    0.0000000   0.0000000   0.0000000   0.0000000   0.0000000   0.0000000   0.0000000   0.0000000   0.0000000   0.0000000
 NMagM=    2.7928460   0.0000000   2.7928460   0.0000000   2.7928460   0.0000000   2.7928460   0.0000000   0.0000000   2.7928460
 AtZNuc=   1.0000000   6.0000000   1.0000000   6.0000000   1.0000000   6.0000000   1.0000000   6.0000000   6.0000000   1.0000000

  Atom        41          42          43          44          45          46          47          48          49          50
 IAtWgt=          12           1          12           1          12           1          12           1          12           1
 AtmWgt=  12.0000000   1.0078250  12.0000000   1.0078250  12.0000000   1.0078250  12.0000000   1.0078250  12.0000000   1.0078250
 NucSpn=           0           1           0           1           0           1           0           1           0           1
 AtZEff=  -0.0000000  -0.0000000  -0.0000000  -0.0000000  -0.0000000  -0.0000000  -0.0000000  -0.0000000  -0.0000000  -0.0000000
 NQMom=    0.0000000   0.0000000   0.0000000   0.0000000   0.0000000   0.0000000   0.0000000   0.0000000   0.0000000   0.0000000
 NMagM=    0.0000000   2.7928460   0.0000000   2.7928460   0.0000000   2.7928460   0.0000000   2.7928460   0.0000000   2.7928460
 AtZNuc=   6.0000000   1.0000000   6.0000000   1.0000000   6.0000000   1.0000000   6.0000000   1.0000000   6.0000000   1.0000000

  Atom        51          52          53          54          55          56          57          58          59          60
 IAtWgt=          12           1          12           1          12           1          12           1          12           1
 AtmWgt=  12.0000000   1.0078250  12.0000000   1.0078250  12.0000000   1.0078250  12.0000000   1.0078250  12.0000000   1.0078250
 NucSpn=           0           1           0           1           0           1           0           1           0           1
 AtZEff=  -0.0000000  -0.0000000  -0.0000000  -0.0000000  -0.0000000  -0.0000000  -0.0000000  -0.0000000  -0.0000000  -0.0000000
 NQMom=    0.0000000   0.0000000   0.0000000   0.0000000   0.0000000   0.0000000   0.0000000   0.0000000   0.0000000   0.0000000
 NMagM=    0.0000000   2.7928460   0.0000000   2.7928460   0.0000000   2.7928460   0.0000000   2.7928460   0.0000000   2.7928460
 AtZNuc=   6.0000000   1.0000000   6.0000000   1.0000000   6.0000000   1.0000000   6.0000000   1.0000000   6.0000000   1.0000000

  Atom        61          62          63          64          65          66          67          68
 IAtWgt=          12           1          12           1          12           1          12           1
 AtmWgt=  12.0000000   1.0078250  12.0000000   1.0078250  12.0000000   1.0078250  12.0000000   1.0078250
 NucSpn=           0           1           0           1           0           1           0           1
 AtZEff=  -0.0000000  -0.0000000  -0.0000000  -0.0000000  -0.0000000  -0.0000000  -0.0000000  -0.0000000
 NQMom=    0.0000000   0.0000000   0.0000000   0.0000000   0.0000000   0.0000000   0.0000000   0.0000000
 NMagM=    0.0000000   2.7928460   0.0000000   2.7928460   0.0000000   2.7928460   0.0000000   2.7928460
 AtZNuc=   6.0000000   1.0000000   6.0000000   1.0000000   6.0000000   1.0000000   6.0000000   1.0000000
 Leave Link  101 at Fri Nov 15 12:38:15 2024, MaxMem=  3221225472 cpu:               9.8 elap:               0.4
 (Enter /home/szhao/Apps/g16/l103.exe)

 GradGradGradGradGradGradGradGradGradGradGradGradGradGradGradGradGradGrad
 Berny optimization.
 Initialization pass.
                           ----------------------------
                           !    Initial Parameters    !
                           ! (Angstroms and Degrees)  !
 --------------------------                            --------------------------
 ! Name  Definition              Value          Derivative Info.                !
 --------------------------------------------------------------------------------
 ! X1    R(1,-1)                -1.7976         Frozen                          !
 ! Y1    R(1,-2)                 0.0            Frozen                          !
 ! Z1    R(1,-3)                 0.0            Frozen                          !
 ! X2    R(2,-1)                 1.7976         Frozen                          !
 ! Y2    R(2,-2)                 0.0            Frozen                          !
 ! Z2    R(2,-3)                 0.0            Frozen                          !
 ! R1    R(1,6)                  1.5161         estimate D2E/DX2                !
 ! R2    R(1,9)                  1.4405         estimate D2E/DX2                !
 ! R3    R(1,15)                 1.4392         estimate D2E/DX2                !
 ! R4    R(2,13)                 1.5161         estimate D2E/DX2                !
 ! R5    R(2,23)                 1.4392         estimate D2E/DX2                !
 ! R6    R(2,38)                 1.4405         estimate D2E/DX2                !
 ! R7    R(3,4)                  1.4012         estimate D2E/DX2                !
 ! R8    R(3,6)                  1.5728         estimate D2E/DX2                !
 ! R9    R(3,13)                 1.5728         estimate D2E/DX2                !
 ! R10   R(4,5)                  1.5078         estimate D2E/DX2                !
 ! R11   R(4,12)                 1.5078         estimate D2E/DX2                !
 ! R12   R(5,10)                 1.487          estimate D2E/DX2                !
 ! R13   R(5,18)                 1.4711         estimate D2E/DX2                !
 ! R14   R(6,34)                 1.4648         estimate D2E/DX2                !
 ! R15   R(7,8)                  1.1171         estimate D2E/DX2                !
 ! R16   R(7,10)                 1.4757         estimate D2E/DX2                !
 ! R17   R(7,12)                 1.487          estimate D2E/DX2                !
 ! R18   R(9,27)                 1.4361         estimate D2E/DX2                !
 ! R19   R(9,28)                 1.4281         estimate D2E/DX2                !
 ! R20   R(10,11)                1.1171         estimate D2E/DX2                !
 ! R21   R(12,25)                1.4711         estimate D2E/DX2                !
 ! R22   R(13,21)                1.4648         estimate D2E/DX2                !
 ! R23   R(14,38)                1.4361         estimate D2E/DX2                !
 ! R24   R(14,53)                1.4072         estimate D2E/DX2                !
 ! R25   R(14,59)                1.4387         estimate D2E/DX2                !
 ! R26   R(15,20)                1.4352         estimate D2E/DX2                !
 ! R27   R(15,49)                1.4319         estimate D2E/DX2                !
 ! R28   R(16,17)                1.085          estimate D2E/DX2                !
 ! R29   R(16,27)                1.4072         estimate D2E/DX2                !
 ! R30   R(16,32)                1.3799         estimate D2E/DX2                !
 ! R31   R(18,19)                1.1566         estimate D2E/DX2                !
 ! R32   R(18,34)                1.4178         estimate D2E/DX2                !
 ! R33   R(20,36)                1.4094         estimate D2E/DX2                !
 ! R34   R(20,43)                1.4371         estimate D2E/DX2                !
 ! R35   R(21,22)                1.1691         estimate D2E/DX2                !
 ! R36   R(21,25)                1.4178         estimate D2E/DX2                !
 ! R37   R(23,24)                1.4352         estimate D2E/DX2                !
 ! R38   R(23,30)                1.4319         estimate D2E/DX2                !
 ! R39   R(24,45)                1.4094         estimate D2E/DX2                !
 ! R40   R(24,63)                1.4371         estimate D2E/DX2                !
 ! R41   R(25,26)                1.1566         estimate D2E/DX2                !
 ! R42   R(27,39)                1.4387         estimate D2E/DX2                !
 ! R43   R(28,29)                1.081          estimate D2E/DX2                !
 ! R44   R(28,47)                1.3768         estimate D2E/DX2                !
 ! R45   R(30,31)                1.0794         estimate D2E/DX2                !
 ! R46   R(30,55)                1.3735         estimate D2E/DX2                !
 ! R47   R(32,33)                1.0835         estimate D2E/DX2                !
 ! R48   R(32,47)                1.3988         estimate D2E/DX2                !
 ! R49   R(34,35)                1.1691         estimate D2E/DX2                !
 ! R50   R(36,37)                1.0839         estimate D2E/DX2                !
 ! R51   R(36,41)                1.3763         estimate D2E/DX2                !
 ! R52   R(38,65)                1.4281         estimate D2E/DX2                !
 ! R53   R(39,40)                1.0857         estimate D2E/DX2                !
 ! R54   R(39,43)                1.3483         estimate D2E/DX2                !
 ! R55   R(41,42)                1.0834         estimate D2E/DX2                !
 ! R56   R(41,61)                1.4001         estimate D2E/DX2                !
 ! R57   R(43,44)                1.0859         estimate D2E/DX2                !
 ! R58   R(45,46)                1.0839         estimate D2E/DX2                !
 ! R59   R(45,51)                1.3763         estimate D2E/DX2                !
 ! R60   R(47,48)                1.0843         estimate D2E/DX2                !
 ! R61   R(49,50)                1.0794         estimate D2E/DX2                !
 ! R62   R(49,61)                1.3735         estimate D2E/DX2                !
 ! R63   R(51,52)                1.0834         estimate D2E/DX2                !
 ! R64   R(51,55)                1.4001         estimate D2E/DX2                !
 ! R65   R(53,54)                1.085          estimate D2E/DX2                !
 ! R66   R(53,57)                1.3799         estimate D2E/DX2                !
 ! R67   R(55,56)                1.0837         estimate D2E/DX2                !
 ! R68   R(57,58)                1.0835         estimate D2E/DX2                !
 ! R69   R(57,67)                1.3988         estimate D2E/DX2                !
 ! R70   R(59,60)                1.0857         estimate D2E/DX2                !
 ! R71   R(59,63)                1.3483         estimate D2E/DX2                !
 ! R72   R(61,62)                1.0837         estimate D2E/DX2                !
 ! R73   R(63,64)                1.0859         estimate D2E/DX2                !
 ! R74   R(65,66)                1.081          estimate D2E/DX2                !
 ! R75   R(65,67)                1.3768         estimate D2E/DX2                !
 ! R76   R(67,68)                1.0843         estimate D2E/DX2                !
 ! A1    A(6,1,9)              115.1525         estimate D2E/DX2                !
 ! A2    A(6,1,15)             113.4754         estimate D2E/DX2                !
 ! A3    A(9,1,15)             131.0561         estimate D2E/DX2                !
 ! A4    A(13,2,23)            113.4759         estimate D2E/DX2                !
 ! A5    A(13,2,38)            115.1517         estimate D2E/DX2                !
 ! A6    A(23,2,38)            131.0561         estimate D2E/DX2                !
 ! A7    A(4,3,6)              112.0075         estimate D2E/DX2                !
 ! A8    A(4,3,13)             112.008          estimate D2E/DX2                !
 ! A9    A(6,3,13)             135.9845         estimate D2E/DX2                !
 ! A10   A(3,4,5)              123.5272         estimate D2E/DX2                !
 ! A11   A(3,4,12)             123.5273         estimate D2E/DX2                !
 ! A12   A(5,4,12)             112.9456         estimate D2E/DX2                !
 ! A13   A(4,5,10)             103.0946         estimate D2E/DX2                !
 ! A14   A(4,5,18)             122.9643         estimate D2E/DX2                !
 ! A15   A(10,5,18)            133.9393         estimate D2E/DX2                !
 ! A16   A(1,6,3)              124.2464         estimate D2E/DX2                !
 ! A17   A(1,6,34)             111.7769         estimate D2E/DX2                !
 ! A18   A(3,6,34)             123.7844         estimate D2E/DX2                !
 ! A19   A(8,7,10)             128.9788         estimate D2E/DX2                !
 ! A20   A(8,7,12)             120.589          estimate D2E/DX2                !
 ! A21   A(10,7,12)            110.4322         estimate D2E/DX2                !
 ! A22   A(1,9,27)             126.8383         estimate D2E/DX2                !
 ! A23   A(1,9,28)             117.059          estimate D2E/DX2                !
 ! A24   A(27,9,28)            116.0879         estimate D2E/DX2                !
 ! A25   A(5,10,7)             110.432          estimate D2E/DX2                !
 ! A26   A(5,10,11)            120.5892         estimate D2E/DX2                !
 ! A27   A(7,10,11)            128.9789         estimate D2E/DX2                !
 ! A28   A(4,12,7)             103.0945         estimate D2E/DX2                !
 ! A29   A(4,12,25)            122.9642         estimate D2E/DX2                !
 ! A30   A(7,12,25)            133.9396         estimate D2E/DX2                !
 ! A31   A(2,13,3)             124.2477         estimate D2E/DX2                !
 ! A32   A(2,13,21)            111.7756         estimate D2E/DX2                !
 ! A33   A(3,13,21)            123.7844         estimate D2E/DX2                !
 ! A34   A(38,14,53)           119.3479         estimate D2E/DX2                !
 ! A35   A(38,14,59)           126.109          estimate D2E/DX2                !
 ! A36   A(53,14,59)           114.4283         estimate D2E/DX2                !
 ! A37   A(1,15,20)            126.554          estimate D2E/DX2                !
 ! A38   A(1,15,49)            117.3227         estimate D2E/DX2                !
 ! A39   A(20,15,49)           116.0552         estimate D2E/DX2                !
 ! A40   A(17,16,27)           117.9711         estimate D2E/DX2                !
 ! A41   A(17,16,32)           119.5138         estimate D2E/DX2                !
 ! A42   A(27,16,32)           122.5136         estimate D2E/DX2                !
 ! A43   A(5,18,19)            126.6071         estimate D2E/DX2                !
 ! A44   A(5,18,34)            116.0617         estimate D2E/DX2                !
 ! A45   A(19,18,34)           117.3161         estimate D2E/DX2                !
 ! A46   A(15,20,36)           119.2642         estimate D2E/DX2                !
 ! A47   A(15,20,43)           126.362          estimate D2E/DX2                !
 ! A48   A(36,20,43)           114.3649         estimate D2E/DX2                !
 ! A49   A(13,21,22)           121.9187         estimate D2E/DX2                !
 ! A50   A(13,21,25)           121.5337         estimate D2E/DX2                !
 ! A51   A(22,21,25)           116.5093         estimate D2E/DX2                !
 ! A52   A(2,23,24)            126.5544         estimate D2E/DX2                !
 ! A53   A(2,23,30)            117.3223         estimate D2E/DX2                !
 ! A54   A(24,23,30)           116.0553         estimate D2E/DX2                !
 ! A55   A(23,24,45)           119.2641         estimate D2E/DX2                !
 ! A56   A(23,24,63)           126.3619         estimate D2E/DX2                !
 ! A57   A(45,24,63)           114.3652         estimate D2E/DX2                !
 ! A58   A(12,25,21)           116.0616         estimate D2E/DX2                !
 ! A59   A(12,25,26)           126.6073         estimate D2E/DX2                !
 ! A60   A(21,25,26)           117.316          estimate D2E/DX2                !
 ! A61   A(9,27,16)            119.3477         estimate D2E/DX2                !
 ! A62   A(9,27,39)            126.1095         estimate D2E/DX2                !
 ! A63   A(16,27,39)           114.4281         estimate D2E/DX2                !
 ! A64   A(9,28,29)            119.2471         estimate D2E/DX2                !
 ! A65   A(9,28,47)            122.9217         estimate D2E/DX2                !
 ! A66   A(29,28,47)           117.8238         estimate D2E/DX2                !
 ! A67   A(23,30,31)           119.3348         estimate D2E/DX2                !
 ! A68   A(23,30,55)           122.9921         estimate D2E/DX2                !
 ! A69   A(31,30,55)           117.652          estimate D2E/DX2                !
 ! A70   A(16,32,33)           120.3008         estimate D2E/DX2                !
 ! A71   A(16,32,47)           118.8802         estimate D2E/DX2                !
 ! A72   A(33,32,47)           120.8103         estimate D2E/DX2                !
 ! A73   A(6,34,18)            121.5336         estimate D2E/DX2                !
 ! A74   A(6,34,35)            121.9185         estimate D2E/DX2                !
 ! A75   A(18,34,35)           116.5095         estimate D2E/DX2                !
 ! A76   A(20,36,37)           117.8773         estimate D2E/DX2                !
 ! A77   A(20,36,41)           122.6452         estimate D2E/DX2                !
 ! A78   A(37,36,41)           119.4701         estimate D2E/DX2                !
 ! A79   A(2,38,14)            126.8382         estimate D2E/DX2                !
 ! A80   A(2,38,65)            117.0593         estimate D2E/DX2                !
 ! A81   A(14,38,65)           116.0876         estimate D2E/DX2                !
 ! A82   A(27,39,40)           113.7324         estimate D2E/DX2                !
 ! A83   A(27,39,43)           131.0858         estimate D2E/DX2                !
 ! A84   A(40,39,43)           115.1679         estimate D2E/DX2                !
 ! A85   A(36,41,42)           120.3722         estimate D2E/DX2                !
 ! A86   A(36,41,61)           118.9003         estimate D2E/DX2                !
 ! A87   A(42,41,61)           120.7199         estimate D2E/DX2                !
 ! A88   A(20,43,39)           131.1268         estimate D2E/DX2                !
 ! A89   A(20,43,44)           113.6975         estimate D2E/DX2                !
 ! A90   A(39,43,44)           115.1362         estimate D2E/DX2                !
 ! A91   A(24,45,46)           117.8774         estimate D2E/DX2                !
 ! A92   A(24,45,51)           122.6453         estimate D2E/DX2                !
 ! A93   A(46,45,51)           119.4698         estimate D2E/DX2                !
 ! A94   A(28,47,32)           120.0891         estimate D2E/DX2                !
 ! A95   A(28,47,48)           119.3875         estimate D2E/DX2                !
 ! A96   A(32,47,48)           120.5233         estimate D2E/DX2                !
 ! A97   A(15,49,50)           119.3341         estimate D2E/DX2                !
 ! A98   A(15,49,61)           122.992          estimate D2E/DX2                !
 ! A99   A(50,49,61)           117.6527         estimate D2E/DX2                !
 ! A100  A(45,51,52)           120.372          estimate D2E/DX2                !
 ! A101  A(45,51,55)           118.9003         estimate D2E/DX2                !
 ! A102  A(52,51,55)           120.7202         estimate D2E/DX2                !
 ! A103  A(14,53,54)           117.9708         estimate D2E/DX2                !
 ! A104  A(14,53,57)           122.5138         estimate D2E/DX2                !
 ! A105  A(54,53,57)           119.514          estimate D2E/DX2                !
 ! A106  A(30,55,51)           120.0851         estimate D2E/DX2                !
 ! A107  A(30,55,56)           119.5111         estimate D2E/DX2                !
 ! A108  A(51,55,56)           120.4031         estimate D2E/DX2                !
 ! A109  A(53,57,58)           120.3008         estimate D2E/DX2                !
 ! A110  A(53,57,67)           118.8796         estimate D2E/DX2                !
 ! A111  A(58,57,67)           120.8108         estimate D2E/DX2                !
 ! A112  A(14,59,60)           113.7324         estimate D2E/DX2                !
 ! A113  A(14,59,63)           131.0862         estimate D2E/DX2                !
 ! A114  A(60,59,63)           115.1676         estimate D2E/DX2                !
 ! A115  A(41,61,49)           120.0852         estimate D2E/DX2                !
 ! A116  A(41,61,62)           120.4032         estimate D2E/DX2                !
 ! A117  A(49,61,62)           119.511          estimate D2E/DX2                !
 ! A118  A(24,63,59)           131.1266         estimate D2E/DX2                !
 ! A119  A(24,63,64)           113.6976         estimate D2E/DX2                !
 ! A120  A(59,63,64)           115.1362         estimate D2E/DX2                !
 ! A121  A(38,65,66)           119.2472         estimate D2E/DX2                !
 ! A122  A(38,65,67)           122.9217         estimate D2E/DX2                !
 ! A123  A(66,65,67)           117.8236         estimate D2E/DX2                !
 ! A124  A(57,67,65)           120.0893         estimate D2E/DX2                !
 ! A125  A(57,67,68)           120.5234         estimate D2E/DX2                !
 ! A126  A(65,67,68)           119.3873         estimate D2E/DX2                !
 ! D1    D(9,1,6,3)            -94.8729         estimate D2E/DX2                !
 ! D2    D(9,1,6,34)            90.0096         estimate D2E/DX2                !
 ! D3    D(15,1,6,3)            79.3963         estimate D2E/DX2                !
 ! D4    D(15,1,6,34)          -95.7213         estimate D2E/DX2                !
 ! D5    D(6,1,9,27)           171.8725         estimate D2E/DX2                !
 ! D6    D(6,1,9,28)            -6.6658         estimate D2E/DX2                !
 ! D7    D(15,1,9,27)           -1.151          estimate D2E/DX2                !
 ! D8    D(15,1,9,28)         -179.6893         estimate D2E/DX2                !
 ! D9    D(6,1,15,20)         -163.5374         estimate D2E/DX2                !
 ! D10   D(6,1,15,49)           13.3291         estimate D2E/DX2                !
 ! D11   D(9,1,15,20)            9.5782         estimate D2E/DX2                !
 ! D12   D(9,1,15,49)         -173.5553         estimate D2E/DX2                !
 ! D13   D(23,2,13,3)           79.3993         estimate D2E/DX2                !
 ! D14   D(23,2,13,21)         -95.7174         estimate D2E/DX2                !
 ! D15   D(38,2,13,3)          -94.8688         estimate D2E/DX2                !
 ! D16   D(38,2,13,21)          90.0145         estimate D2E/DX2                !
 ! D17   D(13,2,23,24)        -163.5363         estimate D2E/DX2                !
 ! D18   D(13,2,23,30)          13.3323         estimate D2E/DX2                !
 ! D19   D(38,2,23,24)           9.5781         estimate D2E/DX2                !
 ! D20   D(38,2,23,30)        -173.5534         estimate D2E/DX2                !
 ! D21   D(13,2,38,14)         171.8623         estimate D2E/DX2                !
 ! D22   D(13,2,38,65)          -6.6738         estimate D2E/DX2                !
 ! D23   D(23,2,38,14)          -1.16           estimate D2E/DX2                !
 ! D24   D(23,2,38,65)        -179.696          estimate D2E/DX2                !
 ! D25   D(6,3,4,5)             -2.5388         estimate D2E/DX2                !
 ! D26   D(6,3,4,12)           177.4621         estimate D2E/DX2                !
 ! D27   D(13,3,4,5)           177.4611         estimate D2E/DX2                !
 ! D28   D(13,3,4,12)           -2.538          estimate D2E/DX2                !
 ! D29   D(4,3,6,1)           -170.6149         estimate D2E/DX2                !
 ! D30   D(4,3,6,34)             3.9282         estimate D2E/DX2                !
 ! D31   D(13,3,6,1)             9.3852         estimate D2E/DX2                !
 ! D32   D(13,3,6,34)         -176.0717         estimate D2E/DX2                !
 ! D33   D(4,3,13,2)          -170.62           estimate D2E/DX2                !
 ! D34   D(4,3,13,21)            3.9221         estimate D2E/DX2                !
 ! D35   D(6,3,13,2)             9.3799         estimate D2E/DX2                !
 ! D36   D(6,3,13,21)         -176.078          estimate D2E/DX2                !
 ! D37   D(3,4,5,10)          -179.8929         estimate D2E/DX2                !
 ! D38   D(3,4,5,18)            -0.3169         estimate D2E/DX2                !
 ! D39   D(12,4,5,10)            0.1062         estimate D2E/DX2                !
 ! D40   D(12,4,5,18)          179.6823         estimate D2E/DX2                !
 ! D41   D(3,4,12,7)          -179.8943         estimate D2E/DX2                !
 ! D42   D(3,4,12,25)           -0.3113         estimate D2E/DX2                !
 ! D43   D(5,4,12,7)             0.1065         estimate D2E/DX2                !
 ! D44   D(5,4,12,25)          179.6895         estimate D2E/DX2                !
 ! D45   D(4,5,10,7)            -0.2855         estimate D2E/DX2                !
 ! D46   D(4,5,10,11)          179.7023         estimate D2E/DX2                !
 ! D47   D(18,5,10,7)         -179.7915         estimate D2E/DX2                !
 ! D48   D(18,5,10,11)           0.1963         estimate D2E/DX2                !
 ! D49   D(4,5,18,19)         -179.283          estimate D2E/DX2                !
 ! D50   D(4,5,18,34)            2.1793         estimate D2E/DX2                !
 ! D51   D(10,5,18,19)           0.1436         estimate D2E/DX2                !
 ! D52   D(10,5,18,34)        -178.3942         estimate D2E/DX2                !
 ! D53   D(1,6,34,18)          172.7973         estimate D2E/DX2                !
 ! D54   D(1,6,34,35)           -4.8716         estimate D2E/DX2                !
 ! D55   D(3,6,34,18)           -2.3468         estimate D2E/DX2                !
 ! D56   D(3,6,34,35)          179.9842         estimate D2E/DX2                !
 ! D57   D(8,7,10,5)          -179.6185         estimate D2E/DX2                !
 ! D58   D(8,7,10,11)            0.3951         estimate D2E/DX2                !
 ! D59   D(12,7,10,5)            0.3767         estimate D2E/DX2                !
 ! D60   D(12,7,10,11)        -179.6097         estimate D2E/DX2                !
 ! D61   D(8,7,12,4)           179.7101         estimate D2E/DX2                !
 ! D62   D(8,7,12,25)            0.196          estimate D2E/DX2                !
 ! D63   D(10,7,12,4)           -0.2856         estimate D2E/DX2                !
 ! D64   D(10,7,12,25)        -179.7997         estimate D2E/DX2                !
 ! D65   D(1,9,27,16)          177.2319         estimate D2E/DX2                !
 ! D66   D(1,9,27,39)           -6.8894         estimate D2E/DX2                !
 ! D67   D(28,9,27,16)          -4.2175         estimate D2E/DX2                !
 ! D68   D(28,9,27,39)         171.6613         estimate D2E/DX2                !
 ! D69   D(1,9,28,29)            1.6245         estimate D2E/DX2                !
 ! D70   D(1,9,28,47)         -177.3604         estimate D2E/DX2                !
 ! D71   D(27,9,28,29)        -177.073          estimate D2E/DX2                !
 ! D72   D(27,9,28,47)           3.9421         estimate D2E/DX2                !
 ! D73   D(4,12,25,21)           2.1727         estimate D2E/DX2                !
 ! D74   D(4,12,25,26)        -179.2868         estimate D2E/DX2                !
 ! D75   D(7,12,25,21)        -178.3914         estimate D2E/DX2                !
 ! D76   D(7,12,25,26)           0.1491         estimate D2E/DX2                !
 ! D77   D(2,13,21,22)          -4.8696         estimate D2E/DX2                !
 ! D78   D(2,13,21,25)         172.8017         estimate D2E/DX2                !
 ! D79   D(3,13,21,22)         179.9871         estimate D2E/DX2                !
 ! D80   D(3,13,21,25)          -2.3416         estimate D2E/DX2                !
 ! D81   D(53,14,38,2)         177.2312         estimate D2E/DX2                !
 ! D82   D(53,14,38,65)         -4.2203         estimate D2E/DX2                !
 ! D83   D(59,14,38,2)          -6.892          estimate D2E/DX2                !
 ! D84   D(59,14,38,65)        171.6564         estimate D2E/DX2                !
 ! D85   D(38,14,53,54)       -178.8485         estimate D2E/DX2                !
 ! D86   D(38,14,53,57)          1.5877         estimate D2E/DX2                !
 ! D87   D(59,14,53,54)          4.8095         estimate D2E/DX2                !
 ! D88   D(59,14,53,57)       -174.7543         estimate D2E/DX2                !
 ! D89   D(38,14,59,60)       -174.9774         estimate D2E/DX2                !
 ! D90   D(38,14,59,63)          3.5807         estimate D2E/DX2                !
 ! D91   D(53,14,59,60)          1.0755         estimate D2E/DX2                !
 ! D92   D(53,14,59,63)        179.6336         estimate D2E/DX2                !
 ! D93   D(1,15,20,36)         174.9162         estimate D2E/DX2                !
 ! D94   D(1,15,20,43)          -6.232          estimate D2E/DX2                !
 ! D95   D(49,15,20,36)         -1.985          estimate D2E/DX2                !
 ! D96   D(49,15,20,43)        176.8669         estimate D2E/DX2                !
 ! D97   D(1,15,49,50)           4.5428         estimate D2E/DX2                !
 ! D98   D(1,15,49,61)        -177.1684         estimate D2E/DX2                !
 ! D99   D(20,15,49,50)       -178.2588         estimate D2E/DX2                !
 ! D100  D(20,15,49,61)          0.03           estimate D2E/DX2                !
 ! D101  D(17,16,27,9)        -178.848          estimate D2E/DX2                !
 ! D102  D(17,16,27,39)          4.8082         estimate D2E/DX2                !
 ! D103  D(32,16,27,9)           1.5887         estimate D2E/DX2                !
 ! D104  D(32,16,27,39)       -174.7551         estimate D2E/DX2                !
 ! D105  D(17,16,32,33)          1.0362         estimate D2E/DX2                !
 ! D106  D(17,16,32,47)       -177.8954         estimate D2E/DX2                !
 ! D107  D(27,16,32,33)       -179.407          estimate D2E/DX2                !
 ! D108  D(27,16,32,47)          1.6614         estimate D2E/DX2                !
 ! D109  D(5,18,34,6)           -0.7916         estimate D2E/DX2                !
 ! D110  D(5,18,34,35)         176.9974         estimate D2E/DX2                !
 ! D111  D(19,18,34,6)        -179.4705         estimate D2E/DX2                !
 ! D112  D(19,18,34,35)         -1.6815         estimate D2E/DX2                !
 ! D113  D(15,20,36,37)       -178.8395         estimate D2E/DX2                !
 ! D114  D(15,20,36,41)          2.1566         estimate D2E/DX2                !
 ! D115  D(43,20,36,37)          2.1755         estimate D2E/DX2                !
 ! D116  D(43,20,36,41)       -176.8284         estimate D2E/DX2                !
 ! D117  D(15,20,43,39)         -3.1757         estimate D2E/DX2                !
 ! D118  D(15,20,43,44)        179.2633         estimate D2E/DX2                !
 ! D119  D(36,20,43,39)        175.7248         estimate D2E/DX2                !
 ! D120  D(36,20,43,44)         -1.8363         estimate D2E/DX2                !
 ! D121  D(13,21,25,12)         -0.7903         estimate D2E/DX2                !
 ! D122  D(13,21,25,26)       -179.4717         estimate D2E/DX2                !
 ! D123  D(22,21,25,12)        177.0009         estimate D2E/DX2                !
 ! D124  D(22,21,25,26)         -1.6804         estimate D2E/DX2                !
 ! D125  D(2,23,24,45)         174.9247         estimate D2E/DX2                !
 ! D126  D(2,23,24,63)          -6.216          estimate D2E/DX2                !
 ! D127  D(30,23,24,45)         -1.9785         estimate D2E/DX2                !
 ! D128  D(30,23,24,63)        176.8808         estimate D2E/DX2                !
 ! D129  D(2,23,30,31)           4.5369         estimate D2E/DX2                !
 ! D130  D(2,23,30,55)        -177.1752         estimate D2E/DX2                !
 ! D131  D(24,23,30,31)       -178.2629         estimate D2E/DX2                !
 ! D132  D(24,23,30,55)          0.0251         estimate D2E/DX2                !
 ! D133  D(23,24,45,46)       -178.8417         estimate D2E/DX2                !
 ! D134  D(23,24,45,51)          2.1536         estimate D2E/DX2                !
 ! D135  D(63,24,45,46)          2.1667         estimate D2E/DX2                !
 ! D136  D(63,24,45,51)       -176.838          estimate D2E/DX2                !
 ! D137  D(23,24,63,59)         -3.1886         estimate D2E/DX2                !
 ! D138  D(23,24,63,64)        179.2496         estimate D2E/DX2                !
 ! D139  D(45,24,63,59)        175.719          estimate D2E/DX2                !
 ! D140  D(45,24,63,64)         -1.8428         estimate D2E/DX2                !
 ! D141  D(9,27,39,40)        -174.9889         estimate D2E/DX2                !
 ! D142  D(9,27,39,43)           3.5646         estimate D2E/DX2                !
 ! D143  D(16,27,39,40)          1.0658         estimate D2E/DX2                !
 ! D144  D(16,27,39,43)        179.6194         estimate D2E/DX2                !
 ! D145  D(9,28,47,32)          -0.8368         estimate D2E/DX2                !
 ! D146  D(9,28,47,48)         179.2462         estimate D2E/DX2                !
 ! D147  D(29,28,47,32)       -179.8353         estimate D2E/DX2                !
 ! D148  D(29,28,47,48)          0.2477         estimate D2E/DX2                !
 ! D149  D(23,30,55,51)          1.8818         estimate D2E/DX2                !
 ! D150  D(23,30,55,56)       -178.4201         estimate D2E/DX2                !
 ! D151  D(31,30,55,51)       -179.8032         estimate D2E/DX2                !
 ! D152  D(31,30,55,56)         -0.105          estimate D2E/DX2                !
 ! D153  D(16,32,47,28)         -2.0541         estimate D2E/DX2                !
 ! D154  D(16,32,47,48)        177.862          estimate D2E/DX2                !
 ! D155  D(33,32,47,28)        179.02           estimate D2E/DX2                !
 ! D156  D(33,32,47,48)         -1.064          estimate D2E/DX2                !
 ! D157  D(20,36,41,42)        178.7639         estimate D2E/DX2                !
 ! D158  D(20,36,41,61)         -0.2423         estimate D2E/DX2                !
 ! D159  D(37,36,41,42)         -0.2247         estimate D2E/DX2                !
 ! D160  D(37,36,41,61)       -179.2309         estimate D2E/DX2                !
 ! D161  D(2,38,65,66)           1.6257         estimate D2E/DX2                !
 ! D162  D(2,38,65,67)        -177.3577         estimate D2E/DX2                !
 ! D163  D(14,38,65,66)       -177.0697         estimate D2E/DX2                !
 ! D164  D(14,38,65,67)          3.9468         estimate D2E/DX2                !
 ! D165  D(27,39,43,20)          4.5866         estimate D2E/DX2                !
 ! D166  D(27,39,43,44)       -177.8804         estimate D2E/DX2                !
 ! D167  D(40,39,43,20)       -176.8765         estimate D2E/DX2                !
 ! D168  D(40,39,43,44)          0.6566         estimate D2E/DX2                !
 ! D169  D(36,41,61,49)         -1.7709         estimate D2E/DX2                !
 ! D170  D(36,41,61,62)        178.5328         estimate D2E/DX2                !
 ! D171  D(42,41,61,49)        179.2264         estimate D2E/DX2                !
 ! D172  D(42,41,61,62)         -0.4699         estimate D2E/DX2                !
 ! D173  D(24,45,51,52)        178.7627         estimate D2E/DX2                !
 ! D174  D(24,45,51,55)         -0.2448         estimate D2E/DX2                !
 ! D175  D(46,45,51,52)         -0.2267         estimate D2E/DX2                !
 ! D176  D(46,45,51,55)       -179.2342         estimate D2E/DX2                !
 ! D177  D(15,49,61,41)          1.8822         estimate D2E/DX2                !
 ! D178  D(15,49,61,62)       -178.4188         estimate D2E/DX2                !
 ! D179  D(50,49,61,41)       -179.802          estimate D2E/DX2                !
 ! D180  D(50,49,61,62)         -0.1029         estimate D2E/DX2                !
 ! D181  D(45,51,55,30)         -1.7667         estimate D2E/DX2                !
 ! D182  D(45,51,55,56)        178.5379         estimate D2E/DX2                !
 ! D183  D(52,51,55,30)        179.2294         estimate D2E/DX2                !
 ! D184  D(52,51,55,56)         -0.4661         estimate D2E/DX2                !
 ! D185  D(14,53,57,58)       -179.4051         estimate D2E/DX2                !
 ! D186  D(14,53,57,67)          1.6648         estimate D2E/DX2                !
 ! D187  D(54,53,57,58)          1.0375         estimate D2E/DX2                !
 ! D188  D(54,53,57,67)       -177.8925         estimate D2E/DX2                !
 ! D189  D(53,57,67,65)         -2.0557         estimate D2E/DX2                !
 ! D190  D(53,57,67,68)        177.8597         estimate D2E/DX2                !
 ! D191  D(58,57,67,65)        179.0199         estimate D2E/DX2                !
 ! D192  D(58,57,67,68)         -1.0647         estimate D2E/DX2                !
 ! D193  D(14,59,63,24)          4.5789         estimate D2E/DX2                !
 ! D194  D(14,59,63,64)       -177.8872         estimate D2E/DX2                !
 ! D195  D(60,59,63,24)       -176.8795         estimate D2E/DX2                !
 ! D196  D(60,59,63,64)          0.6544         estimate D2E/DX2                !
 ! D197  D(38,65,67,57)         -0.8393         estimate D2E/DX2                !
 ! D198  D(38,65,67,68)        179.2443         estimate D2E/DX2                !
 ! D199  D(66,65,67,57)       -179.8364         estimate D2E/DX2                !
 ! D200  D(66,65,67,68)          0.2471         estimate D2E/DX2                !
 --------------------------------------------------------------------------------
 Trust Radius=3.00D-01 FncErr=1.00D-07 GrdErr=1.00D-07 EigMax=2.50D+02 EigMin=1.00D-04
 Number of steps in this run=    408 maximum allowed number of steps=    408.
 GradGradGradGradGradGradGradGradGradGradGradGradGradGradGradGradGradGrad

 Leave Link  103 at Fri Nov 15 12:38:16 2024, MaxMem=  3221225472 cpu:               0.6 elap:               0.1
 (Enter /home/szhao/Apps/g16/l202.exe)
 Symmetry turned off by external request.
 Stoichiometry    C42H26(1+,2)
 Framework group  C1[X(C42H26)]
 Deg. of freedom   198
 Full point group                 C1      NOp   1
                          Input orientation:                          
 ---------------------------------------------------------------------
 Center     Atomic      Atomic             Coordinates (Angstroms)
 Number     Number       Type             X           Y           Z
 ---------------------------------------------------------------------
      1          6           0       -1.797560    0.000000    0.000000
      2          6           0        1.797560    0.000000    0.000000
      3          6           0       -0.000010   -2.055451   -0.002184
      4          6           0       -0.000020   -3.456634   -0.003710
      5          6           0       -1.241264   -4.289647    0.193419
      6          6           0       -1.448793   -1.466233    0.164197
      7          6           0        0.728145   -5.682733   -0.125007
      8          1           0        1.421189   -6.551030   -0.242070
      9          6           0       -1.819921    0.764457    1.220742
     10          6           0       -0.728221   -5.682983    0.112786
     11          1           0       -1.421252   -6.551521    0.228106
     12          6           0        1.241210   -4.289231   -0.202632
     13          6           0        1.448771   -1.465884   -0.167278
     14          6           0        1.956484    2.191689   -1.337699
     15          6           0       -1.921088    0.409539   -1.374206
     16          6           0       -2.017641    2.769085    2.622853
     17          1           0       -2.140232    3.845145    2.688688
     18          6           0       -2.572342   -3.703086    0.413341
     19          1           0       -3.560641   -4.279511    0.582570
     20          6           0       -1.912591    1.756831   -1.868677
     21          6           0        2.641764   -2.286494   -0.388463
     22          1           0        3.704195   -1.813287   -0.507090
     23          6           0        1.921123    0.406656    1.375059
     24          6           0        1.912632    1.752903    1.872363
     25          6           0        2.572326   -3.702206   -0.421138
     26          1           0        3.560635   -4.278272   -0.591538
     27          6           0       -1.956723    2.188865    1.342294
     28          6           0       -1.661214    0.042250    2.442549
     29          1           0       -1.506063   -1.027025    2.407712
     30          6           0        1.998700   -0.627903    2.361952
     31          1           0        2.037107   -1.659064    2.045215
     32          6           0       -1.918831    2.024078    3.780174
     33          1           0       -1.980016    2.507080    4.748151
     34          6           0       -2.641771   -2.287304    0.383723
     35          1           0       -3.704190   -1.814344    0.503427
     36          6           0       -1.936468    1.980253   -3.260088
     37          1           0       -1.910060    3.006029   -3.609195
     38          6           0        1.819879    0.767018   -1.219141
     39          6           0       -1.958855    3.135944    0.259241
     40          1           0       -1.988955    4.171433    0.584311
     41          6           0       -2.011497    0.955189   -4.175457
     42          1           0       -2.047653    1.170032   -5.236696
     43          6           0       -1.904423    2.955425   -1.075789
     44          1           0       -1.886010    3.867843   -1.664237
     45          6           0        1.936728    1.973399    3.264238
     46          1           0        1.910357    2.998438    3.615508
     47          6           0       -1.716463    0.643594    3.679794
     48          1           0       -1.600466    0.037732    4.571517
     49          6           0       -1.998585   -0.622940   -2.363279
     50          1           0       -2.037058   -1.654761   -2.048702
     51          6           0        2.011909    0.946413    4.177442
     52          1           0        2.048253    1.159031    5.239123
     53          6           0        2.017405    2.774604   -2.617034
     54          1           0        2.139837    3.850816   -2.680597
     55          6           0        2.061646   -0.372373    3.710023
     56          1           0        2.144919   -1.198377    4.406618
     57          6           0        1.918800    2.032016   -3.775921
     58          1           0        1.980010    2.517055   -4.742877
     59          6           0        1.958367    3.136493   -0.252656
     60          1           0        1.988146    4.172670   -0.575551
     61          6           0       -2.061353   -0.364574   -3.710816
     62          1           0       -2.144595   -1.189109   -4.409153
     63          6           0        1.904111    2.953160    1.081996
     64          1           0        1.885536    3.864337    1.672360
     65          6           0        1.661294    0.047364   -2.442465
     66          1           0        1.506237   -1.021994   -2.409882
     67          6           0        1.716574    0.651304   -3.678443
     68          1           0        1.600702    0.047297   -4.571438
 ---------------------------------------------------------------------
 Rotational constants (GHZ):           0.1127284           0.0988448           0.0858549
 Leave Link  202 at Fri Nov 15 12:38:16 2024, MaxMem=  3221225472 cpu:               0.7 elap:               0.1
 (Enter /home/szhao/Apps/g16/l301.exe)
 Standard basis: 6-311+G(d,p) (5D, 7F)
 Ernie: Thresh=  0.10000D-02 Tol=  0.10000D-05 Strict=F.
  1080 basis functions,  1720 primitive gaussians,  1122 cartesian basis functions
   139 alpha electrons      138 beta electrons
       nuclear repulsion energy      4729.1318210652 Hartrees.
 IExCor= 4336 DFT=T Ex+Corr=M062X ExCW=0 ScaHFX=  0.540000
 ScaDFX=  1.000000  1.000000  1.000000  1.000000 ScalE2=  1.000000  1.000000
 IRadAn=      7 IRanWt=     -1 IRanGd=            0 ICorTp=0 IEmpDi=  4
 NAtoms=   68 NActive=   68 NUniq=   68 SFac= 1.00D+00 NAtFMM=   60 NAOKFM=T Big=T
 Integral buffers will be    131072 words long.
 Raffenetti 2 integral format.
 Two-electron integral symmetry is turned off.
 Leave Link  301 at Fri Nov 15 12:38:16 2024, MaxMem=  3221225472 cpu:               1.6 elap:               0.1
 (Enter /home/szhao/Apps/g16/l302.exe)
 NPDir=0 NMtPBC=     1 NCelOv=     1 NCel=       1 NClECP=     1 NCelD=      1
         NCelK=      1 NCelE2=     1 NClLst=     1 CellRange=     0.0.
 One-electron integrals computed using PRISM.
 NBasis=  1080 RedAO= T EigKep=  1.20D-06  NBF=  1080
 NBsUse=  1054 1.00D-06 EigRej=  7.02D-07 NBFU=  1054
 Precomputing XC quadrature grid using
 IXCGrd= 4 IRadAn=           7 IRanWt=          -1 IRanGd=           0 AccXCQ= 0.00D+00.
 Generated NRdTot=       0 NPtTot=           0 NUsed=           0 NTot=          32
 NSgBfM=  1115  1113  1114  1114  1115 MxSgAt=    68 MxSgA2=    68.
 Leave Link  302 at Fri Nov 15 12:38:19 2024, MaxMem=  3221225472 cpu:              88.9 elap:               3.2
 (Enter /home/szhao/Apps/g16/l303.exe)
 DipDrv:  MaxL=1.
 Leave Link  303 at Fri Nov 15 12:38:20 2024, MaxMem=  3221225472 cpu:               4.6 elap:               0.2
 (Enter /home/szhao/Apps/g16/l401.exe)
 ExpMin= 4.38D-02 ExpMax= 4.56D+03 ExpMxC= 6.82D+02 IAcc=3 IRadAn=         7 AccDes= 0.00D+00
 Harris functional with IExCor= 1009 and IRadAn=       7 diagonalized for initial guess.
 HarFok:  IExCor= 1009 AccDes= 0.00D+00 IRadAn=         7 IDoV= 1 UseB2=F ITyADJ=14
 ICtDFT=  3500011 ScaDFX=  1.000000  1.000000  1.000000  1.000000
 FoFCou: FMM=F IPFlag=           0 FMFlag=      100000 FMFlg1=        2001
         NFxFlg=           0 DoJE=T BraDBF=F KetDBF=T FulRan=T
         wScrn=  0.000000 ICntrl=       500 IOpCl=  0 I1Cent=   200000004 NGrid=           0
         NMat0=    1 NMatS0=      1 NMatT0=    0 NMatD0=    1 NMtDS0=    0 NMtDT0=    0
 Symmetry not used in FoFCou.
 Harris En= -1614.55419850436    
 JPrj=0 DoOrth=F DoCkMO=F.
 Initial guess <Sx>= 0.0000 <Sy>= 0.0000 <Sz>= 0.5000 <S**2>= 0.7500 S= 0.5000
 Leave Link  401 at Fri Nov 15 12:38:36 2024, MaxMem=  3221225472 cpu:             429.5 elap:              15.4
 (Enter /home/szhao/Apps/g16/l502.exe)
 Two-electron integral symmetry not used.
 UHF open shell SCF:
 Using DIIS extrapolation, IDIIS=  1040.
 NGot=  3221225472 LenX=  3218668534 LenY=  3217408528
 Requested convergence on RMS density matrix=1.00D-08 within 128 cycles.
 Requested convergence on MAX density matrix=1.00D-06.
 Requested convergence on             energy=1.00D-06.
 No special actions if energy rises.
 Fock matrices will be formed incrementally for  20 cycles.

 Cycle   1  Pass 1  IDiag  1:
 FoFJK:  IHMeth= 1 ICntrl=       0 DoSepK=F KAlg= 0 I1Cent=           0 FoldK=F
 IRaf= 880000000 NMat=       1 IRICut=       1 DoRegI=T DoRafI=F ISym2E= 0 IDoP0=0 IntGTp=1.
 FoFCou: FMM=T IPFlag=           0 FMFlag=      100000 FMFlg1=        2001
         NFxFlg=           0 DoJE=F BraDBF=F KetDBF=F FulRan=T
         wScrn=  0.000000 ICntrl=         0 IOpCl=  1 I1Cent=           0 NGrid=           0
         NMat0=    1 NMatS0=      1 NMatT0=    0 NMatD0=    1 NMtDS0=    0 NMtDT0=    0
 Symmetry not used in FoFCou.
 FMM levels:  10  Number of levels for PrismC:   9
 E= -1614.71800084057    
 DIIS: error= 2.41D-02 at cycle   1 NSaved=   1.
 NSaved= 1 IEnMin= 1 EnMin= -1614.71800084057     IErMin= 1 ErrMin= 2.41D-02
 ErrMax= 2.41D-02  0.00D+00 EMaxC= 1.00D-01 BMatC= 3.57D+00 BMatP= 3.57D+00
 IDIUse=3 WtCom= 7.59D-01 WtEn= 2.41D-01
 Coeff-Com:  0.100D+01
 Coeff-En:   0.100D+01
 Coeff:      0.100D+01
 Gap=     0.076 Goal=   None    Shift=    0.000
 Gap=     0.113 Goal=   None    Shift=    0.000
 GapD=    0.076 DampG=0.500 DampE=0.500 DampFc=0.2500 IDamp=-1.
 Damping current iteration by 2.50D-01
 RMSDP=2.38D-02 MaxDP=1.91D+00              OVMax= 2.42D-01

 Cycle   2  Pass 1  IDiag  1:
 RMSU=  4.92D-03    CP:  9.44D-01
 E= -1614.96170269534     Delta-E=       -0.243701854767 Rises=F Damp=T
 DIIS: error= 1.59D-02 at cycle   2 NSaved=   2.
 NSaved= 2 IEnMin= 2 EnMin= -1614.96170269534     IErMin= 2 ErrMin= 1.59D-02
 ErrMax= 1.59D-02  0.00D+00 EMaxC= 1.00D-01 BMatC= 1.40D+00 BMatP= 3.57D+00
 IDIUse=3 WtCom= 8.41D-01 WtEn= 1.59D-01
 Coeff-Com: -0.129D+01 0.229D+01
 Coeff-En:   0.000D+00 0.100D+01
 Coeff:     -0.108D+01 0.208D+01
 Gap=     0.087 Goal=   None    Shift=    0.000
 Gap=     0.179 Goal=   None    Shift=    0.000
 RMSDP=2.03D-02 MaxDP=2.25D+00 DE=-2.44D-01 OVMax= 2.81D-01

 Cycle   3  Pass 1  IDiag  1:
 RMSU=  9.81D-03    CP:  6.53D-01  1.78D+00
 E= -1615.31235281676     Delta-E=       -0.350650121422 Rises=F Damp=F
 DIIS: error= 1.65D-02 at cycle   3 NSaved=   3.
 NSaved= 3 IEnMin= 3 EnMin= -1615.31235281676     IErMin= 2 ErrMin= 1.59D-02
 ErrMax= 1.65D-02  0.00D+00 EMaxC= 1.00D-01 BMatC= 5.20D-01 BMatP= 1.40D+00
 IDIUse=3 WtCom= 8.35D-01 WtEn= 1.65D-01
 Coeff-Com: -0.829D+00 0.135D+01 0.482D+00
 Coeff-En:   0.000D+00 0.000D+00 0.100D+01
 Coeff:     -0.692D+00 0.112D+01 0.567D+00
 Gap=     0.080 Goal=   None    Shift=    0.000
 Gap=     0.134 Goal=   None    Shift=    0.000
 RMSDP=7.42D-03 MaxDP=4.45D-01 DE=-3.51D-01 OVMax= 2.11D-01

 Cycle   4  Pass 1  IDiag  1:
 RMSU=  5.59D-03    CP:  6.52D-01  2.55D+00  6.81D-01
 E= -1615.39898349507     Delta-E=       -0.086630678304 Rises=F Damp=F
 DIIS: error= 1.04D-02 at cycle   4 NSaved=   4.
 NSaved= 4 IEnMin= 4 EnMin= -1615.39898349507     IErMin= 4 ErrMin= 1.04D-02
 ErrMax= 1.04D-02  0.00D+00 EMaxC= 1.00D-01 BMatC= 2.13D-01 BMatP= 5.20D-01
 IDIUse=3 WtCom= 8.96D-01 WtEn= 1.04D-01
 Coeff-Com: -0.172D+00 0.271D+00 0.393D+00 0.507D+00
 Coeff-En:   0.000D+00 0.000D+00 0.337D+00 0.663D+00
 Coeff:     -0.154D+00 0.243D+00 0.387D+00 0.523D+00
 Gap=     0.077 Goal=   None    Shift=    0.000
 Gap=     0.141 Goal=   None    Shift=    0.000
 RMSDP=4.94D-03 MaxDP=3.86D-01 DE=-8.66D-02 OVMax= 8.91D-02

 Cycle   5  Pass 1  IDiag  1:
 RMSU=  2.06D-03    CP:  6.42D-01  2.02D+00  6.92D-01  3.49D-01
 E= -1615.45760975004     Delta-E=       -0.058626254977 Rises=F Damp=F
 DIIS: error= 1.26D-03 at cycle   5 NSaved=   5.
 NSaved= 5 IEnMin= 5 EnMin= -1615.45760975004     IErMin= 5 ErrMin= 1.26D-03
 ErrMax= 1.26D-03  0.00D+00 EMaxC= 1.00D-01 BMatC= 3.61D-03 BMatP= 2.13D-01
 IDIUse=3 WtCom= 9.87D-01 WtEn= 1.26D-02
 Coeff-Com: -0.266D-01 0.403D-01 0.148D+00 0.242D+00 0.596D+00
 Coeff-En:   0.000D+00 0.000D+00 0.000D+00 0.000D+00 0.100D+01
 Coeff:     -0.263D-01 0.398D-01 0.147D+00 0.239D+00 0.601D+00
 Gap=     0.076 Goal=   None    Shift=    0.000
 Gap=     0.141 Goal=   None    Shift=    0.000
 RMSDP=9.04D-04 MaxDP=1.17D-01 DE=-5.86D-02 OVMax= 1.14D-02

 Cycle   6  Pass 1  IDiag  1:
 RMSU=  6.45D-04    CP:  6.35D-01  2.06D+00  7.03D-01  3.60D-01  7.94D-01
 E= -1615.45848297153     Delta-E=       -0.000873221486 Rises=F Damp=F
 DIIS: error= 7.04D-04 at cycle   6 NSaved=   6.
 NSaved= 6 IEnMin= 6 EnMin= -1615.45848297153     IErMin= 6 ErrMin= 7.04D-04
 ErrMax= 7.04D-04  0.00D+00 EMaxC= 1.00D-01 BMatC= 6.45D-04 BMatP= 3.61D-03
 IDIUse=3 WtCom= 9.93D-01 WtEn= 7.04D-03
 Coeff-Com:  0.658D-02-0.110D-01 0.182D-01 0.417D-01 0.315D+00 0.630D+00
 Coeff-En:   0.000D+00 0.000D+00 0.000D+00 0.000D+00 0.879D-01 0.912D+00
 Coeff:      0.654D-02-0.109D-01 0.181D-01 0.414D-01 0.313D+00 0.632D+00
 Gap=     0.077 Goal=   None    Shift=    0.000
 Gap=     0.140 Goal=   None    Shift=    0.000
 RMSDP=4.75D-04 MaxDP=6.83D-02 DE=-8.73D-04 OVMax= 6.29D-03

 Cycle   7  Pass 1  IDiag  1:
 RMSU=  2.49D-04    CP:  6.40D-01  2.06D+00  7.04D-01  3.88D-01  8.85D-01
                    CP:  7.12D-01
 E= -1615.45869286761     Delta-E=       -0.000209896077 Rises=F Damp=F
 DIIS: error= 3.13D-04 at cycle   7 NSaved=   7.
 NSaved= 7 IEnMin= 7 EnMin= -1615.45869286761     IErMin= 7 ErrMin= 3.13D-04
 ErrMax= 3.13D-04  0.00D+00 EMaxC= 1.00D-01 BMatC= 9.68D-05 BMatP= 6.45D-04
 IDIUse=3 WtCom= 9.97D-01 WtEn= 3.13D-03
 Coeff-Com:  0.588D-02-0.928D-02-0.100D-01-0.127D-01 0.759D-01 0.315D+00
 Coeff-Com:  0.635D+00
 Coeff-En:   0.000D+00 0.000D+00 0.000D+00 0.000D+00 0.000D+00 0.000D+00
 Coeff-En:   0.100D+01
 Coeff:      0.586D-02-0.925D-02-0.999D-02-0.126D-01 0.757D-01 0.314D+00
 Coeff:      0.636D+00
 Gap=     0.077 Goal=   None    Shift=    0.000
 Gap=     0.142 Goal=   None    Shift=    0.000
 RMSDP=1.63D-04 MaxDP=1.88D-02 DE=-2.10D-04 OVMax= 2.62D-03

 Cycle   8  Pass 1  IDiag  1:
 RMSU=  9.94D-05    CP:  6.39D-01  2.06D+00  7.00D-01  3.79D-01  8.94D-01
                    CP:  8.58D-01  1.12D+00
 E= -1615.45874065779     Delta-E=       -0.000047790181 Rises=F Damp=F
 DIIS: error= 1.82D-04 at cycle   8 NSaved=   8.
 NSaved= 8 IEnMin= 8 EnMin= -1615.45874065779     IErMin= 8 ErrMin= 1.82D-04
 ErrMax= 1.82D-04  0.00D+00 EMaxC= 1.00D-01 BMatC= 1.82D-05 BMatP= 9.68D-05
 IDIUse=3 WtCom= 9.98D-01 WtEn= 1.82D-03
 Coeff-Com:  0.461D-03-0.554D-03-0.973D-02-0.189D-01-0.632D-01-0.605D-01
 Coeff-Com:  0.217D+00 0.936D+00
 Coeff-En:   0.000D+00 0.000D+00 0.000D+00 0.000D+00 0.000D+00 0.000D+00
 Coeff-En:   0.000D+00 0.100D+01
 Coeff:      0.460D-03-0.553D-03-0.971D-02-0.188D-01-0.631D-01-0.604D-01
 Coeff:      0.216D+00 0.936D+00
 Gap=     0.077 Goal=   None    Shift=    0.000
 Gap=     0.142 Goal=   None    Shift=    0.000
 RMSDP=1.53D-04 MaxDP=2.09D-02 DE=-4.78D-05 OVMax= 3.08D-03

 Cycle   9  Pass 1  IDiag  1:
 RMSU=  4.92D-05    CP:  6.39D-01  2.06D+00  7.00D-01  3.83D-01  9.14D-01
                    CP:  9.10D-01  1.58D+00  1.67D+00
 E= -1615.45876451232     Delta-E=       -0.000023854530 Rises=F Damp=F
 DIIS: error= 8.55D-05 at cycle   9 NSaved=   9.
 NSaved= 9 IEnMin= 9 EnMin= -1615.45876451232     IErMin= 9 ErrMin= 8.55D-05
 ErrMax= 8.55D-05  0.00D+00 EMaxC= 1.00D-01 BMatC= 5.12D-06 BMatP= 1.82D-05
 IDIUse=1 WtCom= 1.00D+00 WtEn= 0.00D+00
 Coeff-Com: -0.125D-02 0.197D-02 0.953D-03 0.356D-03-0.330D-01-0.105D+00
 Coeff-Com: -0.171D+00 0.179D+00 0.113D+01
 Coeff:     -0.125D-02 0.197D-02 0.953D-03 0.356D-03-0.330D-01-0.105D+00
 Coeff:     -0.171D+00 0.179D+00 0.113D+01
 Gap=     0.077 Goal=   None    Shift=    0.000
 Gap=     0.142 Goal=   None    Shift=    0.000
 RMSDP=1.51D-04 MaxDP=2.26D-02 DE=-2.39D-05 OVMax= 2.54D-03

 Cycle  10  Pass 1  IDiag  1:
 RMSU=  3.67D-05    CP:  6.39D-01  2.06D+00  7.01D-01  3.87D-01  9.29D-01
                    CP:  9.60D-01  1.99D+00  2.39D+00  2.14D+00
 E= -1615.45877446677     Delta-E=       -0.000009954451 Rises=F Damp=F
 DIIS: error= 4.62D-05 at cycle  10 NSaved=  10.
 NSaved=10 IEnMin=10 EnMin= -1615.45877446677     IErMin=10 ErrMin= 4.62D-05
 ErrMax= 4.62D-05  0.00D+00 EMaxC= 1.00D-01 BMatC= 1.67D-06 BMatP= 5.12D-06
 IDIUse=1 WtCom= 1.00D+00 WtEn= 0.00D+00
 Coeff-Com: -0.666D-03 0.100D-02 0.338D-02 0.632D-02 0.480D-02-0.297D-01
 Coeff-Com: -0.149D+00-0.202D+00 0.505D+00 0.860D+00
 Coeff:     -0.666D-03 0.100D-02 0.338D-02 0.632D-02 0.480D-02-0.297D-01
 Coeff:     -0.149D+00-0.202D+00 0.505D+00 0.860D+00
 Gap=     0.077 Goal=   None    Shift=    0.000
 Gap=     0.143 Goal=   None    Shift=    0.000
 RMSDP=1.09D-04 MaxDP=1.91D-02 DE=-9.95D-06 OVMax= 1.51D-03

 Cycle  11  Pass 1  IDiag  1:
 RMSU=  2.94D-05    CP:  6.39D-01  2.06D+00  7.02D-01  3.91D-01  9.41D-01
                    CP:  9.74D-01  2.24D+00  2.89D+00  3.00D+00  1.92D+00
 E= -1615.45877707111     Delta-E=       -0.000002604344 Rises=F Damp=F
 DIIS: error= 2.43D-05 at cycle  11 NSaved=  11.
 NSaved=11 IEnMin=11 EnMin= -1615.45877707111     IErMin=11 ErrMin= 2.43D-05
 ErrMax= 2.43D-05  0.00D+00 EMaxC= 1.00D-01 BMatC= 3.12D-07 BMatP= 1.67D-06
 IDIUse=1 WtCom= 1.00D+00 WtEn= 0.00D+00
 Coeff-Com:  0.410D-04-0.723D-04 0.643D-03 0.166D-02 0.811D-02 0.148D-01
 Coeff-Com:  0.431D-02-0.760D-01-0.131D+00 0.154D+00 0.102D+01
 Coeff:      0.410D-04-0.723D-04 0.643D-03 0.166D-02 0.811D-02 0.148D-01
 Coeff:      0.431D-02-0.760D-01-0.131D+00 0.154D+00 0.102D+01
 Gap=     0.077 Goal=   None    Shift=    0.000
 Gap=     0.143 Goal=   None    Shift=    0.000
 RMSDP=8.25D-05 MaxDP=1.49D-02 DE=-2.60D-06 OVMax= 8.78D-04

 Cycle  12  Pass 1  IDiag  1:
 RMSU=  4.08D-05    CP:  6.39D-01  2.06D+00  7.02D-01  3.94D-01  9.49D-01
                    CP:  9.74D-01  2.39D+00  3.00D+00  3.00D+00  2.98D+00
                    CP:  2.19D+00
 E= -1615.45877766279     Delta-E=       -0.000000591681 Rises=F Damp=F
 DIIS: error= 8.99D-06 at cycle  12 NSaved=  12.
 NSaved=12 IEnMin=12 EnMin= -1615.45877766279     IErMin=12 ErrMin= 8.99D-06
 ErrMax= 8.99D-06  0.00D+00 EMaxC= 1.00D-01 BMatC= 1.50D-07 BMatP= 3.12D-07
 IDIUse=1 WtCom= 1.00D+00 WtEn= 0.00D+00
 Coeff-Com:  0.240D-03-0.368D-03-0.910D-03-0.135D-02 0.253D-02 0.185D-01
 Coeff-Com:  0.551D-01 0.316D-01-0.247D+00-0.231D+00 0.547D+00 0.825D+00
 Coeff:      0.240D-03-0.368D-03-0.910D-03-0.135D-02 0.253D-02 0.185D-01
 Coeff:      0.551D-01 0.316D-01-0.247D+00-0.231D+00 0.547D+00 0.825D+00
 Gap=     0.077 Goal=   None    Shift=    0.000
 Gap=     0.143 Goal=   None    Shift=    0.000
 RMSDP=6.69D-05 MaxDP=1.19D-02 DE=-5.92D-07 OVMax= 4.84D-04

 Cycle  13  Pass 1  IDiag  1:
 RMSU=  3.51D-05    CP:  6.39D-01  2.06D+00  7.03D-01  3.96D-01  9.54D-01
                    CP:  9.70D-01  2.50D+00  3.00D+00  3.00D+00  3.00D+00
                    CP:  3.00D+00  1.88D+00
 E= -1615.45877785112     Delta-E=       -0.000000188329 Rises=F Damp=F
 DIIS: error= 3.98D-06 at cycle  13 NSaved=  13.
 NSaved=13 IEnMin=13 EnMin= -1615.45877785112     IErMin=13 ErrMin= 3.98D-06
 ErrMax= 3.98D-06  0.00D+00 EMaxC= 1.00D-01 BMatC= 2.78D-08 BMatP= 1.50D-07
 IDIUse=1 WtCom= 1.00D+00 WtEn= 0.00D+00
 Coeff-Com:  0.131D-04-0.251D-04-0.355D-03-0.627D-03-0.145D-02 0.172D-03
 Coeff-Com:  0.807D-02 0.214D-01-0.151D-01-0.828D-01-0.119D+00 0.160D+00
 Coeff-Com:  0.103D+01
 Coeff:      0.131D-04-0.251D-04-0.355D-03-0.627D-03-0.145D-02 0.172D-03
 Coeff:      0.807D-02 0.214D-01-0.151D-01-0.828D-01-0.119D+00 0.160D+00
 Coeff:      0.103D+01
 Gap=     0.077 Goal=   None    Shift=    0.000
 Gap=     0.143 Goal=   None    Shift=    0.000
 RMSDP=4.87D-05 MaxDP=8.70D-03 DE=-1.88D-07 OVMax= 2.14D-04

 Cycle  14  Pass 1  IDiag  1:
 RMSU=  1.91D-05    CP:  6.39D-01  2.06D+00  7.03D-01  3.97D-01  9.58D-01
                    CP:  9.68D-01  2.58D+00  3.00D+00  3.00D+00  3.00D+00
                    CP:  3.00D+00  2.51D+00  1.80D+00
 E= -1615.45877789414     Delta-E=       -0.000000043014 Rises=F Damp=F
 DIIS: error= 3.24D-06 at cycle  14 NSaved=  14.
 NSaved=14 IEnMin=14 EnMin= -1615.45877789414     IErMin=14 ErrMin= 3.24D-06
 ErrMax= 3.24D-06  0.00D+00 EMaxC= 1.00D-01 BMatC= 1.51D-08 BMatP= 2.78D-08
 IDIUse=1 WtCom= 1.00D+00 WtEn= 0.00D+00
 Coeff-Com: -0.627D-04 0.935D-04 0.722D-04 0.672D-04-0.166D-02-0.577D-02
 Coeff-Com: -0.129D-01 0.208D-02 0.711D-01 0.266D-01-0.233D+00-0.175D+00
 Coeff-Com:  0.524D+00 0.805D+00
 Coeff:     -0.627D-04 0.935D-04 0.722D-04 0.672D-04-0.166D-02-0.577D-02
 Coeff:     -0.129D-01 0.208D-02 0.711D-01 0.266D-01-0.233D+00-0.175D+00
 Coeff:      0.524D+00 0.805D+00
 Gap=     0.077 Goal=   None    Shift=    0.000
 Gap=     0.143 Goal=   None    Shift=    0.000
 RMSDP=3.25D-05 MaxDP=5.74D-03 DE=-4.30D-08 OVMax= 7.98D-05

 Cycle  15  Pass 1  IDiag  1:
 RMSU=  1.20D-06    CP:  6.39D-01  2.06D+00  7.04D-01  3.98D-01  9.61D-01
                    CP:  9.66D-01  2.63D+00  3.00D+00  3.00D+00  3.00D+00
                    CP:  3.00D+00  2.94D+00  2.33D+00  1.67D+00
 E= -1615.45877791064     Delta-E=       -0.000000016508 Rises=F Damp=F
 DIIS: error= 1.59D-06 at cycle  15 NSaved=  15.
 NSaved=15 IEnMin=15 EnMin= -1615.45877791064     IErMin=15 ErrMin= 1.59D-06
 ErrMax= 1.59D-06  0.00D+00 EMaxC= 1.00D-01 BMatC= 5.98D-09 BMatP= 1.51D-08
 IDIUse=1 WtCom= 1.00D+00 WtEn= 0.00D+00
 Coeff-Com: -0.206D-04 0.349D-04 0.201D-03 0.330D-03 0.106D-03-0.213D-02
 Coeff-Com: -0.836D-02-0.106D-01 0.310D-01 0.526D-01-0.167D-01-0.143D+00
 Coeff-Com: -0.342D+00 0.336D+00 0.110D+01
 Coeff:     -0.206D-04 0.349D-04 0.201D-03 0.330D-03 0.106D-03-0.213D-02
 Coeff:     -0.836D-02-0.106D-01 0.310D-01 0.526D-01-0.167D-01-0.143D+00
 Coeff:     -0.342D+00 0.336D+00 0.110D+01
 Gap=     0.077 Goal=   None    Shift=    0.000
 Gap=     0.143 Goal=   None    Shift=    0.000
 RMSDP=3.22D-05 MaxDP=5.75D-03 DE=-1.65D-08 OVMax= 8.12D-05

 Cycle  16  Pass 1  IDiag  1:
 RMSU=  1.45D-05    CP:  6.39D-01  2.06D+00  7.04D-01  3.99D-01  9.63D-01
                    CP:  9.64D-01  2.69D+00  3.00D+00  3.00D+00  3.00D+00
                    CP:  3.00D+00  3.00D+00  2.85D+00  2.32D+00  1.95D+00
 E= -1615.45877792120     Delta-E=       -0.000000010559 Rises=F Damp=F
 DIIS: error= 1.15D-06 at cycle  16 NSaved=  16.
 NSaved=16 IEnMin=16 EnMin= -1615.45877792120     IErMin=16 ErrMin= 1.15D-06
 ErrMax= 1.15D-06  0.00D+00 EMaxC= 1.00D-01 BMatC= 2.57D-09 BMatP= 5.98D-09
 IDIUse=1 WtCom= 1.00D+00 WtEn= 0.00D+00
 Coeff-Com:  0.133D-04-0.168D-04 0.926D-04 0.157D-03 0.676D-03 0.865D-03
 Coeff-Com:  0.456D-04-0.601D-02-0.817D-02 0.193D-01 0.678D-01-0.142D-01
 Coeff-Com: -0.359D+00-0.807D-01 0.490D+00 0.889D+00
 Coeff:      0.133D-04-0.168D-04 0.926D-04 0.157D-03 0.676D-03 0.865D-03
 Coeff:      0.456D-04-0.601D-02-0.817D-02 0.193D-01 0.678D-01-0.142D-01
 Coeff:     -0.359D+00-0.807D-01 0.490D+00 0.889D+00
 Gap=     0.077 Goal=   None    Shift=    0.000
 Gap=     0.143 Goal=   None    Shift=    0.000
 RMSDP=1.91D-05 MaxDP=3.41D-03 DE=-1.06D-08 OVMax= 5.95D-05

 Cycle  17  Pass 1  IDiag  1:
 RMSU=  5.57D-06    CP:  6.40D-01  2.06D+00  7.04D-01  3.99D-01  9.65D-01
                    CP:  9.64D-01  2.72D+00  3.00D+00  3.00D+00  3.00D+00
                    CP:  3.00D+00  3.00D+00  3.00D+00  2.70D+00  2.62D+00
                    CP:  1.70D+00
 E= -1615.45877792529     Delta-E=       -0.000000004091 Rises=F Damp=F
 DIIS: error= 8.93D-07 at cycle  17 NSaved=  17.
 NSaved=17 IEnMin=17 EnMin= -1615.45877792529     IErMin=17 ErrMin= 8.93D-07
 ErrMax= 8.93D-07  0.00D+00 EMaxC= 1.00D-01 BMatC= 1.64D-09 BMatP= 2.57D-09
 IDIUse=1 WtCom= 1.00D+00 WtEn= 0.00D+00
 Coeff-Com:  0.188D-04-0.279D-04-0.294D-04-0.534D-04 0.518D-03 0.188D-02
 Coeff-Com:  0.468D-02 0.135D-02-0.239D-01-0.138D-01 0.601D-01 0.705D-01
 Coeff-Com: -0.819D-01-0.224D+00-0.289D+00 0.670D+00 0.824D+00
 Coeff:      0.188D-04-0.279D-04-0.294D-04-0.534D-04 0.518D-03 0.188D-02
 Coeff:      0.468D-02 0.135D-02-0.239D-01-0.138D-01 0.601D-01 0.705D-01
 Coeff:     -0.819D-01-0.224D+00-0.289D+00 0.670D+00 0.824D+00
 Gap=     0.077 Goal=   None    Shift=    0.000
 Gap=     0.143 Goal=   None    Shift=    0.000
 RMSDP=1.42D-05 MaxDP=2.57D-03 DE=-4.09D-09 OVMax= 4.86D-05

 Cycle  18  Pass 1  IDiag  1:
 RMSU=  7.29D-07    CP:  6.40D-01  2.06D+00  7.04D-01  4.00D-01  9.66D-01
                    CP:  9.63D-01  2.75D+00  3.00D+00  3.00D+00  3.00D+00
                    CP:  3.00D+00  3.00D+00  3.00D+00  2.98D+00  3.00D+00
                    CP:  2.23D+00  2.38D+00
 E= -1615.45877792748     Delta-E=       -0.000000002186 Rises=F Damp=F
 DIIS: error= 4.49D-07 at cycle  18 NSaved=  18.
 NSaved=18 IEnMin=18 EnMin= -1615.45877792748     IErMin=18 ErrMin= 4.49D-07
 ErrMax= 4.49D-07  0.00D+00 EMaxC= 1.00D-01 BMatC= 4.27D-10 BMatP= 1.64D-09
 IDIUse=1 WtCom= 1.00D+00 WtEn= 0.00D+00
 Coeff-Com:  0.459D-05-0.802D-05-0.408D-04-0.723D-04 0.998D-04 0.717D-03
 Coeff-Com:  0.239D-02 0.250D-02-0.102D-01-0.128D-01 0.116D-01 0.429D-01
 Coeff-Com:  0.639D-01-0.894D-01-0.317D+00 0.835D-01 0.450D+00 0.772D+00
 Coeff:      0.459D-05-0.802D-05-0.408D-04-0.723D-04 0.998D-04 0.717D-03
 Coeff:      0.239D-02 0.250D-02-0.102D-01-0.128D-01 0.116D-01 0.429D-01
 Coeff:      0.639D-01-0.894D-01-0.317D+00 0.835D-01 0.450D+00 0.772D+00
 Gap=     0.077 Goal=   None    Shift=    0.000
 Gap=     0.143 Goal=   None    Shift=    0.000
 RMSDP=5.68D-06 MaxDP=1.05D-03 DE=-2.19D-09 OVMax= 2.18D-05

 Cycle  19  Pass 1  IDiag  1:
 RMSU=  1.64D-06    CP:  6.40D-01  2.06D+00  7.04D-01  4.00D-01  9.67D-01
                    CP:  9.63D-01  2.76D+00  3.00D+00  3.00D+00  3.00D+00
                    CP:  3.00D+00  3.00D+00  3.00D+00  3.00D+00  3.00D+00
                    CP:  2.43D+00  2.92D+00  1.29D+00
 E= -1615.45877792803     Delta-E=       -0.000000000550 Rises=F Damp=F
 DIIS: error= 2.32D-07 at cycle  19 NSaved=  19.
 NSaved=19 IEnMin=19 EnMin= -1615.45877792803     IErMin=19 ErrMin= 2.32D-07
 ErrMax= 2.32D-07  0.00D+00 EMaxC= 1.00D-01 BMatC= 1.80D-10 BMatP= 4.27D-10
 IDIUse=1 WtCom= 1.00D+00 WtEn= 0.00D+00
 Coeff-Com: -0.542D-05 0.712D-05-0.129D-04-0.210D-04-0.162D-03-0.427D-03
 Coeff-Com: -0.671D-03 0.978D-03 0.457D-02-0.170D-02-0.195D-01-0.499D-02
 Coeff-Com:  0.732D-01 0.407D-01-0.709D-01-0.239D+00-0.583D-01 0.523D+00
 Coeff-Com:  0.753D+00
 Coeff:     -0.542D-05 0.712D-05-0.129D-04-0.210D-04-0.162D-03-0.427D-03
 Coeff:     -0.671D-03 0.978D-03 0.457D-02-0.170D-02-0.195D-01-0.499D-02
 Coeff:      0.732D-01 0.407D-01-0.709D-01-0.239D+00-0.583D-01 0.523D+00
 Coeff:      0.753D+00
 Gap=     0.077 Goal=   None    Shift=    0.000
 Gap=     0.143 Goal=   None    Shift=    0.000
 RMSDP=2.69D-06 MaxDP=4.96D-04 DE=-5.50D-10 OVMax= 1.31D-05

 Cycle  20  Pass 1  IDiag  1:
 RMSU=  8.80D-07    CP:  6.40D-01  2.06D+00  7.04D-01  4.00D-01  9.67D-01
                    CP:  9.63D-01  2.76D+00  3.00D+00  3.00D+00  3.00D+00
                    CP:  3.00D+00  3.00D+00  3.00D+00  3.00D+00  3.00D+00
                    CP:  2.53D+00  3.00D+00  1.53D+00  1.55D+00
 E= -1615.45877792826     Delta-E=       -0.000000000226 Rises=F Damp=F
 DIIS: error= 1.53D-07 at cycle  20 NSaved=  20.
 NSaved=20 IEnMin=20 EnMin= -1615.45877792826     IErMin=20 ErrMin= 1.53D-07
 ErrMax= 1.53D-07  0.00D+00 EMaxC= 1.00D-01 BMatC= 2.92D-11 BMatP= 1.80D-10
 IDIUse=1 WtCom= 1.00D+00 WtEn= 0.00D+00
 Coeff-Com: -0.290D-05 0.410D-05-0.144D-05 0.126D-06-0.919D-04-0.292D-03
 Coeff-Com: -0.609D-03 0.413D-04 0.339D-02 0.910D-03-0.937D-02-0.891D-02
 Coeff-Com:  0.218D-01 0.297D-01 0.317D-01-0.128D+00-0.106D+00 0.903D-01
 Coeff-Com:  0.309D+00 0.767D+00
 Coeff:     -0.290D-05 0.410D-05-0.144D-05 0.126D-06-0.919D-04-0.292D-03
 Coeff:     -0.609D-03 0.413D-04 0.339D-02 0.910D-03-0.937D-02-0.891D-02
 Coeff:      0.218D-01 0.297D-01 0.317D-01-0.128D+00-0.106D+00 0.903D-01
 Coeff:      0.309D+00 0.767D+00
 Gap=     0.077 Goal=   None    Shift=    0.000
 Gap=     0.143 Goal=   None    Shift=    0.000
 RMSDP=4.69D-07 MaxDP=8.39D-05 DE=-2.26D-10 OVMax= 5.80D-06

 Cycle  21  Pass 1  IDiag  1:
 Restarting incremental Fock formation.
 E= -1615.45877792841     Delta-E=       -0.000000000150 Rises=F Damp=F
 DIIS: error= 1.08D-07 at cycle  21 NSaved=  20.
 NSaved=20 IEnMin=20 EnMin= -1615.45877792841     IErMin=20 ErrMin= 1.08D-07
 ErrMax= 1.08D-07  0.00D+00 EMaxC= 1.00D-01 BMatC= 1.17D-11 BMatP= 2.92D-11
 IDIUse=1 WtCom= 1.00D+00 WtEn= 0.00D+00
 Coeff-Com:  0.312D-06 0.358D-05 0.739D-05 0.986D-05 0.112D-04-0.371D-04
 Coeff-Com: -0.312D-03-0.116D-04 0.842D-03 0.268D-02-0.246D-02-0.148D-01
[...]
              Bcc     0.0010     0.139     0.049     0.046  0.0854  0.8444 -0.5288
 
              Baa    -0.0039    -0.527    -0.188    -0.176  0.0908  0.1947  0.9767
     6 C(13)  Bbb     0.0010     0.135     0.048     0.045 -0.0873  0.9785 -0.1870
              Bcc     0.0029     0.392     0.140     0.131  0.9920  0.0683 -0.1058
 
              Baa    -0.0006    -0.082    -0.029    -0.027 -0.6692 -0.1023  0.7360
     7 C(13)  Bbb    -0.0001    -0.009    -0.003    -0.003  0.7363  0.0422  0.6753
              Bcc     0.0007     0.090     0.032     0.030 -0.1001  0.9939  0.0471
 
              Baa    -0.0003    -0.174    -0.062    -0.058 -0.1219 -0.0694  0.9901
     8 H(1)   Bbb    -0.0003    -0.163    -0.058    -0.055  0.9824  0.1337  0.1303
              Bcc     0.0006     0.338     0.121     0.113 -0.1415  0.9886  0.0519
 
              Baa    -0.0435    -5.843    -2.085    -1.949  0.9437  0.2839 -0.1700
     9 C(13)  Bbb     0.0175     2.352     0.839     0.784 -0.3268  0.7189 -0.6135
              Bcc     0.0260     3.491     1.246     1.165 -0.0520  0.6345  0.7712
 
              Baa    -0.0006    -0.082    -0.029    -0.027 -0.6694  0.0981  0.7364
    10 C(13)  Bbb    -0.0001    -0.009    -0.003    -0.003  0.7362 -0.0452  0.6753
              Bcc     0.0007     0.090     0.032     0.030  0.0995  0.9942 -0.0420
 
              Baa    -0.0003    -0.174    -0.062    -0.058 -0.1220  0.0640  0.9905
    11 H(1)   Bbb    -0.0003    -0.164    -0.058    -0.055  0.9824 -0.1342  0.1297
              Bcc     0.0006     0.338     0.121     0.113  0.1412  0.9889 -0.0465
 
              Baa    -0.0012    -0.163    -0.058    -0.054  0.9842 -0.0116  0.1766
    12 C(13)  Bbb     0.0002     0.024     0.009     0.008 -0.1547 -0.5412  0.8265
              Bcc     0.0010     0.139     0.049     0.046 -0.0860  0.8408  0.5345
 
              Baa    -0.0039    -0.526    -0.188    -0.176  0.0907 -0.2000  0.9756
    13 C(13)  Bbb     0.0010     0.134     0.048     0.045  0.0883  0.9774  0.1921
              Bcc     0.0029     0.392     0.140     0.131  0.9919 -0.0687 -0.1064
 
              Baa    -0.0401    -5.383    -1.921    -1.796  0.2868  0.7309  0.6192
    14 C(13)  Bbb    -0.0382    -5.125    -1.829    -1.710 -0.0599 -0.6314  0.7731
              Bcc     0.0783    10.509     3.750     3.505  0.9561 -0.2588 -0.1373
 
              Baa    -0.0454    -6.089    -2.173    -2.031  0.9777  0.1864 -0.0969
    15 C(13)  Bbb     0.0179     2.403     0.857     0.801 -0.1311  0.9018  0.4119
              Bcc     0.0275     3.686     1.315     1.230  0.1641 -0.3900  0.9061
 
              Baa    -0.0245    -3.288    -1.173    -1.097  0.9453  0.2923 -0.1446
    16 C(13)  Bbb     0.0105     1.403     0.501     0.468 -0.3190  0.9209 -0.2242
              Bcc     0.0140     1.885     0.673     0.629  0.0676  0.2581  0.9638
 
              Baa    -0.0016    -0.853    -0.304    -0.284  0.7831  0.5928 -0.1878
    17 H(1)   Bbb    -0.0005    -0.257    -0.092    -0.086 -0.6196  0.7183 -0.3164
              Bcc     0.0021     1.110     0.396     0.370 -0.0527  0.3641  0.9299
 
              Baa    -0.0034    -0.457    -0.163    -0.153  0.2347 -0.0645  0.9699
    18 C(13)  Bbb    -0.0017    -0.230    -0.082    -0.077  0.9685 -0.0698 -0.2390
              Bcc     0.0051     0.688     0.245     0.229  0.0832  0.9955  0.0461
 
              Baa    -0.0008    -0.418    -0.149    -0.139  0.1441  0.0604  0.9877
    19 H(1)   Bbb    -0.0006    -0.316    -0.113    -0.106  0.8887 -0.4470 -0.1023
              Bcc     0.0014     0.734     0.262     0.245  0.4353  0.8925 -0.1180
 
              Baa    -0.0404    -5.427    -1.936    -1.810 -0.1650  0.9177  0.3615
    20 C(13)  Bbb    -0.0376    -5.046    -1.801    -1.683  0.0321 -0.3614  0.9319
              Bcc     0.0780    10.473     3.737     3.494  0.9858  0.1653  0.0302
 
              Baa    -0.0049    -0.654    -0.233    -0.218  0.9631  0.2642 -0.0508
    21 C(13)  Bbb    -0.0042    -0.567    -0.202    -0.189  0.1402 -0.3316  0.9329
              Bcc     0.0091     1.221     0.436     0.407 -0.2297  0.9057  0.3564
 
              Baa    -0.0031    -1.679    -0.599    -0.560  0.3153 -0.0062  0.9490
    22 H(1)   Bbb    -0.0020    -1.089    -0.389    -0.363  0.6899  0.6881 -0.2247
              Bcc     0.0052     2.769     0.988     0.923 -0.6516  0.7256  0.2213
 
              Baa    -0.0453    -6.083    -2.171    -2.029  0.9777 -0.1858 -0.0979
    23 C(13)  Bbb     0.0179     2.400     0.856     0.801  0.1310  0.9040 -0.4069
              Bcc     0.0274     3.683     1.314     1.228  0.1641  0.3850  0.9082
 
              Baa    -0.0404    -5.422    -1.935    -1.809  0.1650  0.9196 -0.3565
    24 C(13)  Bbb    -0.0376    -5.042    -1.799    -1.682  0.0319  0.3563  0.9338
              Bcc     0.0780    10.464     3.734     3.491  0.9858 -0.1654  0.0294
 
              Baa    -0.0034    -0.457    -0.163    -0.153  0.2348  0.0594  0.9702
    25 C(13)  Bbb    -0.0017    -0.230    -0.082    -0.077  0.9685  0.0712 -0.2387
              Bcc     0.0051     0.687     0.245     0.229 -0.0833  0.9957 -0.0408
 
              Baa    -0.0008    -0.418    -0.149    -0.139  0.1441 -0.0657  0.9874
    26 H(1)   Bbb    -0.0006    -0.316    -0.113    -0.105  0.8886  0.4477 -0.0999
              Bcc     0.0014     0.734     0.262     0.245 -0.4355  0.8918  0.1229
 
              Baa    -0.0401    -5.387    -1.922    -1.797 -0.2867  0.7345 -0.6150
    27 C(13)  Bbb    -0.0382    -5.129    -1.830    -1.711 -0.0596  0.6271  0.7767
              Bcc     0.0784    10.516     3.753     3.508  0.9562  0.2594 -0.1360
 
              Baa    -0.0366    -4.911    -1.752    -1.638 -0.3315  0.9394 -0.0875
    28 C(13)  Bbb    -0.0356    -4.780    -1.706    -1.595  0.1552  0.1458  0.9771
              Bcc     0.0722     9.691     3.458     3.233  0.9306  0.3103 -0.1941
 
              Baa    -0.0038    -2.050    -0.731    -0.684  0.3196  0.2869  0.9031
    29 H(1)   Bbb    -0.0001    -0.047    -0.017    -0.016  0.8628  0.3057 -0.4025
              Bcc     0.0039     2.097     0.748     0.699 -0.3916  0.9079 -0.1498
 
              Baa    -0.0280    -3.755    -1.340    -1.253  0.1442  0.9759  0.1638
    30 C(13)  Bbb    -0.0262    -3.509    -1.252    -1.171  0.0066 -0.1665  0.9860
              Bcc     0.0541     7.264     2.592     2.423  0.9895 -0.1411 -0.0304
 
              Baa    -0.0024    -1.285    -0.458    -0.428 -0.3043  0.0366  0.9519
    31 H(1)   Bbb    -0.0008    -0.426    -0.152    -0.142  0.9519  0.0481  0.3025
              Bcc     0.0032     1.711     0.610     0.571 -0.0347  0.9982 -0.0495
 
              Baa    -0.0421    -5.652    -2.017    -1.885 -0.3194  0.8038 -0.5019
    32 C(13)  Bbb    -0.0373    -5.011    -1.788    -1.671 -0.0013  0.5293  0.8485
              Bcc     0.0795    10.663     3.805     3.557  0.9476  0.2716 -0.1680
 
              Baa    -0.0062    -3.295    -1.176    -1.099 -0.2837  0.8286 -0.4826
    33 H(1)   Bbb    -0.0006    -0.303    -0.108    -0.101  0.9570  0.2765 -0.0880
              Bcc     0.0067     3.598     1.284     1.200 -0.0605  0.4868  0.8714
 
              Baa    -0.0049    -0.655    -0.234    -0.218  0.9632 -0.2636 -0.0514
    34 C(13)  Bbb    -0.0042    -0.568    -0.203    -0.189  0.1393  0.3266  0.9348
              Bcc     0.0091     1.222     0.436     0.408  0.2297  0.9077 -0.3513
 
              Baa    -0.0032    -1.681    -0.600    -0.561  0.3153  0.0010  0.9490
    35 H(1)   Bbb    -0.0020    -1.090    -0.389    -0.364  0.6900 -0.6868 -0.2286
              Bcc     0.0052     2.771     0.989     0.924  0.6515  0.7269 -0.2173
 
              Baa    -0.0208    -2.793    -0.997    -0.932  0.9847  0.1738  0.0129
    36 C(13)  Bbb     0.0083     1.116     0.398     0.372 -0.1740  0.9845  0.0214
              Bcc     0.0125     1.677     0.599     0.559 -0.0090 -0.0233  0.9997
 
              Baa    -0.0015    -0.778    -0.278    -0.259  0.7228  0.6910  0.0086
    37 H(1)   Bbb    -0.0006    -0.334    -0.119    -0.111 -0.6730  0.7010  0.2360
              Bcc     0.0021     1.112     0.397     0.371  0.1570 -0.1763  0.9717
 
              Baa    -0.0435    -5.837    -2.083    -1.947  0.9436 -0.2832 -0.1716
    38 C(13)  Bbb     0.0175     2.349     0.838     0.784  0.3270  0.7154  0.6175
              Bcc     0.0260     3.488     1.244     1.163 -0.0521 -0.6388  0.7676
 
              Baa    -0.0123    -1.649    -0.589    -0.550  0.0496  0.2108  0.9763
    39 C(13)  Bbb    -0.0122    -1.641    -0.585    -0.547 -0.2842  0.9400 -0.1885
              Bcc     0.0245     3.290     1.174     1.097  0.9575  0.2681 -0.1066
 
              Baa    -0.0021    -1.124    -0.401    -0.375 -0.0061 -0.3403  0.9403
    40 H(1)   Bbb    -0.0014    -0.755    -0.269    -0.252  0.9459  0.3032  0.1159
              Bcc     0.0035     1.879     0.670     0.627 -0.3245  0.8901  0.3201
 
              Baa    -0.0362    -4.857    -1.733    -1.620 -0.1390  0.9615  0.2369
    41 C(13)  Bbb    -0.0316    -4.243    -1.514    -1.415  0.0379 -0.2339  0.9715
              Bcc     0.0678     9.100     3.247     3.035  0.9896  0.1440 -0.0039
 
              Baa    -0.0055    -2.929    -1.045    -0.977 -0.1512  0.9602  0.2348
    42 H(1)   Bbb    -0.0002    -0.131    -0.047    -0.044  0.9829  0.1713 -0.0677
              Bcc     0.0057     3.060     1.092     1.021  0.1053 -0.2206  0.9697
 
              Baa    -0.0112    -1.509    -0.539    -0.503 -0.2059  0.9573 -0.2029
    43 C(13)  Bbb    -0.0109    -1.468    -0.524    -0.490 -0.0656  0.1933  0.9789
              Bcc     0.0222     2.978     1.063     0.993  0.9764  0.2149  0.0230
 
              Baa    -0.0020    -1.060    -0.378    -0.354  0.1938  0.6111  0.7675
    44 H(1)   Bbb    -0.0013    -0.707    -0.252    -0.236  0.9369  0.1168 -0.3296
              Bcc     0.0033     1.767     0.630     0.589 -0.2911  0.7829 -0.5498
 
              Baa    -0.0208    -2.790    -0.995    -0.930  0.9847 -0.1738  0.0122
    45 C(13)  Bbb     0.0083     1.114     0.398     0.372  0.1740  0.9846 -0.0161
              Bcc     0.0125     1.675     0.598     0.559 -0.0092  0.0179  0.9998
 
              Baa    -0.0015    -0.777    -0.277    -0.259  0.7222 -0.6916  0.0051
    46 H(1)   Bbb    -0.0006    -0.334    -0.119    -0.111  0.6735  0.7017 -0.2324
              Bcc     0.0021     1.111     0.397     0.371  0.1572  0.1713  0.9726
 
              Baa    -0.0232    -3.116    -1.112    -1.040  0.9575  0.2749 -0.0869
    47 C(13)  Bbb     0.0101     1.358     0.485     0.453 -0.2760  0.7867 -0.5522
              Bcc     0.0131     1.758     0.627     0.586 -0.0834  0.5528  0.8292
 
              Baa    -0.0006    -0.322    -0.115    -0.107  0.8919  0.4520  0.0137
    48 H(1)   Bbb    -0.0004    -0.226    -0.081    -0.075  0.2946 -0.6038  0.7407
              Bcc     0.0010     0.548     0.196     0.183 -0.3430  0.6566  0.6717
 
              Baa    -0.0280    -3.760    -1.342    -1.254 -0.1443  0.9768 -0.1583
    49 C(13)  Bbb    -0.0262    -3.514    -1.254    -1.172  0.0067  0.1610  0.9869
              Bcc     0.0542     7.274     2.596     2.426  0.9895  0.1414 -0.0297
 
              Baa    -0.0024    -1.286    -0.459    -0.429 -0.3040 -0.0418  0.9518
    50 H(1)   Bbb    -0.0008    -0.427    -0.152    -0.143  0.9521 -0.0492  0.3019
              Bcc     0.0032     1.713     0.611     0.571  0.0342  0.9979  0.0547
 
              Baa    -0.0362    -4.852    -1.731    -1.618  0.1389  0.9628 -0.2316
    51 C(13)  Bbb    -0.0316    -4.238    -1.512    -1.414  0.0377  0.2285  0.9728
              Bcc     0.0677     9.089     3.243     3.032  0.9896 -0.1439 -0.0045
 
              Baa    -0.0055    -2.926    -1.044    -0.976  0.1511  0.9615 -0.2295
    52 H(1)   Bbb    -0.0002    -0.131    -0.047    -0.044  0.9829 -0.1709 -0.0687
              Bcc     0.0057     3.056     1.091     1.019  0.1052  0.2152  0.9709
 
              Baa    -0.0245    -3.284    -1.172    -1.096  0.9453 -0.2917 -0.1461
    53 C(13)  Bbb     0.0104     1.401     0.500     0.467  0.3192  0.9195  0.2294
              Bcc     0.0140     1.883     0.672     0.628  0.0675 -0.2635  0.9623
 
              Baa    -0.0016    -0.852    -0.304    -0.284  0.7829 -0.5921 -0.1910
    54 H(1)   Bbb    -0.0005    -0.257    -0.092    -0.086  0.6199  0.7162  0.3206
              Bcc     0.0021     1.109     0.396     0.370 -0.0530 -0.3694  0.9277
 
              Baa    -0.0207    -2.783    -0.993    -0.928  0.9883 -0.1400 -0.0603
    55 C(13)  Bbb     0.0091     1.227     0.438     0.409  0.1049  0.9117 -0.3974
              Bcc     0.0116     1.555     0.555     0.519  0.1106  0.3864  0.9157
 
              Baa    -0.0012    -0.657    -0.234    -0.219  0.9233  0.1470 -0.3549
    56 H(1)   Bbb     0.0001     0.071     0.025     0.024 -0.3020  0.8489 -0.4339
              Bcc     0.0011     0.586     0.209     0.196  0.2374  0.5078  0.8281
 
              Baa    -0.0421    -5.647    -2.015    -1.884  0.3195  0.8009  0.5064
    57 C(13)  Bbb    -0.0373    -5.006    -1.786    -1.670 -0.0015 -0.5340  0.8455
              Bcc     0.0794    10.653     3.801     3.554  0.9476 -0.2709 -0.1695
 
              Baa    -0.0062    -3.292    -1.175    -1.098  0.2839  0.8259  0.4871
    58 H(1)   Bbb    -0.0006    -0.303    -0.108    -0.101  0.9569 -0.2762 -0.0894
              Bcc     0.0067     3.595     1.283     1.199 -0.0607 -0.4915  0.8687
 
              Baa    -0.0123    -1.648    -0.588    -0.550  0.0487 -0.2187  0.9746
    59 C(13)  Bbb    -0.0122    -1.640    -0.585    -0.547  0.2844  0.9384  0.1964
              Bcc     0.0245     3.288     1.173     1.097  0.9575 -0.2676 -0.1079
 
              Baa    -0.0021    -1.123    -0.401    -0.375 -0.0062  0.3352  0.9421
    60 H(1)   Bbb    -0.0014    -0.755    -0.269    -0.252  0.9458 -0.3040  0.1144
              Bcc     0.0035     1.878     0.670     0.626  0.3248  0.8917 -0.3151
 
              Baa    -0.0208    -2.786    -0.994    -0.929  0.9883  0.1405 -0.0596
    61 C(13)  Bbb     0.0092     1.229     0.439     0.410 -0.1050  0.9093  0.4026
              Bcc     0.0116     1.557     0.556     0.519  0.1108 -0.3916  0.9134
 
              Baa    -0.0012    -0.657    -0.235    -0.219  0.9234 -0.1447 -0.3554
    62 H(1)   Bbb     0.0001     0.070     0.025     0.023  0.3016  0.8462  0.4392
              Bcc     0.0011     0.587     0.209     0.196  0.2372 -0.5128  0.8251
 
              Baa    -0.0112    -1.509    -0.538    -0.503  0.2058  0.9561  0.2088
    63 C(13)  Bbb    -0.0109    -1.468    -0.524    -0.490 -0.0660 -0.1993  0.9777
              Bcc     0.0222     2.977     1.062     0.993  0.9764 -0.2150  0.0220
 
              Baa    -0.0020    -1.060    -0.378    -0.354  0.1937 -0.6153  0.7641
    64 H(1)   Bbb    -0.0013    -0.706    -0.252    -0.235  0.9369 -0.1151 -0.3302
              Bcc     0.0033     1.766     0.630     0.589  0.2911  0.7798  0.5542
 
              Baa    -0.0366    -4.905    -1.750    -1.636  0.3319  0.9387  0.0929
    65 C(13)  Bbb    -0.0356    -4.775    -1.704    -1.593  0.1551 -0.1515  0.9762
              Bcc     0.0721     9.681     3.454     3.229  0.9305 -0.3095 -0.1959
 
              Baa    -0.0038    -2.049    -0.731    -0.683  0.3198 -0.2920  0.9014
    66 H(1)   Bbb    -0.0001    -0.045    -0.016    -0.015  0.8625 -0.3041 -0.4045
              Bcc     0.0039     2.094     0.747     0.698  0.3922  0.9068  0.1547
 
              Baa    -0.0232    -3.113    -1.111    -1.038  0.9575 -0.2747 -0.0884
    67 C(13)  Bbb     0.0101     1.357     0.484     0.453  0.2762  0.7837  0.5563
              Bcc     0.0131     1.756     0.627     0.586 -0.0836 -0.5571  0.8263
 
              Baa    -0.0006    -0.321    -0.115    -0.107  0.8913 -0.4532  0.0113
    68 H(1)   Bbb    -0.0004    -0.226    -0.081    -0.075  0.2954  0.5995  0.7438
              Bcc     0.0010     0.547     0.195     0.183 -0.3439 -0.6597  0.6683
 

 ---------------------------------------------------------------------------------

 No NMR shielding tensors so no spin-rotation constants.
 Leave Link  601 at Sat Nov 16 11:25:44 2024, MaxMem=  3221225472 cpu:              35.0 elap:               1.4
 (Enter /home/szhao/Apps/g16/l9999.exe)
 1\1\GINC-NODE04\FOpt\UM062X\6-311+G(d,p)\C42H26(1+,2)\SZHAO\16-Nov-202
 4\0\\#p opt UM062X/6-311+G** nosymm int=superfine\\Title Card Required
 \\1,2\C,-1.797584627,0.,0.\C,1.797584627,0.,0.\C,-0.0000075651,-2.0086
 898292,-0.0055824143\C,0.0000212051,-3.416848195,-0.0094093727\C,-1.12
 49447055,-4.2609042747,0.2075896585\C,-1.345145788,-1.439813795,0.1694
 009451\C,0.6612573293,-5.6525318945,-0.1481438009\H,1.2944292377,-6.51
 8095238,-0.280914083\C,-1.8015737749,0.7757679715,1.2113089317\C,-0.66
 11583052,-5.6532743295,0.1170458759\H,-1.294312496,-6.5195679303,0.245
 0535949\C,1.1250091738,-4.2596745331,-0.2310431477\C,1.3451252324,-1.4
 388436797,-0.1774027241\C,2.1601948602,2.1667858722,-1.335034045\C,-1.
 9924896885,0.3836021611,-1.3725220884\C,-2.1358451211,2.7557565304,2.6
 20381967\H,-2.4263810768,3.7966475351,2.6998477978\C,-2.3402821683,-3.
 6924833557,0.4530947468\H,-3.2318858262,-4.2783994516,0.6428956609\C,-
 2.2546520242,1.7076777566,-1.8596424517\C,2.4148385302,-2.2781177621,-
 0.4266973789\H,3.3892744683,-1.8172175409,-0.5538077309\C,1.9924643052
 ,0.3760141742,1.3746147531\C,2.2545145725,1.6974131393,1.8690322157\C,
 2.3403254378,-3.6898865524,-0.4734629404\H,3.2319435443,-4.2747280504,
 -0.6664787107\C,-2.1598571519,2.1594464234,1.3469682956\C,-1.397013118
 2,0.1118950295,2.4092189656\H,-1.1091737609,-0.9272128049,2.3635122746
 \C,1.8726365069,-0.6526493592,2.361900954\H,1.7242773679,-1.6745948928
 ,2.0475876939\C,-1.7498583398,2.0709915052,3.7540683736\H,-1.745292397
 8,2.566450912,4.717146021\C,-2.4148310172,-2.2804822764,0.4140755972\H
 ,-3.3892773281,-1.820308726,0.5437134101\C,-2.3032432927,1.9328524005,
 -3.2483315637\H,-2.4883527986,2.9435236619,-3.5925792595\C,1.801663763
 4,0.7824417196,-1.2069920294\C,-2.5208872852,3.0510743025,0.2770456489
 \H,-2.7894682209,4.0484997365,0.6103670779\C,-2.1500228044,0.920756332
 6,-4.1708532622\H,-2.2073473524,1.1342458817,-5.2313254967\C,-2.528833
 7924,2.8711794625,-1.0581783523\H,-2.7954053506,3.7478419403,-1.639983
 7385\C,2.3028993657,1.9149569754,3.2589527444\H,2.4878767997,2.9237348
 88,3.6087771213\C,-1.3669733611,0.7328586336,3.6366600958\H,-1.0513278
 649,0.1738877192,4.5091071284\C,-1.872628447,-0.6395869133,-2.36546124
 94\H,-1.7241358725,-1.6632325667,-2.0567916975\C,2.1496704547,0.897789
 1595,4.1758614895\H,2.206837374,1.105449754,5.237499674\C,2.1363561744
 ,2.7700653174,-2.6051702881\H,2.4271082934,3.8113164922,-2.6789246211\
 C,1.9564489977,-0.4071452688,3.7115861316\H,1.870283402,-1.2308621867,
 4.4099850894\C,1.7502119512,2.091608127,-3.7425795214\H,1.7457635424,2
 .5923359918,-4.7029293992\C,2.5211856353,3.052480332,-0.2602094339\H,2
 .7899044373,4.0516982506,-0.5880045319\C,-1.9565840531,-0.3866742434,-
 3.7137786855\H,-1.8703784649,-1.2065378815,-4.4166920793\C,2.528847089
 9,2.8652754425,1.0740227602\H,2.7953364695,3.7387322878,1.6606669865\C
 ,1.3969056505,0.1252423412,-2.4085142066\H,1.1088046562,-0.9140250364,
 -2.3684791438\C,1.3669729666,0.7529425181,-3.632516019\H,1.0511514896,
 0.1988578308,-4.508008639\\Version=ES64L-G16RevA.03\HF=-1615.5570137\S
 2=0.766006\S2-1=0.\S2A=0.750233\RMSD=9.585e-09\RMSF=1.741e-06\Dipole=0
 .0010564,1.2389191,0.0035033\Quadrupole=-18.97739,10.2548943,8.7224956
 ,-0.0057772,3.6886974,0.0031806\PG=C01 [X(C42H26)]\\@


 ... THIS SEEMS PLAINLY ABSURD; BUT WHOEVER WISHES TO BECOME A 
 PHILOSOPHER MUST LEARN NOT TO BE FRIGHTENED BY ABSURDITIES.

                          -- BERTRAND RUSSELL
 Job cpu time:      26 days 10 hours 32 minutes  4.5 seconds.
 Elapsed time:       0 days 22 hours 43 minutes 56.3 seconds.
 File lengths (MBytes):  RWF=   1251 Int=      0 D2E=      0 Chk=    120 Scr=      2
 Normal termination of Gaussian 16 at Sat Nov 16 11:25:46 2024.
