 Entering Gaussian System, Link 0=g16
 Initial command:
 /home/szhao/Apps/g16/l1.exe "/home/szhao/tmp/Gau-176800.inp" -scrdir="/home/szhao/tmp/"
 Default is to use a total of  16 processors:
                               16 via shared-memory
                                1 via Linda
 Entering Link 1 = /home/szhao/Apps/g16/l1.exe PID=    176801.
  
 Copyright (c) 1988,1990,1992,1993,1995,1998,2003,2009,2016,
            Gaussian, Inc.  All Rights Reserved.
  
 This is part of the Gaussian(R) 16 program.  It is based on
 the Gaussian(R) 09 system (copyright 2009, Gaussian, Inc.),
 the Gaussian(R) 03 system (copyright 2003, Gaussian, Inc.),
 the Gaussian(R) 98 system (copyright 1998, Gaussian, Inc.),
 the Gaussian(R) 94 system (copyright 1995, Gaussian, Inc.),
 the Gaussian 92(TM) system (copyright 1992, Gaussian, Inc.),
 the Gaussian 90(TM) system (copyright 1990, Gaussian, Inc.),
 the Gaussian 88(TM) system (copyright 1988, Gaussian, Inc.),
 the Gaussian 86(TM) system (copyright 1986, Carnegie Mellon
 University), and the Gaussian 82(TM) system (copyright 1983,
 Carnegie Mellon University). Gaussian is a federally registered
 trademark of Gaussian, Inc.
  
 This software contains proprietary and confidential information,
 including trade secrets, belonging to Gaussian, Inc.
  
 This software is provided under written license and may be
 used, copied, transmitted, or stored only in accord with that
 written license.
  
 The following legend is applicable only to US Government
 contracts under FAR:
  
                    RESTRICTED RIGHTS LEGEND
  
 Use, reproduction and disclosure by the US Government is
 subject to restrictions as set forth in subparagraphs (a)
 and (c) of the Commercial Computer Software - Restricted
 Rights clause in FAR 52.227-19.
  
 Gaussian, Inc.
 340 Quinnipiac St., Bldg. 40, Wallingford CT 06492
  
  
 ---------------------------------------------------------------
 Warning -- This program may not be used in any manner that
 competes with the business of Gaussian, Inc. or will provide
 assistance to any competitor of Gaussian, Inc.  The licensee
 of this program is prohibited from giving any competitor of
 Gaussian, Inc. access to this program.  By using this program,
 the user acknowledges that Gaussian, Inc. is engaged in the
 business of creating and licensing software in the field of
 computational chemistry and represents and warrants to the
 licensee that it is not a competitor of Gaussian, Inc. and that
 it will not use this program in any manner prohibited above.
 ---------------------------------------------------------------
  

 Cite this work as:
 Gaussian 16, Revision A.03,
 M. J. Frisch, G. W. Trucks, H. B. Schlegel, G. E. Scuseria, 
 M. A. Robb, J. R. Cheeseman, G. Scalmani, V. Barone, 
 G. A. Petersson, H. Nakatsuji, X. Li, M. Caricato, A. V. Marenich, 
 J. Bloino, B. G. Janesko, R. Gomperts, B. Mennucci, H. P. Hratchian, 
 J. V. Ortiz, A. F. Izmaylov, J. L. Sonnenberg, D. Williams-Young, 
 F. Ding, F. Lipparini, F. Egidi, J. Goings, B. Peng, A. Petrone, 
 T. Henderson, D. Ranasinghe, V. G. Zakrzewski, J. Gao, N. Rega, 
 G. Zheng, W. Liang, M. Hada, M. Ehara, K. Toyota, R. Fukuda, 
 J. Hasegawa, M. Ishida, T. Nakajima, Y. Honda, O. Kitao, H. Nakai, 
 T. Vreven, K. Throssell, J. A. Montgomery, Jr., J. E. Peralta, 
 F. Ogliaro, M. J. Bearpark, J. J. Heyd, E. N. Brothers, K. N. Kudin, 
 V. N. Staroverov, T. A. Keith, R. Kobayashi, J. Normand, 
 K. Raghavachari, A. P. Rendell, J. C. Burant, S. S. Iyengar, 
 J. Tomasi, M. Cossi, J. M. Millam, M. Klene, C. Adamo, R. Cammi, 
 J. W. Ochterski, R. L. Martin, K. Morokuma, O. Farkas, 
 J. B. Foresman, and D. J. Fox, Gaussian, Inc., Wallingford CT, 2016.
 
 ******************************************
 Gaussian 16:  ES64L-G16RevA.03 25-Dec-2016
                21-Apr-2025 
 ******************************************
 %oldchk=../00135/opt.chk
 %chk=opt.chk
 %mem=4GB
 %nprocshared=8
 Will use up to    8 processors via shared memory.
 Copying data from "../00135/opt.chk" to current chk file "opt.chk"
 IOpt=  2 FromEx=T IUOpen= 4 IOptOp= 5 NList=   0 IFRang= 0 IUIn= 4 IUOut= 2.
 ----------------------------------------------------------------------
 #p opt UM062X/6-311+G** nosymm int=superfine SCF=(MaxCycle=200,NoVarAc
 c,noincfock) guess=read
 ----------------------------------------------------------------------
 1/18=20,19=15,26=5,38=1/1,3;
 2/9=110,12=2,15=1,17=6,18=5,40=1/2;
 3/5=4,6=6,7=111,11=2,25=1,30=1,71=1,74=-55,75=-7,116=2/1,2,3;
 4/5=1/1;
 5/5=100002,7=200,38=6/2;
 6/7=2,8=2,9=2,10=2,28=1/1;
 7/30=1/1,2,3,16;
 1/18=20,19=15,26=5/3(2);
 2/9=110,15=1/2;
 99//99;
 2/9=110,15=1/2;
 3/5=4,6=6,7=111,11=2,25=1,30=1,71=1,74=-55,75=-7,116=2/1,2,3;
 4/5=5,16=3,69=1/1;
 5/5=100002,7=200,38=1/2;
 7/30=1/1,2,3,16;
 1/18=20,19=15,26=5/3(-5);
 2/9=110,15=1/2;
 6/7=2,8=2,9=2,10=2,19=2,28=1/1;
 99/9=1/99;
 Leave Link    1 at Mon Apr 21 21:27:57 2025, MaxMem=   536870912 cpu:               1.0 elap:               0.1
 (Enter /home/szhao/Apps/g16/l101.exe)
 -------------------
 Title Card Required
 -------------------
 Symbolic Z-matrix:
 Charge = -1 Multiplicity = 2
 B                    -1   -1.3914    0.        0. 
 B                    -1    1.3914    0.        0. 
 H                    0    -2.62791  -0.10413   0.03148 
 H                    0     2.54731   0.33646  -0.32853 
 
 Add virtual bond connecting atoms B2         and B1         Dist= 5.26D+00.
 ITRead=  2  2  0  0
 MicOpt= -2 -2 -1 -1
 NAtoms=      4 NQM=        2 NQMF=       2 NMMI=      0 NMMIF=      0
                NMic=       0 NMicF=      0.
                    Isotopes and Nuclear Properties:
 (Nuclear quadrupole moments (NQMom) in fm**2, nuclear magnetic moments (NMagM)
  in nuclear magnetons)

  Atom         1           2           3           4
 IAtWgt=          11          11           1           1
 AtmWgt=  11.0093053  11.0093053   1.0078250   1.0078250
 NucSpn=           3           3           1           1
 AtZEff=  -0.0000000  -0.0000000  -0.0000000  -0.0000000
 NQMom=    4.0590000   4.0590000   0.0000000   0.0000000
 NMagM=    2.6886370   2.6886370   2.7928460   2.7928460
 AtZNuc=   5.0000000   5.0000000   1.0000000   1.0000000
 Leave Link  101 at Mon Apr 21 21:27:57 2025, MaxMem=   536870912 cpu:               3.7 elap:               0.5
 (Enter /home/szhao/Apps/g16/l103.exe)

 GradGradGradGradGradGradGradGradGradGradGradGradGradGradGradGradGradGrad
 Berny optimization.
 Initialization pass.
                           ----------------------------
                           !    Initial Parameters    !
                           ! (Angstroms and Degrees)  !
 --------------------------                            --------------------------
 ! Name  Definition              Value          Derivative Info.                !
 --------------------------------------------------------------------------------
 ! X1    R(1,-1)                -1.3914         Frozen                          !
 ! Y1    R(1,-2)                 0.0            Frozen                          !
 ! Z1    R(1,-3)                 0.0            Frozen                          !
 ! X2    R(2,-1)                 1.3914         Frozen                          !
 ! Y2    R(2,-2)                 0.0            Frozen                          !
 ! Z2    R(2,-3)                 0.0            Frozen                          !
 ! R1    R(1,3)                  1.2413         estimate D2E/DX2                !
 ! R2    R(2,4)                  1.2479         estimate D2E/DX2                !
 ! A1    A(1,2,4)              157.8622         estimate D2E/DX2                !
 ! A2    L(2,1,3,-3,-1)        175.1863         estimate D2E/DX2                !
 ! A3    L(2,1,3,-2,-2)        178.5418         estimate D2E/DX2                !
 --------------------------------------------------------------------------------
 Trust Radius=3.00D-01 FncErr=1.00D-07 GrdErr=1.00D-07 EigMax=2.50D+02 EigMin=1.00D-04
 Number of steps in this run=     21 maximum allowed number of steps=    100.
 GradGradGradGradGradGradGradGradGradGradGradGradGradGradGradGradGradGrad

 Leave Link  103 at Mon Apr 21 21:27:58 2025, MaxMem=   536870912 cpu:               0.2 elap:               0.1
 (Enter /home/szhao/Apps/g16/l202.exe)
                          Input orientation:                          
 ---------------------------------------------------------------------
 Center     Atomic      Atomic             Coordinates (Angstroms)
 Number     Number       Type             X           Y           Z
 ---------------------------------------------------------------------
      1          5           0       -1.391404    0.000000    0.000000
      2          5           0        1.391404    0.000000    0.000000
      3          1           0       -2.627909   -0.104129    0.031476
      4          1           0        2.547310    0.336463   -0.328528
 ---------------------------------------------------------------------
                    Distance matrix (angstroms):
                    1          2          3          4
     1  B    0.000000
     2  B    2.782808   0.000000
     3  H    1.241281   4.020785   0.000000
     4  H    3.966687   1.247901   5.206401   0.000000
 Symmetry turned off by external request.
 Stoichiometry    B2H2(1-,2)
 Framework group  C1[X(B2H2)]
 Deg. of freedom     6
 Full point group                 C1      NOp   1
 Rotational constants (GHZ):        2657.7863544           8.9976155           8.9679247
 Leave Link  202 at Mon Apr 21 21:27:58 2025, MaxMem=   536870912 cpu:               0.3 elap:               0.1
 (Enter /home/szhao/Apps/g16/l301.exe)
 Standard basis: 6-311+G(d,p) (5D, 7F)
 Ernie: Thresh=  0.10000D-02 Tol=  0.10000D-05 Strict=F.
    56 basis functions,    88 primitive gaussians,    58 cartesian basis functions
     7 alpha electrons        6 beta electrons
       nuclear repulsion energy        10.4325511339 Hartrees.
 IExCor= 4336 DFT=T Ex+Corr=M062X ExCW=0 ScaHFX=  0.540000
 ScaDFX=  1.000000  1.000000  1.000000  1.000000 ScalE2=  1.000000  1.000000
 IRadAn=      7 IRanWt=     -1 IRanGd=            0 ICorTp=0 IEmpDi=  4
 NAtoms=    4 NActive=    4 NUniq=    4 SFac= 1.00D+00 NAtFMM=   60 NAOKFM=F Big=F
 Integral buffers will be    131072 words long.
 Raffenetti 2 integral format.
 Two-electron integral symmetry is turned off.
 Leave Link  301 at Mon Apr 21 21:27:58 2025, MaxMem=   536870912 cpu:               0.7 elap:               0.1
 (Enter /home/szhao/Apps/g16/l302.exe)
 NPDir=0 NMtPBC=     1 NCelOv=     1 NCel=       1 NClECP=     1 NCelD=      1
         NCelK=      1 NCelE2=     1 NClLst=     1 CellRange=     0.0.
 One-electron integrals computed using PRISM.
 NBasis=    56 RedAO= T EigKep=  4.04D-03  NBF=    56
 NBsUse=    56 1.00D-06 EigRej= -1.00D+00 NBFU=    56
 Precomputing XC quadrature grid using
 IXCGrd= 4 IRadAn=           7 IRanWt=          -1 IRanGd=           0 AccXCQ= 0.00D+00.
 Generated NRdTot=       0 NPtTot=           0 NUsed=           0 NTot=          32
 NSgBfM=    58    58    58    58    58 MxSgAt=     4 MxSgA2=     4.
 Leave Link  302 at Mon Apr 21 21:27:59 2025, MaxMem=   536870912 cpu:               1.9 elap:               0.3
 (Enter /home/szhao/Apps/g16/l303.exe)
 DipDrv:  MaxL=1.
 Leave Link  303 at Mon Apr 21 21:27:59 2025, MaxMem=   536870912 cpu:               0.5 elap:               0.1
 (Enter /home/szhao/Apps/g16/l401.exe)
 Initial guess from the checkpoint file:  "opt.chk"
 B after Tr=    -0.008729    0.085721    0.175197
         Rot=    0.924913    0.372491   -0.020756    0.073182 Ang=  44.69 deg.
 Guess basis will be translated and rotated to current coordinates.
 JPrj=2 DoOrth=T DoCkMO=T.
 Initial guess <Sx>= 0.0000 <Sy>= 0.0000 <Sz>= 0.5000 <S**2>= 0.7992 S= 0.5243
 Leave Link  401 at Mon Apr 21 21:27:59 2025, MaxMem=   536870912 cpu:               1.6 elap:               0.3
 (Enter /home/szhao/Apps/g16/l502.exe)
 Keep R1 and R2 ints in memory in canonical form, NReq=9624198.
 FoFCou: FMM=F IPFlag=           0 FMFlag=           0 FMFlg1=           0
         NFxFlg=           0 DoJE=F BraDBF=F KetDBF=F FulRan=T
         wScrn=  0.000000 ICntrl=       600 IOpCl=  0 I1Cent=           0 NGrid=           0
         NMat0=    1 NMatS0=   1596 NMatT0=    0 NMatD0=    1 NMtDS0=    0 NMtDT0=    0
 Symmetry not used in FoFCou.
 Two-electron integral symmetry not used.
 UHF open shell SCF:
 Using DIIS extrapolation, IDIIS=  1040.
 NGot=   536870912 LenX=   534314338 LenY=   534310533
 Requested convergence on RMS density matrix=1.00D-08 within 200 cycles.
 Requested convergence on MAX density matrix=1.00D-06.
 Requested convergence on             energy=1.00D-06.
 No special actions if energy rises.

 Cycle   1  Pass 1  IDiag  1:
 E= -50.3089231664038    
 DIIS: error= 3.52D-02 at cycle   1 NSaved=   1.
 NSaved= 1 IEnMin= 1 EnMin= -50.3089231664038     IErMin= 1 ErrMin= 3.52D-02
 ErrMax= 3.52D-02  0.00D+00 EMaxC= 1.00D-01 BMatC= 3.04D-01 BMatP= 3.04D-01
 IDIUse=3 WtCom= 6.48D-01 WtEn= 3.52D-01
 Coeff-Com:  0.100D+01
 Coeff-En:   0.100D+01
 Coeff:      0.100D+01
 Gap=     0.159 Goal=   None    Shift=    0.000
 Gap=     0.297 Goal=   None    Shift=    0.000
 GapD=    0.159 DampG=1.000 DampE=0.500 DampFc=0.5000 IDamp=-1.
 Damping current iteration by 5.00D-01
 RMSDP=1.22D-02 MaxDP=1.18D-01              OVMax= 3.17D-01

 Cycle   2  Pass 1  IDiag  1:
 E= -50.4026261438597     Delta-E=       -0.093702977456 Rises=F Damp=T
 DIIS: error= 2.32D-02 at cycle   2 NSaved=   2.
 NSaved= 2 IEnMin= 2 EnMin= -50.4026261438597     IErMin= 2 ErrMin= 2.32D-02
 ErrMax= 2.32D-02  0.00D+00 EMaxC= 1.00D-01 BMatC= 1.03D-01 BMatP= 3.04D-01
 IDIUse=3 WtCom= 7.68D-01 WtEn= 2.32D-01
 Coeff-Com: -0.116D+01 0.216D+01
 Coeff-En:   0.000D+00 0.100D+01
 Coeff:     -0.891D+00 0.189D+01
 Gap=     0.112 Goal=   None    Shift=    0.000
 Gap=     0.107 Goal=   None    Shift=    0.000
 RMSDP=9.26D-03 MaxDP=1.11D-01 DE=-9.37D-02 OVMax= 1.32D-01

 Cycle   3  Pass 1  IDiag  1:
 E= -50.5433276475995     Delta-E=       -0.140701503740 Rises=F Damp=F
 DIIS: error= 6.63D-03 at cycle   3 NSaved=   3.
 NSaved= 3 IEnMin= 3 EnMin= -50.5433276475995     IErMin= 3 ErrMin= 6.63D-03
 ErrMax= 6.63D-03  0.00D+00 EMaxC= 1.00D-01 BMatC= 6.13D-03 BMatP= 1.03D-01
 IDIUse=3 WtCom= 9.34D-01 WtEn= 6.63D-02
 Coeff-Com: -0.328D+00 0.499D+00 0.828D+00
 Coeff-En:   0.000D+00 0.000D+00 0.100D+01
 Coeff:     -0.306D+00 0.466D+00 0.840D+00
 Gap=     0.118 Goal=   None    Shift=    0.000
 Gap=     0.104 Goal=   None    Shift=    0.000
 RMSDP=3.18D-03 MaxDP=4.52D-02 DE=-1.41D-01 OVMax= 8.25D-02

 Cycle   4  Pass 1  IDiag  1:
 E= -50.5514516964029     Delta-E=       -0.008124048803 Rises=F Damp=F
 DIIS: error= 2.70D-03 at cycle   4 NSaved=   4.
 NSaved= 4 IEnMin= 4 EnMin= -50.5514516964029     IErMin= 4 ErrMin= 2.70D-03
 ErrMax= 2.70D-03  0.00D+00 EMaxC= 1.00D-01 BMatC= 1.13D-03 BMatP= 6.13D-03
 IDIUse=3 WtCom= 9.73D-01 WtEn= 2.70D-02
 Coeff-Com:  0.151D+00-0.287D+00-0.918D-01 0.123D+01
 Coeff-En:   0.000D+00 0.000D+00 0.000D+00 0.100D+01
 Coeff:      0.146D+00-0.280D+00-0.893D-01 0.122D+01
 Gap=     0.121 Goal=   None    Shift=    0.000
 Gap=     0.104 Goal=   None    Shift=    0.000
 RMSDP=2.47D-03 MaxDP=2.22D-02 DE=-8.12D-03 OVMax= 7.61D-02

 Cycle   5  Pass 1  IDiag  1:
 E= -50.5551318028404     Delta-E=       -0.003680106437 Rises=F Damp=F
 DIIS: error= 2.96D-03 at cycle   5 NSaved=   5.
 NSaved= 5 IEnMin= 5 EnMin= -50.5551318028404     IErMin= 4 ErrMin= 2.70D-03
 ErrMax= 2.96D-03  0.00D+00 EMaxC= 1.00D-01 BMatC= 7.90D-04 BMatP= 1.13D-03
 IDIUse=3 WtCom= 9.70D-01 WtEn= 2.96D-02
 Coeff-Com:  0.109D+00-0.192D+00-0.197D+00 0.652D+00 0.627D+00
 Coeff-En:   0.000D+00 0.000D+00 0.000D+00 0.000D+00 0.100D+01
 Coeff:      0.106D+00-0.186D+00-0.191D+00 0.633D+00 0.638D+00
 Gap=     0.120 Goal=   None    Shift=    0.000
 Gap=     0.104 Goal=   None    Shift=    0.000
 RMSDP=1.09D-03 MaxDP=1.46D-02 DE=-3.68D-03 OVMax= 3.52D-02

 Cycle   6  Pass 1  IDiag  1:
 E= -50.5564585031576     Delta-E=       -0.001326700317 Rises=F Damp=F
 DIIS: error= 1.26D-03 at cycle   6 NSaved=   6.
 NSaved= 6 IEnMin= 6 EnMin= -50.5564585031576     IErMin= 6 ErrMin= 1.26D-03
 ErrMax= 1.26D-03  0.00D+00 EMaxC= 1.00D-01 BMatC= 2.53D-04 BMatP= 7.90D-04
 IDIUse=3 WtCom= 9.87D-01 WtEn= 1.26D-02
 Coeff-Com: -0.417D-01 0.828D-01-0.411D-01-0.269D+00 0.113D+00 0.116D+01
 Coeff-En:   0.000D+00 0.000D+00 0.000D+00 0.000D+00 0.000D+00 0.100D+01
 Coeff:     -0.411D-01 0.817D-01-0.406D-01-0.266D+00 0.112D+00 0.115D+01
 Gap=     0.121 Goal=   None    Shift=    0.000
 Gap=     0.102 Goal=   None    Shift=    0.000
 RMSDP=1.84D-03 MaxDP=2.46D-02 DE=-1.33D-03 OVMax= 5.99D-02

 Cycle   7  Pass 1  IDiag  1:
 E= -50.5577174038688     Delta-E=       -0.001258900711 Rises=F Damp=F
 DIIS: error= 8.28D-04 at cycle   7 NSaved=   7.
 NSaved= 7 IEnMin= 7 EnMin= -50.5577174038688     IErMin= 7 ErrMin= 8.28D-04
 ErrMax= 8.28D-04  0.00D+00 EMaxC= 1.00D-01 BMatC= 1.45D-04 BMatP= 2.53D-04
 IDIUse=3 WtCom= 9.92D-01 WtEn= 8.28D-03
 Coeff-Com: -0.803D-02 0.111D-01 0.245D-01 0.391D-02-0.284D+00-0.283D+00
 Coeff-Com:  0.154D+01
 Coeff-En:   0.000D+00 0.000D+00 0.000D+00 0.000D+00 0.000D+00 0.000D+00
 Coeff-En:   0.100D+01
 Coeff:     -0.797D-02 0.110D-01 0.243D-01 0.388D-02-0.282D+00-0.281D+00
 Coeff:      0.153D+01
 Gap=     0.120 Goal=   None    Shift=    0.000
 Gap=     0.104 Goal=   None    Shift=    0.000
 RMSDP=1.83D-03 MaxDP=2.42D-02 DE=-1.26D-03 OVMax= 6.35D-02

 Cycle   8  Pass 1  IDiag  1:
 E= -50.5587351429174     Delta-E=       -0.001017739049 Rises=F Damp=F
 DIIS: error= 6.26D-04 at cycle   8 NSaved=   8.
 NSaved= 8 IEnMin= 8 EnMin= -50.5587351429174     IErMin= 8 ErrMin= 6.26D-04
 ErrMax= 6.26D-04  0.00D+00 EMaxC= 1.00D-01 BMatC= 9.39D-05 BMatP= 1.45D-04
 IDIUse=3 WtCom= 9.94D-01 WtEn= 6.26D-03
 Coeff-Com:  0.109D-01-0.199D-01-0.347D-01 0.861D-01 0.318D+00 0.170D-02
 Coeff-Com: -0.151D+01 0.215D+01
 Coeff-En:   0.000D+00 0.000D+00 0.000D+00 0.000D+00 0.000D+00 0.000D+00
 Coeff-En:   0.000D+00 0.100D+01
 Coeff:      0.108D-01-0.198D-01-0.345D-01 0.855D-01 0.316D+00 0.169D-02
 Coeff:     -0.150D+01 0.214D+01
 Gap=     0.118 Goal=   None    Shift=    0.000
 Gap=     0.105 Goal=   None    Shift=    0.000
 RMSDP=1.57D-03 MaxDP=1.94D-02 DE=-1.02D-03 OVMax= 6.01D-02

 Cycle   9  Pass 1  IDiag  1:
 E= -50.5596412249788     Delta-E=       -0.000906082061 Rises=F Damp=F
 DIIS: error= 7.03D-04 at cycle   9 NSaved=   9.
 NSaved= 9 IEnMin= 9 EnMin= -50.5596412249788     IErMin= 8 ErrMin= 6.26D-04
 ErrMax= 7.03D-04  0.00D+00 EMaxC= 1.00D-01 BMatC= 7.67D-05 BMatP= 9.39D-05
 IDIUse=3 WtCom= 9.94D-01 WtEn= 6.26D-03
 Coeff-Com:  0.180D-02-0.387D-02-0.443D-02 0.153D-01 0.427D-01 0.105D-01
 Coeff-Com: -0.132D+00-0.590D-01 0.113D+01
 Coeff-En:   0.000D+00 0.000D+00 0.000D+00 0.000D+00 0.000D+00 0.000D+00
 Coeff-En:   0.000D+00 0.000D+00 0.100D+01
 Coeff:      0.179D-02-0.384D-02-0.441D-02 0.152D-01 0.424D-01 0.104D-01
 Coeff:     -0.131D+00-0.586D-01 0.113D+01
 Gap=     0.118 Goal=   None    Shift=    0.000
 Gap=     0.105 Goal=   None    Shift=    0.000
 RMSDP=9.02D-04 MaxDP=1.17D-02 DE=-9.06D-04 OVMax= 3.10D-02

 Cycle  10  Pass 1  IDiag  1:
 E= -50.5600958605836     Delta-E=       -0.000454635605 Rises=F Damp=F
 DIIS: error= 7.08D-04 at cycle  10 NSaved=  10.
 NSaved=10 IEnMin=10 EnMin= -50.5600958605836     IErMin= 8 ErrMin= 6.26D-04
 ErrMax= 7.08D-04  0.00D+00 EMaxC= 1.00D-01 BMatC= 7.60D-05 BMatP= 7.67D-05
 IDIUse=3 WtCom= 9.94D-01 WtEn= 6.26D-03
 Coeff-Com:  0.190D-02-0.397D-02-0.302D-02 0.152D-01 0.324D-01 0.173D-01
 Coeff-Com: -0.417D-01-0.851D-01 0.199D+00 0.868D+00
 Coeff-En:   0.000D+00 0.000D+00 0.000D+00 0.000D+00 0.000D+00 0.000D+00
 Coeff-En:   0.000D+00 0.000D+00 0.000D+00 0.100D+01
 Coeff:      0.189D-02-0.395D-02-0.300D-02 0.151D-01 0.322D-01 0.172D-01
 Coeff:     -0.414D-01-0.846D-01 0.197D+00 0.869D+00
 Gap=     0.118 Goal=   None    Shift=    0.000
 Gap=     0.105 Goal=   None    Shift=    0.000
 RMSDP=7.11D-04 MaxDP=1.26D-02 DE=-4.55D-04 OVMax= 2.20D-02

 Cycle  11  Pass 1  IDiag  1:
 E= -50.5603874213792     Delta-E=       -0.000291560796 Rises=F Damp=F
 DIIS: error= 6.94D-04 at cycle  11 NSaved=  11.
 NSaved=11 IEnMin=11 EnMin= -50.5603874213792     IErMin= 8 ErrMin= 6.26D-04
 ErrMax= 6.94D-04  0.00D+00 EMaxC= 1.00D-01 BMatC= 7.58D-05 BMatP= 7.60D-05
 IDIUse=3 WtCom= 9.94D-01 WtEn= 6.26D-03
 Coeff-Com:  0.218D-02-0.441D-02-0.435D-02 0.172D-01 0.427D-01 0.244D-01
 Coeff-Com: -0.126D+00 0.381D-01 0.186D+00 0.419D+00 0.406D+00
 Coeff-En:   0.000D+00 0.000D+00 0.000D+00 0.000D+00 0.000D+00 0.000D+00
 Coeff-En:   0.000D+00 0.000D+00 0.000D+00 0.000D+00 0.100D+01
 Coeff:      0.217D-02-0.439D-02-0.432D-02 0.171D-01 0.424D-01 0.243D-01
 Coeff:     -0.126D+00 0.379D-01 0.185D+00 0.416D+00 0.410D+00
 Gap=     0.118 Goal=   None    Shift=    0.000
 Gap=     0.105 Goal=   None    Shift=    0.000
 RMSDP=2.12D-04 MaxDP=3.72D-03 DE=-2.92D-04 OVMax= 6.46D-03

 Cycle  12  Pass 1  IDiag  1:
 E= -50.5604737022807     Delta-E=       -0.000086280902 Rises=F Damp=F
 DIIS: error= 6.90D-04 at cycle  12 NSaved=  12.
 NSaved=12 IEnMin=12 EnMin= -50.5604737022807     IErMin= 8 ErrMin= 6.26D-04
 ErrMax= 6.90D-04  0.00D+00 EMaxC= 1.00D-01 BMatC= 7.58D-05 BMatP= 7.58D-05
 IDIUse=3 WtCom= 9.94D-01 WtEn= 6.26D-03
 Coeff-Com:  0.187D-02-0.404D-02-0.141D-02 0.143D-01 0.265D-01-0.576D-02
 Coeff-Com:  0.283D-01-0.175D+00 0.678D+00 0.107D+01-0.970D+01 0.907D+01
 Coeff-En:   0.000D+00 0.000D+00 0.000D+00 0.000D+00 0.000D+00 0.000D+00
 Coeff-En:   0.000D+00 0.000D+00 0.000D+00 0.000D+00 0.000D+00 0.100D+01
 Coeff:      0.186D-02-0.402D-02-0.140D-02 0.142D-01 0.263D-01-0.572D-02
 Coeff:      0.282D-01-0.174D+00 0.674D+00 0.106D+01-0.964D+01 0.902D+01
 Gap=     0.118 Goal=   None    Shift=    0.000
 Gap=     0.105 Goal=   None    Shift=    0.000
 RMSDP=8.97D-04 MaxDP=1.55D-02 DE=-8.63D-05 OVMax= 2.69D-02

 Cycle  13  Pass 1  IDiag  1:
 E= -50.5608228998557     Delta-E=       -0.000349197575 Rises=F Damp=F
 DIIS: error= 6.78D-04 at cycle  13 NSaved=  13.
 NSaved=13 IEnMin=13 EnMin= -50.5608228998557     IErMin= 8 ErrMin= 6.26D-04
 ErrMax= 6.78D-04  0.00D+00 EMaxC= 1.00D-01 BMatC= 7.60D-05 BMatP= 7.58D-05
 IDIUse=3 WtCom= 9.94D-01 WtEn= 6.26D-03
 Large coefficients: NSaved= 13 BigCof=   12.24 CofMax=   10.00 Det=-2.25D-09
 Inversion failed.  Reducing to 12 matrices.
 Large coefficients: NSaved= 12 BigCof=   12.35 CofMax=   10.00 Det=-2.25D-09
 Inversion failed.  Reducing to 11 matrices.
 Large coefficients: NSaved= 11 BigCof=   12.11 CofMax=   10.00 Det=-2.26D-09
 Inversion failed.  Reducing to 10 matrices.
 Large coefficients: NSaved= 10 BigCof=   12.23 CofMax=   10.00 Det=-2.27D-09
 Inversion failed.  Reducing to  9 matrices.
 Large coefficients: NSaved=  9 BigCof=   12.21 CofMax=   10.00 Det=-2.27D-09
 Inversion failed.  Reducing to  8 matrices.
 Large coefficients: NSaved=  8 BigCof=   11.72 CofMax=   10.00 Det=-2.30D-09
 Inversion failed.  Reducing to  7 matrices.
 Large coefficients: NSaved=  7 BigCof=   12.08 CofMax=   10.00 Det=-2.45D-09
 Inversion failed.  Reducing to  6 matrices.
 Large coefficients: NSaved=  6 BigCof=   12.16 CofMax=   10.00 Det=-2.45D-09
 Inversion failed.  Reducing to  5 matrices.
 Large coefficients: NSaved=  5 BigCof=   12.25 CofMax=   10.00 Det=-2.46D-09
 Inversion failed.  Reducing to  4 matrices.
 Coeff-Com:  0.434D+00-0.989D+00 0.149D+01 0.633D-01
 Coeff-En:   0.000D+00 0.000D+00 0.000D+00 0.100D+01
 Coeff:      0.431D+00-0.983D+00 0.148D+01 0.692D-01
 Gap=     0.118 Goal=   None    Shift=    0.000
 Gap=     0.105 Goal=   None    Shift=    0.000
 RMSDP=3.29D-04 MaxDP=5.81D-03 DE=-3.49D-04 OVMax= 8.31D-03

 Cycle  14  Pass 1  IDiag  1:
 E= -50.5607592762649     Delta-E=        0.000063623591 Rises=F Damp=F
 DIIS: error= 6.84D-04 at cycle  14 NSaved=   5.
 NSaved= 5 IEnMin= 4 EnMin= -50.5608228998557     IErMin= 4 ErrMin= 6.78D-04
 ErrMax= 6.84D-04  0.00D+00 EMaxC= 1.00D-01 BMatC= 7.41D-05 BMatP= 7.58D-05
 IDIUse=3 WtCom= 9.94D-01 WtEn= 6.26D-03
 Large coefficients: NSaved=  5 BigCof=   36.35 CofMax=   10.00 Det=-2.38D-09
 Inversion failed.  Reducing to  4 matrices.
 Large coefficients: NSaved=  4 BigCof=   28.83 CofMax=   10.00 Det=-3.07D-09
 Inversion failed.  Reducing to  3 matrices.
 Rare condition: small coef for last iteration:  0.000D+00
 Coeff-Com: -0.178D+01 0.417D+00 0.236D+01
 Coeff-En:   0.000D+00 0.000D+00 0.100D+01
 Coeff:     -0.178D+01 0.417D+00 0.236D+01
 Gap=     0.118 Goal=   None    Shift=    0.000
 Gap=     0.106 Goal=   None    Shift=    0.000
 RMSDP=1.96D-03 MaxDP=3.16D-02 DE= 6.36D-05 OVMax= 5.94D-02

 Cycle  15  Pass 1  IDiag  1:
 E= -50.5615685627738     Delta-E=       -0.000809286509 Rises=F Damp=F
 DIIS: error= 6.21D-04 at cycle  15 NSaved=   4.
 NSaved= 4 IEnMin= 4 EnMin= -50.5615685627738     IErMin= 4 ErrMin= 6.21D-04
 ErrMax= 6.21D-04  0.00D+00 EMaxC= 1.00D-01 BMatC= 6.26D-05 BMatP= 7.41D-05
 IDIUse=3 WtCom= 9.94D-01 WtEn= 6.21D-03
 Coeff-Com:  0.831D+01-0.206D+01-0.959D+01 0.434D+01
 Coeff-En:   0.000D+00 0.000D+00 0.000D+00 0.100D+01
 Coeff:      0.826D+01-0.204D+01-0.954D+01 0.432D+01
 Gap=     0.118 Goal=   None    Shift=    0.000
 Gap=     0.106 Goal=   None    Shift=    0.000
 RMSDP=1.25D-03 MaxDP=1.81D-02 DE=-8.09D-04 OVMax= 4.40D-02

 Cycle  16  Pass 1  IDiag  1:
 E= -50.5620853686317     Delta-E=       -0.000516805858 Rises=F Damp=F
 DIIS: error= 5.53D-04 at cycle  16 NSaved=   5.
 NSaved= 5 IEnMin= 5 EnMin= -50.5620853686317     IErMin= 5 ErrMin= 5.53D-04
 ErrMax= 5.53D-04  0.00D+00 EMaxC= 1.00D-01 BMatC= 4.90D-05 BMatP= 6.26D-05
 IDIUse=3 WtCom= 9.94D-01 WtEn= 5.53D-03
 Large coefficients: NSaved=  5 BigCof=   12.82 CofMax=   10.00 Det=-9.34D-08
 Inversion failed.  Reducing to  4 matrices.
 Coeff-Com:  0.766D+00-0.306D+01 0.191D+01 0.139D+01
 Coeff-En:   0.000D+00 0.000D+00 0.000D+00 0.100D+01
 Coeff:      0.762D+00-0.305D+01 0.190D+01 0.139D+01
 Gap=     0.120 Goal=   None    Shift=    0.000
 Gap=     0.111 Goal=   None    Shift=    0.000
 RMSDP=4.89D-03 MaxDP=7.49D-02 DE=-5.17D-04 OVMax= 1.44D-01

 Cycle  17  Pass 1  IDiag  1:
 E= -50.5629621909251     Delta-E=       -0.000876822293 Rises=F Damp=F
 DIIS: error= 5.94D-04 at cycle  17 NSaved=   5.
 NSaved= 5 IEnMin= 5 EnMin= -50.5629621909251     IErMin= 4 ErrMin= 5.53D-04
 ErrMax= 5.94D-04  0.00D+00 EMaxC= 1.00D-01 BMatC= 1.50D-04 BMatP= 4.90D-05
 IDIUse=3 WtCom= 9.94D-01 WtEn= 5.53D-03
 Coeff-Com:  0.355D+00-0.290D+00-0.886D+00 0.146D+01 0.365D+00
 Coeff-En:   0.000D+00 0.000D+00 0.000D+00 0.000D+00 0.100D+01
 Coeff:      0.354D+00-0.289D+00-0.881D+00 0.145D+01 0.369D+00
 Gap=     0.120 Goal=   None    Shift=    0.000
 Gap=     0.109 Goal=   None    Shift=    0.000
 RMSDP=1.86D-03 MaxDP=2.87D-02 DE=-8.77D-04 OVMax= 4.90D-02

 Cycle  18  Pass 1  IDiag  1:
 E= -50.5629335993544     Delta-E=        0.000028591571 Rises=F Damp=F
 DIIS: error= 3.00D-04 at cycle  18 NSaved=   6.
 NSaved= 6 IEnMin= 5 EnMin= -50.5629621909251     IErMin= 6 ErrMin= 3.00D-04
 ErrMax= 3.00D-04  0.00D+00 EMaxC= 1.00D-01 BMatC= 1.69D-05 BMatP= 4.90D-05
 IDIUse=3 WtCom= 9.97D-01 WtEn= 3.00D-03
 Rare condition: small coef for last iteration:  0.000D+00
 Coeff-Com: -0.243D+01 0.461D+01-0.288D+01 0.307D+00 0.105D+00 0.129D+01
 Coeff-En:   0.000D+00 0.000D+00 0.000D+00 0.000D+00 0.000D+00 0.100D+01
 Coeff:     -0.243D+01 0.461D+01-0.288D+01 0.307D+00 0.105D+00 0.129D+01
 Gap=     0.118 Goal=   None    Shift=    0.000
 Gap=     0.104 Goal=   None    Shift=    0.000
 RMSDP=2.20D-03 MaxDP=3.88D-02 DE= 2.86D-05 OVMax= 5.09D-02

 Cycle  19  Pass 1  IDiag  1:
 E= -50.5625170849294     Delta-E=        0.000416514425 Rises=F Damp=F
 DIIS: error= 5.47D-04 at cycle  19 NSaved=   7.
 NSaved= 7 IEnMin= 5 EnMin= -50.5629621909251     IErMin= 6 ErrMin= 3.00D-04
 ErrMax= 5.47D-04  0.00D+00 EMaxC= 1.00D-01 BMatC= 9.08D-05 BMatP= 1.69D-05
 IDIUse=3 WtCom= 9.97D-01 WtEn= 3.00D-03
 Rare condition: small coef for last iteration:  0.000D+00
 Coeff-Com: -0.605D+00 0.208D+01-0.152D+01-0.645D+00 0.564D+00 0.271D+00
 Coeff-Com:  0.864D+00
 Coeff-En:   0.000D+00 0.000D+00 0.000D+00 0.000D+00 0.000D+00 0.000D+00
 Coeff-En:   0.100D+01
 Coeff:     -0.605D+00 0.208D+01-0.152D+01-0.645D+00 0.564D+00 0.271D+00
 Coeff:      0.864D+00
 Gap=     0.119 Goal=   None    Shift=    0.000
 Gap=     0.105 Goal=   None    Shift=    0.000
 RMSDP=1.11D-03 MaxDP=1.77D-02 DE= 4.17D-04 OVMax= 3.43D-02

 Cycle  20  Pass 1  IDiag  1:
 E= -50.5628153419269     Delta-E=       -0.000298256997 Rises=F Damp=F
 DIIS: error= 4.25D-04 at cycle  20 NSaved=   8.
 NSaved= 8 IEnMin= 5 EnMin= -50.5629621909251     IErMin= 6 ErrMin= 3.00D-04
 ErrMax= 4.25D-04  0.00D+00 EMaxC= 1.00D-01 BMatC= 5.40D-05 BMatP= 1.69D-05
 IDIUse=3 WtCom= 9.97D-01 WtEn= 3.00D-03
 Coeff-Com: -0.649D+00 0.203D+01-0.137D+01-0.739D+00 0.327D+00 0.340D+00
 Coeff-Com: -0.760D+00 0.181D+01
 Coeff-En:   0.000D+00 0.000D+00 0.000D+00 0.000D+00 0.000D+00 0.000D+00
 Coeff-En:   0.000D+00 0.100D+01
 Coeff:     -0.647D+00 0.203D+01-0.136D+01-0.736D+00 0.326D+00 0.339D+00
 Coeff:     -0.758D+00 0.181D+01
 Gap=     0.121 Goal=   None    Shift=    0.000
 Gap=     0.106 Goal=   None    Shift=    0.000
 RMSDP=1.23D-03 MaxDP=1.77D-02 DE=-2.98D-04 OVMax= 4.30D-02

 Cycle  21  Pass 1  IDiag  1:
 E= -50.5630938901334     Delta-E=       -0.000278548206 Rises=F Damp=F
 DIIS: error= 3.64D-04 at cycle  21 NSaved=   9.
 NSaved= 9 IEnMin= 9 EnMin= -50.5630938901334     IErMin= 6 ErrMin= 3.00D-04
 ErrMax= 3.64D-04  0.00D+00 EMaxC= 1.00D-01 BMatC= 3.66D-05 BMatP= 1.69D-05
 IDIUse=3 WtCom= 9.97D-01 WtEn= 3.00D-03
 Coeff-Com: -0.484D+00 0.115D+01-0.716D+00-0.326D+00 0.227D+00 0.183D+00
 Coeff-Com: -0.662D+00 0.397D+00 0.123D+01
 Coeff-En:   0.000D+00 0.000D+00 0.000D+00 0.000D+00 0.000D+00 0.000D+00
 Coeff-En:   0.000D+00 0.000D+00 0.100D+01
 Coeff:     -0.482D+00 0.115D+01-0.713D+00-0.325D+00 0.227D+00 0.182D+00
 Coeff:     -0.660D+00 0.396D+00 0.123D+01
 Gap=     0.123 Goal=   None    Shift=    0.000
 Gap=     0.109 Goal=   None    Shift=    0.000
 RMSDP=1.51D-03 MaxDP=2.21D-02 DE=-2.79D-04 OVMax= 4.97D-02

 Cycle  22  Pass 1  IDiag  1:
 E= -50.5633342795510     Delta-E=       -0.000240389418 Rises=F Damp=F
 DIIS: error= 2.28D-04 at cycle  22 NSaved=  10.
 NSaved=10 IEnMin=10 EnMin= -50.5633342795510     IErMin=10 ErrMin= 2.28D-04
 ErrMax= 2.28D-04  0.00D+00 EMaxC= 1.00D-01 BMatC= 8.59D-06 BMatP= 1.69D-05
 IDIUse=3 WtCom= 9.98D-01 WtEn= 2.28D-03
 Coeff-Com: -0.348D+00 0.955D+00-0.611D+00-0.354D+00 0.941D-01 0.333D+00
 Coeff-Com: -0.440D+00 0.605D+00 0.153D+00 0.612D+00
 Coeff-En:   0.000D+00 0.000D+00 0.000D+00 0.000D+00 0.000D+00 0.000D+00
 Coeff-En:   0.000D+00 0.000D+00 0.000D+00 0.100D+01
 Coeff:     -0.347D+00 0.953D+00-0.610D+00-0.353D+00 0.939D-01 0.332D+00
 Coeff:     -0.439D+00 0.604D+00 0.153D+00 0.613D+00
 Gap=     0.123 Goal=   None    Shift=    0.000
 Gap=     0.109 Goal=   None    Shift=    0.000
 RMSDP=4.70D-05 MaxDP=7.48D-04 DE=-2.40D-04 OVMax= 2.05D-03

 Cycle  23  Pass 1  IDiag  1:
 E= -50.5633303538351     Delta-E=        0.000003925716 Rises=F Damp=F
 DIIS: error= 2.39D-04 at cycle  23 NSaved=  11.
 NSaved=11 IEnMin=10 EnMin= -50.5633342795510     IErMin=10 ErrMin= 2.28D-04
 ErrMax= 2.39D-04  0.00D+00 EMaxC= 1.00D-01 BMatC= 8.45D-06 BMatP= 8.59D-06
 IDIUse=3 WtCom= 9.98D-01 WtEn= 2.28D-03
 Rare condition: small coef for last iteration:  0.000D+00
 Coeff-Com:  0.106D+00 0.604D-01 0.117D+00-0.339D+00 0.479D-01-0.277D+00
 Coeff-Com:  0.657D+00-0.527D+00-0.118D+01-0.177D+01 0.410D+01
 Coeff-En:   0.000D+00 0.000D+00 0.000D+00 0.000D+00 0.000D+00 0.000D+00
 Coeff-En:   0.000D+00 0.000D+00 0.000D+00 0.000D+00 0.100D+01
 Coeff:      0.106D+00 0.604D-01 0.117D+00-0.339D+00 0.479D-01-0.277D+00
 Coeff:      0.657D+00-0.527D+00-0.118D+01-0.177D+01 0.410D+01
 Gap=     0.125 Goal=   None    Shift=    0.000
 Gap=     0.109 Goal=   None    Shift=    0.000
 RMSDP=1.03D-03 MaxDP=1.42D-02 DE= 3.93D-06 OVMax= 3.55D-02

 Cycle  24  Pass 1  IDiag  1:
 E= -50.5634479019841     Delta-E=       -0.000117548149 Rises=F Damp=F
 DIIS: error= 2.24D-04 at cycle  24 NSaved=  12.
 NSaved=12 IEnMin=12 EnMin= -50.5634479019841     IErMin=12 ErrMin= 2.24D-04
 ErrMax= 2.24D-04  0.00D+00 EMaxC= 1.00D-01 BMatC= 6.42D-06 BMatP= 8.45D-06
 IDIUse=3 WtCom= 9.98D-01 WtEn= 2.24D-03
 Coeff-Com: -0.235D+00 0.754D+00-0.642D+00 0.405D-01 0.237D+00-0.123D+00
 Coeff-Com:  0.444D+00-0.480D+00-0.945D-01-0.359D+00 0.181D+00 0.128D+01
 Coeff-En:   0.000D+00 0.000D+00 0.000D+00 0.000D+00 0.000D+00 0.000D+00
 Coeff-En:   0.000D+00 0.000D+00 0.000D+00 0.000D+00 0.000D+00 0.100D+01
 Coeff:     -0.235D+00 0.752D+00-0.641D+00 0.404D-01 0.237D+00-0.123D+00
 Coeff:      0.443D+00-0.479D+00-0.943D-01-0.358D+00 0.181D+00 0.128D+01
 Gap=     0.125 Goal=   None    Shift=    0.000
 Gap=     0.108 Goal=   None    Shift=    0.000
 RMSDP=1.62D-04 MaxDP=1.51D-03 DE=-1.18D-04 OVMax= 9.91D-03

 Cycle  25  Pass 1  IDiag  1:
 E= -50.5634558767668     Delta-E=       -0.000007974783 Rises=F Damp=F
 DIIS: error= 2.75D-04 at cycle  25 NSaved=  13.
 NSaved=13 IEnMin=13 EnMin= -50.5634558767668     IErMin=12 ErrMin= 2.24D-04
 ErrMax= 2.75D-04  0.00D+00 EMaxC= 1.00D-01 BMatC= 1.17D-05 BMatP= 6.42D-06
 IDIUse=3 WtCom= 9.98D-01 WtEn= 2.24D-03
 Coeff-Com: -0.145D+00 0.657D+00-0.566D+00-0.175D+00 0.221D+00 0.434D-01
 Coeff-Com:  0.230D+00-0.836D-01-0.329D+00 0.140D+01-0.155D+01-0.802D-01
 Coeff-Com:  0.138D+01
 Coeff-En:   0.000D+00 0.000D+00 0.000D+00 0.000D+00 0.000D+00 0.000D+00
 Coeff-En:   0.000D+00 0.000D+00 0.000D+00 0.000D+00 0.000D+00 0.000D+00
 Coeff-En:   0.100D+01
 Coeff:     -0.145D+00 0.656D+00-0.564D+00-0.175D+00 0.220D+00 0.433D-01
 Coeff:      0.230D+00-0.834D-01-0.329D+00 0.140D+01-0.155D+01-0.800D-01
 Coeff:      0.137D+01
 Gap=     0.126 Goal=   None    Shift=    0.000
 Gap=     0.108 Goal=   None    Shift=    0.000
 RMSDP=4.60D-04 MaxDP=6.41D-03 DE=-7.97D-06 OVMax= 1.71D-02

 Cycle  26  Pass 1  IDiag  1:
 E= -50.5635049467107     Delta-E=       -0.000049069944 Rises=F Damp=F
 DIIS: error= 2.61D-04 at cycle  26 NSaved=  14.
 NSaved=14 IEnMin=14 EnMin= -50.5635049467107     IErMin=12 ErrMin= 2.24D-04
 ErrMax= 2.61D-04  0.00D+00 EMaxC= 1.00D-01 BMatC= 7.14D-06 BMatP= 6.42D-06
 IDIUse=3 WtCom= 9.98D-01 WtEn= 2.24D-03
 Coeff-Com: -0.311D+00 0.780D+00-0.451D+00-0.209D+00 0.131D+00 0.657D-02
 Coeff-Com:  0.825D-01 0.399D+00-0.832D+00-0.554D+00 0.110D+01-0.174D+00
 Coeff-Com: -0.242D+00 0.128D+01
 Coeff-En:   0.000D+00 0.000D+00 0.000D+00 0.000D+00 0.000D+00 0.000D+00
 Coeff-En:   0.000D+00 0.000D+00 0.000D+00 0.000D+00 0.000D+00 0.000D+00
 Coeff-En:   0.000D+00 0.100D+01
 Coeff:     -0.310D+00 0.778D+00-0.450D+00-0.208D+00 0.131D+00 0.656D-02
 Coeff:      0.823D-01 0.398D+00-0.830D+00-0.552D+00 0.109D+01-0.174D+00
 Coeff:     -0.242D+00 0.128D+01
 Gap=     0.125 Goal=   None    Shift=    0.000
 Gap=     0.108 Goal=   None    Shift=    0.000
 RMSDP=1.12D-04 MaxDP=1.50D-03 DE=-4.91D-05 OVMax= 6.64D-03

 Cycle  27  Pass 1  IDiag  1:
 E= -50.5635111798359     Delta-E=       -0.000006233125 Rises=F Damp=F
 DIIS: error= 2.85D-04 at cycle  27 NSaved=  15.
 NSaved=15 IEnMin=15 EnMin= -50.5635111798359     IErMin=12 ErrMin= 2.24D-04
 ErrMax= 2.85D-04  0.00D+00 EMaxC= 1.00D-01 BMatC= 9.84D-06 BMatP= 6.42D-06
 IDIUse=3 WtCom= 9.98D-01 WtEn= 2.24D-03
 Coeff-Com: -0.307D+00 0.779D+00-0.456D+00-0.206D+00 0.133D+00 0.650D-02
 Coeff-Com:  0.840D-01 0.385D+00-0.809D+00-0.534D+00 0.106D+01-0.146D+00
 Coeff-Com: -0.273D+00 0.123D+01 0.566D-01
 Coeff-En:   0.000D+00 0.000D+00 0.000D+00 0.000D+00 0.000D+00 0.000D+00
 Coeff-En:   0.000D+00 0.000D+00 0.000D+00 0.000D+00 0.000D+00 0.000D+00
 Coeff-En:   0.000D+00 0.000D+00 0.100D+01
 Coeff:     -0.306D+00 0.777D+00-0.455D+00-0.205D+00 0.132D+00 0.648D-02
 Coeff:      0.838D-01 0.384D+00-0.807D+00-0.533D+00 0.106D+01-0.145D+00
 Coeff:     -0.272D+00 0.123D+01 0.587D-01
 Gap=     0.125 Goal=   None    Shift=    0.000
 Gap=     0.108 Goal=   None    Shift=    0.000
 RMSDP=4.57D-06 MaxDP=4.69D-05 DE=-6.23D-06 OVMax= 3.51D-04

 Cycle  28  Pass 1  IDiag  1:
 E= -50.5635118266673     Delta-E=       -0.000000646831 Rises=F Damp=F
 DIIS: error= 2.86D-04 at cycle  28 NSaved=  16.
 NSaved=16 IEnMin=16 EnMin= -50.5635118266673     IErMin=12 ErrMin= 2.24D-04
 ErrMax= 2.86D-04  0.00D+00 EMaxC= 1.00D-01 BMatC= 9.86D-06 BMatP= 6.42D-06
 IDIUse=3 WtCom= 9.98D-01 WtEn= 2.24D-03
 Large coefficients: NSaved= 16 BigCof=   95.87 CofMax=   10.00 Det=-2.11D-11
 Inversion failed.  Reducing to 15 matrices.
 Large coefficients: NSaved= 15 BigCof=   97.65 CofMax=   10.00 Det=-2.54D-11
 Inversion failed.  Reducing to 14 matrices.
 Large coefficients: NSaved= 14 BigCof=   78.77 CofMax=   10.00 Det=-2.77D-11
 Inversion failed.  Reducing to 13 matrices.
 Large coefficients: NSaved= 13 BigCof=   68.27 CofMax=   10.00 Det=-2.92D-11
 Inversion failed.  Reducing to 12 matrices.
 Large coefficients: NSaved= 12 BigCof=   67.79 CofMax=   10.00 Det=-3.22D-11
 Inversion failed.  Reducing to 11 matrices.
 Large coefficients: NSaved= 11 BigCof=   54.51 CofMax=   10.00 Det=-4.91D-11
 Inversion failed.  Reducing to 10 matrices.
 Large coefficients: NSaved= 10 BigCof=   55.03 CofMax=   10.00 Det=-4.93D-11
 Inversion failed.  Reducing to  9 matrices.
 Large coefficients: NSaved=  9 BigCof=   47.90 CofMax=   10.00 Det=-5.15D-11
 Inversion failed.  Reducing to  8 matrices.
 Large coefficients: NSaved=  8 BigCof=   47.29 CofMax=   10.00 Det=-5.15D-11
 Inversion failed.  Reducing to  7 matrices.
 Large coefficients: NSaved=  7 BigCof=   92.23 CofMax=   10.00 Det=-6.74D-11
 Inversion failed.  Reducing to  6 matrices.
 Large coefficients: NSaved=  6 BigCof=  102.69 CofMax=   10.00 Det=-6.99D-11
 Inversion failed.  Reducing to  5 matrices.
 Large coefficients: NSaved=  5 BigCof=   96.87 CofMax=   10.00 Det=-8.09D-11
 Inversion failed.  Reducing to  4 matrices.
 Large coefficients: NSaved=  4 BigCof=  133.95 CofMax=   10.00 Det=-1.05D-10
 Inversion failed.  Reducing to  3 matrices.
 Large coefficients: NSaved=  3 BigCof=  124.95 CofMax=   10.00 Det=-1.06D-10
 Inversion failed.  Reducing to  2 matrices.
 Large coefficients: NSaved=  2 BigCof=  103.24 CofMax=   10.00 Det=-1.07D-10
 Coeff-Com:  0.103D+03-0.102D+03
 Coeff-En:   0.000D+00 0.100D+01
 Coeff:      0.103D+03-0.102D+03
 Gap=     0.125 Goal=   None    Shift=    0.000
 Gap=     0.110 Goal=   None    Shift=    0.000
 RMSDP=4.53D-04 MaxDP=4.44D-03 DE=-6.47D-07 OVMax= 3.20D-02

 Cycle  29  Pass 1  IDiag  1:
 E= -50.5634628318650     Delta-E=        0.000048994802 Rises=F Damp=F
 DIIS: error= 2.08D-04 at cycle  29 NSaved=   3.
 NSaved= 3 IEnMin= 2 EnMin= -50.5635118266673     IErMin= 3 ErrMin= 2.08D-04
 ErrMax= 2.08D-04  0.00D+00 EMaxC= 1.00D-01 BMatC= 5.57D-06 BMatP= 9.84D-06
 IDIUse=3 WtCom= 9.98D-01 WtEn= 2.08D-03
 Large coefficients: NSaved=  3 BigCof=   76.87 CofMax=   10.00 Det=-1.06D-10
 Inversion failed.  Reducing to  2 matrices.
 Coeff-Com:  0.372D+00 0.628D+00
 Coeff-En:   0.000D+00 0.100D+01
 Coeff:      0.372D+00 0.628D+00
 Gap=     0.126 Goal=   None    Shift=    0.000
 Gap=     0.109 Goal=   None    Shift=    0.000
 RMSDP=2.01D-04 MaxDP=2.35D-03 DE= 4.90D-05 OVMax= 1.66D-02

 Cycle  30  Pass 1  IDiag  1:
 E= -50.5634951786721     Delta-E=       -0.000032346807 Rises=F Damp=F
 DIIS: error= 2.16D-04 at cycle  30 NSaved=   3.
 NSaved= 3 IEnMin= 1 EnMin= -50.5635118266673     IErMin= 2 ErrMin= 2.08D-04
 ErrMax= 2.16D-04  0.00D+00 EMaxC= 1.00D-01 BMatC= 2.67D-06 BMatP= 5.57D-06
 IDIUse=3 WtCom= 9.98D-01 WtEn= 2.08D-03
 Coeff-Com: -0.322D-01 0.217D+00 0.815D+00
 Coeff-En:   0.000D+00 0.000D+00 0.100D+01
 Coeff:     -0.321D-01 0.216D+00 0.816D+00
 Gap=     0.126 Goal=   None    Shift=    0.000
 Gap=     0.109 Goal=   None    Shift=    0.000
 RMSDP=6.17D-05 MaxDP=8.63D-04 DE=-3.23D-05 OVMax= 1.93D-03

 Cycle  31  Pass 1  IDiag  1:
 E= -50.5634986072820     Delta-E=       -0.000003428610 Rises=F Damp=F
 DIIS: error= 2.01D-04 at cycle  31 NSaved=   4.
 NSaved= 4 IEnMin= 1 EnMin= -50.5635118266673     IErMin= 4 ErrMin= 2.01D-04
 ErrMax= 2.01D-04  0.00D+00 EMaxC= 1.00D-01 BMatC= 2.04D-06 BMatP= 2.67D-06
 IDIUse=3 WtCom= 9.98D-01 WtEn= 2.01D-03
 Coeff-Com: -0.944D-01-0.156D+00-0.149D+00 0.140D+01
 Coeff-En:   0.000D+00 0.000D+00 0.000D+00 0.100D+01
 Coeff:     -0.942D-01-0.156D+00-0.149D+00 0.140D+01
 Gap=     0.126 Goal=   None    Shift=    0.000
 Gap=     0.109 Goal=   None    Shift=    0.000
 RMSDP=1.02D-04 MaxDP=1.32D-03 DE=-3.43D-06 OVMax= 6.54D-03

 Cycle  32  Pass 1  IDiag  1:
 E= -50.5635123540094     Delta-E=       -0.000013746727 Rises=F Damp=F
 DIIS: error= 1.98D-04 at cycle  32 NSaved=   5.
 NSaved= 5 IEnMin= 5 EnMin= -50.5635123540094     IErMin= 5 ErrMin= 1.98D-04
 ErrMax= 1.98D-04  0.00D+00 EMaxC= 1.00D-01 BMatC= 1.91D-06 BMatP= 2.04D-06
 IDIUse=3 WtCom= 9.98D-01 WtEn= 1.98D-03
 Coeff-Com: -0.181D-01-0.752D-01-0.369D+00 0.424D+00 0.104D+01
 Coeff-En:   0.000D+00 0.000D+00 0.000D+00 0.000D+00 0.100D+01
 Coeff:     -0.181D-01-0.750D-01-0.369D+00 0.423D+00 0.104D+01
 Gap=     0.126 Goal=   None    Shift=    0.000
 Gap=     0.109 Goal=   None    Shift=    0.000
 RMSDP=8.79D-05 MaxDP=1.03D-03 DE=-1.37D-05 OVMax= 6.70D-03

 Cycle  33  Pass 1  IDiag  1:
 E= -50.5635258883893     Delta-E=       -0.000013534380 Rises=F Damp=F
 DIIS: error= 1.94D-04 at cycle  33 NSaved=   6.
 NSaved= 6 IEnMin= 6 EnMin= -50.5635258883893     IErMin= 6 ErrMin= 1.94D-04
 ErrMax= 1.94D-04  0.00D+00 EMaxC= 1.00D-01 BMatC= 1.89D-06 BMatP= 1.91D-06
 IDIUse=3 WtCom= 9.98D-01 WtEn= 1.94D-03
 Coeff-Com: -0.186D-01-0.783D-01-0.378D+00 0.438D+00 0.106D+01-0.264D-01
 Coeff-En:   0.000D+00 0.000D+00 0.000D+00 0.000D+00 0.000D+00 0.100D+01
 Coeff:     -0.186D-01-0.781D-01-0.378D+00 0.437D+00 0.106D+01-0.244D-01
 Gap=     0.126 Goal=   None    Shift=    0.000
 Gap=     0.109 Goal=   None    Shift=    0.000
 RMSDP=1.44D-06 MaxDP=1.82D-05 DE=-1.35D-05 OVMax= 1.21D-04

 Cycle  34  Pass 1  IDiag  1:
 E= -50.5635256482807     Delta-E=        0.000000240109 Rises=F Damp=F
 DIIS: error= 1.94D-04 at cycle  34 NSaved=   7.
 NSaved= 7 IEnMin= 6 EnMin= -50.5635258883893     IErMin= 7 ErrMin= 1.94D-04
 ErrMax= 1.94D-04  0.00D+00 EMaxC= 1.00D-01 BMatC= 1.89D-06 BMatP= 1.89D-06
 IDIUse=3 WtCom= 9.98D-01 WtEn= 1.94D-03
 Large coefficients: NSaved=  7 BigCof=  321.91 CofMax=   10.00 Det=-1.47D-12
 Inversion failed.  Reducing to  6 matrices.
 Large coefficients: NSaved=  6 BigCof=  317.41 CofMax=   10.00 Det=-1.55D-12
 Inversion failed.  Reducing to  5 matrices.
 Large coefficients: NSaved=  5 BigCof=  256.82 CofMax=   10.00 Det=-1.74D-12
 Inversion failed.  Reducing to  4 matrices.
 Large coefficients: NSaved=  4 BigCof=  130.78 CofMax=   10.00 Det=-3.64D-12
 Inversion failed.  Reducing to  3 matrices.
 Large coefficients: NSaved=  3 BigCof=  131.49 CofMax=   10.00 Det=-3.94D-12
 Inversion failed.  Reducing to  2 matrices.
 Large coefficients: NSaved=  2 BigCof=  132.95 CofMax=   10.00 Det=-3.95D-12
 Coeff-Com: -0.132D+03 0.133D+03
 Coeff-En:   0.000D+00 0.100D+01
 Coeff:     -0.132D+03 0.133D+03
 Gap=     0.126 Goal=   None    Shift=    0.000
 Gap=     0.109 Goal=   None    Shift=    0.000
 RMSDP=1.31D-04 MaxDP=1.66D-03 DE= 2.40D-07 OVMax= 1.11D-02

 Cycle  35  Pass 1  IDiag  1:
 E= -50.5635042399006     Delta-E=        0.000021408380 Rises=F Damp=F
 DIIS: error= 1.89D-04 at cycle  35 NSaved=   3.
 NSaved= 3 IEnMin= 1 EnMin= -50.5635258883893     IErMin= 3 ErrMin= 1.89D-04
 ErrMax= 1.89D-04  0.00D+00 EMaxC= 1.00D-01 BMatC= 1.78D-06 BMatP= 1.89D-06
 IDIUse=3 WtCom= 9.98D-01 WtEn= 1.89D-03
 Large coefficients: NSaved=  3 BigCof=  121.53 CofMax=   10.00 Det=-3.93D-12
 Inversion failed.  Reducing to  2 matrices.
 Coeff-Com: -0.102D+01 0.202D+01
 Coeff-En:   0.000D+00 0.100D+01
 Coeff:     -0.102D+01 0.202D+01
 Gap=     0.126 Goal=   None    Shift=    0.000
 Gap=     0.110 Goal=   None    Shift=    0.000
 RMSDP=8.18D-05 MaxDP=9.77D-04 DE= 2.14D-05 OVMax= 6.52D-03

 Cycle  36  Pass 1  IDiag  1:
 E= -50.5634922303001     Delta-E=        0.000012009600 Rises=F Damp=F
 DIIS: error= 1.80D-04 at cycle  36 NSaved=   3.
 NSaved= 3 IEnMin= 1 EnMin= -50.5635256482807     IErMin= 3 ErrMin= 1.80D-04
 ErrMax= 1.80D-04  0.00D+00 EMaxC= 1.00D-01 BMatC= 1.76D-06 BMatP= 1.78D-06
 IDIUse=3 WtCom= 9.98D-01 WtEn= 1.80D-03
 Rare condition: small coef for last iteration:  0.000D+00
 Coeff-Com: -0.289D+01 0.244D+01 0.145D+01
 Coeff-En:   0.000D+00 0.000D+00 0.100D+01
 Coeff:     -0.289D+01 0.244D+01 0.145D+01
 Gap=     0.125 Goal=   None    Shift=    0.000
 Gap=     0.110 Goal=   None    Shift=    0.000
 RMSDP=3.64D-04 MaxDP=4.60D-03 DE= 1.20D-05 OVMax= 3.06D-02

 Cycle  37  Pass 1  IDiag  1:
 E= -50.5634401053148     Delta-E=        0.000052124985 Rises=F Damp=F
 DIIS: error= 1.65D-04 at cycle  37 NSaved=   4.
 NSaved= 4 IEnMin= 1 EnMin= -50.5635256482807     IErMin= 4 ErrMin= 1.65D-04
 ErrMax= 1.65D-04  0.00D+00 EMaxC= 1.00D-01 BMatC= 1.52D-06 BMatP= 1.76D-06
 IDIUse=3 WtCom= 9.98D-01 WtEn= 1.65D-03
 Rare condition: small coef for last iteration:  0.000D+00
 Coeff-Com: -0.137D+01 0.352D+00 0.101D+01 0.100D+01
 Coeff-En:   0.000D+00 0.000D+00 0.000D+00 0.100D+01
 Coeff:     -0.137D+01 0.352D+00 0.101D+01 0.100D+01
 Gap=     0.125 Goal=   None    Shift=    0.000
 Gap=     0.110 Goal=   None    Shift=    0.000
 RMSDP=2.19D-04 MaxDP=2.76D-03 DE= 5.21D-05 OVMax= 1.80D-02

 Cycle  38  Pass 1  IDiag  1:
 E= -50.5634142744391     Delta-E=        0.000025830876 Rises=F Damp=F
 DIIS: error= 1.46D-04 at cycle  38 NSaved=   5.
 NSaved= 5 IEnMin= 1 EnMin= -50.5635256482807     IErMin= 5 ErrMin= 1.46D-04
 ErrMax= 1.46D-04  0.00D+00 EMaxC= 1.00D-01 BMatC= 1.32D-06 BMatP= 1.52D-06
 IDIUse=3 WtCom= 9.99D-01 WtEn= 1.46D-03
 Rare condition: small coef for last iteration:  0.000D+00
 Coeff-Com:  0.693D+01-0.549D+01-0.317D+01-0.160D+01 0.432D+01
 Coeff-En:   0.000D+00 0.000D+00 0.000D+00 0.000D+00 0.100D+01
 Coeff:      0.693D+01-0.549D+01-0.317D+01-0.160D+01 0.432D+01
 Gap=     0.123 Goal=   None    Shift=    0.000
 Gap=     0.111 Goal=   None    Shift=    0.000
 RMSDP=3.94D-04 MaxDP=3.89D-03 DE= 2.58D-05 OVMax= 2.38D-02

 Cycle  39  Pass 1  IDiag  1:
 E= -50.5633896148154     Delta-E=        0.000024659624 Rises=F Damp=F
 DIIS: error= 1.17D-04 at cycle  39 NSaved=   6.
 NSaved= 6 IEnMin= 1 EnMin= -50.5635256482807     IErMin= 6 ErrMin= 1.17D-04
 ErrMax= 1.17D-04  0.00D+00 EMaxC= 1.00D-01 BMatC= 1.45D-06 BMatP= 1.32D-06
 IDIUse=3 WtCom= 9.99D-01 WtEn= 1.17D-03
 Rare condition: small coef for last iteration:  0.000D+00
 Coeff-Com:  0.751D+01-0.504D+01-0.518D+01-0.109D+01 0.384D+01 0.953D+00
 Coeff-En:   0.000D+00 0.000D+00 0.000D+00 0.000D+00 0.000D+00 0.100D+01
 Coeff:      0.751D+01-0.504D+01-0.518D+01-0.109D+01 0.384D+01 0.953D+00
 Gap=     0.123 Goal=   None    Shift=    0.000
 Gap=     0.111 Goal=   None    Shift=    0.000
 RMSDP=6.49D-04 MaxDP=7.77D-03 DE= 2.47D-05 OVMax= 4.94D-02

 Cycle  40  Pass 1  IDiag  1:
 E= -50.5633495450557     Delta-E=        0.000040069760 Rises=F Damp=F
 DIIS: error= 8.24D-05 at cycle  40 NSaved=   7.
 NSaved= 7 IEnMin= 1 EnMin= -50.5635256482807     IErMin= 7 ErrMin= 8.24D-05
 ErrMax= 8.24D-05  0.00D+00 EMaxC= 1.00D-01 BMatC= 5.33D-07 BMatP= 1.32D-06
 IDIUse=1 WtCom= 1.00D+00 WtEn= 0.00D+00
 Coeff-Com:  0.138D+01-0.643D+00-0.155D+01 0.135D+00 0.398D+00 0.230D+00
 Coeff-Com:  0.104D+01
 Coeff:      0.138D+01-0.643D+00-0.155D+01 0.135D+00 0.398D+00 0.230D+00
 Coeff:      0.104D+01
 Gap=     0.124 Goal=   None    Shift=    0.000
 Gap=     0.112 Goal=   None    Shift=    0.000
 RMSDP=3.22D-04 MaxDP=3.91D-03 DE= 4.01D-05 OVMax= 2.36D-02

 Cycle  41  Pass 1  IDiag  1:
 E= -50.5633374063846     Delta-E=        0.000012138671 Rises=F Damp=F
 DIIS: error= 7.54D-05 at cycle  41 NSaved=   8.
 NSaved= 8 IEnMin= 1 EnMin= -50.5635256482807     IErMin= 8 ErrMin= 7.54D-05
 ErrMax= 7.54D-05  0.00D+00 EMaxC= 1.00D-01 BMatC= 5.49D-07 BMatP= 5.33D-07
 IDIUse=1 WtCom= 1.00D+00 WtEn= 0.00D+00
 Coeff-Com: -0.499D+01 0.362D+01 0.247D+01 0.417D+00-0.207D+01 0.740D+00
 Coeff-Com: -0.126D+01 0.208D+01
 Coeff:     -0.499D+01 0.362D+01 0.247D+01 0.417D+00-0.207D+01 0.740D+00
 Coeff:     -0.126D+01 0.208D+01
 Gap=     0.124 Goal=   None    Shift=    0.000
 Gap=     0.112 Goal=   None    Shift=    0.000
 RMSDP=4.09D-04 MaxDP=5.30D-03 DE= 1.21D-05 OVMax= 3.11D-02

 Cycle  42  Pass 1  IDiag  1:
 E= -50.5633261360898     Delta-E=        0.000011270295 Rises=F Damp=F
 DIIS: error= 9.49D-05 at cycle  42 NSaved=   9.
 NSaved= 9 IEnMin= 1 EnMin= -50.5635256482807     IErMin= 8 ErrMin= 7.54D-05
 ErrMax= 9.49D-05  0.00D+00 EMaxC= 1.00D-01 BMatC= 1.60D-06 BMatP= 5.33D-07
 IDIUse=1 WtCom= 1.00D+00 WtEn= 0.00D+00
 Coeff-Com: -0.333D+01 0.262D+01 0.133D+01 0.585D-01-0.138D+01 0.985D+00
 Coeff-Com: -0.505D+00 0.527D+00 0.686D+00
 Coeff:     -0.333D+01 0.262D+01 0.133D+01 0.585D-01-0.138D+01 0.985D+00
 Coeff:     -0.505D+00 0.527D+00 0.686D+00
 Gap=     0.124 Goal=   None    Shift=    0.000
 Gap=     0.112 Goal=   None    Shift=    0.000
 RMSDP=7.16D-05 MaxDP=8.55D-04 DE= 1.13D-05 OVMax= 4.87D-03

 Cycle  43  Pass 1  IDiag  1:
 E= -50.5633253787475     Delta-E=        0.000000757342 Rises=F Damp=F
 DIIS: error= 8.43D-05 at cycle  43 NSaved=  10.
 NSaved=10 IEnMin= 1 EnMin= -50.5635256482807     IErMin= 8 ErrMin= 7.54D-05
 ErrMax= 8.43D-05  0.00D+00 EMaxC= 1.00D-01 BMatC= 1.28D-06 BMatP= 5.33D-07
 IDIUse=1 WtCom= 1.00D+00 WtEn= 0.00D+00
 Coeff-Com: -0.409D+01 0.283D+01 0.194D+01 0.890D+00-0.188D+01 0.552D+00
 Coeff-Com: -0.136D+01 0.175D+01-0.402D+01 0.438D+01
 Coeff:     -0.409D+01 0.283D+01 0.194D+01 0.890D+00-0.188D+01 0.552D+00
 Coeff:     -0.136D+01 0.175D+01-0.402D+01 0.438D+01
 Gap=     0.124 Goal=   None    Shift=    0.000
 Gap=     0.113 Goal=   None    Shift=    0.000
 RMSDP=2.81D-04 MaxDP=3.58D-03 DE= 7.57D-07 OVMax= 2.05D-02

 Cycle  44  Pass 1  IDiag  1:
 E= -50.5633222900134     Delta-E=        0.000003088734 Rises=F Damp=F
 DIIS: error= 9.20D-05 at cycle  44 NSaved=  11.
 NSaved=11 IEnMin= 1 EnMin= -50.5635256482807     IErMin= 8 ErrMin= 7.54D-05
 ErrMax= 9.20D-05  0.00D+00 EMaxC= 1.00D-01 BMatC= 1.21D-06 BMatP= 5.33D-07
 IDIUse=1 WtCom= 1.00D+00 WtEn= 0.00D+00
 Coeff-Com:  0.314D+01-0.243D+01-0.154D+01-0.280D+00 0.158D+01-0.968D+00
 Coeff-Com:  0.470D+00 0.247D+01-0.331D+01-0.262D+01 0.449D+01
 Coeff:      0.314D+01-0.243D+01-0.154D+01-0.280D+00 0.158D+01-0.968D+00
 Coeff:      0.470D+00 0.247D+01-0.331D+01-0.262D+01 0.449D+01
 Gap=     0.121 Goal=   None    Shift=    0.000
 Gap=     0.113 Goal=   None    Shift=    0.000
 RMSDP=3.22D-04 MaxDP=4.09D-03 DE= 3.09D-06 OVMax= 2.06D-02

 Cycle  45  Pass 1  IDiag  1:
 E= -50.5633228625586     Delta-E=       -0.000000572545 Rises=F Damp=F
 DIIS: error= 3.52D-05 at cycle  45 NSaved=  12.
 NSaved=12 IEnMin= 1 EnMin= -50.5635256482807     IErMin=12 ErrMin= 3.52D-05
 ErrMax= 3.52D-05  0.00D+00 EMaxC= 1.00D-01 BMatC= 2.79D-07 BMatP= 5.33D-07
 IDIUse=1 WtCom= 1.00D+00 WtEn= 0.00D+00
 Coeff-Com:  0.794D+00-0.606D+00-0.849D-01-0.108D+00 0.200D+00-0.477D+00
 Coeff-Com:  0.200D+00-0.114D+00 0.309D+01-0.324D+01-0.413D-02 0.135D+01
 Coeff:      0.794D+00-0.606D+00-0.849D-01-0.108D+00 0.200D+00-0.477D+00
 Coeff:      0.200D+00-0.114D+00 0.309D+01-0.324D+01-0.413D-02 0.135D+01
 Gap=     0.121 Goal=   None    Shift=    0.000
 Gap=     0.113 Goal=   None    Shift=    0.000
 RMSDP=9.48D-05 MaxDP=1.01D-03 DE=-5.73D-07 OVMax= 4.97D-03

 Cycle  46  Pass 1  IDiag  1:
 E= -50.5633231853548     Delta-E=       -0.000000322796 Rises=F Damp=F
 DIIS: error= 4.03D-05 at cycle  46 NSaved=  13.
 NSaved=13 IEnMin= 1 EnMin= -50.5635256482807     IErMin=12 ErrMin= 3.52D-05
 ErrMax= 4.03D-05  0.00D+00 EMaxC= 1.00D-01 BMatC= 2.55D-07 BMatP= 2.79D-07
 IDIUse=1 WtCom= 1.00D+00 WtEn= 0.00D+00
 Coeff-Com:  0.268D+01-0.209D+01-0.135D+01-0.168D+00 0.110D+01-0.171D+00
 Coeff-Com:  0.821D+00-0.120D+01-0.121D+01 0.141D+01 0.554D+00-0.134D+01
 Coeff-Com:  0.197D+01
 Coeff:      0.268D+01-0.209D+01-0.135D+01-0.168D+00 0.110D+01-0.171D+00
 Coeff:      0.821D+00-0.120D+01-0.121D+01 0.141D+01 0.554D+00-0.134D+01
 Coeff:      0.197D+01
 Gap=     0.121 Goal=   None    Shift=    0.000
 Gap=     0.113 Goal=   None    Shift=    0.000
 RMSDP=8.67D-05 MaxDP=8.76D-04 DE=-3.23D-07 OVMax= 4.70D-03

 Cycle  47  Pass 1  IDiag  1:
 E= -50.5633234683590     Delta-E=       -0.000000283004 Rises=F Damp=F
 DIIS: error= 2.53D-05 at cycle  47 NSaved=  14.
 NSaved=14 IEnMin= 1 EnMin= -50.5635256482807     IErMin=14 ErrMin= 2.53D-05
 ErrMax= 2.53D-05  0.00D+00 EMaxC= 1.00D-01 BMatC= 1.11D-07 BMatP= 2.55D-07
 IDIUse=1 WtCom= 1.00D+00 WtEn= 0.00D+00
 Coeff-Com:  0.136D+01-0.101D+01-0.754D+00-0.219D+00 0.703D+00 0.360D-01
 Coeff-Com: -0.790D-01-0.943D-03 0.141D+00-0.434D+00 0.354D+00-0.616D-01
 Coeff-Com: -0.739D+00 0.170D+01
 Coeff:      0.136D+01-0.101D+01-0.754D+00-0.219D+00 0.703D+00 0.360D-01
 Coeff:     -0.790D-01-0.943D-03 0.141D+00-0.434D+00 0.354D+00-0.616D-01
 Coeff:     -0.739D+00 0.170D+01
 Gap=     0.121 Goal=   None    Shift=    0.000
 Gap=     0.113 Goal=   None    Shift=    0.000
 RMSDP=5.05D-05 MaxDP=5.50D-04 DE=-2.83D-07 OVMax= 2.96D-03

 Cycle  48  Pass 1  IDiag  1:
 E= -50.5633236314437     Delta-E=       -0.000000163085 Rises=F Damp=F
 DIIS: error= 1.14D-05 at cycle  48 NSaved=  15.
 NSaved=15 IEnMin= 1 EnMin= -50.5635256482807     IErMin=15 ErrMin= 1.14D-05
 ErrMax= 1.14D-05  0.00D+00 EMaxC= 1.00D-01 BMatC= 2.43D-08 BMatP= 1.11D-07
 IDIUse=1 WtCom= 1.00D+00 WtEn= 0.00D+00
 Coeff-Com: -0.542D+00 0.515D+00 0.175D+00 0.577D-01-0.307D+00 0.105D+00
 Coeff-Com: -0.690D-01-0.552D-01 0.808D+00-0.400D+00-0.454D+00 0.475D+00
 Coeff-Com: -0.184D+00-0.152D+01 0.239D+01
 Coeff:     -0.542D+00 0.515D+00 0.175D+00 0.577D-01-0.307D+00 0.105D+00
 Coeff:     -0.690D-01-0.552D-01 0.808D+00-0.400D+00-0.454D+00 0.475D+00
 Coeff:     -0.184D+00-0.152D+01 0.239D+01
 Gap=     0.121 Goal=   None    Shift=    0.000
 Gap=     0.113 Goal=   None    Shift=    0.000
 RMSDP=3.22D-05 MaxDP=3.03D-04 DE=-1.63D-07 OVMax= 1.56D-03

 Cycle  49  Pass 1  IDiag  1:
 E= -50.5633237292115     Delta-E=       -0.000000097768 Rises=F Damp=F
 DIIS: error= 8.79D-06 at cycle  49 NSaved=  16.
 NSaved=16 IEnMin= 1 EnMin= -50.5635256482807     IErMin=16 ErrMin= 8.79D-06
 ErrMax= 8.79D-06  0.00D+00 EMaxC= 1.00D-01 BMatC= 8.34D-09 BMatP= 2.43D-08
 IDIUse=1 WtCom= 1.00D+00 WtEn= 0.00D+00
 Coeff-Com:  0.308D+00-0.215D+00-0.195D+00-0.358D-01 0.126D+00-0.302D-01
 Coeff-Com:  0.334D+00-0.347D+00-0.277D-01 0.334D-01 0.163D-01-0.135D+00
 Coeff-Com:  0.455D+00 0.622D-01-0.124D+01 0.189D+01
 Coeff:      0.308D+00-0.215D+00-0.195D+00-0.358D-01 0.126D+00-0.302D-01
 Coeff:      0.334D+00-0.347D+00-0.277D-01 0.334D-01 0.163D-01-0.135D+00
 Coeff:      0.455D+00 0.622D-01-0.124D+01 0.189D+01
 Gap=     0.121 Goal=   None    Shift=    0.000
 Gap=     0.113 Goal=   None    Shift=    0.000
 RMSDP=1.70D-05 MaxDP=1.91D-04 DE=-9.78D-08 OVMax= 7.24D-04

 Cycle  50  Pass 1  IDiag  1:
 E= -50.5633237729140     Delta-E=       -0.000000043702 Rises=F Damp=F
 DIIS: error= 3.68D-06 at cycle  50 NSaved=  17.
 NSaved=17 IEnMin= 1 EnMin= -50.5635256482807     IErMin=17 ErrMin= 3.68D-06
 ErrMax= 3.68D-06  0.00D+00 EMaxC= 1.00D-01 BMatC= 1.72D-09 BMatP= 8.34D-09
 IDIUse=1 WtCom= 1.00D+00 WtEn= 0.00D+00
 Coeff-Com: -0.585D-01 0.484D-01 0.224D-01-0.119D-01-0.742D-02 0.599D-01
 Coeff-Com: -0.119D+00-0.300D-01 0.210D+00-0.415D-01-0.397D-01-0.514D-01
 Coeff-Com: -0.190D+00 0.461D+00-0.884D-01-0.135D+01 0.218D+01
 Coeff:     -0.585D-01 0.484D-01 0.224D-01-0.119D-01-0.742D-02 0.599D-01
 Coeff:     -0.119D+00-0.300D-01 0.210D+00-0.415D-01-0.397D-01-0.514D-01
 Coeff:     -0.190D+00 0.461D+00-0.884D-01-0.135D+01 0.218D+01
 Gap=     0.121 Goal=   None    Shift=    0.000
 Gap=     0.113 Goal=   None    Shift=    0.000
 RMSDP=1.22D-05 MaxDP=1.24D-04 DE=-4.37D-08 OVMax= 5.59D-04

 Cycle  51  Pass 1  IDiag  1:
 E= -50.5633237950641     Delta-E=       -0.000000022150 Rises=F Damp=F
 DIIS: error= 2.81D-06 at cycle  51 NSaved=  18.
 NSaved=18 IEnMin= 1 EnMin= -50.5635256482807     IErMin=18 ErrMin= 2.81D-06
 ErrMax= 2.81D-06  0.00D+00 EMaxC= 1.00D-01 BMatC= 6.41D-10 BMatP= 1.72D-09
 IDIUse=1 WtCom= 1.00D+00 WtEn= 0.00D+00
 Coeff-Com:  0.759D-01-0.601D-01-0.175D-01 0.422D-02 0.150D-01-0.605D-01
 Coeff-Com:  0.829D-01 0.975D-03-0.978D-01 0.306D-01-0.170D-01 0.126D+00
 Coeff-Com: -0.349D-01-0.284D+00 0.360D+00 0.513D+00-0.188D+01 0.225D+01
 Coeff:      0.759D-01-0.601D-01-0.175D-01 0.422D-02 0.150D-01-0.605D-01
 Coeff:      0.829D-01 0.975D-03-0.978D-01 0.306D-01-0.170D-01 0.126D+00
 Coeff:     -0.349D-01-0.284D+00 0.360D+00 0.513D+00-0.188D+01 0.225D+01
 Gap=     0.121 Goal=   None    Shift=    0.000
 Gap=     0.113 Goal=   None    Shift=    0.000
 RMSDP=1.06D-05 MaxDP=1.18D-04 DE=-2.22D-08 OVMax= 5.07D-04

 Cycle  52  Pass 1  IDiag  1:
 E= -50.5633238026291     Delta-E=       -0.000000007565 Rises=F Damp=F
 DIIS: error= 3.42D-06 at cycle  52 NSaved=  19.
 NSaved=19 IEnMin= 1 EnMin= -50.5635256482807     IErMin=18 ErrMin= 2.81D-06
 ErrMax= 3.42D-06  0.00D+00 EMaxC= 1.00D-01 BMatC= 1.64D-09 BMatP= 6.41D-10
 IDIUse=1 WtCom= 1.00D+00 WtEn= 0.00D+00
 Coeff-Com:  0.671D-01-0.472D-01-0.309D-01 0.203D-02 0.213D-01-0.251D-01
 Coeff-Com:  0.205D-01 0.127D-01-0.550D-01 0.611D-02 0.373D-01 0.167D-01
 Coeff-Com: -0.236D-01-0.428D-01 0.255D-01 0.259D+00-0.494D+00 0.161D+00
 Coeff-Com:  0.109D+01
 Coeff:      0.671D-01-0.472D-01-0.309D-01 0.203D-02 0.213D-01-0.251D-01
 Coeff:      0.205D-01 0.127D-01-0.550D-01 0.611D-02 0.373D-01 0.167D-01
 Coeff:     -0.236D-01-0.428D-01 0.255D-01 0.259D+00-0.494D+00 0.161D+00
 Coeff:      0.109D+01
 Gap=     0.121 Goal=   None    Shift=    0.000
 Gap=     0.113 Goal=   None    Shift=    0.000
 RMSDP=2.96D-06 MaxDP=4.78D-05 DE=-7.57D-09 OVMax= 2.44D-04

 Cycle  53  Pass 1  IDiag  1:
 E= -50.5633238045817     Delta-E=       -0.000000001953 Rises=F Damp=F
 DIIS: error= 2.32D-06 at cycle  53 NSaved=  20.
 NSaved=20 IEnMin= 1 EnMin= -50.5635256482807     IErMin=20 ErrMin= 2.32D-06
 ErrMax= 2.32D-06  0.00D+00 EMaxC= 1.00D-01 BMatC= 9.53D-10 BMatP= 6.41D-10
 IDIUse=1 WtCom= 1.00D+00 WtEn= 0.00D+00
 Coeff-Com:  0.211D-01-0.207D-01 0.347D-03-0.735D-02 0.176D-01-0.103D-01
 Coeff-Com: -0.172D-01 0.183D-01-0.173D-01 0.792D-02 0.133D-01 0.398D-02
 Coeff-Com: -0.520D-01 0.720D-01 0.248D-01-0.222D+00 0.225D+00 0.170D+00
 Coeff-Com: -0.198D+01 0.276D+01
 Coeff:      0.211D-01-0.207D-01 0.347D-03-0.735D-02 0.176D-01-0.103D-01
 Coeff:     -0.172D-01 0.183D-01-0.173D-01 0.792D-02 0.133D-01 0.398D-02
 Coeff:     -0.520D-01 0.720D-01 0.248D-01-0.222D+00 0.225D+00 0.170D+00
 Coeff:     -0.198D+01 0.276D+01
 Gap=     0.121 Goal=   None    Shift=    0.000
 Gap=     0.113 Goal=   None    Shift=    0.000
 RMSDP=5.00D-06 MaxDP=8.40D-05 DE=-1.95D-09 OVMax= 4.25D-04

 Cycle  54  Pass 1  IDiag  1:
 E= -50.5633238074728     Delta-E=       -0.000000002891 Rises=F Damp=F
 DIIS: error= 1.51D-06 at cycle  54 NSaved=  20.
 NSaved=20 IEnMin= 1 EnMin= -50.5635256482807     IErMin=20 ErrMin= 1.51D-06
 ErrMax= 1.51D-06  0.00D+00 EMaxC= 1.00D-01 BMatC= 2.40D-10 BMatP= 6.41D-10
 IDIUse=1 WtCom= 1.00D+00 WtEn= 0.00D+00
 Coeff-Com: -0.470D-01 0.296D-01 0.321D-01 0.145D-01-0.292D-01-0.999D-02
 Coeff-Com: -0.308D-02 0.296D-01-0.144D-01-0.101D-01 0.270D-01-0.794D-02
 Coeff-Com: -0.706D-01 0.881D-01 0.299D-01-0.174D+00 0.158D+00 0.143D+00
 Coeff-Com: -0.107D+01 0.189D+01
 Coeff:     -0.470D-01 0.296D-01 0.321D-01 0.145D-01-0.292D-01-0.999D-02
 Coeff:     -0.308D-02 0.296D-01-0.144D-01-0.101D-01 0.270D-01-0.794D-02
 Coeff:     -0.706D-01 0.881D-01 0.299D-01-0.174D+00 0.158D+00 0.143D+00
 Coeff:     -0.107D+01 0.189D+01
 Gap=     0.121 Goal=   None    Shift=    0.000
 Gap=     0.113 Goal=   None    Shift=    0.000
 RMSDP=2.49D-06 MaxDP=3.07D-05 DE=-2.89D-09 OVMax= 1.41D-04

 Cycle  55  Pass 1  IDiag  1:
 E= -50.5633238093726     Delta-E=       -0.000000001900 Rises=F Damp=F
 DIIS: error= 1.35D-06 at cycle  55 NSaved=  20.
 NSaved=20 IEnMin= 1 EnMin= -50.5635256482807     IErMin=20 ErrMin= 1.35D-06
 ErrMax= 1.35D-06  0.00D+00 EMaxC= 1.00D-01 BMatC= 1.43D-10 BMatP= 2.40D-10
 IDIUse=1 WtCom= 1.00D+00 WtEn= 0.00D+00
 Coeff-Com: -0.360D-01 0.287D-01 0.131D-01-0.231D-02-0.895D-02 0.107D-01
 Coeff-Com: -0.130D-01 0.176D-01 0.354D-01-0.465D-01 0.509D-02-0.435D-01
 Coeff-Com:  0.695D-01-0.359D-01 0.438D-01-0.218D+00 0.858D+00 0.252D+00
 Coeff-Com: -0.273D+01 0.280D+01
 Coeff:     -0.360D-01 0.287D-01 0.131D-01-0.231D-02-0.895D-02 0.107D-01
 Coeff:     -0.130D-01 0.176D-01 0.354D-01-0.465D-01 0.509D-02-0.435D-01
 Coeff:      0.695D-01-0.359D-01 0.438D-01-0.218D+00 0.858D+00 0.252D+00
 Coeff:     -0.273D+01 0.280D+01
 Gap=     0.121 Goal=   None    Shift=    0.000
 Gap=     0.113 Goal=   None    Shift=    0.000
 RMSDP=5.22D-06 MaxDP=5.27D-05 DE=-1.90D-09 OVMax= 2.50D-04

 Cycle  56  Pass 1  IDiag  1:
 E= -50.5633238105978     Delta-E=       -0.000000001225 Rises=F Damp=F
 DIIS: error= 1.18D-06 at cycle  56 NSaved=  20.
 NSaved=20 IEnMin= 1 EnMin= -50.5635256482807     IErMin=20 ErrMin= 1.18D-06
 ErrMax= 1.18D-06  0.00D+00 EMaxC= 1.00D-01 BMatC= 1.60D-10 BMatP= 1.43D-10
 IDIUse=1 WtCom= 1.00D+00 WtEn= 0.00D+00
 Coeff-Com: -0.553D-01 0.419D-01 0.316D-01 0.498D-02-0.249D-01-0.505D-02
 Coeff-Com:  0.115D-02 0.203D-01-0.656D-01 0.521D-01 0.788D-03 0.234D-01
 Coeff-Com:  0.578D-02-0.109D+00 0.166D+00-0.825D-01-0.770D+00 0.161D+01
 Coeff-Com: -0.284D+01 0.300D+01
 Coeff:     -0.553D-01 0.419D-01 0.316D-01 0.498D-02-0.249D-01-0.505D-02
 Coeff:      0.115D-02 0.203D-01-0.656D-01 0.521D-01 0.788D-03 0.234D-01
 Coeff:      0.578D-02-0.109D+00 0.166D+00-0.825D-01-0.770D+00 0.161D+01
 Coeff:     -0.284D+01 0.300D+01
 Gap=     0.121 Goal=   None    Shift=    0.000
 Gap=     0.113 Goal=   None    Shift=    0.000
 RMSDP=6.13D-06 MaxDP=6.67D-05 DE=-1.23D-09 OVMax= 3.13D-04

 Cycle  57  Pass 1  IDiag  1:
 E= -50.5633238125567     Delta-E=       -0.000000001959 Rises=F Damp=F
 DIIS: error= 5.04D-07 at cycle  57 NSaved=  20.
 NSaved=20 IEnMin= 1 EnMin= -50.5635256482807     IErMin=20 ErrMin= 5.04D-07
 ErrMax= 5.04D-07  0.00D+00 EMaxC= 1.00D-01 BMatC= 3.57D-11 BMatP= 1.43D-10
 IDIUse=1 WtCom= 1.00D+00 WtEn= 0.00D+00
 Coeff-Com: -0.208D-01 0.152D-01 0.124D-01 0.475D-02-0.145D-01-0.756D-03
 Coeff-Com:  0.761D-02-0.781D-02 0.131D-01-0.636D-02-0.446D-01 0.739D-01
 Coeff-Com:  0.265D-01-0.111D+00 0.168D+00-0.303D+00 0.688D+00-0.226D+00
 Coeff-Com: -0.141D+01 0.214D+01
 Coeff:     -0.208D-01 0.152D-01 0.124D-01 0.475D-02-0.145D-01-0.756D-03
 Coeff:      0.761D-02-0.781D-02 0.131D-01-0.636D-02-0.446D-01 0.739D-01
 Coeff:      0.265D-01-0.111D+00 0.168D+00-0.303D+00 0.688D+00-0.226D+00
 Coeff:     -0.141D+01 0.214D+01
 Gap=     0.121 Goal=   None    Shift=    0.000
 Gap=     0.113 Goal=   None    Shift=    0.000
 RMSDP=4.15D-06 MaxDP=4.72D-05 DE=-1.96D-09 OVMax= 1.96D-04

 Cycle  58  Pass 1  IDiag  1:
 E= -50.5633238131549     Delta-E=       -0.000000000598 Rises=F Damp=F
 DIIS: error= 2.26D-07 at cycle  58 NSaved=  20.
 NSaved=20 IEnMin= 1 EnMin= -50.5635256482807     IErMin=20 ErrMin= 2.26D-07
 ErrMax= 2.26D-07  0.00D+00 EMaxC= 1.00D-01 BMatC= 5.89D-12 BMatP= 3.57D-11
 IDIUse=1 WtCom= 1.00D+00 WtEn= 0.00D+00
 Coeff-Com: -0.233D-02 0.184D-03 0.112D-02 0.121D-02 0.592D-03 0.898D-03
 Coeff-Com: -0.571D-02 0.570D-02-0.268D-02 0.150D-03 0.314D-02-0.169D-02
 Coeff-Com: -0.310D-01 0.666D-01 0.610D-01-0.254D+00 0.445D+00-0.246D+00
 Coeff-Com: -0.361D+00 0.132D+01
 Coeff:     -0.233D-02 0.184D-03 0.112D-02 0.121D-02 0.592D-03 0.898D-03
 Coeff:     -0.571D-02 0.570D-02-0.268D-02 0.150D-03 0.314D-02-0.169D-02
 Coeff:     -0.310D-01 0.666D-01 0.610D-01-0.254D+00 0.445D+00-0.246D+00
 Coeff:     -0.361D+00 0.132D+01
 Gap=     0.121 Goal=   None    Shift=    0.000
 Gap=     0.113 Goal=   None    Shift=    0.000
 RMSDP=8.62D-07 MaxDP=9.18D-06 DE=-5.98D-10 OVMax= 4.16D-05

 Cycle  59  Pass 1  IDiag  1:
 E= -50.5633238131664     Delta-E=       -0.000000000011 Rises=F Damp=F
 DIIS: error= 2.15D-07 at cycle  59 NSaved=  20.
 NSaved=20 IEnMin= 1 EnMin= -50.5635256482807     IErMin=20 ErrMin= 2.15D-07
 ErrMax= 2.15D-07  0.00D+00 EMaxC= 1.00D-01 BMatC= 4.52D-12 BMatP= 5.89D-12
 IDIUse=1 WtCom= 1.00D+00 WtEn= 0.00D+00
 Coeff-Com: -0.669D-03 0.123D-02-0.117D-03 0.526D-03-0.106D-02-0.603D-03
 Coeff-Com:  0.976D-03 0.371D-03-0.376D-02 0.330D-02 0.393D-02-0.936D-02
 Coeff-Com:  0.718D-02 0.408D-01-0.191D-02-0.912D-01 0.192D-01 0.108D+00
 Coeff-Com: -0.436D+00 0.136D+01
 Coeff:     -0.669D-03 0.123D-02-0.117D-03 0.526D-03-0.106D-02-0.603D-03
 Coeff:      0.976D-03 0.371D-03-0.376D-02 0.330D-02 0.393D-02-0.936D-02
 Coeff:      0.718D-02 0.408D-01-0.191D-02-0.912D-01 0.192D-01 0.108D+00
 Coeff:     -0.436D+00 0.136D+01
 Gap=     0.121 Goal=   None    Shift=    0.000
 Gap=     0.113 Goal=   None    Shift=    0.000
 RMSDP=5.45D-07 MaxDP=7.51D-06 DE=-1.15D-11 OVMax= 3.74D-05

 Cycle  60  Pass 1  IDiag  1:
 E= -50.5633238131710     Delta-E=       -0.000000000005 Rises=F Damp=F
 DIIS: error= 4.80D-08 at cycle  60 NSaved=  20.
 NSaved=20 IEnMin= 1 EnMin= -50.5635256482807     IErMin=20 ErrMin= 4.80D-08
 ErrMax= 4.80D-08  0.00D+00 EMaxC= 1.00D-01 BMatC= 3.58D-13 BMatP= 4.52D-12
 IDIUse=1 WtCom= 1.00D+00 WtEn= 0.00D+00
 Coeff-Com: -0.101D-02 0.704D-03 0.689D-03 0.147D-03-0.591D-03-0.101D-03
 Coeff-Com: -0.916D-04 0.580D-03 0.498D-03-0.706D-03 0.820D-02-0.176D-01
 Coeff-Com: -0.285D-01 0.422D-01-0.402D-01 0.320D-01 0.546D-01-0.204D+00
 Coeff-Com: -0.132D+00 0.128D+01
 Coeff:     -0.101D-02 0.704D-03 0.689D-03 0.147D-03-0.591D-03-0.101D-03
 Coeff:     -0.916D-04 0.580D-03 0.498D-03-0.706D-03 0.820D-02-0.176D-01
 Coeff:     -0.285D-01 0.422D-01-0.402D-01 0.320D-01 0.546D-01-0.204D+00
 Coeff:     -0.132D+00 0.128D+01
 Gap=     0.121 Goal=   None    Shift=    0.000
 Gap=     0.113 Goal=   None    Shift=    0.000
 RMSDP=1.50D-07 MaxDP=2.27D-06 DE=-4.65D-12 OVMax= 1.19D-05

 Cycle  61  Pass 1  IDiag  1:
 E= -50.5633238131711     Delta-E=       -0.000000000000 Rises=F Damp=F
 DIIS: error= 9.55D-09 at cycle  61 NSaved=  20.
 NSaved=20 IEnMin= 1 EnMin= -50.5635256482807     IErMin=20 ErrMin= 9.55D-09
 ErrMax= 9.55D-09  0.00D+00 EMaxC= 1.00D-01 BMatC= 2.00D-14 BMatP= 3.58D-13
 IDIUse=1 WtCom= 1.00D+00 WtEn= 0.00D+00
 Large coefficients: NSaved= 20 BigCof=    0.00 CofMax=   10.00 Det=-8.86D-15
 Inversion failed.  Reducing to 19 matrices.
 Large coefficients: NSaved= 19 BigCof=    0.00 CofMax=   10.00 Det=-9.12D-15
 Inversion failed.  Reducing to 18 matrices.
 Coeff-Com:  0.558D-03-0.342D-03-0.325D-03-0.529D-04 0.208D-03-0.811D-04
 Coeff-Com:  0.192D-03-0.181D-03-0.585D-03 0.641D-03-0.119D-02 0.333D-02
 Coeff-Com: -0.400D-02 0.335D-02-0.223D-01 0.465D-01-0.125D+00 0.110D+01
 Coeff:      0.558D-03-0.342D-03-0.325D-03-0.529D-04 0.208D-03-0.811D-04
 Coeff:      0.192D-03-0.181D-03-0.585D-03 0.641D-03-0.119D-02 0.333D-02
 Coeff:     -0.400D-02 0.335D-02-0.223D-01 0.465D-01-0.125D+00 0.110D+01
 Gap=     0.121 Goal=   None    Shift=    0.000
 Gap=     0.113 Goal=   None    Shift=    0.000
 RMSDP=4.29D-08 MaxDP=6.84D-07 DE=-8.53D-14 OVMax= 3.86D-06

 Cycle  62  Pass 1  IDiag  1:
 E= -50.5633238131710     Delta-E=        0.000000000000 Rises=F Damp=F
 DIIS: error= 1.42D-08 at cycle  62 NSaved=  19.
 NSaved=19 IEnMin= 1 EnMin= -50.5635256482807     IErMin=18 ErrMin= 9.55D-09
 ErrMax= 1.42D-08  0.00D+00 EMaxC= 1.00D-01 BMatC= 3.82D-14 BMatP= 2.00D-14
 IDIUse=1 WtCom= 1.00D+00 WtEn= 0.00D+00
 Large coefficients: NSaved= 19 BigCof=    0.00 CofMax=   10.00 Det=-8.39D-16
 Inversion failed.  Reducing to 18 matrices.
 Large coefficients: NSaved= 18 BigCof=    0.00 CofMax=   10.00 Det=-8.42D-16
 Inversion failed.  Reducing to 17 matrices.
 Large coefficients: NSaved= 17 BigCof=    0.00 CofMax=   10.00 Det=-1.14D-15
 Inversion failed.  Reducing to 16 matrices.
 Large coefficients: NSaved= 16 BigCof=    0.00 CofMax=   10.00 Det=-1.20D-15
 Inversion failed.  Reducing to 15 matrices.
 Coeff-Com:  0.102D-03-0.861D-04-0.289D-04 0.328D-04-0.300D-05-0.250D-04
 Coeff-Com: -0.204D-04-0.392D-04 0.231D-03-0.157D-03 0.221D-02 0.318D-01
 Coeff-Com: -0.712D-01-0.423D+00 0.146D+01
 Coeff:      0.102D-03-0.861D-04-0.289D-04 0.328D-04-0.300D-05-0.250D-04
 Coeff:     -0.204D-04-0.392D-04 0.231D-03-0.157D-03 0.221D-02 0.318D-01
 Coeff:     -0.712D-01-0.423D+00 0.146D+01
 Gap=     0.121 Goal=   None    Shift=    0.000
 Gap=     0.113 Goal=   None    Shift=    0.000
 RMSDP=4.00D-08 MaxDP=5.79D-07 DE= 1.07D-13 OVMax= 2.90D-06

 Cycle  63  Pass 1  IDiag  1:
 E= -50.5633238131710     Delta-E=       -0.000000000000 Rises=F Damp=F
 DIIS: error= 3.77D-09 at cycle  63 NSaved=  16.
 NSaved=16 IEnMin= 1 EnMin= -50.5635256482807     IErMin=16 ErrMin= 3.77D-09
 ErrMax= 3.77D-09  0.00D+00 EMaxC= 1.00D-01 BMatC= 2.29D-15 BMatP= 2.00D-14
 IDIUse=1 WtCom= 1.00D+00 WtEn= 0.00D+00
 Large coefficients: NSaved= 16 BigCof=    0.00 CofMax=   10.00 Det=-1.31D-16
 Inversion failed.  Reducing to 15 matrices.
 Coeff-Com:  0.292D-03-0.250D-03-0.145D-03-0.463D-04 0.173D-03 0.725D-05
 Coeff-Com:  0.966D-05-0.413D-04 0.894D-04-0.113D-03-0.460D-01 0.142D+00
 Coeff-Com:  0.188D+00-0.148D+01 0.220D+01
 Coeff:      0.292D-03-0.250D-03-0.145D-03-0.463D-04 0.173D-03 0.725D-05
 Coeff:      0.966D-05-0.413D-04 0.894D-04-0.113D-03-0.460D-01 0.142D+00
 Coeff:      0.188D+00-0.148D+01 0.220D+01
 Gap=     0.121 Goal=   None    Shift=    0.000
 Gap=     0.113 Goal=   None    Shift=    0.000
 RMSDP=1.14D-08 MaxDP=1.33D-07 DE=-3.55D-14 OVMax= 7.27D-07

 Cycle  64  Pass 1  IDiag  1:
 E= -50.5633238131710     Delta-E=       -0.000000000000 Rises=F Damp=F
 DIIS: error= 1.58D-09 at cycle  64 NSaved=  16.
 NSaved=16 IEnMin= 1 EnMin= -50.5635256482807     IErMin=16 ErrMin= 1.58D-09
 ErrMax= 1.58D-09  0.00D+00 EMaxC= 1.00D-01 BMatC= 4.67D-16 BMatP= 2.29D-15
 IDIUse=1 WtCom= 1.00D+00 WtEn= 0.00D+00
 Large coefficients: NSaved= 16 BigCof=    0.00 CofMax=   10.00 Det=-4.79D-17
 Inversion failed.  Reducing to 15 matrices.
 Coeff-Com:  0.457D-04-0.168D-04-0.334D-04-0.164D-04 0.187D-04-0.929D-06
 Coeff-Com:  0.219D-04-0.281D-04 0.132D-04-0.114D-05 0.602D-03-0.370D-01
 Coeff-Com:  0.341D-01-0.456D+00 0.146D+01
 Coeff:      0.457D-04-0.168D-04-0.334D-04-0.164D-04 0.187D-04-0.929D-06
 Coeff:      0.219D-04-0.281D-04 0.132D-04-0.114D-05 0.602D-03-0.370D-01
 Coeff:      0.341D-01-0.456D+00 0.146D+01
 Gap=     0.121 Goal=   None    Shift=    0.000
 Gap=     0.113 Goal=   None    Shift=    0.000
 RMSDP=2.92D-09 MaxDP=2.31D-08 DE=-7.11D-15 OVMax= 1.12D-07

 SCF Done:  E(UM062X) =  -50.5633238132     A.U. after   64 cycles
            NFock= 64  Conv=0.29D-08     -V/T= 2.0065
 <Sx>= 0.0000 <Sy>= 0.0000 <Sz>= 0.5000 <S**2>= 1.4063 S= 0.7870
 <L.S>=  0.00000000000    
 KE= 5.023496839775D+01 PE=-1.396059834803D+02 EE= 2.837514013548D+01
 Annihilation of the first spin contaminant:
 S**2 before annihilation     1.4063,   after     0.8595
 Leave Link  502 at Mon Apr 21 21:28:22 2025, MaxMem=   536870912 cpu:             175.4 elap:              22.8
 (Enter /home/szhao/Apps/g16/l601.exe)
 Copying SCF densities to generalized density rwf, IOpCl= 1 IROHF=0.

 **********************************************************************

            Population analysis using the SCF density.

 **********************************************************************

 Alpha  occ. eigenvalues --   -6.90758  -6.89619  -0.34392  -0.33104  -0.13775
 Alpha  occ. eigenvalues --   -0.02428  -0.00334
 Alpha virt. eigenvalues --    0.11788   0.13553   0.13964   0.15209   0.16396
 Alpha virt. eigenvalues --    0.20759   0.21800   0.22079   0.22290   0.22756
 Alpha virt. eigenvalues --    0.24623   0.35480   0.38203   0.53242   0.57119
 Alpha virt. eigenvalues --    0.58338   0.59594   0.60346   0.60935   0.68337
 Alpha virt. eigenvalues --    0.70673   0.75990   0.79959   0.97999   1.03581
 Alpha virt. eigenvalues --    1.05425   1.06142   1.06993   1.08003   1.09527
 Alpha virt. eigenvalues --    1.10839   1.26107   1.48194   1.82243   1.83606
 Alpha virt. eigenvalues --    1.84206   1.84552   2.03019   2.04291   2.05151
 Alpha virt. eigenvalues --    2.06285   2.08671   2.16154   2.51337   2.54754
 Alpha virt. eigenvalues --    2.79043   2.79777  14.41101  14.42855
  Beta  occ. eigenvalues --   -6.90589  -6.88815  -0.33633  -0.30711  -0.10343
  Beta  occ. eigenvalues --   -0.00177
  Beta virt. eigenvalues --    0.11118   0.12654   0.13329   0.14392   0.14569
  Beta virt. eigenvalues --    0.16220   0.20451   0.21713   0.22137   0.23280
  Beta virt. eigenvalues --    0.23435   0.24695   0.35991   0.38525   0.53756
  Beta virt. eigenvalues --    0.56205   0.58792   0.59795   0.60244   0.61330
  Beta virt. eigenvalues --    0.68465   0.71597   0.75874   0.80857   0.99204
  Beta virt. eigenvalues --    1.04853   1.06162   1.06894   1.09500   1.09758
  Beta virt. eigenvalues --    1.10017   1.11363   1.26127   1.47798   1.82506
  Beta virt. eigenvalues --    1.83511   1.84580   1.85781   2.03485   2.05047
  Beta virt. eigenvalues --    2.06767   2.08798   2.09655   2.17322   2.51791
  Beta virt. eigenvalues --    2.58705   2.79292   2.81132  14.41200  14.44432
          Condensed to atoms (all electrons):
               1          2          3          4
     1  B    6.021047  -0.683577   0.132254   0.075924
     2  B   -0.683577   5.944125   0.061548   0.030875
     3  H    0.132254   0.061548   0.844729  -0.000317
     4  H    0.075924   0.030875  -0.000317   0.956683
          Atomic-Atomic Spin Densities.
               1          2          3          4
     1  B    1.764750  -0.521417  -0.097659   0.040759
     2  B   -0.521417   0.276307   0.037081  -0.073822
     3  H   -0.097659   0.037081   0.104641  -0.000177
     4  H    0.040759  -0.073822  -0.000177   0.084772
 Mulliken charges and spin densities:
               1          2
     1  B   -0.545648   1.186433
     2  B   -0.352972  -0.281850
     3  H   -0.038214   0.043886
     4  H   -0.063166   0.051531
 Sum of Mulliken charges =  -1.00000   1.00000
 Mulliken charges and spin densities with hydrogens summed into heavy atoms:
               1          2
     1  B   -0.583862   1.230319
     2  B   -0.416138  -0.230319
 Electronic spatial extent (au):  <R**2>=            177.9183
 Charge=             -1.0000 electrons
 Dipole moment (field-independent basis, Debye):
    X=              0.2794    Y=              0.0913    Z=             -0.3013  Tot=              0.4210
 Quadrupole moment (field-independent basis, Debye-Ang):
   XX=            -32.0179   YY=            -26.3230   ZZ=            -22.5186
   XY=              1.3205   XZ=             -0.2937   YZ=             -1.5533
 Traceless Quadrupole moment (field-independent basis, Debye-Ang):
   XX=             -5.0648   YY=              0.6302   ZZ=              4.4346
   XY=              1.3205   XZ=             -0.2937   YZ=             -1.5533
 Octapole moment (field-independent basis, Debye-Ang**2):
  XXX=              3.0808  YYY=             -0.7026  ZZZ=              0.4676  XYY=             -0.7016
  XXY=              0.4468  XXZ=              1.3173  XZZ=              1.0006  YZZ=             -0.3234
  YYZ=              0.2904  XYZ=              4.8431
 Hexadecapole moment (field-independent basis, Debye-Ang**3):
 XXXX=           -414.6351 YYYY=            -97.4116 ZZZZ=            -66.5845 XXXY=             -8.2200
 XXXZ=             11.5344 YYYX=              2.7235 YYYZ=             -4.5703 ZZZX=              0.6015
 ZZZY=             -4.5764 XXYY=            -82.7162 XXZZ=            -71.5655 YYZZ=            -27.3549
 XXYZ=             -3.3958 YYXZ=              0.4121 ZZXY=              0.7604
 N-N= 1.043255113392D+01 E-N=-1.396059834770D+02  KE= 5.023496839775D+01
                          Isotropic Fermi Contact Couplings
        Atom                 a.u.       MegaHertz       Gauss      10(-4) cm-1
     1  B(11)              0.40372     579.07930     206.62989     193.16006
     2  B(11)              0.16442     235.83651      84.15233      78.66659
     3  H(1)               0.01999      89.35462      31.88395      29.80549
     4  H(1)               0.01513      67.62580      24.13057      22.55754
 --------------------------------------------------------
       Center         ----  Spin Dipole Couplings  ----
                      3XX-RR        3YY-RR        3ZZ-RR
 --------------------------------------------------------
     1   Atom       -0.108885      0.078184      0.030701
     2   Atom        0.086830     -0.357470      0.270640
     3   Atom        0.039522     -0.018091     -0.021431
     4   Atom       -0.001200     -0.019090      0.020290
 --------------------------------------------------------
                        XY            XZ            YZ
 --------------------------------------------------------
     1   Atom       -0.027095     -0.001323      0.333712
     2   Atom       -0.063820     -0.179934      0.038315
     3   Atom        0.004324     -0.000137      0.022302
     4   Atom       -0.005115     -0.005562      0.003952
 --------------------------------------------------------


 ---------------------------------------------------------------------------------
              Anisotropic Spin Dipole Couplings in Principal Axis System
 ---------------------------------------------------------------------------------

       Atom             a.u.   MegaHertz   Gauss  10(-4) cm-1        Axes

              Baa    -0.2819   -48.264   -17.222   -16.099 -0.1010 -0.6803  0.7259
     1 B(11)  Bbb    -0.1080   -18.486    -6.596    -6.166  0.9940 -0.0385  0.1022
              Bcc     0.3899    66.750    23.818    22.265 -0.0416  0.7319  0.6802
 
              Baa    -0.3667   -62.793   -22.406   -20.945  0.1304  0.9912 -0.0228
     2 B(11)  Bbb    -0.0199    -3.409    -1.216    -1.137  0.8402 -0.0983  0.5333
              Bcc     0.3867    66.201    23.622    22.082 -0.5264  0.0887  0.8456
 
              Baa    -0.0422   -22.536    -8.042    -7.517  0.0373 -0.6816  0.7308
     3 H(1)   Bbb     0.0023     1.254     0.447     0.418 -0.0820  0.7267  0.6820
              Bcc     0.0399    21.283     7.594     7.099  0.9959  0.0854  0.0288
 
              Baa    -0.0206   -10.989    -3.921    -3.666  0.2380  0.9693 -0.0613
     4 H(1)   Bbb    -0.0017    -0.894    -0.319    -0.298  0.9374 -0.2128  0.2756
              Bcc     0.0223    11.883     4.240     3.964 -0.2541  0.1231  0.9593
 

 ---------------------------------------------------------------------------------

 No NMR shielding tensors so no spin-rotation constants.
 Leave Link  601 at Mon Apr 21 21:28:23 2025, MaxMem=   536870912 cpu:               1.9 elap:               0.3
 (Enter /home/szhao/Apps/g16/l701.exe)
 ... and contract with generalized density number  0.
 Compute integral first derivatives.
 Leave Link  701 at Mon Apr 21 21:28:23 2025, MaxMem=   536870912 cpu:               1.8 elap:               0.3
 (Enter /home/szhao/Apps/g16/l702.exe)
 L702 exits ... SP integral derivatives will be done elsewhere.
 Leave Link  702 at Mon Apr 21 21:28:23 2025, MaxMem=   536870912 cpu:               0.6 elap:               0.1
 (Enter /home/szhao/Apps/g16/l703.exe)
 Integral derivatives from FoFJK, PRISM(SPDF).
 Compute integral first derivatives, UseDBF=F ICtDFT=           0.
 Calling FoFJK, ICntrl=      2127 FMM=F ISym2X=0 I1Cent= 0 IOpClX= 1 NMat=1 NMatS=1 NMatT=0.
 FoFJK:  IHMeth= 1 ICntrl=    2127 DoSepK=F KAlg= 0 I1Cent=           0 FoldK=F
 IRaf=         0 NMat=       1 IRICut=       1 DoRegI=T DoRafI=F ISym2E= 0 IDoP0=0 IntGTp=1.
 FoFCou: FMM=F IPFlag=           0 FMFlag=      100000 FMFlg1=         800
         NFxFlg=           0 DoJE=F BraDBF=F KetDBF=F FulRan=T
         wScrn=  0.000000 ICntrl=      2127 IOpCl=  1 I1Cent=           0 NGrid=           0
         NMat0=    1 NMatS0=      1 NMatT0=    0 NMatD0=    1 NMtDS0=    0 NMtDT0=    0
 Symmetry not used in FoFCou.
 Leave Link  703 at Mon Apr 21 21:28:24 2025, MaxMem=   536870912 cpu:               6.0 elap:               0.8
 (Enter /home/szhao/Apps/g16/l716.exe)
 Dipole        = 1.09936759D-01 3.59015425D-02-1.18546318D-01
 -------------------------------------------------------------------
 Center     Atomic                   Forces (Hartrees/Bohr)
 Number     Number              X              Y              Z
 -------------------------------------------------------------------
      1        5          -0.000000000   -0.000000000   -0.000000000
[...]
 Gap=     0.161 Goal=   None    Shift=    0.000
 RMSDP=1.67D-08 MaxDP=1.64D-07 DE=-1.10D-12 OVMax= 1.20D-06

 Cycle  15  Pass 1  IDiag  1:
 E= -50.6218864091405     Delta-E=       -0.000000000000 Rises=F Damp=F
 DIIS: error= 1.04D-08 at cycle  15 NSaved=  15.
 NSaved=15 IEnMin=15 EnMin= -50.6218864091405     IErMin=15 ErrMin= 1.04D-08
 ErrMax= 1.04D-08  0.00D+00 EMaxC= 1.00D-01 BMatC= 1.00D-14 BMatP= 2.75D-14
 IDIUse=1 WtCom= 1.00D+00 WtEn= 0.00D+00
 Coeff-Com: -0.673D-04 0.128D-02-0.244D-02-0.488D-02 0.140D-01 0.221D-02
 Coeff-Com: -0.386D-01 0.659D-02 0.812D-01-0.104D+00-0.903D-01 0.342D+00
 Coeff-Com: -0.390D+00-0.492D+00 0.168D+01
 Coeff:     -0.673D-04 0.128D-02-0.244D-02-0.488D-02 0.140D-01 0.221D-02
 Coeff:     -0.386D-01 0.659D-02 0.812D-01-0.104D+00-0.903D-01 0.342D+00
 Coeff:     -0.390D+00-0.492D+00 0.168D+01
 Gap=     0.142 Goal=   None    Shift=    0.000
 Gap=     0.161 Goal=   None    Shift=    0.000
 RMSDP=9.97D-09 MaxDP=1.04D-07 DE=-2.20D-13 OVMax= 5.90D-07

 SCF Done:  E(UM062X) =  -50.6218864091     A.U. after   15 cycles
            NFock= 15  Conv=0.10D-07     -V/T= 2.0071
 <Sx>= 0.0000 <Sy>= 0.0000 <Sz>= 0.5000 <S**2>= 0.7952 S= 0.5224
 <L.S>=  0.00000000000    
 KE= 5.026426324405D+01 PE=-1.405389809725D+02 EE= 2.882489723407D+01
 Annihilation of the first spin contaminant:
 S**2 before annihilation     0.7952,   after     0.7505
 Leave Link  502 at Mon Apr 21 21:31:09 2025, MaxMem=   536870912 cpu:              42.4 elap:               5.5
 (Enter /home/szhao/Apps/g16/l701.exe)
 ... and contract with generalized density number  0.
 Compute integral first derivatives.
 Leave Link  701 at Mon Apr 21 21:31:09 2025, MaxMem=   536870912 cpu:               1.4 elap:               0.3
 (Enter /home/szhao/Apps/g16/l702.exe)
 L702 exits ... SP integral derivatives will be done elsewhere.
 Leave Link  702 at Mon Apr 21 21:31:09 2025, MaxMem=   536870912 cpu:               0.4 elap:               0.1
 (Enter /home/szhao/Apps/g16/l703.exe)
 Integral derivatives from FoFJK, PRISM(SPDF).
 Compute integral first derivatives, UseDBF=F ICtDFT=           0.
 Calling FoFJK, ICntrl=      2127 FMM=F ISym2X=0 I1Cent= 0 IOpClX= 1 NMat=1 NMatS=1 NMatT=0.
 FoFJK:  IHMeth= 1 ICntrl=    2127 DoSepK=F KAlg= 0 I1Cent=           0 FoldK=F
 IRaf=         0 NMat=       1 IRICut=       1 DoRegI=T DoRafI=F ISym2E= 0 IDoP0=0 IntGTp=1.
 FoFCou: FMM=F IPFlag=           0 FMFlag=      100000 FMFlg1=         800
         NFxFlg=           0 DoJE=F BraDBF=F KetDBF=F FulRan=T
         wScrn=  0.000000 ICntrl=      2127 IOpCl=  1 I1Cent=           0 NGrid=           0
         NMat0=    1 NMatS0=      1 NMatT0=    0 NMatD0=    1 NMtDS0=    0 NMtDT0=    0
 Symmetry not used in FoFCou.
 Leave Link  703 at Mon Apr 21 21:31:10 2025, MaxMem=   536870912 cpu:               5.6 elap:               0.7
 (Enter /home/szhao/Apps/g16/l716.exe)
 Dipole        = 1.51848892D-04-9.89869424D-02-6.06492480D-01
 -------------------------------------------------------------------
 Center     Atomic                   Forces (Hartrees/Bohr)
 Number     Number              X              Y              Z
 -------------------------------------------------------------------
      1        5          -0.000000000   -0.000000000   -0.000000000
      2        5          -0.000000000   -0.000000000   -0.000000000
      3        1          -0.000000437    0.000002734    0.000001481
      4        1           0.000002212    0.000002095    0.000002922
 -------------------------------------------------------------------
 Cartesian Forces:  Max     0.000002922 RMS     0.000001519
 Leave Link  716 at Mon Apr 21 21:31:11 2025, MaxMem=   536870912 cpu:               0.8 elap:               0.1
 (Enter /home/szhao/Apps/g16/l103.exe)

 GradGradGradGradGradGradGradGradGradGradGradGradGradGradGradGradGradGrad
 Berny optimization.
 Using GEDIIS/GDIIS optimizer.
 FormGI is forming the generalized inverse of G from B-inverse, IUseBI=4.
 Internal  Forces:  Max     0.000005310 RMS     0.000002337
 Search for a local minimum.
 Step number  14 out of a maximum of   21
 All quantities printed in internal units (Hartrees-Bohrs-Radians)
 RMS Force = .27711D-05 SwitMx=.10000D-02 MixMth= 2
 Mixed Optimization -- En-DIIS/RFO-DIIS
 Swapping is turned off.
 Update second derivatives using D2CorX and points    6    7    8   10    9
                                                     11   12   13   14
 DE= -1.51D-08 DEPred=-1.55D-08 R= 9.70D-01
 Trust test= 9.70D-01 RLast= 2.29D-03 DXMaxT set to 7.14D-01
 The second derivative matrix:
                          X1        Y1        Z1        X2        Y2
           X1           0.50892
           Y1           0.01372   0.68065
           Z1           0.01233   0.05874   0.53511
           X2          -0.00366   0.00231  -0.00607   0.50478
           Y2           0.00081  -0.04404  -0.00731  -0.00388   0.51396
           Z2           0.00202   0.03677   0.00900   0.00213  -0.01020
           R1          -0.02279  -0.16802  -0.07077   0.00631   0.03322
           R2          -0.00624  -0.03829  -0.01287  -0.00005   0.00922
           A1          -0.00736   0.03039  -0.00665   0.01301  -0.01565
           A2          -0.01795   0.04574  -0.01813   0.01112  -0.02595
           A3          -0.00350   0.01327  -0.00827   0.00306  -0.00813
                          Z2        R1        R2        A1        A2
           Z2           0.50827
           R1          -0.03112   0.18415
           R2          -0.00877  -0.00618   0.21196
           A1           0.01041  -0.00726  -0.00285   0.03907
           A2           0.01341  -0.00905  -0.00729   0.03121   0.09605
           A3           0.00470  -0.00236  -0.00308   0.00772   0.03240
                          A3
           A3           0.01446
 ITU=  0  0  1  1 -1  0  1  1  1  1  1  1
     Eigenvalues ---    0.00282   0.02667   0.11717   0.18539   0.21366
     Eigenvalues --- 1000.000001000.000001000.000001000.000001000.00000
     Eigenvalues --- 1000.00000
 En-DIIS/RFO-DIIS/Sim-DIIS IScMMF=       -3 using points:    14   13   12   11
 RFO step:  Lambda=-3.75665550D-10.
 NNeg= 0 NGDIIS= 4 SimSw=  2.50D-01 Rises=F DC= -1.51D-08 SmlDif=  1.00D-05
 NRisDI= 0 DoIntr=F SqrtH=F CThrHd= 10.0 CDAdj=  3.0
 RMS Error=  0.5859445638D-04 NUsed= 4 OKEnD=F EnDIS=F
 InvSVX:  RCond= 1.02D-08 Info=           0 Equed=N FErr=  1.74D-14 BErr=  1.01D-16
 DIIS inversion failure, remove point   4.
 InvSVX:  RCond= 2.46D-08 Info=           0 Equed=N FErr=  7.77D-15 BErr=  3.25D-17
 DIIS inversion failure, remove point   3.
 InvSVX:  RCond= 5.92D-06 Info=           0 Equed=N FErr=  9.13D-16 BErr=  7.72D-17
 RFO-DIIS uses    2 points instead of    4
 DidBck=F Rises=F RFO-DIIS coefs:    0.98278    0.01722    0.00000    0.00000
 Iteration  1 RMS(Cart)=  0.00015774 RMS(Int)=  0.00000001
 Iteration  2 RMS(Cart)=  0.00000002 RMS(Int)=  0.00000000
 ITry= 1 IFail=0 DXMaxC= 3.71D-04 DCOld= 1.00D+10 DXMaxT= 7.14D-01 DXLimC= 3.00D+00 Rises=F
 Variable       Old X    -DE/DX   Delta X   Delta X   Delta X     New X
                                 (Linear)    (Quad)   (Total)
    X1       -2.62937  -0.00000   0.00000   0.00000   0.00000  -2.62937
    Y1        0.00000   0.00000   0.00000   0.00000   0.00000   0.00000
    Z1        0.00000   0.00000   0.00000   0.00000   0.00000   0.00000
    X2        2.62937   0.00000   0.00000   0.00000   0.00000   2.62937
    Y2        0.00000  -0.00000   0.00000   0.00000   0.00000   0.00000
    Z2        0.00000   0.00000   0.00000   0.00000   0.00000   0.00000
    R1        2.33410  -0.00000  -0.00000  -0.00001  -0.00001   2.33409
    R2        2.33410  -0.00000  -0.00000  -0.00000  -0.00000   2.33410
    A1        1.72350   0.00001  -0.00001   0.00017   0.00016   1.72366
    A2        1.74045   0.00000   0.00002  -0.00003  -0.00001   1.74045
    A3        4.37998  -0.00000  -0.00003  -0.00007  -0.00011   4.37987
         Item               Value     Threshold  Converged?
 Maximum Force            0.000005     0.000450     YES
 RMS     Force            0.000003     0.000300     YES
 Maximum Displacement     0.000371     0.001800     YES
 RMS     Displacement     0.000158     0.001200     YES
 Predicted change in Energy=-4.707026D-10
 Optimization completed.
    -- Stationary point found.
                           ----------------------------
                           !   Optimized Parameters   !
                           ! (Angstroms and Degrees)  !
 --------------------------                            --------------------------
 ! Name  Definition              Value          Derivative Info.                !
 --------------------------------------------------------------------------------
 ! X1    R(1,-1)                -1.3914         -DE/DX =    0.0                 !
 ! Y1    R(1,-2)                 0.0            -DE/DX =    0.0                 !
 ! Z1    R(1,-3)                 0.0            -DE/DX =    0.0                 !
 ! X2    R(2,-1)                 1.3914         -DE/DX =    0.0                 !
 ! Y2    R(2,-2)                 0.0            -DE/DX =    0.0                 !
 ! Z2    R(2,-3)                 0.0            -DE/DX =    0.0                 !
 ! R1    R(1,3)                  1.2352         -DE/DX =    0.0                 !
 ! R2    R(2,4)                  1.2352         -DE/DX =    0.0                 !
 ! A1    A(1,2,4)               98.7493         -DE/DX =    0.0                 !
 ! A2    L(2,1,3,-3,-1)         99.7207         -DE/DX =    0.0                 !
 ! A3    L(2,1,3,-2,-2)        250.9542         -DE/DX =    0.0                 !
 --------------------------------------------------------------------------------
 Lowest energy point so far.  Saving SCF results.
 Largest change from initial coordinates is atom    3       1.225 Angstoms.
 GradGradGradGradGradGradGradGradGradGradGradGradGradGradGradGradGradGrad

 Leave Link  103 at Mon Apr 21 21:31:11 2025, MaxMem=   536870912 cpu:               1.9 elap:               0.3
 (Enter /home/szhao/Apps/g16/l202.exe)
                          Input orientation:                          
 ---------------------------------------------------------------------
 Center     Atomic      Atomic             Coordinates (Angstroms)
 Number     Number       Type             X           Y           Z
 ---------------------------------------------------------------------
      1          5           0       -1.391404    0.000000    0.000000
      2          5           0        1.391404    0.000000    0.000000
      3          1           0       -1.578747   -1.093621   -0.542675
      4          1           0        1.579284    0.864371   -0.862073
 ---------------------------------------------------------------------
                    Distance matrix (angstroms):
                    1          2          3          4
     1  B    0.000000
     2  B    2.782808   0.000000
     3  H    1.235152   3.211277   0.000000
     4  H    3.211743   1.235154   3.729465   0.000000
 Symmetry turned off by external request.
 Stoichiometry    B2H2(1-,2)
 Framework group  C1[X(B2H2)]
 Deg. of freedom     6
 Full point group                 C1      NOp   1
 Rotational constants (GHZ):         187.0865298          10.3548122          10.1814948
 Leave Link  202 at Mon Apr 21 21:31:12 2025, MaxMem=   536870912 cpu:               0.3 elap:               0.1
 (Enter /home/szhao/Apps/g16/l601.exe)
 Copying SCF densities to generalized density rwf, IOpCl= 1 IROHF=0.

 **********************************************************************

            Population analysis using the SCF density.

 **********************************************************************

 Alpha  occ. eigenvalues --   -6.89564  -6.89560  -0.34685  -0.32215  -0.09232
 Alpha  occ. eigenvalues --   -0.07011  -0.00742
 Alpha virt. eigenvalues --    0.13465   0.14253   0.15919   0.17537   0.18951
 Alpha virt. eigenvalues --    0.20316   0.21860   0.22189   0.22413   0.24240
 Alpha virt. eigenvalues --    0.25446   0.34008   0.36454   0.52423   0.52626
 Alpha virt. eigenvalues --    0.58044   0.59307   0.60956   0.61938   0.68835
 Alpha virt. eigenvalues --    0.73071   0.75430   0.75709   0.98794   0.99750
 Alpha virt. eigenvalues --    1.01381   1.02581   1.03389   1.11214   1.12364
 Alpha virt. eigenvalues --    1.29767   1.33214   1.38421   1.84629   1.84909
 Alpha virt. eigenvalues --    1.85433   1.88355   2.00468   2.05245   2.05575
 Alpha virt. eigenvalues --    2.07589   2.08801   2.11394   2.47002   2.50141
 Alpha virt. eigenvalues --    2.82101   2.84384  14.42190  14.43981
  Beta  occ. eigenvalues --   -6.89418  -6.89417  -0.33220  -0.30907  -0.08293
  Beta  occ. eigenvalues --   -0.04744
  Beta virt. eigenvalues --    0.11405   0.12853   0.12882   0.14575   0.16289
  Beta virt. eigenvalues --    0.18604   0.20162   0.21223   0.22131   0.22646
  Beta virt. eigenvalues --    0.24433   0.27967   0.33760   0.36114   0.52446
  Beta virt. eigenvalues --    0.52531   0.58812   0.59756   0.61124   0.62680
  Beta virt. eigenvalues --    0.69961   0.74346   0.75460   0.76912   1.00963
  Beta virt. eigenvalues --    1.02221   1.02765   1.04385   1.04670   1.13514
  Beta virt. eigenvalues --    1.14976   1.30601   1.33571   1.40722   1.85273
  Beta virt. eigenvalues --    1.85928   1.86424   1.89739   2.04173   2.06117
  Beta virt. eigenvalues --    2.06171   2.09298   2.09445   2.15974   2.48772
  Beta virt. eigenvalues --    2.52299   2.83338   2.85545  14.42857  14.44620
          Condensed to atoms (all electrons):
               1          2          3          4
     1  B    5.171304   0.123094   0.136037  -0.005179
     2  B    0.123094   5.171457  -0.005201   0.136020
     3  H    0.136037  -0.005201   0.944073  -0.000229
     4  H   -0.005179   0.136020  -0.000229   0.944081
          Atomic-Atomic Spin Densities.
               1          2          3          4
     1  B    0.389762   0.114930   0.021140  -0.008679
     2  B    0.114930   0.390029  -0.008678   0.021135
     3  H    0.021140  -0.008678  -0.030010   0.000268
     4  H   -0.008679   0.021135   0.000268  -0.030011
 Mulliken charges and spin densities:
               1          2
     1  B   -0.425257   0.517153
     2  B   -0.425370   0.517415
     3  H   -0.074681  -0.017281
     4  H   -0.074693  -0.017288
 Sum of Mulliken charges =  -1.00000   1.00000
 Mulliken charges and spin densities with hydrogens summed into heavy atoms:
               1          2
     1  B   -0.499937   0.499872
     2  B   -0.500063   0.500128
 Electronic spatial extent (au):  <R**2>=            157.6808
 Charge=             -1.0000 electrons
 Dipole moment (field-independent basis, Debye):
    X=              0.0004    Y=             -0.2516    Z=             -1.5416  Tot=              1.5619
 Quadrupole moment (field-independent basis, Debye-Ang):
   XX=            -35.7064   YY=            -23.8682   ZZ=            -21.2521
   XY=              3.7297   XZ=             -0.6081   YZ=              0.4387
 Traceless Quadrupole moment (field-independent basis, Debye-Ang):
   XX=             -8.7642   YY=              3.0740   ZZ=              5.6902
   XY=              3.7297   XZ=             -0.6081   YZ=              0.4387
 Octapole moment (field-independent basis, Debye-Ang**2):
  XXX=              0.0013  YYY=              0.4843  ZZZ=             -1.3166  XYY=              1.8468
  XXY=             -1.1009  XXZ=             -6.7395  XZZ=             -1.8477  YZZ=             -0.5502
  YYZ=              0.9110  XYZ=              5.5106
 Hexadecapole moment (field-independent basis, Debye-Ang**3):
 XXXX=           -398.0548 YYYY=            -75.4503 ZZZZ=            -57.7907 XXXY=             12.4289
 XXXZ=             -2.0236 YYYX=              2.9235 YYYZ=              1.2697 ZZZX=             -0.1986
 ZZZY=              1.6920 XXYY=            -75.3916 XXZZ=            -67.1075 YYZZ=            -22.5795
 XXYZ=              1.3906 YYXZ=             -0.3481 ZZXY=              0.4395
 N-N= 1.082793408520D+01 E-N=-1.405389809919D+02  KE= 5.026426324405D+01
                          Isotropic Fermi Contact Couplings
        Atom                 a.u.       MegaHertz       Gauss      10(-4) cm-1
     1  B(11)              0.01987      28.49855      10.16899       9.50609
     2  B(11)              0.01989      28.52943      10.18001       9.51639
     3  H(1)              -0.00218      -9.73984      -3.47542      -3.24886
     4  H(1)              -0.00218      -9.73863      -3.47498      -3.24846
 --------------------------------------------------------
       Center         ----  Spin Dipole Couplings  ----
                      3XX-RR        3YY-RR        3ZZ-RR
 --------------------------------------------------------
     1   Atom        0.200137     -0.143534     -0.056603
     2   Atom        0.200126     -0.170154     -0.029972
     3   Atom        0.005439      0.005974     -0.011412
     4   Atom        0.005439     -0.007032      0.001593
 --------------------------------------------------------
                        XY            XZ            YZ
 --------------------------------------------------------
     1   Atom       -0.080899     -0.110223      0.058753
     2   Atom       -0.041839      0.130309     -0.020756
     3   Atom        0.004116     -0.004062      0.018661
     4   Atom        0.005192      0.002537     -0.020139
 --------------------------------------------------------


 ---------------------------------------------------------------------------------
              Anisotropic Spin Dipole Couplings in Principal Axis System
 ---------------------------------------------------------------------------------

       Atom             a.u.   MegaHertz   Gauss  10(-4) cm-1        Axes

              Baa    -0.1752   -29.993   -10.702   -10.005  0.0889  0.9229 -0.3746
     1 B(11)  Bbb    -0.0887   -15.178    -5.416    -5.063  0.4133  0.3080  0.8569
              Bcc     0.2638    45.171    16.118    15.068  0.9062 -0.2310 -0.3541
 
              Baa    -0.1752   -29.998   -10.704   -10.006  0.0893  0.9941  0.0619
     2 B(11)  Bbb    -0.0887   -15.190    -5.420    -5.067 -0.4135 -0.0196  0.9103
              Bcc     0.2639    45.188    16.124    15.073  0.9061 -0.1069  0.4093
 
              Baa    -0.0244   -13.005    -4.640    -4.338  0.1860 -0.5329  0.8255
     3 H(1)   Bbb     0.0064     3.396     1.212     1.133  0.9765  0.0075 -0.2152
              Bcc     0.0180     9.608     3.428     3.205  0.1085  0.8462  0.5217
 
              Baa    -0.0244   -13.008    -4.642    -4.339 -0.1858  0.7676  0.6133
     4 H(1)   Bbb     0.0064     3.395     1.211     1.132  0.9765  0.0752  0.2017
              Bcc     0.0180     9.613     3.430     3.207 -0.1087 -0.6365  0.7636
 

 ---------------------------------------------------------------------------------

 No NMR shielding tensors so no spin-rotation constants.
 Leave Link  601 at Mon Apr 21 21:31:12 2025, MaxMem=   536870912 cpu:               2.0 elap:               0.3
 (Enter /home/szhao/Apps/g16/l9999.exe)
 1\1\GINC-NODE05\FOpt\UM062X\6-311+G(d,p)\B2H2(1-,2)\SZHAO\21-Apr-2025\
 0\\#p opt UM062X/6-311+G** nosymm int=superfine SCF=(MaxCycle=200,NoVa
 rAcc,noincfock) guess=read\\Title Card Required\\-1,2\B,-1.391404,0.,0
 .\B,1.391404,0.,0.\H,-1.5787470053,-1.0936205986,-0.5426748121\H,1.579
 2842501,0.8643709507,-0.8620730947\\Version=ES64L-G16RevA.03\HF=-50.62
 18864\S2=0.795207\S2-1=0.\S2A=0.750464\RMSD=9.969e-09\RMSF=1.519e-06\D
 ipole=0.0002365,-0.1350885,-0.8277082\Quadrupole=-6.515953,2.2854582,4
 .2304948,2.7729702,-0.4520766,0.3261809\PG=C01 [X(B2H2)]\\@


 IT IS A SIMPLE TASK TO MAKE THINGS COMPLEX,
 BUT A COMPLEX TASK TO MAKE THEM SIMPLE.
 Job cpu time:       0 days  0 hours 20 minutes 38.3 seconds.
 Elapsed time:       0 days  0 hours  2 minutes 50.2 seconds.
 File lengths (MBytes):  RWF=     17 Int=      0 D2E=      0 Chk=      2 Scr=      2
 Normal termination of Gaussian 16 at Mon Apr 21 21:31:12 2025.
