 Entering Gaussian System, Link 0=g16
 Initial command:
 /home/szhao/Apps/g16/l1.exe "/home/szhao/tmp/Gau-4252.inp" -scrdir="/home/szhao/tmp/"
 Default is to use a total of  16 processors:
                               16 via shared-memory
                                1 via Linda
 Entering Link 1 = /home/szhao/Apps/g16/l1.exe PID=      4255.
  
 Copyright (c) 1988,1990,1992,1993,1995,1998,2003,2009,2016,
            Gaussian, Inc.  All Rights Reserved.
  
 This is part of the Gaussian(R) 16 program.  It is based on
 the Gaussian(R) 09 system (copyright 2009, Gaussian, Inc.),
 the Gaussian(R) 03 system (copyright 2003, Gaussian, Inc.),
 the Gaussian(R) 98 system (copyright 1998, Gaussian, Inc.),
 the Gaussian(R) 94 system (copyright 1995, Gaussian, Inc.),
 the Gaussian 92(TM) system (copyright 1992, Gaussian, Inc.),
 the Gaussian 90(TM) system (copyright 1990, Gaussian, Inc.),
 the Gaussian 88(TM) system (copyright 1988, Gaussian, Inc.),
 the Gaussian 86(TM) system (copyright 1986, Carnegie Mellon
 University), and the Gaussian 82(TM) system (copyright 1983,
 Carnegie Mellon University). Gaussian is a federally registered
 trademark of Gaussian, Inc.
  
 This software contains proprietary and confidential information,
 including trade secrets, belonging to Gaussian, Inc.
  
 This software is provided under written license and may be
 used, copied, transmitted, or stored only in accord with that
 written license.
  
 The following legend is applicable only to US Government
 contracts under FAR:
  
                    RESTRICTED RIGHTS LEGEND
  
 Use, reproduction and disclosure by the US Government is
 subject to restrictions as set forth in subparagraphs (a)
 and (c) of the Commercial Computer Software - Restricted
 Rights clause in FAR 52.227-19.
  
 Gaussian, Inc.
 340 Quinnipiac St., Bldg. 40, Wallingford CT 06492
  
  
 ---------------------------------------------------------------
 Warning -- This program may not be used in any manner that
 competes with the business of Gaussian, Inc. or will provide
 assistance to any competitor of Gaussian, Inc.  The licensee
 of this program is prohibited from giving any competitor of
 Gaussian, Inc. access to this program.  By using this program,
 the user acknowledges that Gaussian, Inc. is engaged in the
 business of creating and licensing software in the field of
 computational chemistry and represents and warrants to the
 licensee that it is not a competitor of Gaussian, Inc. and that
 it will not use this program in any manner prohibited above.
 ---------------------------------------------------------------
  

 Cite this work as:
 Gaussian 16, Revision A.03,
 M. J. Frisch, G. W. Trucks, H. B. Schlegel, G. E. Scuseria, 
 M. A. Robb, J. R. Cheeseman, G. Scalmani, V. Barone, 
 G. A. Petersson, H. Nakatsuji, X. Li, M. Caricato, A. V. Marenich, 
 J. Bloino, B. G. Janesko, R. Gomperts, B. Mennucci, H. P. Hratchian, 
 J. V. Ortiz, A. F. Izmaylov, J. L. Sonnenberg, D. Williams-Young, 
 F. Ding, F. Lipparini, F. Egidi, J. Goings, B. Peng, A. Petrone, 
 T. Henderson, D. Ranasinghe, V. G. Zakrzewski, J. Gao, N. Rega, 
 G. Zheng, W. Liang, M. Hada, M. Ehara, K. Toyota, R. Fukuda, 
 J. Hasegawa, M. Ishida, T. Nakajima, Y. Honda, O. Kitao, H. Nakai, 
 T. Vreven, K. Throssell, J. A. Montgomery, Jr., J. E. Peralta, 
 F. Ogliaro, M. J. Bearpark, J. J. Heyd, E. N. Brothers, K. N. Kudin, 
 V. N. Staroverov, T. A. Keith, R. Kobayashi, J. Normand, 
 K. Raghavachari, A. P. Rendell, J. C. Burant, S. S. Iyengar, 
 J. Tomasi, M. Cossi, J. M. Millam, M. Klene, C. Adamo, R. Cammi, 
 J. W. Ochterski, R. L. Martin, K. Morokuma, O. Farkas, 
 J. B. Foresman, and D. J. Fox, Gaussian, Inc., Wallingford CT, 2016.
 
 ******************************************
 Gaussian 16:  ES64L-G16RevA.03 25-Dec-2016
                20-Mar-2025 
 ******************************************
 %chk=opt.chk
 %mem=24GB
 %nprocshared=28
 Will use up to   28 processors via shared memory.
 ---------------------------------------------------------------------
 #p opt UM062X/6-311+G** nosymm int=superfine SCF=(Tight,MaxCycle=200)
 ---------------------------------------------------------------------
 1/18=20,19=15,26=5,38=1/1,3;
 2/9=110,12=2,15=1,17=6,18=5,40=1/2;
 3/5=4,6=6,7=111,11=2,25=1,30=1,71=1,74=-55,75=-7,116=2/1,2,3;
 4//1;
 5/5=2,7=200,32=2,38=5/2;
 6/7=2,8=2,9=2,10=2,28=1/1;
 7/30=1/1,2,3,16;
 1/18=20,19=15,26=5/3(2);
 2/9=110,15=1/2;
 99//99;
 2/9=110,15=1/2;
 3/5=4,6=6,7=111,11=2,25=1,30=1,71=1,74=-55,75=-7,116=2/1,2,3;
 4/5=5,16=3,69=1/1;
 5/5=2,7=200,32=2,38=5/2;
 7/30=1/1,2,3,16;
 1/18=20,19=15,26=5/3(-5);
 2/9=110,15=1/2;
 6/7=2,8=2,9=2,10=2,19=2,28=1/1;
 99/9=1/99;
 Leave Link    1 at Thu Mar 20 17:06:48 2025, MaxMem=  3221225472 cpu:               4.5 elap:               0.3
 (Enter /home/szhao/Apps/g16/l101.exe)
 -------------------
 Title Card Required
 -------------------
 Symbolic Z-matrix:
 Charge =  1 Multiplicity = 2
 C                    -1   -1.12711   0.        0. 
 C                    -1    1.12711   0.        0. 
 C                    0     0.00001  -2.15642   0.00036 
 C                    0     0.00002  -3.53177   0.00057 
 C                    0    -1.05082  -4.32428   0.27971 
 C                    0    -1.12621  -1.48111   0.2612 
 C                    0     0.6117   -5.72059  -0.16373 
 H                    0     1.17958  -6.59818  -0.31972 
 C                    0    -1.36803   0.83924   1.1605 
 C                    0    -0.61192  -5.72054   0.16439 
 H                    0    -1.17989  -6.59809   0.32024 
 C                    0     1.05075  -4.32436  -0.2788 
 C                    0     1.12619  -1.48116  -0.26092 
 C                    0     1.55334   2.2544   -1.16869 
 C                    0    -1.36738   0.30603  -1.40737 
 C                    0    -1.75466   2.91081   2.39777 
 H                    0    -1.90307   3.98261   2.37971 
 C                    0    -2.14009  -3.6642    0.5763 
 H                    0    -2.99064  -4.19797   0.80626 
 C                    0    -1.4439    1.60942  -1.98927 
 C                    0     2.16654  -2.23543  -0.55534 
 H                    0     3.04435  -1.73401  -0.73946 
 C                    0     1.36756   0.30612   1.40731 
 C                    0     1.44395   1.60951   1.98921 
 C                    0     2.13994  -3.66436  -0.57587 
 H                    0     2.9904   -4.19818  -0.80609 
 C                    0    -1.55398   2.25427   1.16871 
 C                    0    -1.36058   0.19488   2.42776 
 H                    0    -1.18946  -0.86727   2.47573 
 C                    0     1.49222  -0.78817   2.31079 
 H                    0     1.47446  -1.80013   1.93766 
 C                    0    -1.76849   2.24306   3.60206 
 H                    0    -1.93039   2.7823    4.52521 
 C                    0    -2.16664  -2.23528   0.55555 
 H                    0    -3.04447  -1.73379   0.73936 
 C                    0    -1.57857   1.73854  -3.38704 
 H                    0    -1.61624   2.73907  -3.80158 
 C                    0     1.36797   0.83929  -1.16052 
 C                    0    -1.51118   3.13329   0.02989 
 H                    0    -1.55654   4.18685   0.28739 
 C                    0    -1.69041   0.65295  -4.22299 
 H                    0    -1.81146   0.79239  -5.2892 
 C                    0    -1.43628   2.8645   -1.2869 
 H                    0    -1.42468   3.73279  -1.93871 
 C                    0     1.57925   1.73861   3.38692 
 H                    0     1.61688   2.73914   3.80146 
 C                    0    -1.55825   0.86413   3.61171 
 H                    0    -1.54109   0.31624   4.54595 
 C                    0    -1.4916   -0.78826  -2.31093 
 H                    0    -1.47386  -1.80023  -1.93785 
 C                    0     1.69166   0.65303   4.22278 
 H                    0     1.81319   0.79245   5.28892 
 C                    0     1.75398   2.91107  -2.39768 
 H                    0     1.9019    3.98295  -2.37956 
 C                    0     1.66277  -0.62739   3.66585 
 H                    0     1.77145  -1.50257   4.29316 
 C                    0     1.76835   2.24335  -3.60198 
 H                    0     1.93026   2.78268  -4.52509 
 C                    0     1.50979   3.13344  -0.0299 
 H                    0     1.55424   4.18703  -0.28744 
 C                    0    -1.66165  -0.62747  -3.66607 
 H                    0    -1.76999  -1.50265  -4.29345 
 C                    0     1.43532   2.8646    1.28691 
 H                    0     1.42319   3.73287   1.93873 
 C                    0     1.36084   0.19499  -2.42782 
 H                    0     1.18993  -0.86718  -2.4759 
 C                    0     1.55855   0.86436  -3.61171 
 H                    0     1.54173   0.31649  -4.54597 
 
 ITRead=  2  2  0  0  0  0  0  0  0  0  0  0  0  0  0  0  0  0  0  0
 ITRead=  0  0  0  0  0  0  0  0  0  0  0  0  0  0  0  0  0  0  0  0
 ITRead=  0  0  0  0  0  0  0  0  0  0  0  0  0  0  0  0  0  0  0  0
 ITRead=  0  0  0  0  0  0  0  0
 MicOpt= -2 -2 -1 -1 -1 -1 -1 -1 -1 -1 -1 -1 -1 -1 -1 -1 -1 -1 -1 -1
 MicOpt= -1 -1 -1 -1 -1 -1 -1 -1 -1 -1 -1 -1 -1 -1 -1 -1 -1 -1 -1 -1
 MicOpt= -1 -1 -1 -1 -1 -1 -1 -1 -1 -1 -1 -1 -1 -1 -1 -1 -1 -1 -1 -1
 MicOpt= -1 -1 -1 -1 -1 -1 -1 -1
 NAtoms=     68 NQM=       66 NQMF=       2 NMMI=      0 NMMIF=      0
                NMic=       0 NMicF=      0.
                    Isotopes and Nuclear Properties:
 (Nuclear quadrupole moments (NQMom) in fm**2, nuclear magnetic moments (NMagM)
  in nuclear magnetons)

  Atom         1           2           3           4           5           6           7           8           9          10
 IAtWgt=          12          12          12          12          12          12          12           1          12          12
 AtmWgt=  12.0000000  12.0000000  12.0000000  12.0000000  12.0000000  12.0000000  12.0000000   1.0078250  12.0000000  12.0000000
 NucSpn=           0           0           0           0           0           0           0           1           0           0
 AtZEff=  -0.0000000  -0.0000000  -0.0000000  -0.0000000  -0.0000000  -0.0000000  -0.0000000  -0.0000000  -0.0000000  -0.0000000
 NQMom=    0.0000000   0.0000000   0.0000000   0.0000000   0.0000000   0.0000000   0.0000000   0.0000000   0.0000000   0.0000000
 NMagM=    0.0000000   0.0000000   0.0000000   0.0000000   0.0000000   0.0000000   0.0000000   2.7928460   0.0000000   0.0000000
 AtZNuc=   6.0000000   6.0000000   6.0000000   6.0000000   6.0000000   6.0000000   6.0000000   1.0000000   6.0000000   6.0000000

  Atom        11          12          13          14          15          16          17          18          19          20
 IAtWgt=           1          12          12          12          12          12           1          12           1          12
 AtmWgt=   1.0078250  12.0000000  12.0000000  12.0000000  12.0000000  12.0000000   1.0078250  12.0000000   1.0078250  12.0000000
 NucSpn=           1           0           0           0           0           0           1           0           1           0
 AtZEff=  -0.0000000  -0.0000000  -0.0000000  -0.0000000  -0.0000000  -0.0000000  -0.0000000  -0.0000000  -0.0000000  -0.0000000
 NQMom=    0.0000000   0.0000000   0.0000000   0.0000000   0.0000000   0.0000000   0.0000000   0.0000000   0.0000000   0.0000000
 NMagM=    2.7928460   0.0000000   0.0000000   0.0000000   0.0000000   0.0000000   2.7928460   0.0000000   2.7928460   0.0000000
 AtZNuc=   1.0000000   6.0000000   6.0000000   6.0000000   6.0000000   6.0000000   1.0000000   6.0000000   1.0000000   6.0000000

  Atom        21          22          23          24          25          26          27          28          29          30
 IAtWgt=          12           1          12          12          12           1          12          12           1          12
 AtmWgt=  12.0000000   1.0078250  12.0000000  12.0000000  12.0000000   1.0078250  12.0000000  12.0000000   1.0078250  12.0000000
 NucSpn=           0           1           0           0           0           1           0           0           1           0
 AtZEff=  -0.0000000  -0.0000000  -0.0000000  -0.0000000  -0.0000000  -0.0000000  -0.0000000  -0.0000000  -0.0000000  -0.0000000
 NQMom=    0.0000000   0.0000000   0.0000000   0.0000000   0.0000000   0.0000000   0.0000000   0.0000000   0.0000000   0.0000000
 NMagM=    0.0000000   2.7928460   0.0000000   0.0000000   0.0000000   2.7928460   0.0000000   0.0000000   2.7928460   0.0000000
 AtZNuc=   6.0000000   1.0000000   6.0000000   6.0000000   6.0000000   1.0000000   6.0000000   6.0000000   1.0000000   6.0000000

  Atom        31          32          33          34          35          36          37          38          39          40
 IAtWgt=           1          12           1          12           1          12           1          12          12           1
 AtmWgt=   1.0078250  12.0000000   1.0078250  12.0000000   1.0078250  12.0000000   1.0078250  12.0000000  12.0000000   1.0078250
 NucSpn=           1           0           1           0           1           0           1           0           0           1
 AtZEff=  -0.0000000  -0.0000000  -0.0000000  -0.0000000  -0.0000000  -0.0000000  -0.0000000  -0.0000000  -0.0000000  -0.0000000
 NQMom=    0.0000000   0.0000000   0.0000000   0.0000000   0.0000000   0.0000000   0.0000000   0.0000000   0.0000000   0.0000000
 NMagM=    2.7928460   0.0000000   2.7928460   0.0000000   2.7928460   0.0000000   2.7928460   0.0000000   0.0000000   2.7928460
 AtZNuc=   1.0000000   6.0000000   1.0000000   6.0000000   1.0000000   6.0000000   1.0000000   6.0000000   6.0000000   1.0000000

  Atom        41          42          43          44          45          46          47          48          49          50
 IAtWgt=          12           1          12           1          12           1          12           1          12           1
 AtmWgt=  12.0000000   1.0078250  12.0000000   1.0078250  12.0000000   1.0078250  12.0000000   1.0078250  12.0000000   1.0078250
 NucSpn=           0           1           0           1           0           1           0           1           0           1
 AtZEff=  -0.0000000  -0.0000000  -0.0000000  -0.0000000  -0.0000000  -0.0000000  -0.0000000  -0.0000000  -0.0000000  -0.0000000
 NQMom=    0.0000000   0.0000000   0.0000000   0.0000000   0.0000000   0.0000000   0.0000000   0.0000000   0.0000000   0.0000000
 NMagM=    0.0000000   2.7928460   0.0000000   2.7928460   0.0000000   2.7928460   0.0000000   2.7928460   0.0000000   2.7928460
 AtZNuc=   6.0000000   1.0000000   6.0000000   1.0000000   6.0000000   1.0000000   6.0000000   1.0000000   6.0000000   1.0000000

  Atom        51          52          53          54          55          56          57          58          59          60
 IAtWgt=          12           1          12           1          12           1          12           1          12           1
 AtmWgt=  12.0000000   1.0078250  12.0000000   1.0078250  12.0000000   1.0078250  12.0000000   1.0078250  12.0000000   1.0078250
 NucSpn=           0           1           0           1           0           1           0           1           0           1
 AtZEff=  -0.0000000  -0.0000000  -0.0000000  -0.0000000  -0.0000000  -0.0000000  -0.0000000  -0.0000000  -0.0000000  -0.0000000
 NQMom=    0.0000000   0.0000000   0.0000000   0.0000000   0.0000000   0.0000000   0.0000000   0.0000000   0.0000000   0.0000000
 NMagM=    0.0000000   2.7928460   0.0000000   2.7928460   0.0000000   2.7928460   0.0000000   2.7928460   0.0000000   2.7928460
 AtZNuc=   6.0000000   1.0000000   6.0000000   1.0000000   6.0000000   1.0000000   6.0000000   1.0000000   6.0000000   1.0000000

  Atom        61          62          63          64          65          66          67          68
 IAtWgt=          12           1          12           1          12           1          12           1
 AtmWgt=  12.0000000   1.0078250  12.0000000   1.0078250  12.0000000   1.0078250  12.0000000   1.0078250
 NucSpn=           0           1           0           1           0           1           0           1
 AtZEff=  -0.0000000  -0.0000000  -0.0000000  -0.0000000  -0.0000000  -0.0000000  -0.0000000  -0.0000000
 NQMom=    0.0000000   0.0000000   0.0000000   0.0000000   0.0000000   0.0000000   0.0000000   0.0000000
 NMagM=    0.0000000   2.7928460   0.0000000   2.7928460   0.0000000   2.7928460   0.0000000   2.7928460
 AtZNuc=   6.0000000   1.0000000   6.0000000   1.0000000   6.0000000   1.0000000   6.0000000   1.0000000
 Leave Link  101 at Thu Mar 20 17:06:49 2025, MaxMem=  3221225472 cpu:              10.7 elap:               0.5
 (Enter /home/szhao/Apps/g16/l103.exe)

 GradGradGradGradGradGradGradGradGradGradGradGradGradGradGradGradGradGrad
 Berny optimization.
 Initialization pass.
                           ----------------------------
                           !    Initial Parameters    !
                           ! (Angstroms and Degrees)  !
 --------------------------                            --------------------------
 ! Name  Definition              Value          Derivative Info.                !
 --------------------------------------------------------------------------------
 ! X1    R(1,-1)                -1.1271         Frozen                          !
 ! Y1    R(1,-2)                 0.0            Frozen                          !
 ! Z1    R(1,-3)                 0.0            Frozen                          !
 ! X2    R(2,-1)                 1.1271         Frozen                          !
 ! Y2    R(2,-2)                 0.0            Frozen                          !
 ! Z2    R(2,-3)                 0.0            Frozen                          !
 ! R1    R(1,6)                  1.504          estimate D2E/DX2                !
 ! R2    R(1,9)                  1.4523         estimate D2E/DX2                !
 ! R3    R(1,15)                 1.4602         estimate D2E/DX2                !
 ! R4    R(2,13)                 1.504          estimate D2E/DX2                !
 ! R5    R(2,23)                 1.4602         estimate D2E/DX2                !
 ! R6    R(2,38)                 1.4523         estimate D2E/DX2                !
 ! R7    R(3,4)                  1.3754         estimate D2E/DX2                !
 ! R8    R(3,6)                  1.3388         estimate D2E/DX2                !
 ! R9    R(3,13)                 1.3389         estimate D2E/DX2                !
 ! R10   R(4,5)                  1.3454         estimate D2E/DX2                !
 ! R11   R(4,12)                 1.3455         estimate D2E/DX2                !
 ! R12   R(5,10)                 1.4682         estimate D2E/DX2                !
 ! R13   R(5,18)                 1.3077         estimate D2E/DX2                !
 ! R14   R(6,34)                 1.3183         estimate D2E/DX2                !
 ! R15   R(7,8)                  1.0569         estimate D2E/DX2                !
 ! R16   R(7,10)                 1.2668         estimate D2E/DX2                !
 ! R17   R(7,12)                 1.4681         estimate D2E/DX2                !
 ! R18   R(9,27)                 1.4272         estimate D2E/DX2                !
 ! R19   R(9,28)                 1.4217         estimate D2E/DX2                !
 ! R20   R(10,11)                1.0569         estimate D2E/DX2                !
 ! R21   R(12,25)                1.3077         estimate D2E/DX2                !
 ! R22   R(13,21)                1.3183         estimate D2E/DX2                !
 ! R23   R(14,38)                1.4272         estimate D2E/DX2                !
 ! R24   R(14,53)                1.4078         estimate D2E/DX2                !
 ! R25   R(14,59)                1.4392         estimate D2E/DX2                !
 ! R26   R(15,20)                1.4294         estimate D2E/DX2                !
 ! R27   R(15,49)                1.4245         estimate D2E/DX2                !
 ! R28   R(16,17)                1.0822         estimate D2E/DX2                !
 ! R29   R(16,27)                1.4078         estimate D2E/DX2                !
 ! R30   R(16,32)                1.3771         estimate D2E/DX2                !
 ! R31   R(18,19)                1.0302         estimate D2E/DX2                !
 ! R32   R(18,34)                1.4293         estimate D2E/DX2                !
 ! R33   R(20,36)                1.4102         estimate D2E/DX2                !
 ! R34   R(20,43)                1.4383         estimate D2E/DX2                !
 ! R35   R(21,22)                1.0276         estimate D2E/DX2                !
 ! R36   R(21,25)                1.4293         estimate D2E/DX2                !
 ! R37   R(23,24)                1.4294         estimate D2E/DX2                !
 ! R38   R(23,30)                1.4245         estimate D2E/DX2                !
 ! R39   R(24,45)                1.4102         estimate D2E/DX2                !
 ! R40   R(24,63)                1.4383         estimate D2E/DX2                !
 ! R41   R(25,26)                1.0302         estimate D2E/DX2                !
 ! R42   R(27,39)                1.4392         estimate D2E/DX2                !
 ! R43   R(28,29)                1.0769         estimate D2E/DX2                !
 ! R44   R(28,47)                1.3743         estimate D2E/DX2                !
 ! R45   R(30,31)                1.0787         estimate D2E/DX2                !
 ! R46   R(30,55)                1.3752         estimate D2E/DX2                !
 ! R47   R(32,33)                1.0813         estimate D2E/DX2                !
 ! R48   R(32,47)                1.3949         estimate D2E/DX2                !
 ! R49   R(34,35)                1.0275         estimate D2E/DX2                !
 ! R50   R(36,37)                1.0837         estimate D2E/DX2                !
 ! R51   R(36,41)                1.3747         estimate D2E/DX2                !
 ! R52   R(38,65)                1.4217         estimate D2E/DX2                !
 ! R53   R(39,40)                1.0855         estimate D2E/DX2                !
 ! R54   R(39,43)                1.346          estimate D2E/DX2                !
 ! R55   R(41,42)                1.0821         estimate D2E/DX2                !
 ! R56   R(41,61)                1.3966         estimate D2E/DX2                !
 ! R57   R(43,44)                1.0858         estimate D2E/DX2                !
 ! R58   R(45,46)                1.0837         estimate D2E/DX2                !
 ! R59   R(45,51)                1.3747         estimate D2E/DX2                !
 ! R60   R(47,48)                1.0832         estimate D2E/DX2                !
 ! R61   R(49,50)                1.0787         estimate D2E/DX2                !
 ! R62   R(49,61)                1.3752         estimate D2E/DX2                !
 ! R63   R(51,52)                1.0821         estimate D2E/DX2                !
 ! R64   R(51,55)                1.3966         estimate D2E/DX2                !
 ! R65   R(53,54)                1.0822         estimate D2E/DX2                !
 ! R66   R(53,57)                1.3771         estimate D2E/DX2                !
 ! R67   R(55,56)                1.0823         estimate D2E/DX2                !
 ! R68   R(57,58)                1.0813         estimate D2E/DX2                !
 ! R69   R(57,67)                1.3949         estimate D2E/DX2                !
 ! R70   R(59,60)                1.0855         estimate D2E/DX2                !
 ! R71   R(59,63)                1.346          estimate D2E/DX2                !
 ! R72   R(61,62)                1.0823         estimate D2E/DX2                !
 ! R73   R(63,64)                1.0858         estimate D2E/DX2                !
 ! R74   R(65,66)                1.0769         estimate D2E/DX2                !
 ! R75   R(65,67)                1.3743         estimate D2E/DX2                !
 ! R76   R(67,68)                1.0832         estimate D2E/DX2                !
 ! A1    A(6,1,9)              115.4938         estimate D2E/DX2                !
 ! A2    A(6,1,15)             111.9562         estimate D2E/DX2                !
 ! A3    A(9,1,15)             128.446          estimate D2E/DX2                !
 ! A4    A(13,2,23)            111.9491         estimate D2E/DX2                !
 ! A5    A(13,2,38)            115.5056         estimate D2E/DX2                !
 ! A6    A(23,2,38)            128.4402         estimate D2E/DX2                !
 ! A7    A(4,3,6)              120.29           estimate D2E/DX2                !
 ! A8    A(4,3,13)             120.2905         estimate D2E/DX2                !
 ! A9    A(6,3,13)             119.4195         estimate D2E/DX2                !
 ! A10   A(3,4,5)              126.0902         estimate D2E/DX2                !
 ! A11   A(3,4,12)             126.0899         estimate D2E/DX2                !
 ! A12   A(5,4,12)             107.8199         estimate D2E/DX2                !
 ! A13   A(4,5,10)             108.0837         estimate D2E/DX2                !
 ! A14   A(4,5,18)             113.5967         estimate D2E/DX2                !
 ! A15   A(10,5,18)            138.3179         estimate D2E/DX2                !
 ! A16   A(1,6,3)              117.6068         estimate D2E/DX2                !
 ! A17   A(1,6,34)             126.9912         estimate D2E/DX2                !
 ! A18   A(3,6,34)             114.7613         estimate D2E/DX2                !
 ! A19   A(8,7,10)             123.8652         estimate D2E/DX2                !
 ! A20   A(8,7,12)             128.1293         estimate D2E/DX2                !
 ! A21   A(10,7,12)            108.0054         estimate D2E/DX2                !
 ! A22   A(1,9,27)             126.8095         estimate D2E/DX2                !
 ! A23   A(1,9,28)             116.7115         estimate D2E/DX2                !
 ! A24   A(27,9,28)            116.4181         estimate D2E/DX2                !
 ! A25   A(5,10,7)             108.0064         estimate D2E/DX2                !
 ! A26   A(5,10,11)            128.1289         estimate D2E/DX2                !
 ! A27   A(7,10,11)            123.8646         estimate D2E/DX2                !
 ! A28   A(4,12,7)             108.0842         estimate D2E/DX2                !
 ! A29   A(4,12,25)            113.5969         estimate D2E/DX2                !
 ! A30   A(7,12,25)            138.317          estimate D2E/DX2                !
 ! A31   A(2,13,3)             117.6046         estimate D2E/DX2                !
 ! A32   A(2,13,21)            126.9944         estimate D2E/DX2                !
 ! A33   A(3,13,21)            114.7598         estimate D2E/DX2                !
 ! A34   A(38,14,53)           119.0778         estimate D2E/DX2                !
 ! A35   A(38,14,59)           126.6637         estimate D2E/DX2                !
 ! A36   A(53,14,59)           114.2154         estimate D2E/DX2                !
 ! A37   A(1,15,20)            126.3191         estimate D2E/DX2                !
 ! A38   A(1,15,49)            117.6908         estimate D2E/DX2                !
 ! A39   A(20,15,49)           115.9481         estimate D2E/DX2                !
 ! A40   A(17,16,27)           117.8313         estimate D2E/DX2                !
 ! A41   A(17,16,32)           119.5681         estimate D2E/DX2                !
 ! A42   A(27,16,32)           122.6006         estimate D2E/DX2                !
 ! A43   A(5,18,19)            118.478          estimate D2E/DX2                !
 ! A44   A(5,18,34)            121.1167         estimate D2E/DX2                !
 ! A45   A(19,18,34)           120.3912         estimate D2E/DX2                !
 ! A46   A(15,20,36)           119.479          estimate D2E/DX2                !
 ! A47   A(15,20,43)           126.6272         estimate D2E/DX2                !
 ! A48   A(36,20,43)           113.8698         estimate D2E/DX2                !
 ! A49   A(13,21,22)           115.7838         estimate D2E/DX2                !
 ! A50   A(13,21,25)           124.0917         estimate D2E/DX2                !
 ! A51   A(22,21,25)           120.0766         estimate D2E/DX2                !
 ! A52   A(2,23,24)            126.3217         estimate D2E/DX2                !
 ! A53   A(2,23,30)            117.6869         estimate D2E/DX2                !
 ! A54   A(24,23,30)           115.9495         estimate D2E/DX2                !
 ! A55   A(23,24,45)           119.4788         estimate D2E/DX2                !
 ! A56   A(23,24,63)           126.627          estimate D2E/DX2                !
 ! A57   A(45,24,63)           113.8705         estimate D2E/DX2                !
 ! A58   A(12,25,21)           121.1163         estimate D2E/DX2                !
 ! A59   A(12,25,26)           118.4789         estimate D2E/DX2                !
 ! A60   A(21,25,26)           120.3907         estimate D2E/DX2                !
 ! A61   A(9,27,16)            119.0763         estimate D2E/DX2                !
 ! A62   A(9,27,39)            126.6629         estimate D2E/DX2                !
 ! A63   A(16,27,39)           114.218          estimate D2E/DX2                !
 ! A64   A(9,28,29)            119.1801         estimate D2E/DX2                !
 ! A65   A(9,28,47)            123.1234         estimate D2E/DX2                !
 ! A66   A(29,28,47)           117.6961         estimate D2E/DX2                !
 ! A67   A(23,30,31)           119.9885         estimate D2E/DX2                !
 ! A68   A(23,30,55)           123.0923         estimate D2E/DX2                !
 ! A69   A(31,30,55)           116.9082         estimate D2E/DX2                !
 ! A70   A(16,32,33)           120.4175         estimate D2E/DX2                !
 ! A71   A(16,32,47)           118.939          estimate D2E/DX2                !
 ! A72   A(33,32,47)           120.6408         estimate D2E/DX2                !
 ! A73   A(6,34,18)            124.0903         estimate D2E/DX2                !
 ! A74   A(6,34,35)            115.7837         estimate D2E/DX2                !
 ! A75   A(18,34,35)           120.0778         estimate D2E/DX2                !
 ! A76   A(20,36,37)           117.8417         estimate D2E/DX2                !
 ! A77   A(20,36,41)           122.5622         estimate D2E/DX2                !
 ! A78   A(37,36,41)           119.5813         estimate D2E/DX2                !
 ! A79   A(2,38,14)            126.8057         estimate D2E/DX2                !
 ! A80   A(2,38,65)            116.7166         estimate D2E/DX2                !
 ! A81   A(14,38,65)           116.4163         estimate D2E/DX2                !
 ! A82   A(27,39,40)           113.818          estimate D2E/DX2                !
 ! A83   A(27,39,43)           130.8262         estimate D2E/DX2                !
 ! A84   A(40,39,43)           115.3532         estimate D2E/DX2                !
 ! A85   A(36,41,42)           120.4322         estimate D2E/DX2                !
 ! A86   A(36,41,61)           118.6745         estimate D2E/DX2                !
 ! A87   A(42,41,61)           120.8883         estimate D2E/DX2                !
 ! A88   A(20,43,39)           130.6699         estimate D2E/DX2                !
 ! A89   A(20,43,44)           113.8747         estimate D2E/DX2                !
 ! A90   A(39,43,44)           115.3517         estimate D2E/DX2                !
 ! A91   A(24,45,46)           117.8415         estimate D2E/DX2                !
 ! A92   A(24,45,51)           122.5617         estimate D2E/DX2                !
 ! A93   A(46,45,51)           119.5821         estimate D2E/DX2                !
 ! A94   A(28,47,32)           119.8095         estimate D2E/DX2                !
 ! A95   A(28,47,48)           119.6326         estimate D2E/DX2                !
 ! A96   A(32,47,48)           120.5559         estimate D2E/DX2                !
 ! A97   A(15,49,50)           119.9892         estimate D2E/DX2                !
 ! A98   A(15,49,61)           123.0929         estimate D2E/DX2                !
 ! A99   A(50,49,61)           116.9069         estimate D2E/DX2                !
 ! A100  A(45,51,52)           120.4322         estimate D2E/DX2                !
 ! A101  A(45,51,55)           118.675          estimate D2E/DX2                !
 ! A102  A(52,51,55)           120.8878         estimate D2E/DX2                !
 ! A103  A(14,53,54)           117.8313         estimate D2E/DX2                !
 ! A104  A(14,53,57)           122.5999         estimate D2E/DX2                !
 ! A105  A(54,53,57)           119.5687         estimate D2E/DX2                !
 ! A106  A(30,55,51)           120.1784         estimate D2E/DX2                !
 ! A107  A(30,55,56)           119.2787         estimate D2E/DX2                !
 ! A108  A(51,55,56)           120.5427         estimate D2E/DX2                !
 ! A109  A(53,57,58)           120.4176         estimate D2E/DX2                !
 ! A110  A(53,57,67)           118.9386         estimate D2E/DX2                !
 ! A111  A(58,57,67)           120.6411         estimate D2E/DX2                !
 ! A112  A(14,59,60)           113.8178         estimate D2E/DX2                !
 ! A113  A(14,59,63)           130.8249         estimate D2E/DX2                !
 ! A114  A(60,59,63)           115.3545         estimate D2E/DX2                !
 ! A115  A(41,61,49)           120.1785         estimate D2E/DX2                !
 ! A116  A(41,61,62)           120.5422         estimate D2E/DX2                !
 ! A117  A(49,61,62)           119.2791         estimate D2E/DX2                !
 ! A118  A(24,63,59)           130.667          estimate D2E/DX2                !
 ! A119  A(24,63,64)           113.8764         estimate D2E/DX2                !
 ! A120  A(59,63,64)           115.3531         estimate D2E/DX2                !
 ! A121  A(38,65,66)           119.1816         estimate D2E/DX2                !
 ! A122  A(38,65,67)           123.1233         estimate D2E/DX2                !
 ! A123  A(66,65,67)           117.6947         estimate D2E/DX2                !
 ! A124  A(57,67,65)           119.8105         estimate D2E/DX2                !
 ! A125  A(57,67,68)           120.5557         estimate D2E/DX2                !
 ! A126  A(65,67,68)           119.6318         estimate D2E/DX2                !
 ! D1    D(9,1,6,3)           -118.9576         estimate D2E/DX2                !
 ! D2    D(9,1,6,34)            70.7468         estimate D2E/DX2                !
 ! D3    D(15,1,6,3)            81.822          estimate D2E/DX2                !
 ! D4    D(15,1,6,34)          -88.4735         estimate D2E/DX2                !
 ! D5    D(6,1,9,27)          -173.1947         estimate D2E/DX2                !
 ! D6    D(6,1,9,28)             9.7607         estimate D2E/DX2                !
 ! D7    D(15,1,9,27)          -18.0374         estimate D2E/DX2                !
 ! D8    D(15,1,9,28)          164.9179         estimate D2E/DX2                !
 ! D9    D(6,1,15,20)          179.3498         estimate D2E/DX2                !
 ! D10   D(6,1,15,49)           -3.1152         estimate D2E/DX2                !
 ! D11   D(9,1,15,20)           23.4842         estimate D2E/DX2                !
 ! D12   D(9,1,15,49)         -158.9808         estimate D2E/DX2                !
 ! D13   D(23,2,13,3)           81.8141         estimate D2E/DX2                !
 ! D14   D(23,2,13,21)         -88.4778         estimate D2E/DX2                !
 ! D15   D(38,2,13,3)         -118.9698         estimate D2E/DX2                !
 ! D16   D(38,2,13,21)          70.7383         estimate D2E/DX2                !
 ! D17   D(13,2,23,24)         179.3616         estimate D2E/DX2                !
 ! D18   D(13,2,23,30)          -3.0983         estimate D2E/DX2                !
 ! D19   D(38,2,23,24)          23.4964         estimate D2E/DX2                !
 ! D20   D(38,2,23,30)        -158.9635         estimate D2E/DX2                !
 ! D21   D(13,2,38,14)        -173.2219         estimate D2E/DX2                !
 ! D22   D(13,2,38,65)           9.7454         estimate D2E/DX2                !
 ! D23   D(23,2,38,14)         -18.069          estimate D2E/DX2                !
 ! D24   D(23,2,38,65)         164.8983         estimate D2E/DX2                !
 ! D25   D(6,3,4,5)             -1.8241         estimate D2E/DX2                !
 ! D26   D(6,3,4,12)           178.1497         estimate D2E/DX2                !
 ! D27   D(13,3,4,5)           178.1869         estimate D2E/DX2                !
 ! D28   D(13,3,4,12)           -1.8393         estimate D2E/DX2                !
 ! D29   D(4,3,6,1)           -168.9941         estimate D2E/DX2                !
 ! D30   D(4,3,6,34)             2.4792         estimate D2E/DX2                !
 ! D31   D(13,3,6,1)            10.995          estimate D2E/DX2                !
 ! D32   D(13,3,6,34)         -177.5317         estimate D2E/DX2                !
 ! D33   D(4,3,13,2)          -168.9864         estimate D2E/DX2                !
 ! D34   D(4,3,13,21)            2.4842         estimate D2E/DX2                !
 ! D35   D(6,3,13,2)            11.0245         estimate D2E/DX2                !
 ! D36   D(6,3,13,21)         -177.5049         estimate D2E/DX2                !
 ! D37   D(3,4,5,10)          -179.9606         estimate D2E/DX2                !
 ! D38   D(3,4,5,18)            -0.3458         estimate D2E/DX2                !
 ! D39   D(12,4,5,10)            0.0616         estimate D2E/DX2                !
 ! D40   D(12,4,5,18)          179.6764         estimate D2E/DX2                !
 ! D41   D(3,4,12,7)          -179.9231         estimate D2E/DX2                !
 ! D42   D(3,4,12,25)           -0.3344         estimate D2E/DX2                !
 ! D43   D(5,4,12,7)             0.0546         estimate D2E/DX2                !
 ! D44   D(5,4,12,25)          179.6433         estimate D2E/DX2                !
 ! D45   D(4,5,10,7)            -0.1729         estimate D2E/DX2                !
 ! D46   D(4,5,10,11)          179.6903         estimate D2E/DX2                !
 ! D47   D(18,5,10,7)         -179.642          estimate D2E/DX2                !
 ! D48   D(18,5,10,11)           0.2211         estimate D2E/DX2                !
 ! D49   D(4,5,18,19)         -179.7866         estimate D2E/DX2                !
 ! D50   D(4,5,18,34)            1.5778         estimate D2E/DX2                !
 ! D51   D(10,5,18,19)          -0.3372         estimate D2E/DX2                !
 ! D52   D(10,5,18,34)        -178.9728         estimate D2E/DX2                !
 ! D53   D(1,6,34,18)          169.2276         estimate D2E/DX2                !
 ! D54   D(1,6,34,35)           -8.2405         estimate D2E/DX2                !
 ! D55   D(3,6,34,18)           -1.3043         estimate D2E/DX2                !
 ! D56   D(3,6,34,35)         -178.7724         estimate D2E/DX2                !
 ! D57   D(8,7,10,5)          -179.6716         estimate D2E/DX2                !
 ! D58   D(8,7,10,11)            0.458          estimate D2E/DX2                !
 ! D59   D(12,7,10,5)            0.1995         estimate D2E/DX2                !
 ! D60   D(12,7,10,11)        -179.6709         estimate D2E/DX2                !
 ! D61   D(8,7,12,4)           179.6954         estimate D2E/DX2                !
 ! D62   D(8,7,12,25)            0.2621         estimate D2E/DX2                !
 ! D63   D(10,7,12,4)           -0.1685         estimate D2E/DX2                !
 ! D64   D(10,7,12,25)        -179.6017         estimate D2E/DX2                !
 ! D65   D(1,9,27,16)         -178.8937         estimate D2E/DX2                !
 ! D66   D(1,9,27,39)           -1.419          estimate D2E/DX2                !
 ! D67   D(28,9,27,16)          -1.8415         estimate D2E/DX2                !
 ! D68   D(28,9,27,39)         175.6332         estimate D2E/DX2                !
 ! D69   D(1,9,28,29)           -0.5414         estimate D2E/DX2                !
 ! D70   D(1,9,28,47)          179.2319         estimate D2E/DX2                !
 ! D71   D(27,9,28,29)        -177.8996         estimate D2E/DX2                !
 ! D72   D(27,9,28,47)           1.8737         estimate D2E/DX2                !
 ! D73   D(4,12,25,21)           1.5787         estimate D2E/DX2                !
 ! D74   D(4,12,25,26)        -179.7831         estimate D2E/DX2                !
 ! D75   D(7,12,25,21)        -179.0092         estimate D2E/DX2                !
 ! D76   D(7,12,25,26)          -0.3711         estimate D2E/DX2                !
 ! D77   D(2,13,21,22)          -8.2432         estimate D2E/DX2                !
 ! D78   D(2,13,21,25)         169.2307         estimate D2E/DX2                !
 ! D79   D(3,13,21,22)        -178.7715         estimate D2E/DX2                !
 ! D80   D(3,13,21,25)          -1.2976         estimate D2E/DX2                !
 ! D81   D(53,14,38,2)        -178.8906         estimate D2E/DX2                !
 ! D82   D(53,14,38,65)         -1.8502         estimate D2E/DX2                !
 ! D83   D(59,14,38,2)          -1.4241         estimate D2E/DX2                !
 ! D84   D(59,14,38,65)        175.6163         estimate D2E/DX2                !
 ! D85   D(38,14,53,54)       -179.4216         estimate D2E/DX2                !
 ! D86   D(38,14,53,57)          0.5454         estimate D2E/DX2                !
 ! D87   D(59,14,53,54)          2.8066         estimate D2E/DX2                !
 ! D88   D(59,14,53,57)       -177.2264         estimate D2E/DX2                !
 ! D89   D(38,14,59,60)       -172.7001         estimate D2E/DX2                !
 ! D90   D(38,14,59,63)          7.9404         estimate D2E/DX2                !
 ! D91   D(53,14,59,60)          4.8721         estimate D2E/DX2                !
 ! D92   D(53,14,59,63)       -174.4874         estimate D2E/DX2                !
 ! D93   D(1,15,20,36)         175.0587         estimate D2E/DX2                !
 ! D94   D(1,15,20,43)          -6.8408         estimate D2E/DX2                !
 ! D95   D(49,15,20,36)         -2.514          estimate D2E/DX2                !
 ! D96   D(49,15,20,43)        175.5865         estimate D2E/DX2                !
 ! D97   D(1,15,49,50)           4.0939         estimate D2E/DX2                !
 ! D98   D(1,15,49,61)        -177.1442         estimate D2E/DX2                !
 ! D99   D(20,15,49,50)       -178.1147         estimate D2E/DX2                !
 ! D100  D(20,15,49,61)          0.6472         estimate D2E/DX2                !
 ! D101  D(17,16,27,9)        -179.4192         estimate D2E/DX2                !
 ! D102  D(17,16,27,39)          2.8018         estimate D2E/DX2                !
 ! D103  D(32,16,27,9)           0.5469         estimate D2E/DX2                !
 ! D104  D(32,16,27,39)       -177.2321         estimate D2E/DX2                !
 ! D105  D(17,16,32,33)          0.253          estimate D2E/DX2                !
 ! D106  D(17,16,32,47)       -179.1622         estimate D2E/DX2                !
 ! D107  D(27,16,32,33)       -179.7125         estimate D2E/DX2                !
 ! D108  D(27,16,32,47)          0.8723         estimate D2E/DX2                !
 ! D109  D(5,18,34,6)           -0.8263         estimate D2E/DX2                !
 ! D110  D(5,18,34,35)         176.539          estimate D2E/DX2                !
 ! D111  D(19,18,34,6)        -179.4359         estimate D2E/DX2                !
 ! D112  D(19,18,34,35)         -2.0706         estimate D2E/DX2                !
 ! D113  D(15,20,36,37)       -178.9273         estimate D2E/DX2                !
 ! D114  D(15,20,36,41)          2.4786         estimate D2E/DX2                !
 ! D115  D(43,20,36,37)          2.7396         estimate D2E/DX2                !
 ! D116  D(43,20,36,41)       -175.8545         estimate D2E/DX2                !
 ! D117  D(15,20,43,39)         -8.5199         estimate D2E/DX2                !
 ! D118  D(15,20,43,44)        175.4142         estimate D2E/DX2                !
 ! D119  D(36,20,43,39)        169.6719         estimate D2E/DX2                !
 ! D120  D(36,20,43,44)         -6.394          estimate D2E/DX2                !
 ! D121  D(13,21,25,12)         -0.8365         estimate D2E/DX2                !
 ! D122  D(13,21,25,26)       -179.4488         estimate D2E/DX2                !
 ! D123  D(22,21,25,12)        176.5349         estimate D2E/DX2                !
 ! D124  D(22,21,25,26)         -2.0774         estimate D2E/DX2                !
 ! D125  D(2,23,24,45)         175.0789         estimate D2E/DX2                !
 ! D126  D(2,23,24,63)          -6.8076         estimate D2E/DX2                !
 ! D127  D(30,23,24,45)         -2.4987         estimate D2E/DX2                !
 ! D128  D(30,23,24,63)        175.6149         estimate D2E/DX2                !
 ! D129  D(2,23,30,31)           4.0814         estimate D2E/DX2                !
 ! D130  D(2,23,30,55)        -177.1596         estimate D2E/DX2                !
 ! D131  D(24,23,30,31)       -178.1226         estimate D2E/DX2                !
 ! D132  D(24,23,30,55)          0.6363         estimate D2E/DX2                !
 ! D133  D(23,24,45,46)       -178.9318         estimate D2E/DX2                !
 ! D134  D(23,24,45,51)          2.4698         estimate D2E/DX2                !
 ! D135  D(63,24,45,46)          2.7236         estimate D2E/DX2                !
 ! D136  D(63,24,45,51)       -175.8747         estimate D2E/DX2                !
 ! D137  D(23,24,63,59)         -8.5527         estimate D2E/DX2                !
 ! D138  D(23,24,63,64)        175.3772         estimate D2E/DX2                !
 ! D139  D(45,24,63,59)        169.6515         estimate D2E/DX2                !
 ! D140  D(45,24,63,64)         -6.4186         estimate D2E/DX2                !
 ! D141  D(9,27,39,40)        -172.7323         estimate D2E/DX2                !
 ! D142  D(9,27,39,43)           7.8974         estimate D2E/DX2                !
 ! D143  D(16,27,39,40)          4.8478         estimate D2E/DX2                !
 ! D144  D(16,27,39,43)       -174.5226         estimate D2E/DX2                !
 ! D145  D(9,28,47,32)          -0.5125         estimate D2E/DX2                !
 ! D146  D(9,28,47,48)         179.9963         estimate D2E/DX2                !
 ! D147  D(29,28,47,32)        179.2639         estimate D2E/DX2                !
 ! D148  D(29,28,47,48)         -0.2272         estimate D2E/DX2                !
 ! D149  D(23,30,55,51)          1.4195         estimate D2E/DX2                !
 ! D150  D(23,30,55,56)       -178.731          estimate D2E/DX2                !
 ! D151  D(31,30,55,51)       -179.7859         estimate D2E/DX2                !
 ! D152  D(31,30,55,56)          0.0636         estimate D2E/DX2                !
 ! D153  D(16,32,47,28)         -0.8958         estimate D2E/DX2                !
 ! D154  D(16,32,47,48)        178.5906         estimate D2E/DX2                !
 ! D155  D(33,32,47,28)        179.6903         estimate D2E/DX2                !
 ! D156  D(33,32,47,48)         -0.8233         estimate D2E/DX2                !
 ! D157  D(20,36,41,42)        178.8123         estimate D2E/DX2                !
 ! D158  D(20,36,41,61)         -0.3809         estimate D2E/DX2                !
 ! D159  D(37,36,41,42)          0.2417         estimate D2E/DX2                !
 ! D160  D(37,36,41,61)       -178.9514         estimate D2E/DX2                !
 ! D161  D(2,38,65,66)          -0.5372         estimate D2E/DX2                !
 ! D162  D(2,38,65,67)         179.2342         estimate D2E/DX2                !
 ! D163  D(14,38,65,66)       -177.8845         estimate D2E/DX2                !
 ! D164  D(14,38,65,67)          1.8868         estimate D2E/DX2                !
 ! D165  D(27,39,43,20)          3.6495         estimate D2E/DX2                !
 ! D166  D(27,39,43,44)        179.6686         estimate D2E/DX2                !
 ! D167  D(40,39,43,20)       -175.7131         estimate D2E/DX2                !
 ! D168  D(40,39,43,44)          0.306          estimate D2E/DX2                !
 ! D169  D(36,41,61,49)         -1.5624         estimate D2E/DX2                !
 ! D170  D(36,41,61,62)        178.5921         estimate D2E/DX2                !
 ! D171  D(42,41,61,49)        179.2482         estimate D2E/DX2                !
 ! D172  D(42,41,61,62)         -0.5972         estimate D2E/DX2                !
 ! D173  D(24,45,51,52)        178.8126         estimate D2E/DX2                !
 ! D174  D(24,45,51,55)         -0.3845         estimate D2E/DX2                !
 ! D175  D(46,45,51,52)          0.2378         estimate D2E/DX2                !
 ! D176  D(46,45,51,55)       -178.9593         estimate D2E/DX2                !
 ! D177  D(15,49,61,41)          1.4205         estimate D2E/DX2                !
 ! D178  D(15,49,61,62)       -178.732          estimate D2E/DX2                !
 ! D179  D(50,49,61,41)       -179.7819         estimate D2E/DX2                !
 ! D180  D(50,49,61,62)          0.0655         estimate D2E/DX2                !
 ! D181  D(45,51,55,30)         -1.5538         estimate D2E/DX2                !
 ! D182  D(45,51,55,56)        178.5985         estimate D2E/DX2                !
 ! D183  D(52,51,55,30)        179.2529         estimate D2E/DX2                !
 ! D184  D(52,51,55,56)         -0.5948         estimate D2E/DX2                !
 ! D185  D(14,53,57,58)       -179.7092         estimate D2E/DX2                !
 ! D186  D(14,53,57,67)          0.8803         estimate D2E/DX2                !
 ! D187  D(54,53,57,58)          0.2572         estimate D2E/DX2                !
 ! D188  D(54,53,57,67)       -179.1532         estimate D2E/DX2                !
 ! D189  D(53,57,67,65)         -0.8997         estimate D2E/DX2                !
 ! D190  D(53,57,67,68)        178.5848         estimate D2E/DX2                !
 ! D191  D(58,57,67,65)        179.6912         estimate D2E/DX2                !
 ! D192  D(58,57,67,68)         -0.8243         estimate D2E/DX2                !
 ! D193  D(14,59,63,24)          3.6304         estimate D2E/DX2                !
 ! D194  D(14,59,63,64)        179.6537         estimate D2E/DX2                !
 ! D195  D(60,59,63,24)       -175.7211         estimate D2E/DX2                !
 ! D196  D(60,59,63,64)          0.3021         estimate D2E/DX2                !
 ! D197  D(38,65,67,57)         -0.5195         estimate D2E/DX2                !
 ! D198  D(38,65,67,68)        179.9912         estimate D2E/DX2                !
 ! D199  D(66,65,67,57)        179.255          estimate D2E/DX2                !
 ! D200  D(66,65,67,68)         -0.2343         estimate D2E/DX2                !
 --------------------------------------------------------------------------------
 Trust Radius=3.00D-01 FncErr=1.00D-07 GrdErr=1.00D-07 EigMax=2.50D+02 EigMin=1.00D-04
 Number of steps in this run=    408 maximum allowed number of steps=    408.
 GradGradGradGradGradGradGradGradGradGradGradGradGradGradGradGradGradGrad

 Leave Link  103 at Thu Mar 20 17:06:50 2025, MaxMem=  3221225472 cpu:               1.7 elap:               0.1
 (Enter /home/szhao/Apps/g16/l202.exe)
 Symmetry turned off by external request.
 Stoichiometry    C42H26(1+,2)
 Framework group  C1[X(C42H26)]
 Deg. of freedom   198
 Full point group                 C1      NOp   1
                          Input orientation:                          
 ---------------------------------------------------------------------
 Center     Atomic      Atomic             Coordinates (Angstroms)
 Number     Number       Type             X           Y           Z
 ---------------------------------------------------------------------
      1          6           0       -1.127107    0.000000    0.000000
      2          6           0        1.127107    0.000000    0.000000
      3          6           0        0.000008   -2.156416    0.000355
      4          6           0        0.000016   -3.531766    0.000572
      5          6           0       -1.050816   -4.324275    0.279708
      6          6           0       -1.126212   -1.481108    0.261201
      7          6           0        0.611702   -5.720587   -0.163727
      8          1           0        1.179580   -6.598181   -0.319721
      9          6           0       -1.368029    0.839244    1.160498
     10          6           0       -0.611918   -5.720540    0.164390
     11          1           0       -1.179888   -6.598092    0.320240
     12          6           0        1.050746   -4.324357   -0.278799
     13          6           0        1.126188   -1.481156   -0.260923
     14          6           0        1.553338    2.254404   -1.168689
     15          6           0       -1.367384    0.306033   -1.407366
     16          6           0       -1.754659    2.910805    2.397767
     17          1           0       -1.903070    3.982610    2.379711
     18          6           0       -2.140090   -3.664203    0.576303
     19          1           0       -2.990641   -4.197970    0.806257
     20          6           0       -1.443903    1.609421   -1.989266
     21          6           0        2.166539   -2.235427   -0.555335
     22          1           0        3.044347   -1.734010   -0.739463
     23          6           0        1.367558    0.306120    1.407309
     24          6           0        1.443948    1.609506    1.989211
     25          6           0        2.139944   -3.664360   -0.575872
     26          1           0        2.990405   -4.198179   -0.806088
     27          6           0       -1.553985    2.254266    1.168712
     28          6           0       -1.360576    0.194879    2.427762
     29          1           0       -1.189464   -0.867270    2.475726
     30          6           0        1.492215   -0.788171    2.310789
     31          1           0        1.474463   -1.800133    1.937664
     32          6           0       -1.768491    2.243057    3.602064
     33          1           0       -1.930390    2.782303    4.525214
     34          6           0       -2.166642   -2.235275    0.555550
     35          1           0       -3.044472   -1.733791    0.739359
     36          6           0       -1.578568    1.738536   -3.387037
     37          1           0       -1.616236    2.739066   -3.801578
     38          6           0        1.367967    0.839286   -1.160522
     39          6           0       -1.511179    3.133288    0.029890
     40          1           0       -1.556542    4.186851    0.287387
     41          6           0       -1.690406    0.652952   -4.222989
     42          1           0       -1.811464    0.792388   -5.289197
     43          6           0       -1.436280    2.864495   -1.286901
     44          1           0       -1.424683    3.732788   -1.938709
     45          6           0        1.579251    1.738613    3.386916
     46          1           0        1.616881    2.739143    3.801464
     47          6           0       -1.558251    0.864129    3.611714
     48          1           0       -1.541090    0.316243    4.545949
     49          6           0       -1.491601   -0.788256   -2.310932
     50          1           0       -1.473862   -1.800227   -1.937847
     51          6           0        1.691660    0.653030    4.222776
     52          1           0        1.813195    0.792454    5.288923
     53          6           0        1.753978    2.911069   -2.397679
     54          1           0        1.901898    3.982952   -2.379560
     55          6           0        1.662770   -0.627389    3.665852
     56          1           0        1.771449   -1.502574    4.293162
     57          6           0        1.768353    2.243353   -3.601984
     58          1           0        1.930258    2.782679   -4.525085
     59          6           0        1.509788    3.133437   -0.029900
     60          1           0        1.554243    4.187033   -0.287444
     61          6           0       -1.661645   -0.627466   -3.666072
     62          1           0       -1.769990   -1.502652   -4.293450
     63          6           0        1.435325    2.864600    1.286907
     64          1           0        1.423185    3.732873    1.938729
     65          6           0        1.360841    0.194993   -2.427823
     66          1           0        1.189933   -0.867180   -2.475903
     67          6           0        1.558551    0.864356   -3.611710
     68          1           0        1.541728    0.316494   -4.545967
 ---------------------------------------------------------------------
 Rotational constants (GHZ):           0.1334712           0.1123711           0.0862279
 Leave Link  202 at Thu Mar 20 17:06:51 2025, MaxMem=  3221225472 cpu:               0.3 elap:               0.1
 (Enter /home/szhao/Apps/g16/l301.exe)
 Standard basis: 6-311+G(d,p) (5D, 7F)
 Ernie: Thresh=  0.10000D-02 Tol=  0.10000D-05 Strict=F.
  1080 basis functions,  1720 primitive gaussians,  1122 cartesian basis functions
   139 alpha electrons      138 beta electrons
       nuclear repulsion energy      4988.7257408681 Hartrees.
 IExCor= 4336 DFT=T Ex+Corr=M062X ExCW=0 ScaHFX=  0.540000
 ScaDFX=  1.000000  1.000000  1.000000  1.000000 ScalE2=  1.000000  1.000000
 IRadAn=      7 IRanWt=     -1 IRanGd=            0 ICorTp=0 IEmpDi=  4
 NAtoms=   68 NActive=   68 NUniq=   68 SFac= 1.00D+00 NAtFMM=   60 NAOKFM=T Big=T
 Integral buffers will be    131072 words long.
 Raffenetti 2 integral format.
 Two-electron integral symmetry is turned off.
 Leave Link  301 at Thu Mar 20 17:06:51 2025, MaxMem=  3221225472 cpu:               3.0 elap:               0.2
 (Enter /home/szhao/Apps/g16/l302.exe)
 NPDir=0 NMtPBC=     1 NCelOv=     1 NCel=       1 NClECP=     1 NCelD=      1
         NCelK=      1 NCelE2=     1 NClLst=     1 CellRange=     0.0.
 One-electron integrals computed using PRISM.
 NBasis=  1080 RedAO= T EigKep=  1.24D-06  NBF=  1080
 NBsUse=  1050 1.00D-06 EigRej=  8.90D-07 NBFU=  1050
 Precomputing XC quadrature grid using
 IXCGrd= 4 IRadAn=           7 IRanWt=          -1 IRanGd=           0 AccXCQ= 0.00D+00.
 Generated NRdTot=       0 NPtTot=           0 NUsed=           0 NTot=          32
 NSgBfM=  1116  1116  1116  1116  1116 MxSgAt=    68 MxSgA2=    68.
 Leave Link  302 at Thu Mar 20 17:06:55 2025, MaxMem=  3221225472 cpu:              89.6 elap:               3.3
 (Enter /home/szhao/Apps/g16/l303.exe)
 DipDrv:  MaxL=1.
 Leave Link  303 at Thu Mar 20 17:06:58 2025, MaxMem=  3221225472 cpu:              23.1 elap:               0.9
 (Enter /home/szhao/Apps/g16/l401.exe)
 ExpMin= 4.38D-02 ExpMax= 4.56D+03 ExpMxC= 6.82D+02 IAcc=3 IRadAn=         7 AccDes= 0.00D+00
 Harris functional with IExCor= 1009 and IRadAn=       7 diagonalized for initial guess.
 HarFok:  IExCor= 1009 AccDes= 0.00D+00 IRadAn=         7 IDoV= 1 UseB2=F ITyADJ=14
 ICtDFT=  3500011 ScaDFX=  1.000000  1.000000  1.000000  1.000000
 FoFCou: FMM=F IPFlag=           0 FMFlag=      100000 FMFlg1=        2001
         NFxFlg=           0 DoJE=T BraDBF=F KetDBF=T FulRan=T
         wScrn=  0.000000 ICntrl=       500 IOpCl=  0 I1Cent=   200000004 NGrid=           0
         NMat0=    1 NMatS0=      1 NMatT0=    0 NMatD0=    1 NMtDS0=    0 NMtDT0=    0
 Symmetry not used in FoFCou.
 Harris En= -1614.70227174639    
 JPrj=0 DoOrth=F DoCkMO=F.
 Initial guess <Sx>= 0.0000 <Sy>= 0.0000 <Sz>= 0.5000 <S**2>= 0.7500 S= 0.5000
 Leave Link  401 at Thu Mar 20 17:07:20 2025, MaxMem=  3221225472 cpu:             534.4 elap:              19.4
 (Enter /home/szhao/Apps/g16/l502.exe)
 Two-electron integral symmetry not used.
 UHF open shell SCF:
 Using DIIS extrapolation, IDIIS=  1040.
 NGot=  3221225472 LenX=  3218668534 LenY=  3217408528
 Requested convergence on RMS density matrix=1.00D-08 within 200 cycles.
 Requested convergence on MAX density matrix=1.00D-06.
 Requested convergence on             energy=1.00D-06.
 No special actions if energy rises.
 Fock matrices will be formed incrementally for  20 cycles.

 Cycle   1  Pass 1  IDiag  1:
 FoFJK:  IHMeth= 1 ICntrl=       0 DoSepK=F KAlg= 0 I1Cent=           0 FoldK=F
 IRaf= 900000000 NMat=       1 IRICut=       1 DoRegI=T DoRafI=F ISym2E= 0 IDoP0=0 IntGTp=1.
 FoFCou: FMM=T IPFlag=           0 FMFlag=      100000 FMFlg1=        2001
         NFxFlg=           0 DoJE=F BraDBF=F KetDBF=F FulRan=T
         wScrn=  0.000000 ICntrl=         0 IOpCl=  1 I1Cent=           0 NGrid=           0
         NMat0=    1 NMatS0=      1 NMatT0=    0 NMatD0=    1 NMtDS0=    0 NMtDT0=    0
 Symmetry not used in FoFCou.
 FMM levels:  10  Number of levels for PrismC:   9
 E= -1614.63797995781    
 DIIS: error= 2.63D-02 at cycle   1 NSaved=   1.
 NSaved= 1 IEnMin= 1 EnMin= -1614.63797995781     IErMin= 1 ErrMin= 2.63D-02
 ErrMax= 2.63D-02  0.00D+00 EMaxC= 1.00D-01 BMatC= 4.17D+00 BMatP= 4.17D+00
 IDIUse=3 WtCom= 7.37D-01 WtEn= 2.63D-01
 Coeff-Com:  0.100D+01
 Coeff-En:   0.100D+01
 Coeff:      0.100D+01
 Gap=     0.179 Goal=   None    Shift=    0.000
 Gap=     0.095 Goal=   None    Shift=    0.000
 GapD=    0.095 DampG=0.500 DampE=0.500 DampFc=0.2500 IDamp=-1.
 Damping current iteration by 2.50D-01
 RMSDP=1.99D-02 MaxDP=1.81D+00              OVMax= 1.88D-01

 Cycle   2  Pass 1  IDiag  1:
 RMSU=  4.83D-03    CP:  9.73D-01
 E= -1614.91889974825     Delta-E=       -0.280919790436 Rises=F Damp=T
 DIIS: error= 1.63D-02 at cycle   2 NSaved=   2.
 NSaved= 2 IEnMin= 2 EnMin= -1614.91889974825     IErMin= 2 ErrMin= 1.63D-02
 ErrMax= 1.63D-02  0.00D+00 EMaxC= 1.00D-01 BMatC= 1.64D+00 BMatP= 4.17D+00
 IDIUse=3 WtCom= 8.37D-01 WtEn= 1.63D-01
 Coeff-Com: -0.133D+01 0.233D+01
 Coeff-En:   0.000D+00 0.100D+01
 Coeff:     -0.111D+01 0.211D+01
 Gap=     0.260 Goal=   None    Shift=    0.000
 Gap=     0.181 Goal=   None    Shift=    0.000
 RMSDP=1.33D-02 MaxDP=1.19D+00 DE=-2.81D-01 OVMax= 1.88D-01

 Cycle   3  Pass 1  IDiag  1:
 RMSU=  9.55D-03    CP:  7.58D-01  1.20D+00
 E= -1615.35999308197     Delta-E=       -0.441093333719 Rises=F Damp=F
 DIIS: error= 1.68D-02 at cycle   3 NSaved=   3.
 NSaved= 3 IEnMin= 3 EnMin= -1615.35999308197     IErMin= 2 ErrMin= 1.63D-02
 ErrMax= 1.68D-02  0.00D+00 EMaxC= 1.00D-01 BMatC= 5.11D-01 BMatP= 1.64D+00
 IDIUse=3 WtCom= 8.32D-01 WtEn= 1.68D-01
 Coeff-Com: -0.825D+00 0.134D+01 0.487D+00
 Coeff-En:   0.000D+00 0.000D+00 0.100D+01
 Coeff:     -0.687D+00 0.111D+01 0.573D+00
 Gap=     0.182 Goal=   None    Shift=    0.000
 Gap=     0.124 Goal=   None    Shift=    0.000
 RMSDP=9.10D-03 MaxDP=4.80D-01 DE=-4.41D-01 OVMax= 1.31D-01

 Cycle   4  Pass 1  IDiag  1:
 RMSU=  5.79D-03    CP:  7.89D-01  2.16D+00  4.63D-01
 E= -1615.43242448665     Delta-E=       -0.072431404681 Rises=F Damp=F
 DIIS: error= 1.21D-02 at cycle   4 NSaved=   4.
 NSaved= 4 IEnMin= 4 EnMin= -1615.43242448665     IErMin= 4 ErrMin= 1.21D-02
 ErrMax= 1.21D-02  0.00D+00 EMaxC= 1.00D-01 BMatC= 2.26D-01 BMatP= 5.11D-01
 IDIUse=3 WtCom= 8.79D-01 WtEn= 1.21D-01
 Coeff-Com: -0.208D+00 0.329D+00 0.401D+00 0.478D+00
 Coeff-En:   0.000D+00 0.000D+00 0.352D+00 0.648D+00
 Coeff:     -0.183D+00 0.289D+00 0.395D+00 0.499D+00
 Gap=     0.165 Goal=   None    Shift=    0.000
 Gap=     0.125 Goal=   None    Shift=    0.000
 RMSDP=5.77D-03 MaxDP=4.21D-01 DE=-7.24D-02 OVMax= 5.97D-02

 Cycle   5  Pass 1  IDiag  1:
 RMSU=  1.57D-03    CP:  7.38D-01  1.63D+00  6.52D-01  3.02D-01
 E= -1615.48933567901     Delta-E=       -0.056911192361 Rises=F Damp=F
 DIIS: error= 1.84D-03 at cycle   5 NSaved=   5.
 NSaved= 5 IEnMin= 5 EnMin= -1615.48933567901     IErMin= 5 ErrMin= 1.84D-03
 ErrMax= 1.84D-03  0.00D+00 EMaxC= 1.00D-01 BMatC= 6.48D-03 BMatP= 2.26D-01
 IDIUse=3 WtCom= 9.82D-01 WtEn= 1.84D-02
 Coeff-Com: -0.462D-01 0.707D-01 0.175D+00 0.267D+00 0.534D+00
 Coeff-En:   0.000D+00 0.000D+00 0.000D+00 0.000D+00 0.100D+01
 Coeff:     -0.454D-01 0.694D-01 0.171D+00 0.262D+00 0.542D+00
 Gap=     0.162 Goal=   None    Shift=    0.000
 Gap=     0.125 Goal=   None    Shift=    0.000
 RMSDP=8.10D-04 MaxDP=5.29D-02 DE=-5.69D-02 OVMax= 1.13D-02

 Cycle   6  Pass 1  IDiag  1:
 RMSU=  5.38D-04    CP:  7.46D-01  1.67D+00  6.57D-01  3.62D-01  7.97D-01
 E= -1615.49083997637     Delta-E=       -0.001504297362 Rises=F Damp=F
 DIIS: error= 6.06D-04 at cycle   6 NSaved=   6.
 NSaved= 6 IEnMin= 6 EnMin= -1615.49083997637     IErMin= 6 ErrMin= 6.06D-04
 ErrMax= 6.06D-04  0.00D+00 EMaxC= 1.00D-01 BMatC= 6.42D-04 BMatP= 6.48D-03
 IDIUse=3 WtCom= 9.94D-01 WtEn= 6.06D-03
 Coeff-Com: -0.501D-03-0.265D-03 0.346D-01 0.647D-01 0.277D+00 0.625D+00
 Coeff-En:   0.000D+00 0.000D+00 0.000D+00 0.000D+00 0.452D-01 0.955D+00
 Coeff:     -0.498D-03-0.263D-03 0.344D-01 0.643D-01 0.275D+00 0.627D+00
 Gap=     0.162 Goal=   None    Shift=    0.000
 Gap=     0.126 Goal=   None    Shift=    0.000
 RMSDP=2.92D-04 MaxDP=2.32D-02 DE=-1.50D-03 OVMax= 6.72D-03

 Cycle   7  Pass 1  IDiag  1:
 RMSU=  2.00D-04    CP:  7.47D-01  1.67D+00  6.61D-01  3.83D-01  8.24D-01
                    CP:  7.16D-01
 E= -1615.49100052479     Delta-E=       -0.000160548417 Rises=F Damp=F
 DIIS: error= 2.41D-04 at cycle   7 NSaved=   7.
 NSaved= 7 IEnMin= 7 EnMin= -1615.49100052479     IErMin= 7 ErrMin= 2.41D-04
 ErrMax= 2.41D-04  0.00D+00 EMaxC= 1.00D-01 BMatC= 1.15D-04 BMatP= 6.42D-04
 IDIUse=3 WtCom= 9.98D-01 WtEn= 2.41D-03
 Coeff-Com:  0.404D-02-0.672D-02 0.166D-03 0.621D-02 0.974D-01 0.365D+00
 Coeff-Com:  0.533D+00
 Coeff-En:   0.000D+00 0.000D+00 0.000D+00 0.000D+00 0.000D+00 0.496D-01
 Coeff-En:   0.950D+00
 Coeff:      0.403D-02-0.671D-02 0.166D-03 0.619D-02 0.972D-01 0.365D+00
 Coeff:      0.534D+00
 Gap=     0.163 Goal=   None    Shift=    0.000
 Gap=     0.126 Goal=   None    Shift=    0.000
 RMSDP=9.65D-05 MaxDP=6.31D-03 DE=-1.61D-04 OVMax= 1.91D-03

 Cycle   8  Pass 1  IDiag  1:
 RMSU=  4.89D-05    CP:  7.47D-01  1.67D+00  6.58D-01  3.76D-01  8.24D-01
                    CP:  8.04D-01  7.80D-01
 E= -1615.49103456785     Delta-E=       -0.000034043062 Rises=F Damp=F
 DIIS: error= 1.05D-04 at cycle   8 NSaved=   8.
 NSaved= 8 IEnMin= 8 EnMin= -1615.49103456785     IErMin= 8 ErrMin= 1.05D-04
 ErrMax= 1.05D-04  0.00D+00 EMaxC= 1.00D-01 BMatC= 7.32D-06 BMatP= 1.15D-04
 IDIUse=3 WtCom= 9.99D-01 WtEn= 1.05D-03
 Coeff-Com:  0.968D-03-0.150D-02-0.696D-02-0.110D-01-0.210D-01 0.114D-01
 Coeff-Com:  0.167D+00 0.861D+00
 Coeff-En:   0.000D+00 0.000D+00 0.000D+00 0.000D+00 0.000D+00 0.000D+00
 Coeff-En:   0.000D+00 0.100D+01
 Coeff:      0.967D-03-0.150D-02-0.695D-02-0.110D-01-0.209D-01 0.114D-01
 Coeff:      0.166D+00 0.862D+00
 Gap=     0.163 Goal=   None    Shift=    0.000
 Gap=     0.126 Goal=   None    Shift=    0.000
 RMSDP=3.64D-05 MaxDP=1.88D-03 DE=-3.40D-05 OVMax= 2.03D-03

 Cycle   9  Pass 1  IDiag  1:
 RMSU=  2.40D-05    CP:  7.47D-01  1.67D+00  6.58D-01  3.74D-01  8.30D-01
                    CP:  8.06D-01  8.44D-01  1.43D+00
 E= -1615.49104066687     Delta-E=       -0.000006099014 Rises=F Damp=F
 DIIS: error= 4.43D-05 at cycle   9 NSaved=   9.
 NSaved= 9 IEnMin= 9 EnMin= -1615.49104066687     IErMin= 9 ErrMin= 4.43D-05
 ErrMax= 4.43D-05  0.00D+00 EMaxC= 1.00D-01 BMatC= 2.21D-06 BMatP= 7.32D-06
 IDIUse=1 WtCom= 1.00D+00 WtEn= 0.00D+00
 Coeff-Com: -0.207D-03 0.337D-03-0.261D-02-0.449D-02-0.216D-01-0.457D-01
 Coeff-Com: -0.425D-01 0.304D+00 0.813D+00
 Coeff:     -0.207D-03 0.337D-03-0.261D-02-0.449D-02-0.216D-01-0.457D-01
 Coeff:     -0.425D-01 0.304D+00 0.813D+00
 Gap=     0.163 Goal=   None    Shift=    0.000
 Gap=     0.126 Goal=   None    Shift=    0.000
 RMSDP=2.56D-05 MaxDP=1.22D-03 DE=-6.10D-06 OVMax= 1.27D-03

 Cycle  10  Pass 1  IDiag  1:
 RMSU=  1.57D-05    CP:  7.47D-01  1.67D+00  6.58D-01  3.74D-01  8.27D-01
                    CP:  8.18D-01  8.77D-01  1.63D+00  1.33D+00
 E= -1615.49104284456     Delta-E=       -0.000002177690 Rises=F Damp=F
 DIIS: error= 3.08D-05 at cycle  10 NSaved=  10.
 NSaved=10 IEnMin=10 EnMin= -1615.49104284456     IErMin=10 ErrMin= 3.08D-05
 ErrMax= 3.08D-05  0.00D+00 EMaxC= 1.00D-01 BMatC= 7.93D-07 BMatP= 2.21D-06
 IDIUse=1 WtCom= 1.00D+00 WtEn= 0.00D+00
 Coeff-Com: -0.568D-03 0.864D-03 0.169D-02 0.302D-02-0.708D-03-0.203D-01
 Coeff-Com: -0.991D-01-0.221D+00 0.287D+00 0.105D+01
 Coeff:     -0.568D-03 0.864D-03 0.169D-02 0.302D-02-0.708D-03-0.203D-01
 Coeff:     -0.991D-01-0.221D+00 0.287D+00 0.105D+01
 Gap=     0.163 Goal=   None    Shift=    0.000
 Gap=     0.126 Goal=   None    Shift=    0.000
 RMSDP=2.04D-05 MaxDP=1.16D-03 DE=-2.18D-06 OVMax= 1.37D-03

 Cycle  11  Pass 1  IDiag  1:
 RMSU=  7.59D-06    CP:  7.47D-01  1.67D+00  6.57D-01  3.74D-01  8.27D-01
                    CP:  8.22D-01  8.78D-01  1.87D+00  1.81D+00  1.36D+00
 E= -1615.49104407846     Delta-E=       -0.000001233909 Rises=F Damp=F
 DIIS: error= 1.80D-05 at cycle  11 NSaved=  11.
 NSaved=11 IEnMin=11 EnMin= -1615.49104407846     IErMin=11 ErrMin= 1.80D-05
 ErrMax= 1.80D-05  0.00D+00 EMaxC= 1.00D-01 BMatC= 2.37D-07 BMatP= 7.93D-07
 IDIUse=1 WtCom= 1.00D+00 WtEn= 0.00D+00
 Coeff-Com: -0.202D-03 0.305D-03 0.128D-02 0.246D-02 0.431D-02 0.241D-02
 Coeff-Com: -0.378D-01-0.158D+00-0.574D-01 0.474D+00 0.769D+00
 Coeff:     -0.202D-03 0.305D-03 0.128D-02 0.246D-02 0.431D-02 0.241D-02
 Coeff:     -0.378D-01-0.158D+00-0.574D-01 0.474D+00 0.769D+00
 Gap=     0.163 Goal=   None    Shift=    0.000
 Gap=     0.126 Goal=   None    Shift=    0.000
 RMSDP=8.21D-06 MaxDP=3.86D-04 DE=-1.23D-06 OVMax= 6.39D-04

 Cycle  12  Pass 1  IDiag  1:
 RMSU=  3.81D-06    CP:  7.47D-01  1.67D+00  6.57D-01  3.75D-01  8.26D-01
                    CP:  8.23D-01  8.72D-01  1.95D+00  1.93D+00  1.51D+00
                    CP:  1.55D+00
 E= -1615.49104437337     Delta-E=       -0.000000294903 Rises=F Damp=F
 DIIS: error= 1.01D-05 at cycle  12 NSaved=  12.
 NSaved=12 IEnMin=12 EnMin= -1615.49104437337     IErMin=12 ErrMin= 1.01D-05
 ErrMax= 1.01D-05  0.00D+00 EMaxC= 1.00D-01 BMatC= 6.06D-08 BMatP= 2.37D-07
 IDIUse=1 WtCom= 1.00D+00 WtEn= 0.00D+00
 Coeff-Com:  0.174D-03-0.260D-03-0.374D-03-0.566D-03 0.149D-02 0.109D-01
 Coeff-Com:  0.327D-01 0.625D-01-0.163D+00-0.353D+00 0.198D+00 0.121D+01
 Coeff:      0.174D-03-0.260D-03-0.374D-03-0.566D-03 0.149D-02 0.109D-01
 Coeff:      0.327D-01 0.625D-01-0.163D+00-0.353D+00 0.198D+00 0.121D+01
 Gap=     0.163 Goal=   None    Shift=    0.000
 Gap=     0.126 Goal=   None    Shift=    0.000
 RMSDP=7.52D-06 MaxDP=4.12D-04 DE=-2.95D-07 OVMax= 6.08D-04

 Cycle  13  Pass 1  IDiag  1:
 RMSU=  2.34D-06    CP:  7.47D-01  1.67D+00  6.57D-01  3.75D-01  8.26D-01
                    CP:  8.25D-01  8.70D-01  1.96D+00  2.02D+00  1.70D+00
                    CP:  2.19D+00  1.52D+00
 E= -1615.49104451013     Delta-E=       -0.000000136764 Rises=F Damp=F
 DIIS: error= 3.52D-06 at cycle  13 NSaved=  13.
 NSaved=13 IEnMin=13 EnMin= -1615.49104451013     IErMin=13 ErrMin= 3.52D-06
 ErrMax= 3.52D-06  0.00D+00 EMaxC= 1.00D-01 BMatC= 9.34D-09 BMatP= 6.06D-08
 IDIUse=1 WtCom= 1.00D+00 WtEn= 0.00D+00
 Coeff-Com:  0.824D-04-0.126D-03-0.347D-03-0.613D-03-0.404D-03 0.285D-02
 Coeff-Com:  0.150D-01 0.470D-01-0.344D-01-0.176D+00-0.839D-01 0.344D+00
 Coeff-Com:  0.888D+00
 Coeff:      0.824D-04-0.126D-03-0.347D-03-0.613D-03-0.404D-03 0.285D-02
 Coeff:      0.150D-01 0.470D-01-0.344D-01-0.176D+00-0.839D-01 0.344D+00
 Coeff:      0.888D+00
 Gap=     0.163 Goal=   None    Shift=    0.000
 Gap=     0.126 Goal=   None    Shift=    0.000
 RMSDP=2.15D-06 MaxDP=1.47D-04 DE=-1.37D-07 OVMax= 1.63D-04

 Cycle  14  Pass 1  IDiag  1:
 RMSU=  8.59D-07    CP:  7.47D-01  1.67D+00  6.57D-01  3.75D-01  8.26D-01
                    CP:  8.25D-01  8.67D-01  1.96D+00  2.03D+00  1.72D+00
                    CP:  2.38D+00  1.72D+00  1.32D+00
 E= -1615.49104452349     Delta-E=       -0.000000013358 Rises=F Damp=F
 DIIS: error= 1.42D-06 at cycle  14 NSaved=  14.
 NSaved=14 IEnMin=14 EnMin= -1615.49104452349     IErMin=14 ErrMin= 1.42D-06
 ErrMax= 1.42D-06  0.00D+00 EMaxC= 1.00D-01 BMatC= 2.96D-09 BMatP= 9.34D-09
 IDIUse=1 WtCom= 1.00D+00 WtEn= 0.00D+00
 Coeff-Com: -0.753D-05 0.888D-05-0.783D-04-0.169D-03-0.604D-03-0.134D-02
 Coeff-Com: -0.911D-03 0.788D-02 0.226D-01-0.120D-02-0.895D-01-0.132D+00
 Coeff-Com:  0.416D+00 0.780D+00
 Coeff:     -0.753D-05 0.888D-05-0.783D-04-0.169D-03-0.604D-03-0.134D-02
 Coeff:     -0.911D-03 0.788D-02 0.226D-01-0.120D-02-0.895D-01-0.132D+00
 Coeff:      0.416D+00 0.780D+00
 Gap=     0.163 Goal=   None    Shift=    0.000
 Gap=     0.126 Goal=   None    Shift=    0.000
 RMSDP=1.06D-06 MaxDP=6.57D-05 DE=-1.34D-08 OVMax= 6.69D-05

 Cycle  15  Pass 1  IDiag  1:
 RMSU=  5.56D-07    CP:  7.47D-01  1.67D+00  6.57D-01  3.75D-01  8.25D-01
                    CP:  8.25D-01  8.67D-01  1.96D+00  2.02D+00  1.72D+00
                    CP:  2.44D+00  1.83D+00  1.56D+00  1.16D+00
 E= -1615.49104452640     Delta-E=       -0.000000002916 Rises=F Damp=F
 DIIS: error= 5.39D-07 at cycle  15 NSaved=  15.
 NSaved=15 IEnMin=15 EnMin= -1615.49104452640     IErMin=15 ErrMin= 5.39D-07
 ErrMax= 5.39D-07  0.00D+00 EMaxC= 1.00D-01 BMatC= 3.34D-10 BMatP= 2.96D-09
 IDIUse=1 WtCom= 1.00D+00 WtEn= 0.00D+00
 Coeff-Com: -0.154D-04 0.229D-04 0.414D-04 0.664D-04-0.960D-04-0.932D-03
 Coeff-Com: -0.317D-02-0.725D-02 0.120D-01 0.325D-01-0.170D-02-0.967D-01
 Coeff-Com: -0.703D-01 0.190D+00 0.945D+00
 Coeff:     -0.154D-04 0.229D-04 0.414D-04 0.664D-04-0.960D-04-0.932D-03
 Coeff:     -0.317D-02-0.725D-02 0.120D-01 0.325D-01-0.170D-02-0.967D-01
 Coeff:     -0.703D-01 0.190D+00 0.945D+00
 Gap=     0.163 Goal=   None    Shift=    0.000
 Gap=     0.126 Goal=   None    Shift=    0.000
 RMSDP=4.63D-07 MaxDP=3.92D-05 DE=-2.92D-09 OVMax= 2.34D-05

 Cycle  16  Pass 1  IDiag  1:
 RMSU=  1.93D-07    CP:  7.47D-01  1.67D+00  6.57D-01  3.75D-01  8.25D-01
                    CP:  8.25D-01  8.67D-01  1.95D+00  2.02D+00  1.73D+00
                    CP:  2.44D+00  1.83D+00  1.66D+00  1.41D+00  1.26D+00
 E= -1615.49104452672     Delta-E=       -0.000000000315 Rises=F Damp=F
 DIIS: error= 2.09D-07 at cycle  16 NSaved=  16.
 NSaved=16 IEnMin=16 EnMin= -1615.49104452672     IErMin=16 ErrMin= 2.09D-07
 ErrMax= 2.09D-07  0.00D+00 EMaxC= 1.00D-01 BMatC= 7.54D-11 BMatP= 3.34D-10
 IDIUse=1 WtCom= 1.00D+00 WtEn= 0.00D+00
 Coeff-Com: -0.382D-05 0.614D-05 0.251D-04 0.463D-04 0.465D-04-0.133D-03
 Coeff-Com: -0.101D-02-0.353D-02 0.147D-02 0.113D-01 0.123D-01-0.184D-01
 Coeff-Com: -0.785D-01-0.455D-01 0.323D+00 0.799D+00
 Coeff:     -0.382D-05 0.614D-05 0.251D-04 0.463D-04 0.465D-04-0.133D-03
 Coeff:     -0.101D-02-0.353D-02 0.147D-02 0.113D-01 0.123D-01-0.184D-01
 Coeff:     -0.785D-01-0.455D-01 0.323D+00 0.799D+00
 Gap=     0.163 Goal=   None    Shift=    0.000
 Gap=     0.126 Goal=   None    Shift=    0.000
 RMSDP=1.82D-07 MaxDP=1.88D-05 DE=-3.15D-10 OVMax= 4.92D-06

 Cycle  17  Pass 1  IDiag  1:
 RMSU=  7.91D-08    CP:  7.47D-01  1.67D+00  6.57D-01  3.75D-01  8.25D-01
                    CP:  8.25D-01  8.66D-01  1.95D+00  2.02D+00  1.72D+00
                    CP:  2.44D+00  1.83D+00  1.69D+00  1.50D+00  1.45D+00
                    CP:  1.29D+00
 E= -1615.49104452683     Delta-E=       -0.000000000108 Rises=F Damp=F
 DIIS: error= 1.33D-07 at cycle  17 NSaved=  17.
 NSaved=17 IEnMin=17 EnMin= -1615.49104452683     IErMin=17 ErrMin= 1.33D-07
 ErrMax= 1.33D-07  0.00D+00 EMaxC= 1.00D-01 BMatC= 2.48D-11 BMatP= 7.54D-11
 IDIUse=1 WtCom= 1.00D+00 WtEn= 0.00D+00
 Coeff-Com:  0.243D-05-0.331D-05 0.571D-06 0.379D-05 0.518D-04 0.219D-03
 Coeff-Com:  0.439D-03 0.505D-03-0.271D-02-0.434D-02 0.661D-02 0.184D-01
 Coeff-Com: -0.152D-01-0.779D-01-0.113D+00 0.382D+00 0.806D+00
 Coeff:      0.243D-05-0.331D-05 0.571D-06 0.379D-05 0.518D-04 0.219D-03
 Coeff:      0.439D-03 0.505D-03-0.271D-02-0.434D-02 0.661D-02 0.184D-01
 Coeff:     -0.152D-01-0.779D-01-0.113D+00 0.382D+00 0.806D+00
 Gap=     0.163 Goal=   None    Shift=    0.000
 Gap=     0.126 Goal=   None    Shift=    0.000
 RMSDP=1.13D-07 MaxDP=9.88D-06 DE=-1.08D-10 OVMax= 3.07D-06

 Cycle  18  Pass 1  IDiag  1:
 RMSU=  3.30D-08    CP:  7.47D-01  1.67D+00  6.57D-01  3.75D-01  8.25D-01
                    CP:  8.25D-01  8.66D-01  1.95D+00  2.02D+00  1.72D+00
                    CP:  2.44D+00  1.83D+00  1.70D+00  1.54D+00  1.55D+00
                    CP:  1.57D+00  1.31D+00
 E= -1615.49104452683     Delta-E=        0.000000000003 Rises=F Damp=F
 DIIS: error= 7.31D-08 at cycle  18 NSaved=  18.
 NSaved=18 IEnMin=17 EnMin= -1615.49104452683     IErMin=18 ErrMin= 7.31D-08
 ErrMax= 7.31D-08  0.00D+00 EMaxC= 1.00D-01 BMatC= 3.61D-12 BMatP= 2.48D-11
 IDIUse=1 WtCom= 1.00D+00 WtEn= 0.00D+00
 Coeff-Com:  0.674D-06-0.108D-05-0.357D-05-0.521D-05 0.310D-05 0.620D-04
 Coeff-Com:  0.208D-03 0.604D-03-0.701D-03-0.235D-02-0.862D-03 0.584D-02
 Coeff-Com:  0.116D-01-0.702D-02-0.777D-01-0.790D-01 0.136D+00 0.101D+01
 Coeff:      0.674D-06-0.108D-05-0.357D-05-0.521D-05 0.310D-05 0.620D-04
 Coeff:      0.208D-03 0.604D-03-0.701D-03-0.235D-02-0.862D-03 0.584D-02
 Coeff:      0.116D-01-0.702D-02-0.777D-01-0.790D-01 0.136D+00 0.101D+01
 Gap=     0.163 Goal=   None    Shift=    0.000
 Gap=     0.126 Goal=   None    Shift=    0.000
 RMSDP=5.68D-08 MaxDP=5.04D-06 DE= 2.73D-12 OVMax= 1.51D-06

 Cycle  19  Pass 1  IDiag  1:
 RMSU=  1.64D-08    CP:  7.47D-01  1.67D+00  6.57D-01  3.75D-01  8.25D-01
                    CP:  8.25D-01  8.66D-01  1.95D+00  2.02D+00  1.72D+00
                    CP:  2.44D+00  1.83D+00  1.70D+00  1.56D+00  1.59D+00
                    CP:  1.69D+00  1.64D+00  1.45D+00
 E= -1615.49104452692     Delta-E=       -0.000000000098 Rises=F Damp=F
 DIIS: error= 4.21D-08 at cycle  19 NSaved=  19.
 NSaved=19 IEnMin=19 EnMin= -1615.49104452692     IErMin=19 ErrMin= 4.21D-08
 ErrMax= 4.21D-08  0.00D+00 EMaxC= 1.00D-01 BMatC= 1.34D-12 BMatP= 3.61D-12
 IDIUse=1 WtCom= 1.00D+00 WtEn= 0.00D+00
 Coeff-Com: -0.482D-06 0.593D-06-0.151D-05-0.256D-05-0.115D-04-0.304D-04
 Coeff-Com: -0.380D-04 0.107D-03 0.409D-03 0.283D-03-0.192D-02-0.246D-02
 Coeff-Com:  0.786D-02 0.153D-01 0.524D-03-0.118D+00-0.147D+00 0.378D+00
 Coeff-Com:  0.867D+00
 Coeff:     -0.482D-06 0.593D-06-0.151D-05-0.256D-05-0.115D-04-0.304D-04
 Coeff:     -0.380D-04 0.107D-03 0.409D-03 0.283D-03-0.192D-02-0.246D-02
 Coeff:      0.786D-02 0.153D-01 0.524D-03-0.118D+00-0.147D+00 0.378D+00
 Coeff:      0.867D+00
 Gap=     0.163 Goal=   None    Shift=    0.000
 Gap=     0.126 Goal=   None    Shift=    0.000
 RMSDP=2.78D-08 MaxDP=2.19D-06 DE=-9.82D-11 OVMax= 8.87D-07

 Cycle  20  Pass 1  IDiag  1:
 RMSU=  1.03D-08    CP:  7.47D-01  1.67D+00  6.57D-01  3.75D-01  8.25D-01
                    CP:  8.25D-01  8.66D-01  1.95D+00  2.02D+00  1.72D+00
                    CP:  2.44D+00  1.83D+00  1.71D+00  1.56D+00  1.61D+00
                    CP:  1.73D+00  1.76D+00  1.81D+00  1.45D+00
 E= -1615.49104452686     Delta-E=        0.000000000068 Rises=F Damp=F
 DIIS: error= 2.60D-08 at cycle  20 NSaved=  20.
 NSaved=20 IEnMin=19 EnMin= -1615.49104452692     IErMin=20 ErrMin= 2.60D-08
 ErrMax= 2.60D-08  0.00D+00 EMaxC= 1.00D-01 BMatC= 5.08D-13 BMatP= 1.34D-12
 IDIUse=1 WtCom= 1.00D+00 WtEn= 0.00D+00
 Coeff-Com: -0.415D-06 0.578D-06 0.278D-06 0.287D-06-0.707D-05-0.354D-04
 Coeff-Com: -0.879D-04-0.139D-03 0.415D-03 0.901D-03-0.656D-03-0.304D-02
 Coeff-Com: -0.674D-04 0.884D-02 0.262D-01-0.277D-01-0.117D+00-0.168D+00
 Coeff-Com:  0.386D+00 0.893D+00
 Coeff:     -0.415D-06 0.578D-06 0.278D-06 0.287D-06-0.707D-05-0.354D-04
 Coeff:     -0.879D-04-0.139D-03 0.415D-03 0.901D-03-0.656D-03-0.304D-02
 Coeff:     -0.674D-04 0.884D-02 0.262D-01-0.277D-01-0.117D+00-0.168D+00
 Coeff:      0.386D+00 0.893D+00
 Gap=     0.163 Goal=   None    Shift=    0.000
 Gap=     0.126 Goal=   None    Shift=    0.000
 RMSDP=1.65D-08 MaxDP=9.49D-07 DE= 6.82D-11 OVMax= 6.99D-07

 Cycle  21  Pass 1  IDiag  1:
 Restarting incremental Fock formation.
 E= -1615.49104452675     Delta-E=        0.000000000108 Rises=F Damp=F
 DIIS: error= 1.41D-08 at cycle  21 NSaved=  20.
 NSaved=20 IEnMin=18 EnMin= -1615.49104452692     IErMin=20 ErrMin= 1.41D-08
 ErrMax= 1.41D-08  0.00D+00 EMaxC= 1.00D-01 BMatC= 2.20D-13 BMatP= 5.08D-13
 IDIUse=1 WtCom= 1.00D+00 WtEn= 0.00D+00
 Coeff-Com:  0.312D-07 0.665D-06 0.990D-06 0.329D-06-0.767D-05-0.317D-04
[...]
     5 C(13)  Bbb    -0.0024    -0.319    -0.114    -0.107  0.1084  0.9908  0.0805
              Bcc     0.0070     0.937     0.334     0.312  0.2511 -0.1057  0.9622
 
              Baa    -0.0118    -1.582    -0.565    -0.528  0.2310 -0.0230  0.9727
     6 C(13)  Bbb    -0.0035    -0.466    -0.166    -0.155  0.8560 -0.4705 -0.2143
              Bcc     0.0153     2.048     0.731     0.683  0.4626  0.8821 -0.0890
 
              Baa    -0.0012    -0.158    -0.056    -0.053  0.9344  0.1455 -0.3253
     7 C(13)  Bbb     0.0001     0.020     0.007     0.007 -0.0894  0.9794  0.1813
              Bcc     0.0010     0.138     0.049     0.046  0.3449 -0.1403  0.9281
 
              Baa    -0.0004    -0.219    -0.078    -0.073  0.9644  0.2120 -0.1578
     8 H(1)   Bbb    -0.0003    -0.185    -0.066    -0.062  0.1685 -0.0335  0.9851
              Bcc     0.0008     0.404     0.144     0.135 -0.2036  0.9767  0.0680
 
              Baa    -0.0243    -3.255    -1.162    -1.086  0.3054 -0.1593  0.9388
     9 C(13)  Bbb    -0.0178    -2.388    -0.852    -0.797  0.0580  0.9872  0.1486
              Bcc     0.0421     5.644     2.014     1.882  0.9505 -0.0090 -0.3107
 
              Baa    -0.0012    -0.158    -0.056    -0.053  0.9343 -0.1455 -0.3253
    10 C(13)  Bbb     0.0001     0.020     0.007     0.007  0.0897  0.9794 -0.1807
              Bcc     0.0010     0.138     0.049     0.046  0.3449  0.1397  0.9282
 
              Baa    -0.0004    -0.219    -0.078    -0.073  0.9644 -0.2121 -0.1578
    11 H(1)   Bbb    -0.0003    -0.185    -0.066    -0.062  0.1685  0.0335  0.9851
              Bcc     0.0008     0.404     0.144     0.135  0.2037  0.9767 -0.0681
 
              Baa    -0.0046    -0.617    -0.220    -0.206  0.9618  0.0840 -0.2605
    12 C(13)  Bbb    -0.0024    -0.319    -0.114    -0.107 -0.1083  0.9909 -0.0804
              Bcc     0.0070     0.937     0.334     0.312  0.2513  0.1055  0.9621
 
              Baa    -0.0118    -1.582    -0.565    -0.528  0.2310  0.0230  0.9727
    13 C(13)  Bbb    -0.0035    -0.466    -0.166    -0.155  0.8559  0.4705 -0.2144
              Bcc     0.0153     2.048     0.731     0.683 -0.4626  0.8821  0.0890
 
              Baa    -0.0451    -6.057    -2.161    -2.021 -0.0678  0.2246  0.9721
    14 C(13)  Bbb    -0.0433    -5.817    -2.076    -1.940  0.1626  0.9638 -0.2113
              Bcc     0.0885    11.874     4.237     3.961  0.9844 -0.1437  0.1018
 
              Baa    -0.0157    -2.109    -0.752    -0.703 -0.6425  0.1257  0.7559
    15 C(13)  Bbb    -0.0049    -0.661    -0.236    -0.220  0.1282  0.9902 -0.0557
              Bcc     0.0206     2.769     0.988     0.924  0.7555 -0.0612  0.6523
 
              Baa    -0.0094    -1.259    -0.449    -0.420  0.9608  0.1854  0.2061
    16 C(13)  Bbb     0.0022     0.297     0.106     0.099 -0.0410  0.8304 -0.5557
              Bcc     0.0072     0.963     0.343     0.321 -0.2742  0.5255  0.8054
 
              Baa    -0.0019    -1.010    -0.360    -0.337  0.9396  0.3172  0.1285
    17 H(1)   Bbb    -0.0013    -0.676    -0.241    -0.225  0.1174 -0.6515  0.7495
              Bcc     0.0032     1.685     0.601     0.562 -0.3215  0.6892  0.6494
 
              Baa    -0.0057    -0.760    -0.271    -0.254  0.2775  0.0041  0.9607
    18 C(13)  Bbb     0.0007     0.089     0.032     0.030  0.9263 -0.2665 -0.2664
              Bcc     0.0050     0.671     0.239     0.224  0.2550  0.9638 -0.0778
 
              Baa    -0.0007    -0.374    -0.134    -0.125  0.2167  0.0416  0.9754
    19 H(1)   Bbb    -0.0004    -0.193    -0.069    -0.064  0.8883 -0.4227 -0.1793
              Bcc     0.0011     0.567     0.202     0.189  0.4049  0.9053 -0.1285
 
              Baa    -0.0328    -4.400    -1.570    -1.468  0.0278  0.9589  0.2822
    20 C(13)  Bbb    -0.0303    -4.072    -1.453    -1.358  0.1292 -0.2834  0.9503
              Bcc     0.0631     8.472     3.023     2.826  0.9912  0.0100 -0.1318
 
              Baa    -0.0093    -1.251    -0.446    -0.417  0.7410  0.6711 -0.0228
    21 C(13)  Bbb    -0.0061    -0.816    -0.291    -0.272 -0.5642  0.6037 -0.5632
              Bcc     0.0154     2.067     0.737     0.689 -0.3642  0.4302  0.8260
 
              Baa    -0.0019    -0.994    -0.355    -0.331  0.3803  0.1168  0.9175
    22 H(1)   Bbb    -0.0007    -0.370    -0.132    -0.124  0.3798  0.8848 -0.2701
              Bcc     0.0026     1.364     0.487     0.455  0.8433 -0.4512 -0.2921
 
              Baa    -0.0157    -2.109    -0.753    -0.703 -0.6425 -0.1259  0.7559
    23 C(13)  Bbb    -0.0049    -0.660    -0.236    -0.220 -0.1283  0.9902  0.0559
              Bcc     0.0206     2.769     0.988     0.924  0.7555  0.0610  0.6523
 
              Baa    -0.0328    -4.400    -1.570    -1.468 -0.0282  0.9590 -0.2820
    24 C(13)  Bbb    -0.0303    -4.071    -1.453    -1.358  0.1295  0.2833  0.9503
              Bcc     0.0631     8.471     3.023     2.826  0.9912 -0.0098 -0.1321
 
              Baa    -0.0057    -0.760    -0.271    -0.254  0.2776 -0.0040  0.9607
    25 C(13)  Bbb     0.0007     0.089     0.032     0.030  0.9262  0.2665 -0.2666
              Bcc     0.0050     0.671     0.239     0.224 -0.2549  0.9638  0.0777
 
              Baa    -0.0007    -0.374    -0.134    -0.125  0.2167 -0.0415  0.9753
    26 H(1)   Bbb    -0.0004    -0.193    -0.069    -0.064  0.8883  0.4227 -0.1794
              Bcc     0.0011     0.567     0.202     0.189 -0.4048  0.9053  0.1285
 
              Baa    -0.0452    -6.061    -2.163    -2.022 -0.0674 -0.2245  0.9721
    27 C(13)  Bbb    -0.0434    -5.821    -2.077    -1.942 -0.1629  0.9638  0.2113
              Bcc     0.0885    11.882     4.240     3.963  0.9843  0.1441  0.1015
 
              Baa    -0.0072    -0.961    -0.343    -0.320 -0.4584  0.8070  0.3724
    28 C(13)  Bbb    -0.0028    -0.382    -0.136    -0.127 -0.2297 -0.5124  0.8275
              Bcc     0.0100     1.342     0.479     0.448  0.8585  0.2937  0.4203
 
              Baa    -0.0026    -1.371    -0.489    -0.457  0.6054  0.5486  0.5767
    29 H(1)   Bbb    -0.0008    -0.444    -0.158    -0.148  0.7839 -0.5363 -0.3129
              Bcc     0.0034     1.815     0.648     0.605 -0.1376 -0.6415  0.7547
 
              Baa    -0.0087    -1.167    -0.416    -0.389  0.0855  0.7506  0.6552
    30 C(13)  Bbb    -0.0050    -0.666    -0.238    -0.222  0.3514 -0.6381  0.6851
              Bcc     0.0137     1.833     0.654     0.612  0.9323  0.1716 -0.3183
 
              Baa    -0.0018    -0.980    -0.350    -0.327  0.7625 -0.0333 -0.6462
    31 H(1)   Bbb    -0.0013    -0.680    -0.243    -0.227  0.5767  0.4880  0.6553
              Bcc     0.0031     1.660     0.592     0.554 -0.2935  0.8722 -0.3913
 
              Baa    -0.0278    -3.733    -1.332    -1.245 -0.0448  0.7830 -0.6204
    32 C(13)  Bbb    -0.0241    -3.228    -1.152    -1.077 -0.1376  0.6103  0.7801
              Bcc     0.0519     6.962     2.484     2.322  0.9895  0.1203  0.0805
 
              Baa    -0.0044    -2.361    -0.842    -0.788 -0.0578  0.7778 -0.6259
    33 H(1)   Bbb    -0.0012    -0.664    -0.237    -0.221  0.9746  0.1799  0.1336
              Bcc     0.0057     3.024     1.079     1.009 -0.2166  0.6023  0.7684
 
              Baa    -0.0093    -1.250    -0.446    -0.417  0.7410 -0.6711 -0.0227
    34 C(13)  Bbb    -0.0061    -0.816    -0.291    -0.272  0.5641  0.6038  0.5632
              Bcc     0.0154     2.066     0.737     0.689 -0.3643 -0.4301  0.8260
 
              Baa    -0.0019    -0.994    -0.355    -0.331  0.3803 -0.1168  0.9175
    35 H(1)   Bbb    -0.0007    -0.370    -0.132    -0.124 -0.3798  0.8848  0.2700
              Bcc     0.0026     1.364     0.487     0.455  0.8433  0.4511 -0.2921
 
              Baa    -0.0130    -1.750    -0.624    -0.584  0.9849 -0.0135 -0.1728
    36 C(13)  Bbb     0.0043     0.581     0.207     0.194  0.0253  0.9975  0.0662
              Bcc     0.0087     1.169     0.417     0.390  0.1715 -0.0696  0.9827
 
              Baa    -0.0016    -0.856    -0.305    -0.285  0.4645  0.8852  0.0258
    37 H(1)   Bbb    -0.0010    -0.518    -0.185    -0.173  0.8294 -0.4246 -0.3629
              Bcc     0.0026     1.373     0.490     0.458  0.3103 -0.1900  0.9315
 
              Baa    -0.0243    -3.255    -1.161    -1.086  0.3053  0.1597  0.9388
    38 C(13)  Bbb    -0.0178    -2.388    -0.852    -0.796 -0.0580  0.9871 -0.1490
              Bcc     0.0420     5.643     2.013     1.882  0.9505  0.0089 -0.3107
 
              Baa    -0.0314    -4.211    -1.503    -1.405  0.0082  0.9717 -0.2360
    39 C(13)  Bbb    -0.0299    -4.007    -1.430    -1.337 -0.1257  0.2351  0.9638
              Bcc     0.0612     8.218     2.932     2.741  0.9920  0.0217  0.1240
 
              Baa    -0.0050    -2.667    -0.952    -0.890 -0.1247 -0.3069  0.9436
    40 H(1)   Bbb    -0.0011    -0.603    -0.215    -0.201  0.9724  0.1510  0.1776
              Bcc     0.0061     3.270     1.167     1.091 -0.1970  0.9397  0.2796
 
              Baa    -0.0185    -2.483    -0.886    -0.828  0.0289  0.9985  0.0471
    41 C(13)  Bbb    -0.0149    -2.000    -0.714    -0.667  0.1381 -0.0506  0.9891
              Bcc     0.0334     4.483     1.600     1.495  0.9900 -0.0221 -0.1393
 
              Baa    -0.0030    -1.609    -0.574    -0.537 -0.0173  0.9889  0.1479
    42 H(1)   Bbb    -0.0006    -0.318    -0.114    -0.106  0.9779  0.0475 -0.2034
              Bcc     0.0036     1.928     0.688     0.643  0.2082 -0.1411  0.9679
 
              Baa    -0.0230    -3.089    -1.102    -1.030  0.0799  0.9921 -0.0969
    43 C(13)  Bbb    -0.0201    -2.693    -0.961    -0.898  0.0992  0.0888  0.9911
              Bcc     0.0431     5.782     2.063     1.929  0.9919 -0.0888 -0.0913
 
              Baa    -0.0039    -2.079    -0.742    -0.694  0.1988  0.7651  0.6125
    44 H(1)   Bbb    -0.0016    -0.846    -0.302    -0.282  0.9668 -0.0508 -0.2504
              Bcc     0.0055     2.925     1.044     0.976  0.1605 -0.6420  0.7498
 
              Baa    -0.0130    -1.750    -0.624    -0.584  0.9848  0.0137 -0.1732
    45 C(13)  Bbb     0.0043     0.581     0.207     0.194 -0.0255  0.9975 -0.0664
              Bcc     0.0087     1.169     0.417     0.390  0.1718  0.0698  0.9827
 
              Baa    -0.0016    -0.856    -0.305    -0.286 -0.4645  0.8852 -0.0259
    46 H(1)   Bbb    -0.0010    -0.517    -0.185    -0.173  0.8293  0.4245 -0.3633
              Bcc     0.0026     1.373     0.490     0.458  0.3106  0.1902  0.9313
 
              Baa    -0.0154    -2.063    -0.736    -0.688 -0.2842  0.8726  0.3971
    47 C(13)  Bbb    -0.0135    -1.808    -0.645    -0.603 -0.0130 -0.4176  0.9085
              Bcc     0.0288     3.871     1.381     1.291  0.9587  0.2531  0.1300
 
              Baa    -0.0028    -1.498    -0.535    -0.500 -0.0716  0.8035  0.5910
    48 H(1)   Bbb    -0.0009    -0.506    -0.181    -0.169  0.9974  0.0522  0.0499
              Bcc     0.0038     2.004     0.715     0.669 -0.0092 -0.5930  0.8052
 
              Baa    -0.0087    -1.167    -0.417    -0.389 -0.0854  0.7505 -0.6553
    49 C(13)  Bbb    -0.0050    -0.666    -0.238    -0.222  0.3507  0.6383  0.6853
              Bcc     0.0137     1.834     0.654     0.612  0.9326 -0.1713 -0.3177
 
              Baa    -0.0018    -0.980    -0.350    -0.327  0.7623  0.0333 -0.6463
    50 H(1)   Bbb    -0.0013    -0.680    -0.243    -0.227  0.5768 -0.4878  0.6552
              Bcc     0.0031     1.660     0.592     0.554  0.2935  0.8723  0.3911
 
              Baa    -0.0185    -2.482    -0.885    -0.828 -0.0289  0.9985 -0.0472
    51 C(13)  Bbb    -0.0149    -1.999    -0.713    -0.667  0.1384  0.0507  0.9891
              Bcc     0.0334     4.481     1.599     1.495  0.9900  0.0221 -0.1396
 
              Baa    -0.0030    -1.609    -0.574    -0.537  0.0172  0.9888 -0.1480
    52 H(1)   Bbb    -0.0006    -0.318    -0.114    -0.106  0.9779 -0.0476 -0.2037
              Bcc     0.0036     1.927     0.688     0.643  0.2085  0.1413  0.9678
 
              Baa    -0.0094    -1.259    -0.449    -0.420  0.9609 -0.1851  0.2061
    53 C(13)  Bbb     0.0022     0.297     0.106     0.099  0.0408  0.8304  0.5556
              Bcc     0.0072     0.962     0.343     0.321 -0.2740 -0.5255  0.8055
 
              Baa    -0.0019    -1.010    -0.360    -0.337  0.9396 -0.3170  0.1288
    54 H(1)   Bbb    -0.0013    -0.675    -0.241    -0.225  0.1171  0.6517  0.7494
              Bcc     0.0032     1.685     0.601     0.562  0.3215  0.6891 -0.6495
 
              Baa    -0.0025    -0.332    -0.118    -0.111  0.8823  0.1542  0.4446
    55 C(13)  Bbb    -0.0003    -0.034    -0.012    -0.011 -0.2447  0.9574  0.1534
              Bcc     0.0027     0.366     0.130     0.122 -0.4020 -0.2442  0.8825
 
              Baa    -0.0010    -0.548    -0.196    -0.183  0.9376  0.1735 -0.3012
    56 H(1)   Bbb    -0.0004    -0.224    -0.080    -0.075  0.1727  0.5194  0.8369
              Bcc     0.0014     0.772     0.275     0.257 -0.3017  0.8367 -0.4571
 
              Baa    -0.0278    -3.732    -1.332    -1.245  0.0444  0.7831  0.6203
    57 C(13)  Bbb    -0.0240    -3.227    -1.152    -1.076 -0.1378 -0.6101  0.7802
              Bcc     0.0519     6.959     2.483     2.321  0.9895 -0.1202  0.0808
 
              Baa    -0.0044    -2.360    -0.842    -0.787  0.0574  0.7779  0.6258
    58 H(1)   Bbb    -0.0012    -0.663    -0.237    -0.221  0.9745 -0.1798  0.1340
              Bcc     0.0057     3.023     1.079     1.009 -0.2167 -0.6022  0.7684
 
              Baa    -0.0314    -4.214    -1.504    -1.406 -0.0090  0.9715  0.2368
    59 C(13)  Bbb    -0.0299    -4.010    -1.431    -1.338 -0.1256 -0.2360  0.9636
              Bcc     0.0613     8.224     2.935     2.743  0.9920 -0.0211  0.1241
 
              Baa    -0.0050    -2.669    -0.952    -0.890 -0.1248  0.3069  0.9435
    60 H(1)   Bbb    -0.0011    -0.602    -0.215    -0.201  0.9725 -0.1505  0.1776
              Bcc     0.0061     3.271     1.167     1.091  0.1965  0.9398 -0.2797
 
              Baa    -0.0025    -0.331    -0.118    -0.110  0.8817 -0.1550  0.4456
    61 C(13)  Bbb    -0.0003    -0.034    -0.012    -0.011  0.2454  0.9573 -0.1527
              Bcc     0.0027     0.365     0.130     0.122 -0.4029  0.2440  0.8821
 
              Baa    -0.0010    -0.548    -0.196    -0.183  0.9377 -0.1734 -0.3013
    62 H(1)   Bbb    -0.0004    -0.224    -0.080    -0.075  0.1729 -0.5193  0.8369
              Bcc     0.0014     0.772     0.275     0.257  0.3015  0.8368  0.4569
 
              Baa    -0.0230    -3.087    -1.102    -1.030 -0.0804  0.9920  0.0968
    63 C(13)  Bbb    -0.0201    -2.691    -0.960    -0.897  0.0997 -0.0886  0.9911
              Bcc     0.0431     5.778     2.062     1.927  0.9918  0.0894 -0.0917
 
              Baa    -0.0039    -2.078    -0.742    -0.693 -0.1996  0.7650 -0.6123
    64 H(1)   Bbb    -0.0016    -0.846    -0.302    -0.282  0.9666  0.0514 -0.2509
              Bcc     0.0055     2.924     1.044     0.975  0.1604  0.6420  0.7497
 
              Baa    -0.0072    -0.961    -0.343    -0.321  0.4584  0.8069 -0.3726
    65 C(13)  Bbb    -0.0028    -0.382    -0.136    -0.128 -0.2305  0.5128  0.8270
              Bcc     0.0100     1.344     0.479     0.448  0.8583 -0.2933  0.4211
 
              Baa    -0.0026    -1.371    -0.489    -0.457  0.6053 -0.5485  0.5768
    66 H(1)   Bbb    -0.0008    -0.444    -0.159    -0.148  0.7840  0.5362 -0.3129
              Bcc     0.0034     1.815     0.648     0.605 -0.1377  0.6416  0.7546
 
              Baa    -0.0154    -2.062    -0.736    -0.688  0.2844  0.8727 -0.3968
    67 C(13)  Bbb    -0.0135    -1.808    -0.645    -0.603 -0.0134  0.4175  0.9086
              Bcc     0.0288     3.869     1.381     1.291  0.9586 -0.2531  0.1304
 
              Baa    -0.0028    -1.498    -0.534    -0.500  0.0718  0.8035 -0.5910
    68 H(1)   Bbb    -0.0009    -0.506    -0.181    -0.169  0.9974 -0.0521  0.0502
              Bcc     0.0038     2.004     0.715     0.668 -0.0096  0.5930  0.8051
 

 ---------------------------------------------------------------------------------

 No NMR shielding tensors so no spin-rotation constants.
 Leave Link  601 at Fri Mar 21 09:49:55 2025, MaxMem=  3221225472 cpu:              35.9 elap:               1.5
 (Enter /home/szhao/Apps/g16/l9999.exe)
 1\1\GINC-NODE03\FOpt\UM062X\6-311+G(d,p)\C42H26(1+,2)\SZHAO\21-Mar-202
 5\0\\#p opt UM062X/6-311+G** nosymm int=superfine SCF=(Tight,MaxCycle=
 200)\\Title Card Required\\1,2\C,-1.12710694,0.,0.\C,1.12710694,0.,0.\
 C,-0.0000437427,-2.1714245412,0.0001561028\C,-0.0000647484,-3.54200227
 09,0.0002448914\C,-1.1265386192,-4.3273069551,0.306352793\C,-1.1890464
 258,-1.4798604452,0.2897418345\C,0.654738259,-5.7241705365,-0.17922380
 01\H,1.2598344988,-6.6034112339,-0.3485053689\C,-1.4391156922,0.866068
 0851,1.1401899202\C,-0.6550637559,-5.7241295129,0.1794936651\H,-1.2602
 321798,-6.6033330156,0.3487115579\C,1.1263305957,-4.327378211,-0.30597
 20088\C,1.1889613334,-1.4799087842,-0.2895806986\C,1.6442221801,2.2790
 391782,-1.1119292404\C,-1.4471870818,0.2694447109,-1.4182193133\C,-1.8
 683290281,2.9671163174,2.3253420993\H,-2.0288411453,4.0379409993,2.279
 1478072\C,-2.2865041181,-3.6540150697,0.6284565673\H,-3.2005918328,-4.
 180075479,0.8797295584\C,-1.5560303449,1.5558184477,-2.0279234197\C,2.
 3093159307,-2.2225372667,-0.6086669008\H,3.2476216002,-1.7181520845,-0
 .8146547618\C,1.4473111673,0.2696464801,1.4181728052\C,1.5561253135,1.
 5561059335,2.0276945555\C,2.2862799115,-3.6541526023,-0.6282652457\H,3
 .2003059089,-4.1802643337,-0.8796558249\C,-1.6444147926,2.2791268222,1
 .1116986085\C,-1.4490535326,0.2512652986,2.4191710971\H,-1.2670684746,
 -0.8096994493,2.4938885818\C,1.5994839035,-0.8428044208,2.2901917272\H
 ,1.5618571137,-1.8472045245,1.8994165828\C,-1.8891472761,2.3295929385,
 3.5435421963\H,-2.0662022323,2.8900652284,4.4533326637\C,-2.3094720007
 ,-2.2224014301,0.6087807366\H,-3.2477691672,-1.717951565,0.8146466825\
 C,-1.7430522162,1.6538814044,-3.4241584677\H,-1.8034756109,2.644991655
 9,-3.8584209004\C,1.439235199,0.8659383695,-1.140270043\C,-1.601593326
 5,3.1296360397,-0.0465582895\H,-1.6475713929,4.1893698813,0.1849036177
 \C,-1.8778149901,0.549318757,-4.2320105845\H,-2.0382426841,0.662260649
 5,-5.2971487932\C,-1.5319596969,2.8278237929,-1.3581269935\H,-1.526798
 4487,3.6799705507,-2.0309458846\C,1.7435610747,1.6543917602,3.42386085
 51\H,1.8040098706,2.6455722682,3.8579596898\C,-1.6690534489,0.94884601
 81,3.5854139153\H,-1.6605094479,0.4224531814,4.5321301431\C,-1.5991191
 716,-0.8431400954,-2.290087445\H,-1.5615569769,-1.8474754552,-1.899129
 7015\C,1.8786444888,0.5499634777,4.2318310558\H,2.0394032735,0.6630697
 796,5.2969017303\C,1.8683660408,2.966907859,-2.3255915601\H,2.02864347
 24,4.0377723888,-2.2794964013\C,1.8207676305,-0.7147825075,3.645082804
 9\H,1.9469258605,-1.6063166752,4.2471435757\C,1.8896910285,2.329210850
 9,-3.5436940269\H,2.0669432255,2.8895804894,-4.4535092696\C,1.60077145
 09,3.1297159941,0.0461879312\H,1.6461167811,4.1894405027,-0.1854423985
 \C,-1.8200857263,-0.7153323316,-3.6450559375\H,-1.9461046453,-1.606962
 3303,-4.2470039659\C,1.5313658037,2.8280383841,1.357792205\H,1.5257835
 635,3.680250187,2.0305252863\C,1.4495053421,0.2509793625,-2.4191645231
 \H,1.2675967897,-0.810004089,-2.4938068955\C,1.6697587927,0.9484403713
 ,-3.5854376965\H,1.6615213095,0.4219200227,-4.5320867656\\Version=ES64
 L-G16RevA.03\HF=-1615.5685594\S2=0.757196\S2-1=0.\S2A=0.750046\RMSD=3.
 415e-09\RMSF=2.846e-06\Dipole=-0.0000741,1.1908244,-0.0001354\Quadrupo
 le=-23.131632,12.3614782,10.7701538,-0.002285,-1.2410852,0.0019987\PG=
 C01 [X(C42H26)]\\@


 IT TAKES GREATER CHARACTER TO CARRY OFF GOOD FORTUNE THAN BAD.
                     FRENCH PROVERB.
 Job cpu time:      19 days  9 hours  0 minutes  6.9 seconds.
 Elapsed time:       0 days 16 hours 40 minutes  6.6 seconds.
 File lengths (MBytes):  RWF=   1251 Int=      0 D2E=      0 Chk=    137 Scr=      2
 Normal termination of Gaussian 16 at Fri Mar 21 09:49:58 2025.
