 Entering Gaussian System, Link 0=g16
 Initial command:
 /home/szhao/Apps/g16/l1.exe "/home/szhao/tmp/Gau-128643.inp" -scrdir="/home/szhao/tmp/"
 Default is to use a total of  16 processors:
                               16 via shared-memory
                                1 via Linda
 Entering Link 1 = /home/szhao/Apps/g16/l1.exe PID=    128644.
  
 Copyright (c) 1988,1990,1992,1993,1995,1998,2003,2009,2016,
            Gaussian, Inc.  All Rights Reserved.
  
 This is part of the Gaussian(R) 16 program.  It is based on
 the Gaussian(R) 09 system (copyright 2009, Gaussian, Inc.),
 the Gaussian(R) 03 system (copyright 2003, Gaussian, Inc.),
 the Gaussian(R) 98 system (copyright 1998, Gaussian, Inc.),
 the Gaussian(R) 94 system (copyright 1995, Gaussian, Inc.),
 the Gaussian 92(TM) system (copyright 1992, Gaussian, Inc.),
 the Gaussian 90(TM) system (copyright 1990, Gaussian, Inc.),
 the Gaussian 88(TM) system (copyright 1988, Gaussian, Inc.),
 the Gaussian 86(TM) system (copyright 1986, Carnegie Mellon
 University), and the Gaussian 82(TM) system (copyright 1983,
 Carnegie Mellon University). Gaussian is a federally registered
 trademark of Gaussian, Inc.
  
 This software contains proprietary and confidential information,
 including trade secrets, belonging to Gaussian, Inc.
  
 This software is provided under written license and may be
 used, copied, transmitted, or stored only in accord with that
 written license.
  
 The following legend is applicable only to US Government
 contracts under FAR:
  
                    RESTRICTED RIGHTS LEGEND
  
 Use, reproduction and disclosure by the US Government is
 subject to restrictions as set forth in subparagraphs (a)
 and (c) of the Commercial Computer Software - Restricted
 Rights clause in FAR 52.227-19.
  
 Gaussian, Inc.
 340 Quinnipiac St., Bldg. 40, Wallingford CT 06492
  
  
 ---------------------------------------------------------------
 Warning -- This program may not be used in any manner that
 competes with the business of Gaussian, Inc. or will provide
 assistance to any competitor of Gaussian, Inc.  The licensee
 of this program is prohibited from giving any competitor of
 Gaussian, Inc. access to this program.  By using this program,
 the user acknowledges that Gaussian, Inc. is engaged in the
 business of creating and licensing software in the field of
 computational chemistry and represents and warrants to the
 licensee that it is not a competitor of Gaussian, Inc. and that
 it will not use this program in any manner prohibited above.
 ---------------------------------------------------------------
  

 Cite this work as:
 Gaussian 16, Revision A.03,
 M. J. Frisch, G. W. Trucks, H. B. Schlegel, G. E. Scuseria, 
 M. A. Robb, J. R. Cheeseman, G. Scalmani, V. Barone, 
 G. A. Petersson, H. Nakatsuji, X. Li, M. Caricato, A. V. Marenich, 
 J. Bloino, B. G. Janesko, R. Gomperts, B. Mennucci, H. P. Hratchian, 
 J. V. Ortiz, A. F. Izmaylov, J. L. Sonnenberg, D. Williams-Young, 
 F. Ding, F. Lipparini, F. Egidi, J. Goings, B. Peng, A. Petrone, 
 T. Henderson, D. Ranasinghe, V. G. Zakrzewski, J. Gao, N. Rega, 
 G. Zheng, W. Liang, M. Hada, M. Ehara, K. Toyota, R. Fukuda, 
 J. Hasegawa, M. Ishida, T. Nakajima, Y. Honda, O. Kitao, H. Nakai, 
 T. Vreven, K. Throssell, J. A. Montgomery, Jr., J. E. Peralta, 
 F. Ogliaro, M. J. Bearpark, J. J. Heyd, E. N. Brothers, K. N. Kudin, 
 V. N. Staroverov, T. A. Keith, R. Kobayashi, J. Normand, 
 K. Raghavachari, A. P. Rendell, J. C. Burant, S. S. Iyengar, 
 J. Tomasi, M. Cossi, J. M. Millam, M. Klene, C. Adamo, R. Cammi, 
 J. W. Ochterski, R. L. Martin, K. Morokuma, O. Farkas, 
 J. B. Foresman, and D. J. Fox, Gaussian, Inc., Wallingford CT, 2016.
 
 ******************************************
 Gaussian 16:  ES64L-G16RevA.03 25-Dec-2016
                 3-Dec-2024 
 ******************************************
 %chk=opt.chk
 %mem=16GB
 %nprocshared=24
 Will use up to   24 processors via shared memory.
 ---------------------------------------------------------
 #p opt UM062X/6-311+G** nosymm int=superfine SCF=NoVarAcc
 ---------------------------------------------------------
 1/18=20,19=15,26=5,38=1/1,3;
 2/9=110,12=2,15=1,17=6,18=5,40=1/2;
 3/5=4,6=6,7=111,11=2,25=1,30=1,71=1,74=-55,75=-7,116=2/1,2,3;
 4//1;
 5/5=2,38=1/2;
 6/7=2,8=2,9=2,10=2,28=1/1;
 7/30=1/1,2,3,16;
 1/18=20,19=15,26=5/3(2);
 2/9=110,15=1/2;
 99//99;
 2/9=110,15=1/2;
 3/5=4,6=6,7=111,11=2,25=1,30=1,71=1,74=-55,75=-7,116=2/1,2,3;
 4/5=5,16=3,69=1/1;
 5/5=2,38=1/2;
 7/30=1/1,2,3,16;
 1/18=20,19=15,26=5/3(-5);
 2/9=110,15=1/2;
 6/7=2,8=2,9=2,10=2,19=2,28=1/1;
 99/9=1/99;
 Leave Link    1 at Tue Dec  3 17:45:33 2024, MaxMem=  2147483648 cpu:               0.6 elap:               0.0
 (Enter /home/szhao/Apps/g16/l101.exe)
 -------------------
 Title Card Required
 -------------------
 Symbolic Z-matrix:
 Charge =  1 Multiplicity = 2
 C                    -1   -8.88216   0.        0. 
 C                    -1    8.88216   0.        0. 
 H                    0    -9.98315   0.        0. 
 H                    0     9.98313   0.        0. 
 
 Add virtual bond connecting atoms C2         and C1         Dist= 3.36D+01.
 ITRead=  2  2  0  0
 MicOpt= -2 -2 -1 -1
 NAtoms=      4 NQM=        2 NQMF=       2 NMMI=      0 NMMIF=      0
                NMic=       0 NMicF=      0.
                    Isotopes and Nuclear Properties:
 (Nuclear quadrupole moments (NQMom) in fm**2, nuclear magnetic moments (NMagM)
  in nuclear magnetons)

  Atom         1           2           3           4
 IAtWgt=          12          12           1           1
 AtmWgt=  12.0000000  12.0000000   1.0078250   1.0078250
 NucSpn=           0           0           1           1
 AtZEff=  -0.0000000  -0.0000000  -0.0000000  -0.0000000
 NQMom=    0.0000000   0.0000000   0.0000000   0.0000000
 NMagM=    0.0000000   0.0000000   2.7928460   2.7928460
 AtZNuc=   6.0000000   6.0000000   1.0000000   1.0000000
 Leave Link  101 at Tue Dec  3 17:45:33 2024, MaxMem=  2147483648 cpu:              11.2 elap:               0.5
 (Enter /home/szhao/Apps/g16/l103.exe)

 GradGradGradGradGradGradGradGradGradGradGradGradGradGradGradGradGradGrad
 Berny optimization.
 Initialization pass.
                           ----------------------------
                           !    Initial Parameters    !
                           ! (Angstroms and Degrees)  !
 --------------------------                            --------------------------
 ! Name  Definition              Value          Derivative Info.                !
 --------------------------------------------------------------------------------
 ! X1    R(1,-1)                -8.8822         Frozen                          !
 ! Y1    R(1,-2)                 0.0            Frozen                          !
 ! Z1    R(1,-3)                 0.0            Frozen                          !
 ! X2    R(2,-1)                 8.8822         Frozen                          !
 ! Y2    R(2,-2)                 0.0            Frozen                          !
 ! Z2    R(2,-3)                 0.0            Frozen                          !
 ! R1    R(1,3)                  1.101          estimate D2E/DX2                !
 ! R2    R(2,4)                  1.101          estimate D2E/DX2                !
 ! A1    L(2,1,3,-2,-1)        180.0            estimate D2E/DX2                !
 ! A2    L(1,2,4,-2,-1)        180.0            estimate D2E/DX2                !
 ! A3    L(2,1,3,-3,-2)        180.0            estimate D2E/DX2                !
 ! A4    L(1,2,4,-3,-2)        180.0            estimate D2E/DX2                !
 --------------------------------------------------------------------------------
 Trust Radius=3.00D-01 FncErr=1.00D-07 GrdErr=1.00D-07 EigMax=2.50D+02 EigMin=1.00D-04
 Number of steps in this run=     22 maximum allowed number of steps=    100.
 GradGradGradGradGradGradGradGradGradGradGradGradGradGradGradGradGradGrad

 Leave Link  103 at Tue Dec  3 17:45:33 2024, MaxMem=  2147483648 cpu:               0.1 elap:               0.0
 (Enter /home/szhao/Apps/g16/l202.exe)
                          Input orientation:                          
 ---------------------------------------------------------------------
 Center     Atomic      Atomic             Coordinates (Angstroms)
 Number     Number       Type             X           Y           Z
 ---------------------------------------------------------------------
      1          6           0       -8.882160    0.000000    0.000000
      2          6           0        8.882160    0.000000    0.000000
      3          1           0       -9.983153    0.000000    0.000000
      4          1           0        9.983131    0.000000    0.000000
 ---------------------------------------------------------------------
                    Distance matrix (angstroms):
                    1          2          3          4
     1  C    0.000000
     2  C   17.764320   0.000000
     3  H    1.100993  18.865313   0.000000
     4  H   18.865291   1.100971  19.966284   0.000000
 Symmetry turned off by external request.
 Stoichiometry    C2H2(1+,2)
 Framework group  C*V[C*(HCCH)]
 Deg. of freedom     3
 Full point group                 C*V     NOp   4
 Rotational constants (GHZ):           0.0000000           0.2413102           0.2413102
 Leave Link  202 at Tue Dec  3 17:45:33 2024, MaxMem=  2147483648 cpu:               0.2 elap:               0.0
 (Enter /home/szhao/Apps/g16/l301.exe)
 Standard basis: 6-311+G(d,p) (5D, 7F)
 Ernie: Thresh=  0.10000D-02 Tol=  0.10000D-05 Strict=F.
    56 basis functions,    88 primitive gaussians,    58 cartesian basis functions
     7 alpha electrons        6 beta electrons
       nuclear repulsion energy         7.2031960122 Hartrees.
 IExCor= 4336 DFT=T Ex+Corr=M062X ExCW=0 ScaHFX=  0.540000
 ScaDFX=  1.000000  1.000000  1.000000  1.000000 ScalE2=  1.000000  1.000000
 IRadAn=      7 IRanWt=     -1 IRanGd=            0 ICorTp=0 IEmpDi=  4
 NAtoms=    4 NActive=    4 NUniq=    4 SFac= 1.00D+00 NAtFMM=   60 NAOKFM=F Big=F
 Integral buffers will be    131072 words long.
 Raffenetti 2 integral format.
 Two-electron integral symmetry is turned off.
 Leave Link  301 at Tue Dec  3 17:45:33 2024, MaxMem=  2147483648 cpu:               0.8 elap:               0.0
 (Enter /home/szhao/Apps/g16/l302.exe)
 NPDir=0 NMtPBC=     1 NCelOv=     1 NCel=       1 NClECP=     1 NCelD=      1
         NCelK=      1 NCelE2=     1 NClLst=     1 CellRange=     0.0.
 One-electron integrals computed using PRISM.
 NBasis=    56 RedAO= T EigKep=  2.04D-02  NBF=    56
 NBsUse=    56 1.00D-06 EigRej= -1.00D+00 NBFU=    56
 Precomputing XC quadrature grid using
 IXCGrd= 4 IRadAn=           7 IRanWt=          -1 IRanGd=           0 AccXCQ= 0.00D+00.
 Generated NRdTot=       0 NPtTot=           0 NUsed=           0 NTot=          32
 NSgBfM=    32    32    32    32    32 MxSgAt=     4 MxSgA2=     4.
 Leave Link  302 at Tue Dec  3 17:45:34 2024, MaxMem=  2147483648 cpu:               2.7 elap:               0.1
 (Enter /home/szhao/Apps/g16/l303.exe)
 DipDrv:  MaxL=1.
 Leave Link  303 at Tue Dec  3 17:45:34 2024, MaxMem=  2147483648 cpu:               0.5 elap:               0.0
 (Enter /home/szhao/Apps/g16/l401.exe)
 ExpMin= 4.38D-02 ExpMax= 4.56D+03 ExpMxC= 6.82D+02 IAcc=3 IRadAn=         7 AccDes= 0.00D+00
 Harris functional with IExCor= 1009 and IRadAn=       7 diagonalized for initial guess.
 HarFok:  IExCor= 1009 AccDes= 0.00D+00 IRadAn=         7 IDoV= 1 UseB2=F ITyADJ=14
 ICtDFT=  3500011 ScaDFX=  1.000000  1.000000  1.000000  1.000000
 FoFCou: FMM=F IPFlag=           0 FMFlag=      100000 FMFlg1=           0
         NFxFlg=           0 DoJE=T BraDBF=F KetDBF=T FulRan=T
         wScrn=  0.000000 ICntrl=       500 IOpCl=  0 I1Cent=   200000004 NGrid=           0
         NMat0=    1 NMatS0=      1 NMatT0=    0 NMatD0=    1 NMtDS0=    0 NMtDT0=    0
 Symmetry not used in FoFCou.
 Harris En= -76.6172309859428    
 JPrj=0 DoOrth=F DoCkMO=F.
 Initial guess <Sx>= 0.0000 <Sy>= 0.0000 <Sz>= 0.5000 <S**2>= 0.7500 S= 0.5000
 Leave Link  401 at Tue Dec  3 17:45:34 2024, MaxMem=  2147483648 cpu:               3.5 elap:               0.2
 (Enter /home/szhao/Apps/g16/l502.exe)
 Keep R1 and R2 ints in memory in canonical form, NReq=23774294.
 FoFCou: FMM=F IPFlag=           0 FMFlag=           0 FMFlg1=           0
         NFxFlg=           0 DoJE=F BraDBF=F KetDBF=F FulRan=T
         wScrn=  0.000000 ICntrl=       600 IOpCl=  0 I1Cent=           0 NGrid=           0
         NMat0=    1 NMatS0=   1596 NMatT0=    0 NMatD0=    1 NMtDS0=    0 NMtDT0=    0
 Symmetry not used in FoFCou.
 Two-electron integral symmetry not used.
 UHF open shell SCF:
 Using DIIS extrapolation, IDIIS=  1040.
 NGot=  2147483648 LenX=  2144926146 LenY=  2144922341
 Requested convergence on RMS density matrix=1.00D-08 within 128 cycles.
 Requested convergence on MAX density matrix=1.00D-06.
 Requested convergence on             energy=1.00D-06.
 No special actions if energy rises.

 Cycle   1  Pass 1  IDiag  1:
 E= -76.5054750041732    
 DIIS: error= 2.92D-02 at cycle   1 NSaved=   1.
 NSaved= 1 IEnMin= 1 EnMin= -76.5054750041732     IErMin= 1 ErrMin= 2.92D-02
 ErrMax= 2.92D-02  0.00D+00 EMaxC= 1.00D-01 BMatC= 1.39D-01 BMatP= 1.39D-01
 IDIUse=3 WtCom= 7.08D-01 WtEn= 2.92D-01
 Coeff-Com:  0.100D+01
 Coeff-En:   0.100D+01
 Coeff:      0.100D+01
 Gap=     0.219 Goal=   None    Shift=    0.000
 Gap=     0.788 Goal=   None    Shift=    0.000
 GapD=    0.219 DampG=1.000 DampE=0.500 DampFc=0.5000 IDamp=-1.
 Damping current iteration by 5.00D-01
 RMSDP=1.67D-02 MaxDP=2.59D-01              OVMax= 1.00D+00

 Cycle   2  Pass 1  IDiag  1:
 E= -75.7979159144695     Delta-E=        0.707559089704 Rises=F Damp=T
 DIIS: error= 4.47D-02 at cycle   2 NSaved=   2.
 NSaved= 2 IEnMin= 1 EnMin= -76.5054750041732     IErMin= 1 ErrMin= 2.92D-02
 ErrMax= 4.47D-02  0.00D+00 EMaxC= 1.00D-01 BMatC= 4.20D-01 BMatP= 1.39D-01
 IDIUse=2 WtCom= 0.00D+00 WtEn= 1.00D+00
 Coeff-En:   0.851D+00 0.149D+00
 Coeff:      0.851D+00 0.149D+00
 Gap=    -0.045 Goal=   None    Shift=    0.000
 Gap=     0.019 Goal=   None    Shift=    0.000
 RMSDP=8.10D-03 MaxDP=9.97D-02 DE= 7.08D-01 OVMax= 1.00D+00

 Cycle   3  Pass 1  IDiag  1:
 E= -76.4779061583552     Delta-E=       -0.679990243886 Rises=F Damp=F
 DIIS: error= 3.00D-02 at cycle   3 NSaved=   3.
 NSaved= 3 IEnMin= 1 EnMin= -76.5054750041732     IErMin= 1 ErrMin= 2.92D-02
 ErrMax= 3.00D-02  0.00D+00 EMaxC= 1.00D-01 BMatC= 1.94D-01 BMatP= 1.39D-01
 IDIUse=2 WtCom= 0.00D+00 WtEn= 1.00D+00
 Coeff-En:   0.547D+00 0.000D+00 0.453D+00
 Coeff:      0.547D+00 0.000D+00 0.453D+00
 Gap=     0.107 Goal=   None    Shift=    0.000
 Gap=     0.294 Goal=   None    Shift=    0.000
 RMSDP=8.84D-03 MaxDP=1.79D-01 DE=-6.80D-01 OVMax= 1.00D+00

 Cycle   4  Pass 1  IDiag  1:
 E= -76.5209142666173     Delta-E=       -0.043008108262 Rises=F Damp=F
 DIIS: error= 1.89D-02 at cycle   4 NSaved=   4.
 NSaved= 4 IEnMin= 4 EnMin= -76.5209142666173     IErMin= 4 ErrMin= 1.89D-02
 ErrMax= 1.89D-02  0.00D+00 EMaxC= 1.00D-01 BMatC= 7.31D-02 BMatP= 1.39D-01
 IDIUse=3 WtCom= 8.11D-01 WtEn= 1.89D-01
 Coeff-Com:  0.112D+00 0.163D-01 0.350D+00 0.522D+00
 Coeff-En:   0.000D+00 0.000D+00 0.427D+00 0.573D+00
 Coeff:      0.905D-01 0.132D-01 0.365D+00 0.531D+00
 Gap=    -0.022 Goal=   None    Shift=    0.000
 Gap=     0.215 Goal=   None    Shift=    0.000
 RMSDP=8.61D-03 MaxDP=1.65D-01 DE=-4.30D-02 OVMax= 1.00D+00

 Cycle   5  Pass 1  IDiag  1:
 E= -76.5110930774938     Delta-E=        0.009821189124 Rises=F Damp=F
 DIIS: error= 2.08D-02 at cycle   5 NSaved=   5.
 NSaved= 5 IEnMin= 4 EnMin= -76.5209142666173     IErMin= 4 ErrMin= 1.89D-02
 ErrMax= 2.08D-02  0.00D+00 EMaxC= 1.00D-01 BMatC= 9.44D-02 BMatP= 7.31D-02
 IDIUse=2 WtCom= 0.00D+00 WtEn= 1.00D+00
 Coeff-En:   0.000D+00 0.000D+00 0.000D+00 0.520D+00 0.480D+00
 Coeff:      0.000D+00 0.000D+00 0.000D+00 0.520D+00 0.480D+00
 Gap=    -0.000 Goal=   None    Shift=    0.000
 Gap=     0.294 Goal=   None    Shift=    0.000
 RMSDP=8.58D-03 MaxDP=1.65D-01 DE= 9.82D-03 OVMax= 1.00D+00

 Cycle   6  Pass 1  IDiag  1:
 E= -76.5246926352106     Delta-E=       -0.013599557717 Rises=F Damp=F
 DIIS: error= 1.60D-02 at cycle   6 NSaved=   6.
 NSaved= 6 IEnMin= 6 EnMin= -76.5246926352106     IErMin= 6 ErrMin= 1.60D-02
 ErrMax= 1.60D-02  0.00D+00 EMaxC= 1.00D-01 BMatC= 5.91D-02 BMatP= 7.31D-02
 IDIUse=3 WtCom= 8.40D-01 WtEn= 1.60D-01
 Coeff-Com: -0.280D-01 0.388D-01-0.153D+00-0.216D-01 0.570D+00 0.593D+00
 Coeff-En:   0.000D+00 0.000D+00 0.000D+00 0.000D+00 0.472D+00 0.528D+00
 Coeff:     -0.235D-01 0.326D-01-0.128D+00-0.182D-01 0.554D+00 0.583D+00
 Gap=     0.012 Goal=   None    Shift=    0.000
 Gap=     0.282 Goal=   None    Shift=    0.000
 RMSDP=1.28D-04 MaxDP=3.54D-03 DE=-1.36D-02 OVMax= 3.82D-03

 Cycle   7  Pass 1  IDiag  1:
 E= -76.5250916826452     Delta-E=       -0.000399047435 Rises=F Damp=F
 DIIS: error= 1.57D-02 at cycle   7 NSaved=   7.
 NSaved= 7 IEnMin= 7 EnMin= -76.5250916826452     IErMin= 7 ErrMin= 1.57D-02
 ErrMax= 1.57D-02  0.00D+00 EMaxC= 1.00D-01 BMatC= 5.81D-02 BMatP= 5.91D-02
 IDIUse=3 WtCom= 8.43D-01 WtEn= 1.57D-01
 Rare condition: small coef for last iteration:  0.000D+00
 Coeff-Com: -0.223D-01 0.441D-01-0.199D+00-0.243D+00 0.604D+00-0.656D+00
 Coeff-Com:  0.147D+01
 Coeff-En:   0.000D+00 0.000D+00 0.000D+00 0.000D+00 0.471D+00 0.000D+00
 Coeff-En:   0.529D+00
 Coeff:     -0.223D-01 0.441D-01-0.199D+00-0.243D+00 0.604D+00-0.656D+00
 Coeff:      0.147D+01
 Gap=     0.016 Goal=   None    Shift=    0.000
 Gap=     0.275 Goal=   None    Shift=    0.000
 RMSDP=6.39D-05 MaxDP=2.40D-03 DE=-3.99D-04 OVMax= 1.49D-03

 Cycle   8  Pass 1  IDiag  1:
 E= -76.5257673991645     Delta-E=       -0.000675716519 Rises=F Damp=F
 DIIS: error= 1.54D-02 at cycle   8 NSaved=   8.
 NSaved= 8 IEnMin= 8 EnMin= -76.5257673991645     IErMin= 8 ErrMin= 1.54D-02
 ErrMax= 1.54D-02  0.00D+00 EMaxC= 1.00D-01 BMatC= 5.61D-02 BMatP= 5.81D-02
 IDIUse=3 WtCom= 8.46D-01 WtEn= 1.54D-01
 Rare condition: small coef for last iteration:  0.000D+00
 Coeff-Com: -0.214D-01 0.399D-01-0.232D+00-0.411D+00 0.670D+00-0.135D+01
 Coeff-Com:  0.642D+01-0.412D+01
 Coeff-En:   0.000D+00 0.000D+00 0.000D+00 0.000D+00 0.469D+00 0.000D+00
 Coeff-En:   0.000D+00 0.531D+00
 Coeff:     -0.214D-01 0.399D-01-0.232D+00-0.411D+00 0.670D+00-0.135D+01
 Coeff:      0.642D+01-0.412D+01
 Gap=     0.021 Goal=   None    Shift=    0.000
 Gap=     0.298 Goal=   None    Shift=    0.000
 RMSDP=1.84D-04 MaxDP=5.60D-03 DE=-6.76D-04 OVMax= 4.54D-03

 Cycle   9  Pass 1  IDiag  1:
 E= -76.5231495249867     Delta-E=        0.002617874178 Rises=F Damp=F
 DIIS: error= 1.64D-02 at cycle   9 NSaved=   9.
 NSaved= 9 IEnMin= 8 EnMin= -76.5257673991645     IErMin= 8 ErrMin= 1.54D-02
 ErrMax= 1.64D-02  0.00D+00 EMaxC= 1.00D-01 BMatC= 6.31D-02 BMatP= 5.61D-02
 IDIUse=2 WtCom= 0.00D+00 WtEn= 1.00D+00
 EnCoef did   100 forward-backward iterations
 Coeff-En:   0.000D+00 0.000D+00 0.000D+00 0.000D+00 0.475D+00 0.520D-02
 Coeff-En:   0.000D+00 0.000D+00 0.519D+00
 Coeff:      0.000D+00 0.000D+00 0.000D+00 0.000D+00 0.475D+00 0.520D-02
 Coeff:      0.000D+00 0.000D+00 0.519D+00
 Gap=    -0.001 Goal=   None    Shift=    0.000
 Gap=     0.291 Goal=   None    Shift=    0.000
 RMSDP=8.56D-03 MaxDP=1.64D-01 DE= 2.62D-03 OVMax= 1.00D+00

 Cycle  10  Pass 1  IDiag  1:
 E= -76.5212641398994     Delta-E=        0.001885385087 Rises=F Damp=F
 DIIS: error= 1.71D-02 at cycle  10 NSaved=  10.
 NSaved=10 IEnMin= 8 EnMin= -76.5257673991645     IErMin= 8 ErrMin= 1.54D-02
 ErrMax= 1.71D-02  0.00D+00 EMaxC= 1.00D-01 BMatC= 6.74D-02 BMatP= 5.61D-02
 IDIUse=2 WtCom= 0.00D+00 WtEn= 1.00D+00
 Coeff-En:   0.000D+00 0.000D+00 0.000D+00 0.000D+00 0.000D+00 0.000D+00
 Coeff-En:   0.000D+00 0.000D+00 0.504D+00 0.496D+00
 Coeff:      0.000D+00 0.000D+00 0.000D+00 0.000D+00 0.000D+00 0.000D+00
 Coeff:      0.000D+00 0.000D+00 0.504D+00 0.496D+00
 Gap=    -0.000 Goal=   None    Shift=    0.000
 Gap=     0.303 Goal=   None    Shift=    0.000
 RMSDP=8.55D-03 MaxDP=1.62D-01 DE= 1.89D-03 OVMax= 1.00D+00

 Cycle  11  Pass 1  IDiag  1:
 E= -76.5235357400451     Delta-E=       -0.002271600146 Rises=F Damp=F
 DIIS: error= 1.63D-02 at cycle  11 NSaved=  11.
 NSaved=11 IEnMin= 8 EnMin= -76.5257673991645     IErMin= 8 ErrMin= 1.54D-02
 ErrMax= 1.63D-02  0.00D+00 EMaxC= 1.00D-01 BMatC= 6.21D-02 BMatP= 5.61D-02
 IDIUse=2 WtCom= 0.00D+00 WtEn= 1.00D+00
 Coeff-En:   0.000D+00 0.000D+00 0.000D+00 0.000D+00 0.000D+00 0.000D+00
 Coeff-En:   0.000D+00 0.000D+00 0.000D+00 0.495D+00 0.505D+00
 Coeff:      0.000D+00 0.000D+00 0.000D+00 0.000D+00 0.000D+00 0.000D+00
 Coeff:      0.000D+00 0.000D+00 0.000D+00 0.495D+00 0.505D+00
 Gap=     0.000 Goal=   None    Shift=    0.000
 Gap=     0.303 Goal=   None    Shift=    0.000
 RMSDP=5.60D-03 MaxDP=7.76D-02 DE=-2.27D-03 OVMax= 6.56D-01

 Cycle  12  Pass 1  IDiag  1:
 E= -76.5842202541762     Delta-E=       -0.060684514131 Rises=F Damp=F
 DIIS: error= 4.18D-03 at cycle  12 NSaved=  12.
 NSaved=12 IEnMin=12 EnMin= -76.5842202541762     IErMin=12 ErrMin= 4.18D-03
 ErrMax= 4.18D-03  0.00D+00 EMaxC= 1.00D-01 BMatC= 1.33D-03 BMatP= 5.61D-02
 IDIUse=3 WtCom= 9.58D-01 WtEn= 4.18D-02
 Coeff-Com:  0.657D-02 0.376D-02-0.558D-02 0.448D-02-0.971D+00 0.220D+01
 Coeff-Com:  0.321D+00 0.103D+01-0.190D+01 0.124D+01-0.149D+01 0.559D+00
 Coeff-En:   0.000D+00 0.000D+00 0.000D+00 0.000D+00 0.000D+00 0.000D+00
 Coeff-En:   0.000D+00 0.000D+00 0.000D+00 0.259D-01 0.000D+00 0.974D+00
 Coeff:      0.629D-02 0.360D-02-0.535D-02 0.429D-02-0.931D+00 0.210D+01
 Coeff:      0.308D+00 0.991D+00-0.182D+01 0.119D+01-0.143D+01 0.577D+00
 Gap=     0.009 Goal=   None    Shift=    0.000
 Gap=     0.319 Goal=   None    Shift=    0.000
 RMSDP=2.31D-03 MaxDP=4.17D-02 DE=-6.07D-02 OVMax= 2.70D-01

 Cycle  13  Pass 1  IDiag  1:
 E= -76.5608977045571     Delta-E=        0.023322549619 Rises=F Damp=F
 DIIS: error= 2.00D-02 at cycle  13 NSaved=  13.
 NSaved=13 IEnMin=12 EnMin= -76.5842202541762     IErMin=12 ErrMin= 4.18D-03
 ErrMax= 2.00D-02  0.00D+00 EMaxC= 1.00D-01 BMatC= 3.37D-02 BMatP= 1.33D-03
 IDIUse=2 WtCom= 0.00D+00 WtEn= 1.00D+00
 Rare condition: small coef for last iteration:  0.000D+00
 Coeff-En:   0.000D+00 0.000D+00 0.000D+00 0.000D+00 0.000D+00 0.000D+00
 Coeff-En:   0.000D+00 0.000D+00 0.000D+00 0.368D+00 0.000D+00 0.000D+00
 Coeff-En:   0.632D+00
 Coeff:      0.000D+00 0.000D+00 0.000D+00 0.000D+00 0.000D+00 0.000D+00
 Coeff:      0.000D+00 0.000D+00 0.000D+00 0.368D+00 0.000D+00 0.000D+00
 Coeff:      0.632D+00
 Gap=     0.001 Goal=   None    Shift=    0.000
 Gap=     0.315 Goal=   None    Shift=    0.000
 RMSDP=5.68D-03 MaxDP=1.10D-01 DE= 2.33D-02 OVMax= 6.63D-01

 Cycle  14  Pass 1  IDiag  1:
 E= -76.5518696025695     Delta-E=        0.009028101988 Rises=F Damp=F
 DIIS: error= 2.06D-02 at cycle  14 NSaved=  14.
 NSaved=14 IEnMin=12 EnMin= -76.5842202541762     IErMin=12 ErrMin= 4.18D-03
 ErrMax= 2.06D-02  0.00D+00 EMaxC= 1.00D-01 BMatC= 4.36D-02 BMatP= 1.33D-03
 IDIUse=2 WtCom= 0.00D+00 WtEn= 1.00D+00
 Coeff-En:   0.000D+00 0.000D+00 0.000D+00 0.000D+00 0.000D+00 0.000D+00
 Coeff-En:   0.000D+00 0.000D+00 0.000D+00 0.000D+00 0.000D+00 0.000D+00
 Coeff-En:   0.542D+00 0.458D+00
 Coeff:      0.000D+00 0.000D+00 0.000D+00 0.000D+00 0.000D+00 0.000D+00
 Coeff:      0.000D+00 0.000D+00 0.000D+00 0.000D+00 0.000D+00 0.000D+00
 Coeff:      0.542D+00 0.458D+00
 Gap=     0.009 Goal=   None    Shift=    0.000
 Gap=     0.305 Goal=   None    Shift=    0.000
 RMSDP=2.91D-03 MaxDP=5.09D-02 DE= 9.03D-03 OVMax= 3.40D-01

 Cycle  15  Pass 1  IDiag  1:
 E= -76.5843087349489     Delta-E=       -0.032439132379 Rises=F Damp=F
 DIIS: error= 4.24D-03 at cycle  15 NSaved=  15.
 NSaved=15 IEnMin=15 EnMin= -76.5843087349489     IErMin=12 ErrMin= 4.18D-03
 ErrMax= 4.24D-03  0.00D+00 EMaxC= 1.00D-01 BMatC= 1.12D-03 BMatP= 1.33D-03
 IDIUse=3 WtCom= 9.58D-01 WtEn= 4.18D-02
 EnCoef did   100 forward-backward iterations
 Coeff-Com:  0.526D-02-0.657D-03-0.290D-01-0.242D-01-0.156D+00 0.318D+00
 Coeff-Com: -0.248D+00-0.471D+00 0.995D+00 0.134D+00-0.774D+00-0.343D+00
 Coeff-Com:  0.466D+00 0.124D+00 0.100D+01
 Coeff-En:   0.000D+00 0.000D+00 0.000D+00 0.000D+00 0.000D+00 0.000D+00
 Coeff-En:   0.000D+00 0.000D+00 0.000D+00 0.000D+00 0.000D+00 0.476D+00
 Coeff-En:   0.206D-02 0.000D+00 0.522D+00
 Coeff:      0.504D-02-0.630D-03-0.278D-01-0.232D-01-0.149D+00 0.305D+00
 Coeff:     -0.238D+00-0.452D+00 0.953D+00 0.129D+00-0.741D+00-0.309D+00
 Coeff:      0.446D+00 0.119D+00 0.983D+00
 Gap=     0.016 Goal=   None    Shift=    0.000
 Gap=     0.341 Goal=   None    Shift=    0.000
 RMSDP=2.73D-03 MaxDP=5.19D-02 DE=-3.24D-02 OVMax= 3.17D-01

 Cycle  16  Pass 1  IDiag  1:
 E= -76.5659171735972     Delta-E=        0.018391561352 Rises=F Damp=F
 DIIS: error= 1.92D-02 at cycle  16 NSaved=  16.
 NSaved=16 IEnMin=15 EnMin= -76.5843087349489     IErMin=12 ErrMin= 4.18D-03
 ErrMax= 1.92D-02  0.00D+00 EMaxC= 1.00D-01 BMatC= 3.04D-02 BMatP= 1.12D-03
 IDIUse=2 WtCom= 0.00D+00 WtEn= 1.00D+00
 EnCoef did   100 forward-backward iterations
 Rare condition: small coef for last iteration:  0.423D-15
 Coeff-En:   0.000D+00 0.000D+00 0.000D+00 0.000D+00 0.000D+00 0.000D+00
 Coeff-En:   0.000D+00 0.000D+00 0.000D+00 0.000D+00 0.000D+00 0.154D+00
 Coeff-En:   0.000D+00 0.000D+00 0.731D+00 0.115D+00
 Coeff:      0.000D+00 0.000D+00 0.000D+00 0.000D+00 0.000D+00 0.000D+00
 Coeff:      0.000D+00 0.000D+00 0.000D+00 0.000D+00 0.000D+00 0.154D+00
 Coeff:      0.000D+00 0.000D+00 0.731D+00 0.115D+00
 Gap=     0.013 Goal=   None    Shift=    0.000
 Gap=     0.307 Goal=   None    Shift=    0.000
 RMSDP=2.50D-03 MaxDP=4.75D-02 DE= 1.84D-02 OVMax= 2.89D-01

 Cycle  17  Pass 1  IDiag  1:
 E= -76.5848715220251     Delta-E=       -0.018954348428 Rises=F Damp=F
 DIIS: error= 1.87D-03 at cycle  17 NSaved=  17.
 NSaved=17 IEnMin=17 EnMin= -76.5848715220251     IErMin=17 ErrMin= 1.87D-03
 ErrMax= 1.87D-03  0.00D+00 EMaxC= 1.00D-01 BMatC= 2.13D-04 BMatP= 1.12D-03
 IDIUse=3 WtCom= 9.81D-01 WtEn= 1.87D-02
 EnCoef did   100 forward-backward iterations
 Coeff-Com:  0.374D-03-0.529D-04-0.299D-02-0.369D-02-0.180D-01-0.571D-01
 Coeff-Com:  0.196D+00-0.164D+00 0.294D-01 0.275D-01-0.129D-01 0.135D-01
 Coeff-Com:  0.173D-02-0.149D-01-0.181D+00 0.510D-01 0.113D+01
 Coeff-En:   0.000D+00 0.000D+00 0.000D+00 0.000D+00 0.000D+00 0.000D+00
 Coeff-En:   0.000D+00 0.000D+00 0.000D+00 0.000D+00 0.000D+00 0.242D+00
 Coeff-En:   0.000D+00 0.000D+00 0.000D+00 0.116D-02 0.757D+00
 Coeff:      0.367D-03-0.519D-04-0.294D-02-0.362D-02-0.177D-01-0.561D-01
 Coeff:      0.193D+00-0.161D+00 0.289D-01 0.270D-01-0.127D-01 0.177D-01
 Coeff:      0.170D-02-0.146D-01-0.177D+00 0.501D-01 0.113D+01
 Gap=     0.016 Goal=   None    Shift=    0.000
 Gap=     0.311 Goal=   None    Shift=    0.000
 RMSDP=5.62D-04 MaxDP=1.09D-02 DE=-1.90D-02 OVMax= 6.53D-02

 Cycle  18  Pass 1  IDiag  1:
 E= -76.5844998894756     Delta-E=        0.000371632550 Rises=F Damp=F
 DIIS: error= 3.63D-03 at cycle  18 NSaved=  18.
 NSaved=18 IEnMin=17 EnMin= -76.5848715220251     IErMin=17 ErrMin= 1.87D-03
 ErrMax= 3.63D-03  0.00D+00 EMaxC= 1.00D-01 BMatC= 8.48D-04 BMatP= 2.13D-04
 IDIUse=3 WtCom= 9.81D-01 WtEn= 1.87D-02
 Coeff-Com: -0.115D-04-0.682D-05 0.336D-03-0.894D-03-0.112D-01 0.145D-01
 Coeff-Com:  0.397D-01-0.570D-01 0.343D-01 0.200D-01-0.215D-01-0.271D-01
 Coeff-Com:  0.224D-01-0.467D-02-0.787D-01-0.907D-01 0.581D+00 0.579D+00
 Coeff-En:   0.000D+00 0.000D+00 0.000D+00 0.000D+00 0.000D+00 0.000D+00
 Coeff-En:   0.000D+00 0.000D+00 0.000D+00 0.000D+00 0.000D+00 0.000D+00
 Coeff-En:   0.000D+00 0.000D+00 0.000D+00 0.000D+00 0.671D+00 0.329D+00
 Coeff:     -0.113D-04-0.669D-05 0.330D-03-0.878D-03-0.110D-01 0.142D-01
 Coeff:      0.389D-01-0.559D-01 0.337D-01 0.196D-01-0.211D-01-0.266D-01
 Coeff:      0.220D-01-0.458D-02-0.772D-01-0.890D-01 0.583D+00 0.575D+00
 Gap=     0.016 Goal=   None    Shift=    0.000
 Gap=     0.306 Goal=   None    Shift=    0.000
 RMSDP=3.02D-04 MaxDP=5.82D-03 DE= 3.72D-04 OVMax= 3.50D-02

 Cycle  19  Pass 1  IDiag  1:
 E= -76.5849888774977     Delta-E=       -0.000488988022 Rises=F Damp=F
 DIIS: error= 6.53D-04 at cycle  19 NSaved=  19.
 NSaved=19 IEnMin=19 EnMin= -76.5849888774977     IErMin=19 ErrMin= 6.53D-04
 ErrMax= 6.53D-04  0.00D+00 EMaxC= 1.00D-01 BMatC= 2.67D-05 BMatP= 2.13D-04
 IDIUse=3 WtCom= 9.93D-01 WtEn= 6.53D-03
 Coeff-Com: -0.659D-04 0.106D-04-0.379D-03 0.914D-03 0.468D-02 0.301D-02
 Coeff-Com: -0.635D-01 0.197D-01 0.417D-01-0.314D-02 0.454D-02-0.293D-01
 Coeff-Com: -0.118D-01 0.760D-02 0.664D-01-0.295D-01-0.211D+00 0.609D-01
 Coeff-Com:  0.114D+01
 Coeff-En:   0.000D+00 0.000D+00 0.000D+00 0.000D+00 0.000D+00 0.000D+00
 Coeff-En:   0.000D+00 0.000D+00 0.000D+00 0.000D+00 0.000D+00 0.000D+00
 Coeff-En:   0.000D+00 0.000D+00 0.000D+00 0.000D+00 0.241D+00 0.000D+00
 Coeff-En:   0.759D+00
 Coeff:     -0.655D-04 0.105D-04-0.377D-03 0.908D-03 0.465D-02 0.299D-02
 Coeff:     -0.631D-01 0.195D-01 0.414D-01-0.312D-02 0.451D-02-0.291D-01
 Coeff:     -0.117D-01 0.755D-02 0.659D-01-0.293D-01-0.208D+00 0.605D-01
 Coeff:      0.114D+01
 Gap=     0.016 Goal=   None    Shift=    0.000
 Gap=     0.307 Goal=   None    Shift=    0.000
 RMSDP=3.27D-05 MaxDP=6.32D-04 DE=-4.89D-04 OVMax= 3.76D-03

 Cycle  20  Pass 1  IDiag  1:
 E= -76.5850009731071     Delta-E=       -0.000012095609 Rises=F Damp=F
 DIIS: error= 3.29D-04 at cycle  20 NSaved=  20.
 NSaved=20 IEnMin=20 EnMin= -76.5850009731071     IErMin=20 ErrMin= 3.29D-04
 ErrMax= 3.29D-04  0.00D+00 EMaxC= 1.00D-01 BMatC= 6.61D-06 BMatP= 2.67D-05
 IDIUse=3 WtCom= 9.97D-01 WtEn= 3.29D-03
 Coeff-Com:  0.123D-04-0.136D-04-0.100D-03 0.513D-03-0.928D-05-0.602D-03
 Coeff-Com: -0.813D-02-0.456D-02 0.139D-01 0.140D-03 0.276D-02-0.645D-02
 Coeff-Com: -0.621D-02 0.755D-02 0.109D-01-0.235D-01-0.104D-01 0.166D+00
 Coeff-Com: -0.318D+00 0.118D+01
 Coeff-En:   0.000D+00 0.000D+00 0.000D+00 0.000D+00 0.000D+00 0.000D+00
 Coeff-En:   0.000D+00 0.000D+00 0.000D+00 0.000D+00 0.000D+00 0.000D+00
 Coeff-En:   0.000D+00 0.000D+00 0.000D+00 0.000D+00 0.124D+00 0.000D+00
 Coeff-En:   0.000D+00 0.876D+00
 Coeff:      0.122D-04-0.136D-04-0.100D-03 0.511D-03-0.925D-05-0.600D-03
 Coeff:     -0.810D-02-0.454D-02 0.139D-01 0.140D-03 0.275D-02-0.643D-02
 Coeff:     -0.619D-02 0.752D-02 0.109D-01-0.234D-01-0.998D-02 0.165D+00
 Coeff:     -0.317D+00 0.118D+01
 Gap=     0.016 Goal=   None    Shift=    0.000
 Gap=     0.307 Goal=   None    Shift=    0.000
 RMSDP=1.80D-05 MaxDP=3.60D-04 DE=-1.21D-05 OVMax= 2.09D-03

 Cycle  21  Pass 1  IDiag  1:
 E= -76.5850041847165     Delta-E=       -0.000003211609 Rises=F Damp=F
 DIIS: error= 1.54D-04 at cycle  21 NSaved=  20.
 NSaved=20 IEnMin=20 EnMin= -76.5850041847165     IErMin=20 ErrMin= 1.54D-04
 ErrMax= 1.54D-04  0.00D+00 EMaxC= 1.00D-01 BMatC= 1.46D-06 BMatP= 6.61D-06
 IDIUse=3 WtCom= 9.98D-01 WtEn= 1.54D-03
 Coeff-Com: -0.824D-06-0.163D-04 0.141D-03 0.932D-03 0.315D-02-0.629D-02
 Coeff-Com:  0.380D-02 0.281D-02-0.114D-02-0.187D-02-0.374D-02-0.133D-02
 Coeff-Com:  0.325D-02-0.220D-02-0.118D-01-0.354D-03 0.955D-01 0.665D-01
 Coeff-Com: -0.111D+01 0.196D+01
 Coeff-En:   0.000D+00 0.000D+00 0.000D+00 0.000D+00 0.000D+00 0.000D+00
 Coeff-En:   0.000D+00 0.000D+00 0.000D+00 0.000D+00 0.000D+00 0.000D+00
 Coeff-En:   0.000D+00 0.000D+00 0.000D+00 0.446D-01 0.000D+00 0.000D+00
 Coeff-En:   0.000D+00 0.955D+00
 Coeff:     -0.823D-06-0.163D-04 0.141D-03 0.931D-03 0.315D-02-0.628D-02
 Coeff:      0.380D-02 0.281D-02-0.114D-02-0.186D-02-0.373D-02-0.132D-02
 Coeff:      0.324D-02-0.220D-02-0.118D-01-0.285D-03 0.953D-01 0.664D-01
 Coeff:     -0.110D+01 0.196D+01
 Gap=     0.016 Goal=   None    Shift=    0.000
 Gap=     0.307 Goal=   None    Shift=    0.000
 RMSDP=2.22D-05 MaxDP=4.43D-04 DE=-3.21D-06 OVMax= 2.58D-03

 Cycle  22  Pass 1  IDiag  1:
 E= -76.5850049449503     Delta-E=       -0.000000760234 Rises=F Damp=F
 DIIS: error= 6.29D-05 at cycle  22 NSaved=  20.
 NSaved=20 IEnMin=20 EnMin= -76.5850049449503     IErMin=20 ErrMin= 6.29D-05
 ErrMax= 6.29D-05  0.00D+00 EMaxC= 1.00D-01 BMatC= 2.72D-07 BMatP= 1.46D-06
 IDIUse=1 WtCom= 1.00D+00 WtEn= 0.00D+00
 Coeff-Com:  0.440D-05 0.396D-04-0.699D-04-0.473D-03-0.168D-02 0.731D-03
 Coeff-Com:  0.419D-03 0.177D-04 0.115D-02-0.554D-03-0.393D-03 0.206D-03
 Coeff-Com:  0.237D-02-0.172D-02-0.103D-01 0.560D-01-0.832D-02 0.516D-01
 Coeff-Com: -0.556D+00 0.147D+01
 Coeff:      0.440D-05 0.396D-04-0.699D-04-0.473D-03-0.168D-02 0.731D-03
 Coeff:      0.419D-03 0.177D-04 0.115D-02-0.554D-03-0.393D-03 0.206D-03
 Coeff:      0.237D-02-0.172D-02-0.103D-01 0.560D-01-0.832D-02 0.516D-01
 Coeff:     -0.556D+00 0.147D+01
 Gap=     0.016 Goal=   None    Shift=    0.000
 Gap=     0.307 Goal=   None    Shift=    0.000
 RMSDP=6.09D-06 MaxDP=1.15D-04 DE=-7.60D-07 OVMax= 6.98D-04

 Cycle  23  Pass 1  IDiag  1:
 E= -76.5850050973349     Delta-E=       -0.000000152385 Rises=F Damp=F
 DIIS: error= 1.59D-06 at cycle  23 NSaved=  20.
 NSaved=20 IEnMin=20 EnMin= -76.5850050973349     IErMin=20 ErrMin= 1.59D-06
 ErrMax= 1.59D-06  0.00D+00 EMaxC= 1.00D-01 BMatC= 2.63D-10 BMatP= 2.72D-07
 IDIUse=1 WtCom= 1.00D+00 WtEn= 0.00D+00
 Coeff-Com: -0.100D-04-0.152D-04 0.737D-04-0.260D-03-0.418D-04 0.248D-03
 Coeff-Com:  0.131D-04-0.355D-04 0.119D-03 0.104D-03 0.201D-04-0.796D-04
 Coeff-Com:  0.898D-04-0.810D-04-0.625D-02 0.330D-03 0.520D-01-0.610D-01
 Coeff-Com: -0.198D+00 0.121D+01
 Coeff:     -0.100D-04-0.152D-04 0.737D-04-0.260D-03-0.418D-04 0.248D-03
 Coeff:      0.131D-04-0.355D-04 0.119D-03 0.104D-03 0.201D-04-0.796D-04
 Coeff:      0.898D-04-0.810D-04-0.625D-02 0.330D-03 0.520D-01-0.610D-01
 Coeff:     -0.198D+00 0.121D+01
 Gap=     0.016 Goal=   None    Shift=    0.000
 Gap=     0.307 Goal=   None    Shift=    0.000
 RMSDP=2.40D-07 MaxDP=4.34D-06 DE=-1.52D-07 OVMax= 2.49D-05

 Cycle  24  Pass 1  IDiag  1:
 E= -76.5850050974309     Delta-E=       -0.000000000096 Rises=F Damp=F
 DIIS: error= 7.99D-07 at cycle  24 NSaved=  20.
 NSaved=20 IEnMin=20 EnMin= -76.5850050974309     IErMin=20 ErrMin= 7.99D-07
 ErrMax= 7.99D-07  0.00D+00 EMaxC= 1.00D-01 BMatC= 4.36D-11 BMatP= 2.63D-10
 IDIUse=1 WtCom= 1.00D+00 WtEn= 0.00D+00
 Coeff-Com: -0.672D-06 0.659D-04-0.246D-04-0.277D-04 0.847D-04 0.575D-05
 Coeff-Com: -0.108D-03 0.129D-04 0.470D-05-0.110D-04-0.117D-03 0.708D-04
 Coeff-Com:  0.471D-03-0.198D-02 0.610D-03-0.943D-02 0.339D-01-0.380D-01
 Coeff-Com: -0.112D+00 0.113D+01
 Coeff:     -0.672D-06 0.659D-04-0.246D-04-0.277D-04 0.847D-04 0.575D-05
 Coeff:     -0.108D-03 0.129D-04 0.470D-05-0.110D-04-0.117D-03 0.708D-04
 Coeff:      0.471D-03-0.198D-02 0.610D-03-0.943D-02 0.339D-01-0.380D-01
 Coeff:     -0.112D+00 0.113D+01
 Gap=     0.016 Goal=   None    Shift=    0.000
 Gap=     0.307 Goal=   None    Shift=    0.000
 RMSDP=1.52D-07 MaxDP=3.08D-06 DE=-9.61D-11 OVMax= 1.77D-05

 Cycle  25  Pass 1  IDiag  1:
 E= -76.5850050972632     Delta-E=        0.000000000168 Rises=F Damp=F
 DIIS: error= 2.27D-06 at cycle  25 NSaved=  20.
 NSaved=20 IEnMin=19 EnMin= -76.5850050974309     IErMin=19 ErrMin= 7.99D-07
 ErrMax= 2.27D-06  0.00D+00 EMaxC= 1.00D-01 BMatC= 3.24D-10 BMatP= 4.36D-11
 IDIUse=1 WtCom= 1.00D+00 WtEn= 0.00D+00
 Coeff-Com: -0.323D-04 0.430D-04-0.186D-04-0.145D-04 0.128D-05 0.220D-04
 Coeff-Com: -0.249D-04 0.560D-05-0.419D-05 0.701D-04 0.144D-04-0.619D-04
 Coeff-Com: -0.801D-03 0.129D-02 0.205D-02-0.891D-02 0.554D-02 0.291D-01
 Coeff-Com: -0.524D+00 0.150D+01
 Coeff:     -0.323D-04 0.430D-04-0.186D-04-0.145D-04 0.128D-05 0.220D-04
 Coeff:     -0.249D-04 0.560D-05-0.419D-05 0.701D-04 0.144D-04-0.619D-04
 Coeff:     -0.801D-03 0.129D-02 0.205D-02-0.891D-02 0.554D-02 0.291D-01
 Coeff:     -0.524D+00 0.150D+01
 Gap=     0.016 Goal=   None    Shift=    0.000
 Gap=     0.307 Goal=   None    Shift=    0.000
 RMSDP=2.38D-07 MaxDP=4.73D-06 DE= 1.68D-10 OVMax= 2.76D-05

 Cycle  26  Pass 1  IDiag  1:
 E= -76.5850050974557     Delta-E=       -0.000000000193 Rises=F Damp=F
 DIIS: error= 1.23D-07 at cycle  26 NSaved=  20.
 NSaved=20 IEnMin=20 EnMin= -76.5850050974557     IErMin=20 ErrMin= 1.23D-07
 ErrMax= 1.23D-07  0.00D+00 EMaxC= 1.00D-01 BMatC= 7.08D-13 BMatP= 4.36D-11
 IDIUse=1 WtCom= 1.00D+00 WtEn= 0.00D+00
 Large coefficients: NSaved= 20 BigCof=    0.00 CofMax=   10.00 Det=-5.05D-15
 Inversion failed.  Reducing to 19 matrices.
 Large coefficients: NSaved= 19 BigCof=    0.00 CofMax=   10.00 Det=-5.18D-15
 Inversion failed.  Reducing to 18 matrices.
 Large coefficients: NSaved= 18 BigCof=    0.00 CofMax=   10.00 Det=-6.16D-15
 Inversion failed.  Reducing to 17 matrices.
 Large coefficients: NSaved= 17 BigCof=    0.00 CofMax=   10.00 Det=-9.63D-15
 Inversion failed.  Reducing to 16 matrices.
 Large coefficients: NSaved= 16 BigCof=    0.00 CofMax=   10.00 Det=-9.63D-15
 Inversion failed.  Reducing to 15 matrices.
 Coeff-Com: -0.376D-07-0.740D-06-0.438D-06 0.582D-05-0.450D-06-0.180D-05
 Coeff-Com:  0.688D-04-0.231D-03 0.742D-03 0.345D-04-0.203D-02 0.990D-02
 Coeff-Com: -0.431D-02-0.136D+00 0.113D+01
 Coeff:     -0.376D-07-0.740D-06-0.438D-06 0.582D-05-0.450D-06-0.180D-05
 Coeff:      0.688D-04-0.231D-03 0.742D-03 0.345D-04-0.203D-02 0.990D-02
 Coeff:     -0.431D-02-0.136D+00 0.113D+01
 Gap=     0.016 Goal=   None    Shift=    0.000
 Gap=     0.307 Goal=   None    Shift=    0.000
 RMSDP=1.94D-08 MaxDP=4.04D-07 DE=-1.93D-10 OVMax= 2.26D-06

 Cycle  27  Pass 1  IDiag  1:
 E= -76.5850050974569     Delta-E=       -0.000000000001 Rises=F Damp=F
 DIIS: error= 4.06D-08 at cycle  27 NSaved=  16.
 NSaved=16 IEnMin=16 EnMin= -76.5850050974569     IErMin=16 ErrMin= 4.06D-08
 ErrMax= 4.06D-08  0.00D+00 EMaxC= 1.00D-01 BMatC= 8.63D-14 BMatP= 7.08D-13
 IDIUse=1 WtCom= 1.00D+00 WtEn= 0.00D+00
 Large coefficients: NSaved= 16 BigCof=    0.00 CofMax=   10.00 Det=-4.27D-16
 Inversion failed.  Reducing to 15 matrices.
 Coeff-Com:  0.922D-06-0.203D-07-0.320D-05-0.239D-07 0.411D-05 0.817D-05
 Coeff-Com: -0.285D-05-0.162D-03 0.175D-03 0.393D-03-0.351D-02 0.163D-01
 Coeff-Com: -0.167D-01-0.184D+00 0.119D+01
 Coeff:      0.922D-06-0.203D-07-0.320D-05-0.239D-07 0.411D-05 0.817D-05
 Coeff:     -0.285D-05-0.162D-03 0.175D-03 0.393D-03-0.351D-02 0.163D-01
 Coeff:     -0.167D-01-0.184D+00 0.119D+01
 Gap=     0.016 Goal=   None    Shift=    0.000
 Gap=     0.307 Goal=   None    Shift=    0.000
 RMSDP=1.57D-08 MaxDP=1.91D-07 DE=-1.11D-12 OVMax= 1.83D-06

 Cycle  28  Pass 1  IDiag  1:
 E= -76.5850050974576     Delta-E=       -0.000000000001 Rises=F Damp=F
 DIIS: error= 4.06D-08 at cycle  28 NSaved=  16.
 NSaved=16 IEnMin=16 EnMin= -76.5850050974576     IErMin=15 ErrMin= 4.06D-08
 ErrMax= 4.06D-08  0.00D+00 EMaxC= 1.00D-01 BMatC= 7.68D-14 BMatP= 8.63D-14
 IDIUse=1 WtCom= 1.00D+00 WtEn= 0.00D+00
 Large coefficients: NSaved= 16 BigCof=    0.00 CofMax=   10.00 Det=-1.25D-17
 Inversion failed.  Reducing to 15 matrices.
 Coeff-Com: -0.311D-07-0.961D-08 0.121D-07-0.435D-06 0.467D-06 0.352D-05
 Coeff-Com: -0.120D-04-0.200D-04 0.115D-03-0.367D-03 0.919D-04 0.331D-02
 Coeff-Com: -0.189D-01-0.496D-01 0.107D+01
 Coeff:     -0.311D-07-0.961D-08 0.121D-07-0.435D-06 0.467D-06 0.352D-05
 Coeff:     -0.120D-04-0.200D-04 0.115D-03-0.367D-03 0.919D-04 0.331D-02
 Coeff:     -0.189D-01-0.496D-01 0.107D+01
 Gap=     0.016 Goal=   None    Shift=    0.000
 Gap=     0.307 Goal=   None    Shift=    0.000
 RMSDP=1.41D-08 MaxDP=1.51D-07 DE=-7.39D-13 OVMax= 1.64D-06

 Cycle  29  Pass 1  IDiag  1:
 E= -76.5850050974582     Delta-E=       -0.000000000001 Rises=F Damp=F
 DIIS: error= 4.06D-08 at cycle  29 NSaved=  16.
 NSaved=16 IEnMin=16 EnMin= -76.5850050974582     IErMin=14 ErrMin= 4.06D-08
 ErrMax= 4.06D-08  0.00D+00 EMaxC= 1.00D-01 BMatC= 7.68D-14 BMatP= 7.68D-14
 IDIUse=1 WtCom= 1.00D+00 WtEn= 0.00D+00
 Large coefficients: NSaved= 16 BigCof=    0.00 CofMax=   10.00 Det=-3.29D-19
 Inversion failed.  Reducing to 15 matrices.
 Coeff-Com: -0.854D-07 0.235D-07-0.813D-06 0.131D-05 0.623D-05-0.236D-04
 Coeff-Com: -0.367D-04 0.233D-03-0.757D-03 0.268D-03 0.642D-02-0.340D-01
 Coeff-Com: -0.137D+00 0.232D+01-0.116D+01
 Coeff:     -0.854D-07 0.235D-07-0.813D-06 0.131D-05 0.623D-05-0.236D-04
 Coeff:     -0.367D-04 0.233D-03-0.757D-03 0.268D-03 0.642D-02-0.340D-01
 Coeff:     -0.137D+00 0.232D+01-0.116D+01
 Gap=     0.016 Goal=   None    Shift=    0.000
 Gap=     0.307 Goal=   None    Shift=    0.000
 RMSDP=1.46D-08 MaxDP=1.56D-07 DE=-5.68D-13 OVMax= 1.70D-06

 Cycle  30  Pass 1  IDiag  1:
 E= -76.5850050974575     Delta-E=        0.000000000001 Rises=F Damp=F
 DIIS: error= 4.06D-08 at cycle  30 NSaved=  16.
 NSaved=16 IEnMin=15 EnMin= -76.5850050974582     IErMin=13 ErrMin= 4.06D-08
 ErrMax= 4.06D-08  0.00D+00 EMaxC= 1.00D-01 BMatC= 7.68D-14 BMatP= 7.68D-14
 IDIUse=1 WtCom= 1.00D+00 WtEn= 0.00D+00
 Large coefficients: NSaved= 16 BigCof=    0.00 CofMax=   10.00 Det=-1.21D-20
 Inversion failed.  Reducing to 15 matrices.
 Large coefficients: NSaved= 15 BigCof=   86.81 CofMax=   10.00 Det=-1.42D-20
 Inversion failed.  Reducing to 14 matrices.
 Large coefficients: NSaved= 14 BigCof=   86.82 CofMax=   10.00 Det=-1.42D-20
 Inversion failed.  Reducing to 13 matrices.
 Large coefficients: NSaved= 13 BigCof=   86.84 CofMax=   10.00 Det=-1.42D-20
 Inversion failed.  Reducing to 12 matrices.
 Large coefficients: NSaved= 12 BigCof=   61.01 CofMax=   10.00 Det=-1.95D-20
 Inversion failed.  Reducing to 11 matrices.
 Large coefficients: NSaved= 11 BigCof=   60.84 CofMax=   10.00 Det=-1.96D-20
 Inversion failed.  Reducing to 10 matrices.
 Large coefficients: NSaved= 10 BigCof=   58.74 CofMax=   10.00 Det=-2.02D-20
 Inversion failed.  Reducing to  9 matrices.
 Large coefficients: NSaved=  9 BigCof=   56.82 CofMax=   10.00 Det=-2.05D-20
 Inversion failed.  Reducing to  8 matrices.
 Large coefficients: NSaved=  8 BigCof=   42.48 CofMax=   10.00 Det=-2.65D-20
 Inversion failed.  Reducing to  7 matrices.
 Large coefficients: NSaved=  7 BigCof=   31.04 CofMax=   10.00 Det=-3.63D-20
 Inversion failed.  Reducing to  6 matrices.
 Large coefficients: NSaved=  6 BigCof=   28.68 CofMax=   10.00 Det=-3.91D-20
 Inversion failed.  Reducing to  5 matrices.
 Large coefficients: NSaved=  5 BigCof=   26.12 CofMax=   10.00 Det=-4.25D-20
 Inversion failed.  Reducing to  4 matrices.
 Large coefficients: NSaved=  4 BigCof=   21.33 CofMax=   10.00 Det=-5.11D-20
 Inversion failed.  Reducing to  3 matrices.
 Coeff-Com:  0.250D+01-0.702D+01 0.552D+01
 Coeff:      0.250D+01-0.702D+01 0.552D+01
 Gap=     0.016 Goal=   None    Shift=    0.000
 Gap=     0.307 Goal=   None    Shift=    0.000
 RMSDP=8.83D-08 MaxDP=9.42D-07 DE= 6.25D-13 OVMax= 1.03D-05

 Cycle  31  Pass 1  IDiag  1:
 E= -76.5850050974538     Delta-E=        0.000000000004 Rises=F Damp=F
 DIIS: error= 4.06D-08 at cycle  31 NSaved=   4.
 NSaved= 4 IEnMin= 2 EnMin= -76.5850050974582     IErMin= 4 ErrMin= 4.06D-08
 ErrMax= 4.06D-08  0.00D+00 EMaxC= 1.00D-01 BMatC= 7.68D-14 BMatP= 7.68D-14
 IDIUse=1 WtCom= 1.00D+00 WtEn= 0.00D+00
 Large coefficients: NSaved=  4 BigCof=   21.98 CofMax=   10.00 Det=-7.62D-20
 Inversion failed.  Reducing to  3 matrices.
 Large coefficients: NSaved=  3 BigCof=   23.95 CofMax=   10.00 Det=-7.74D-20
 Inversion failed.  Reducing to  2 matrices.
 Coeff-Com:  0.134D+00 0.866D+00
 Coeff:      0.134D+00 0.866D+00
 Gap=     0.016 Goal=   None    Shift=    0.000
 Gap=     0.307 Goal=   None    Shift=    0.000
 RMSDP=2.47D-08 MaxDP=2.66D-07 DE= 3.75D-12 OVMax= 2.88D-06

 Cycle  32  Pass 1  IDiag  1:
 E= -76.5850050974548     Delta-E=       -0.000000000001 Rises=F Damp=F
 DIIS: error= 4.06D-08 at cycle  32 NSaved=   3.
 NSaved= 3 IEnMin= 1 EnMin= -76.5850050974575     IErMin= 2 ErrMin= 4.06D-08
 ErrMax= 4.06D-08  0.00D+00 EMaxC= 1.00D-01 BMatC= 7.69D-14 BMatP= 7.68D-14
 IDIUse=1 WtCom= 1.00D+00 WtEn= 0.00D+00
 Large coefficients: NSaved=  3 BigCof=   38.63 CofMax=   10.00 Det=-1.38D-19
 Inversion failed.  Reducing to  2 matrices.
 Coeff-Com:  0.870D+00 0.130D+00
 Coeff:      0.870D+00 0.130D+00
 Gap=     0.016 Goal=   None    Shift=    0.000
 Gap=     0.307 Goal=   None    Shift=    0.000
 RMSDP=8.59D-09 MaxDP=9.38D-08 DE=-9.95D-13 OVMax= 1.00D-06

 SCF Done:  E(UM062X) =  -76.5850050975     A.U. after   32 cycles
            NFock= 32  Conv=0.86D-08     -V/T= 2.0022
 <Sx>= 0.0000 <Sy>= 0.0000 <Sz>= 0.5000 <S**2>= 0.7513 S= 0.5006
 <L.S>=  0.00000000000    
 KE= 7.641952535701D+01 PE=-1.895880698765D+02 EE= 2.938034340979D+01
 Annihilation of the first spin contaminant:
 S**2 before annihilation     0.7513,   after     0.7500
 Leave Link  502 at Tue Dec  3 17:45:38 2024, MaxMem=  2147483648 cpu:             102.9 elap:               4.5
 (Enter /home/szhao/Apps/g16/l601.exe)
 Copying SCF densities to generalized density rwf, IOpCl= 1 IROHF=0.

 **********************************************************************

            Population analysis using the SCF density.

 **********************************************************************

 Alpha  occ. eigenvalues --  -10.90444 -10.90443  -0.94859  -0.94858  -0.59490
 Alpha  occ. eigenvalues --   -0.59490  -0.41341
 Alpha virt. eigenvalues --   -0.39740  -0.29325  -0.29325  -0.08351  -0.08351
 Alpha virt. eigenvalues --   -0.03023  -0.03023  -0.02858  -0.02858  -0.02707
 Alpha virt. eigenvalues --   -0.02707   0.03505   0.03506   0.31182   0.31182
 Alpha virt. eigenvalues --    0.40644   0.40645   0.41548   0.41548   0.44682
 Alpha virt. eigenvalues --    0.44683   0.51144   0.51145   0.93262   0.93262
 Alpha virt. eigenvalues --    0.93457   0.93458   1.11615   1.11615   1.12664
 Alpha virt. eigenvalues --    1.12665   1.39922   1.39923   1.67656   1.67658
 Alpha virt. eigenvalues --    1.67932   1.67934   2.20588   2.20589   2.31840
 Alpha virt. eigenvalues --    2.31841   2.47929   2.47930   2.49340   2.49341
 Alpha virt. eigenvalues --    2.98069   2.98071  23.30344  23.30347
  Beta  occ. eigenvalues --  -10.90029 -10.90029  -0.92529  -0.92529  -0.58081
  Beta  occ. eigenvalues --   -0.58081
  Beta virt. eigenvalues --   -0.27398  -0.27398  -0.25762  -0.25762  -0.08557
  Beta virt. eigenvalues --   -0.08557  -0.02730  -0.02729  -0.02219  -0.02219
  Beta virt. eigenvalues --   -0.01287  -0.01287   0.05335   0.05335   0.30422
  Beta virt. eigenvalues --    0.30422   0.41110   0.41110   0.41370   0.41370
  Beta virt. eigenvalues --    0.47511   0.47511   0.53779   0.53780   1.00681
  Beta virt. eigenvalues --    1.00681   1.01599   1.01600   1.14898   1.14898
  Beta virt. eigenvalues --    1.14908   1.14908   1.40225   1.40226   1.69413
  Beta virt. eigenvalues --    1.69415   1.70094   1.70095   2.34241   2.34243
  Beta virt. eigenvalues --    2.39905   2.39910   2.50497   2.50497   2.52849
  Beta virt. eigenvalues --    2.52849   3.09014   3.09018  23.31749  23.31753
          Condensed to atoms (all electrons):
               1          2          3          4
     1  C    5.461785   0.000000   0.238664   0.000000
     2  C    0.000000   5.461789   0.000000   0.238663
     3  H    0.238664   0.000000   0.560885   0.000000
     4  H    0.000000   0.238663   0.000000   0.560887
          Atomic-Atomic Spin Densities.
               1          2          3          4
     1  C    0.519242   0.000000  -0.004086   0.000000
     2  C    0.000000   0.519244   0.000000  -0.004086
     3  H   -0.004086   0.000000  -0.011072   0.000000
     4  H    0.000000  -0.004086   0.000000  -0.011071
 Mulliken charges and spin densities:
               1          2
     1  C    0.299550   0.515157
     2  C    0.299548   0.515158
     3  H    0.200451  -0.015158
     4  H    0.200451  -0.015157
 Sum of Mulliken charges =   1.00000   1.00000
 Mulliken charges and spin densities with hydrogens summed into heavy atoms:
               1          2
     1  C    0.500001   0.499999
     2  C    0.499999   0.500001
 Electronic spatial extent (au):  <R**2>=           3783.0237
 Charge=              1.0000 electrons
 Dipole moment (field-independent basis, Debye):
    X=             -0.0001    Y=              0.0000    Z=             -0.0000  Tot=              0.0001
 Quadrupole moment (field-independent basis, Debye-Ang):
   XX=            437.2158   YY=             -9.9028   ZZ=            -10.9478
   XY=              0.0000   XZ=              0.0000   YZ=              0.8414
 Traceless Quadrupole moment (field-independent basis, Debye-Ang):
   XX=            298.4274   YY=           -148.6912   ZZ=           -149.7362
   XY=              0.0000   XZ=              0.0000   YZ=              0.8414
 Octapole moment (field-independent basis, Debye-Ang**2):
  XXX=             -0.0056  YYY=              0.0000  ZZZ=             -0.0000  XYY=              0.0009
  XXY=              0.0000  XXZ=             -0.0000  XZZ=             -0.0006  YZZ=              0.0000
  YYZ=             -0.0000  XYZ=             -0.0004
 Hexadecapole moment (field-independent basis, Debye-Ang**3):
 XXXX=          35651.4777 YYYY=             -9.1840 ZZZZ=            -11.3862 XXXY=              0.0000
 XXXZ=              0.0000 YYYX=              0.0000 YYYZ=              0.8865 ZZZX=             -0.0000
 ZZZY=              0.8865 XXYY=           -795.2377 XXZZ=           -878.4427 YYZZ=             -3.4284
 XXYZ=             66.9906 YYXZ=             -0.0000 ZZXY=              0.0000
 N-N= 7.203196012240D+00 E-N=-1.895880698765D+02  KE= 7.641952535701D+01
                          Isotropic Fermi Contact Couplings
        Atom                 a.u.       MegaHertz       Gauss      10(-4) cm-1
     1  C(13)              0.07814      87.84111      31.34389      29.30064
     2  C(13)              0.07814      87.84153      31.34404      29.30078
     3  H(1)              -0.00372     -16.60592      -5.92541      -5.53914
     4  H(1)              -0.00371     -16.60388      -5.92468      -5.53846
 --------------------------------------------------------
       Center         ----  Spin Dipole Couplings  ----
                      3XX-RR        3YY-RR        3ZZ-RR
 --------------------------------------------------------
     1   Atom       -0.325721     -0.105655      0.431377
     2   Atom       -0.325724     -0.105741      0.431465
     3   Atom        0.042170     -0.030805     -0.011365
     4   Atom        0.042171     -0.030809     -0.011362
 --------------------------------------------------------
                        XY            XZ            YZ
 --------------------------------------------------------
     1   Atom        0.000000     -0.000000     -0.432474
     2   Atom       -0.000000      0.000000     -0.432422
     3   Atom        0.000000     -0.000000     -0.015655
     4   Atom       -0.000000      0.000000     -0.015654
 --------------------------------------------------------


 ---------------------------------------------------------------------------------
              Anisotropic Spin Dipole Couplings in Principal Axis System
 ---------------------------------------------------------------------------------

       Atom             a.u.   MegaHertz   Gauss  10(-4) cm-1        Axes

              Baa    -0.3462   -46.456   -16.577   -15.496  0.0000  0.8739  0.4861
     1 C(13)  Bbb    -0.3257   -43.709   -15.596   -14.580  1.0000 -0.0000  0.0000
              Bcc     0.6719    90.164    32.173    30.076 -0.0000 -0.4861  0.8739
 
              Baa    -0.3462   -46.456   -16.577   -15.496 -0.0000  0.8740  0.4860
     2 C(13)  Bbb    -0.3257   -43.709   -15.596   -14.580  1.0000  0.0000  0.0000
              Bcc     0.6719    90.165    32.173    30.076  0.0000 -0.4860  0.8740
 
              Baa    -0.0395   -21.082    -7.522    -7.032  0.0000  0.8739  0.4861
     3 H(1)   Bbb    -0.0027    -1.418    -0.506    -0.473 -0.0000 -0.4861  0.8739
              Bcc     0.0422    22.500     8.029     7.505  1.0000 -0.0000  0.0000
 
              Baa    -0.0395   -21.083    -7.523    -7.032  0.0000  0.8740  0.4860
     4 H(1)   Bbb    -0.0027    -1.418    -0.506    -0.473 -0.0000 -0.4860  0.8740
              Bcc     0.0422    22.500     8.029     7.505  1.0000 -0.0000  0.0000
 

 ---------------------------------------------------------------------------------

 No NMR shielding tensors so no spin-rotation constants.
 Leave Link  601 at Tue Dec  3 17:45:38 2024, MaxMem=  2147483648 cpu:               3.1 elap:               0.1
 (Enter /home/szhao/Apps/g16/l701.exe)
 ... and contract with generalized density number  0.
 Compute integral first derivatives.
 Leave Link  701 at Tue Dec  3 17:45:38 2024, MaxMem=  2147483648 cpu:               2.1 elap:               0.1
 (Enter /home/szhao/Apps/g16/l702.exe)
 L702 exits ... SP integral derivatives will be done elsewhere.
 Leave Link  702 at Tue Dec  3 17:45:39 2024, MaxMem=  2147483648 cpu:               0.4 elap:               0.0
 (Enter /home/szhao/Apps/g16/l703.exe)
 Integral derivatives from FoFJK, PRISM(SPDF).
 Compute integral first derivatives, UseDBF=F ICtDFT=           0.
 Calling FoFJK, ICntrl=      2127 FMM=F ISym2X=0 I1Cent= 0 IOpClX= 1 NMat=1 NMatS=1 NMatT=0.
 FoFJK:  IHMeth= 1 ICntrl=    2127 DoSepK=F KAlg= 0 I1Cent=           0 FoldK=F
 IRaf=         0 NMat=       1 IRICut=       1 DoRegI=T DoRafI=F ISym2E= 0 IDoP0=0 IntGTp=1.
 FoFCou: FMM=F IPFlag=           0 FMFlag=      100000 FMFlg1=         800
         NFxFlg=           0 DoJE=F BraDBF=F KetDBF=F FulRan=T
         wScrn=  0.000000 ICntrl=      2127 IOpCl=  1 I1Cent=           0 NGrid=           0
         NMat0=    1 NMatS0=      1 NMatT0=    0 NMatD0=    1 NMtDS0=    0 NMtDT0=    0
 Symmetry not used in FoFCou.
 Leave Link  703 at Tue Dec  3 17:45:39 2024, MaxMem=  2147483648 cpu:               7.7 elap:               0.3
 (Enter /home/szhao/Apps/g16/l716.exe)
 Dipole        =-3.11647924D-05 1.72979455D-15-3.60698221D-15
 -------------------------------------------------------------------
 Center     Atomic                   Forces (Hartrees/Bohr)
 Number     Number              X              Y              Z
 -------------------------------------------------------------------
      1        6          -0.000000000   -0.000000000   -0.000000000
      2        6          -0.000000000   -0.000000000   -0.000000000
      3        1          -0.010856373    0.000000000    0.000000000
      4        1           0.010870575   -0.000000000    0.000000000
 -------------------------------------------------------------------
 Cartesian Forces:  Max     0.010870575 RMS     0.004434996
 Leave Link  716 at Tue Dec  3 17:45:39 2024, MaxMem=  2147483648 cpu:               0.4 elap:               0.0
 (Enter /home/szhao/Apps/g16/l103.exe)

 GradGradGradGradGradGradGradGradGradGradGradGradGradGradGradGradGradGrad
 Berny optimization.
 FormGI is forming the generalized inverse of G from B-inverse, IUseBI=4.
 Internal  Forces:  Max     0.010870575 RMS     0.006272031
 Search for a local minimum.
 Step number   1 out of a maximum of   22
 All quantities printed in internal units (Hartrees-Bohrs-Radians)
 RMS Force = .62720D-02 SwitMx=.10000D-02 MixMth= 1
 Mixed Optimization -- RFO/linear search
 Second derivative matrix not updated -- first step.
 The second derivative matrix:
                          X1        Y1        Z1        X2        Y2
           X1           0.50000
           Y1           0.00000   0.50000
           Z1           0.00000   0.00000   0.50000
           X2           0.00000   0.00000   0.00000   0.50000
           Y2           0.00000   0.00000   0.00000   0.00000   0.50000
           Z2           0.00000   0.00000   0.00000   0.00000   0.00000
           R1           0.00000   0.00000   0.00000   0.00000   0.00000
           R2           0.00000   0.00000   0.00000   0.00000   0.00000
           A1           0.00000   0.00000   0.00000   0.00000   0.00000
           A2           0.00000   0.00000   0.00000   0.00000   0.00000
           A3           0.00000   0.00000   0.00000   0.00000   0.00000
           A4           0.00000   0.00000   0.00000   0.00000   0.00000
                          Z2        R1        R2        A1        A2
           Z2           0.50000
           R1           0.00000   0.33573
           R2           0.00000   0.00000   0.33575
           A1           0.00000   0.00000   0.00000   0.00230
           A2           0.00000   0.00000   0.00000   0.00000   0.00230
           A3           0.00000   0.00000   0.00000   0.00000   0.00000
           A4           0.00000   0.00000   0.00000   0.00000   0.00000
                          A3        A4
           A3           0.00230
           A4           0.00000   0.00230
 ITU=  0
     Eigenvalues ---    0.00230   0.00230   0.00230   0.33573   0.33575
     Eigenvalues --- 1000.000001000.000001000.000001000.000001000.00000
     Eigenvalues --- 1000.000001000.00000
 RFO step:  Lambda=-7.01551028D-04 EMin= 2.30000000D-03
 Linear search not attempted -- first point.
 Iteration  1 RMS(Cart)=  0.01318216 RMS(Int)=  0.00000000
 Iteration  2 RMS(Cart)=  0.00000000 RMS(Int)=  0.00000000
 ITry= 1 IFail=0 DXMaxC= 3.23D-02 DCOld= 1.00D+10 DXMaxT= 3.00D-01 DXLimC= 3.00D+00 Rises=F
 Variable       Old X    -DE/DX   Delta X   Delta X   Delta X     New X
                                 (Linear)    (Quad)   (Total)
    X1      -16.78485  -0.01086   0.00000   0.00000   0.00000 -16.78485
    Y1        0.00000  -0.00000   0.00000   0.00000   0.00000   0.00000
    Z1        0.00000   0.00000   0.00000   0.00000   0.00000   0.00000
    X2       16.78485   0.01087   0.00000   0.00000   0.00000  16.78485
    Y2        0.00000  -0.00000   0.00000   0.00000   0.00000   0.00000
    Z2        0.00000   0.00000   0.00000   0.00000   0.00000   0.00000
    R1        2.08058   0.01086   0.00000   0.03227   0.03227   2.11284
    R2        2.08053   0.01087   0.00000   0.03231   0.03231   2.11284
    A1        3.14159  -0.00000   0.00000   0.00000   0.00000   3.14159
    A2        3.14159   0.00000   0.00000  -0.00000   0.00000   3.14159
    A3        3.14159  -0.00000   0.00000  -0.00000   0.00000   3.14159
    A4        3.14159   0.00000   0.00000   0.00000   0.00000   3.14159
         Item               Value     Threshold  Converged?
 Maximum Force            0.010871     0.000450     NO 
 RMS     Force            0.006272     0.000300     NO 
 Maximum Displacement     0.032310     0.001800     NO 
 RMS     Displacement     0.013182     0.001200     NO 
 Predicted change in Energy=-3.515085D-04
 Lowest energy point so far.  Saving SCF results.
 GradGradGradGradGradGradGradGradGradGradGradGradGradGradGradGradGradGrad

 Leave Link  103 at Tue Dec  3 17:45:39 2024, MaxMem=  2147483648 cpu:               0.4 elap:               0.0
 (Enter /home/szhao/Apps/g16/l202.exe)
                          Input orientation:                          
 ---------------------------------------------------------------------
 Center     Atomic      Atomic             Coordinates (Angstroms)
 Number     Number       Type             X           Y           Z
 ---------------------------------------------------------------------
      1          6           0       -8.882160    0.000000    0.000000
      2          6           0        8.882160    0.000000    0.000000
      3          1           0      -10.000229   -0.000000   -0.000000
      4          1           0       10.000228   -0.000000   -0.000000
 ---------------------------------------------------------------------
                    Distance matrix (angstroms):
                    1          2          3          4
     1  C    0.000000
     2  C   17.764320   0.000000
     3  H    1.118069  18.882389   0.000000
     4  H   18.882388   1.118068  20.000458   0.000000
 Symmetry turned off by external request.
 Stoichiometry    C2H2(1+,2)
 Framework group  C*V[C*(HCCH)]
 Deg. of freedom     3
 Full point group                 C*V     NOp   4
 Rotational constants (GHZ):           0.0000000           0.2412310           0.2412310
 Leave Link  202 at Tue Dec  3 17:45:39 2024, MaxMem=  2147483648 cpu:               0.3 elap:               0.0
 (Enter /home/szhao/Apps/g16/l301.exe)
 Standard basis: 6-311+G(d,p) (5D, 7F)
 Ernie: Thresh=  0.10000D-02 Tol=  0.10000D-05 Strict=F.
    56 basis functions,    88 primitive gaussians,    58 cartesian basis functions
     7 alpha electrons        6 beta electrons
       nuclear repulsion energy         7.1147012701 Hartrees.
 IExCor= 4336 DFT=T Ex+Corr=M062X ExCW=0 ScaHFX=  0.540000
 ScaDFX=  1.000000  1.000000  1.000000  1.000000 ScalE2=  1.000000  1.000000
 IRadAn=      7 IRanWt=     -1 IRanGd=            0 ICorTp=0 IEmpDi=  4
 NAtoms=    4 NActive=    4 NUniq=    4 SFac= 1.00D+00 NAtFMM=   60 NAOKFM=F Big=F
 Integral buffers will be    131072 words long.
 Raffenetti 2 integral format.
 Two-electron integral symmetry is turned off.
 Leave Link  301 at Tue Dec  3 17:45:39 2024, MaxMem=  2147483648 cpu:               0.8 elap:               0.1
 (Enter /home/szhao/Apps/g16/l302.exe)
 NPDir=0 NMtPBC=     1 NCelOv=     1 NCel=       1 NClECP=     1 NCelD=      1
         NCelK=      1 NCelE2=     1 NClLst=     1 CellRange=     0.0.
 One-electron integrals computed using PRISM.
 NBasis=    56 RedAO= T EigKep=  2.11D-02  NBF=    56
 NBsUse=    56 1.00D-06 EigRej= -1.00D+00 NBFU=    56
 Precomputing XC quadrature grid using
 IXCGrd= 4 IRadAn=           7 IRanWt=          -1 IRanGd=           0 AccXCQ= 0.00D+00.
 Generated NRdTot=       0 NPtTot=           0 NUsed=           0 NTot=          32
 NSgBfM=    32    32    32    32    32 MxSgAt=     4 MxSgA2=     4.
 Leave Link  302 at Tue Dec  3 17:45:39 2024, MaxMem=  2147483648 cpu:               2.8 elap:               0.1
 (Enter /home/szhao/Apps/g16/l303.exe)
 DipDrv:  MaxL=1.
 Leave Link  303 at Tue Dec  3 17:45:39 2024, MaxMem=  2147483648 cpu:               0.5 elap:               0.0
 (Enter /home/szhao/Apps/g16/l401.exe)
 Initial guess from the checkpoint file:  "opt.chk"
 B after Tr=     0.000003   -0.000000   -0.000000
         Rot=    0.796809    0.604231    0.000000    0.000000 Ang=  74.35 deg.
 Guess basis will be translated and rotated to current coordinates.
 JPrj=2 DoOrth=T DoCkMO=T.
 Initial guess <Sx>= 0.0000 <Sy>= 0.0000 <Sz>= 0.5000 <S**2>= 0.7513 S= 0.5007
 Generating alternative initial guess.
 ExpMin= 4.38D-02 ExpMax= 4.56D+03 ExpMxC= 6.82D+02 IAcc=3 IRadAn=         5 AccDes= 0.00D+00
 Harris functional with IExCor= 1009 and IRadAn=       5 diagonalized for initial guess.
 HarFok:  IExCor= 1009 AccDes= 0.00D+00 IRadAn=         5 IDoV= 1 UseB2=F ITyADJ=14
 ICtDFT=  3500011 ScaDFX=  1.000000  1.000000  1.000000  1.000000
 FoFCou: FMM=F IPFlag=           0 FMFlag=      100000 FMFlg1=           0
         NFxFlg=           0 DoJE=T BraDBF=F KetDBF=T FulRan=T
         wScrn=  0.000000 ICntrl=       500 IOpCl=  0 I1Cent=   200000004 NGrid=           0
         NMat0=    1 NMatS0=      1 NMatT0=    0 NMatD0=    1 NMtDS0=    0 NMtDT0=    0
 Symmetry not used in FoFCou.
 Harris En= -76.6188901280641    
 Leave Link  401 at Tue Dec  3 17:45:39 2024, MaxMem=  2147483648 cpu:               3.4 elap:               0.2
 (Enter /home/szhao/Apps/g16/l502.exe)
 Keep R1 and R2 ints in memory in canonical form, NReq=23774294.
 FoFCou: FMM=F IPFlag=           0 FMFlag=           0 FMFlg1=           0
         NFxFlg=           0 DoJE=F BraDBF=F KetDBF=F FulRan=T
         wScrn=  0.000000 ICntrl=       600 IOpCl=  0 I1Cent=           0 NGrid=           0
         NMat0=    1 NMatS0=   1596 NMatT0=    0 NMatD0=    1 NMtDS0=    0 NMtDT0=    0
 Symmetry not used in FoFCou.
 Two-electron integral symmetry not used.
 UHF open shell SCF:
 Using DIIS extrapolation, IDIIS=  1040.
 NGot=  2147483648 LenX=  2144926146 LenY=  2144922341
 Requested convergence on RMS density matrix=1.00D-08 within 128 cycles.
 Requested convergence on MAX density matrix=1.00D-06.
 Requested convergence on             energy=1.00D-06.
 No special actions if energy rises.

 Cycle   1  Pass 1  IDiag  1:
 E= -76.5852645102760    
 DIIS: error= 1.57D-03 at cycle   1 NSaved=   1.
 NSaved= 1 IEnMin= 1 EnMin= -76.5852645102760     IErMin= 1 ErrMin= 1.57D-03
 ErrMax= 1.57D-03  0.00D+00 EMaxC= 1.00D-01 BMatC= 3.80D-04 BMatP= 3.80D-04
 IDIUse=3 WtCom= 9.84D-01 WtEn= 1.57D-02
 Coeff-Com:  0.100D+01
 Coeff-En:   0.100D+01
 Coeff:      0.100D+01
 Gap=     0.491 Goal=   None    Shift=    0.000
 Gap=     0.655 Goal=   None    Shift=    0.000
 GapD=    0.491 DampG=2.000 DampE=1.000 DampFc=2.0000 IDamp=-1.
 RMSDP=1.36D-04 MaxDP=1.53D-03              OVMax= 2.98D-03

 Cycle   2  Pass 1  IDiag  1:
 E= -76.5853579349842     Delta-E=       -0.000093424708 Rises=F Damp=F
 DIIS: error= 1.68D-04 at cycle   2 NSaved=   2.
 NSaved= 2 IEnMin= 2 EnMin= -76.5853579349842     IErMin= 2 ErrMin= 1.68D-04
 ErrMax= 1.68D-04  0.00D+00 EMaxC= 1.00D-01 BMatC= 8.06D-06 BMatP= 3.80D-04
 IDIUse=3 WtCom= 9.98D-01 WtEn= 1.68D-03
 Coeff-Com: -0.712D-02 0.101D+01
 Coeff-En:   0.000D+00 0.100D+01
 Coeff:     -0.711D-02 0.101D+01
 Gap=     0.016 Goal=   None    Shift=    0.000
 Gap=     0.306 Goal=   None    Shift=    0.000
 RMSDP=4.62D-05 MaxDP=1.21D-03 DE=-9.34D-05 OVMax= 9.94D-04

 Cycle   3  Pass 1  IDiag  1:
 E= -76.5853610803507     Delta-E=       -0.000003145366 Rises=F Damp=F
 DIIS: error= 8.65D-05 at cycle   3 NSaved=   3.
 NSaved= 3 IEnMin= 3 EnMin= -76.5853610803507     IErMin= 3 ErrMin= 8.65D-05
 ErrMax= 8.65D-05  0.00D+00 EMaxC= 1.00D-01 BMatC= 9.15D-07 BMatP= 8.06D-06
 IDIUse=1 WtCom= 1.00D+00 WtEn= 0.00D+00
 Coeff-Com: -0.161D-01 0.841D-01 0.932D+00
 Coeff:     -0.161D-01 0.841D-01 0.932D+00
 Gap=     0.016 Goal=   None    Shift=    0.000
 Gap=     0.306 Goal=   None    Shift=    0.000
 RMSDP=7.75D-05 MaxDP=9.87D-04 DE=-3.15D-06 OVMax= 8.96D-03

 Cycle   4  Pass 1  IDiag  1:
 E= -76.5853426900200     Delta-E=        0.000018390331 Rises=F Damp=F
 DIIS: error= 7.86D-04 at cycle   4 NSaved=   4.
 NSaved= 4 IEnMin= 3 EnMin= -76.5853610803507     IErMin= 3 ErrMin= 8.65D-05
 ErrMax= 7.86D-04  0.00D+00 EMaxC= 1.00D-01 BMatC= 3.10D-05 BMatP= 9.15D-07
 IDIUse=3 WtCom= 2.63D-01 WtEn= 7.37D-01
 Coeff-Com: -0.151D-01 0.508D-01 0.886D+00 0.782D-01
 Coeff-En:   0.000D+00 0.000D+00 0.955D+00 0.452D-01
 Coeff:     -0.398D-02 0.134D-01 0.937D+00 0.538D-01
 Gap=     0.016 Goal=   None    Shift=    0.000
 Gap=     0.306 Goal=   None    Shift=    0.000
 RMSDP=5.80D-05 MaxDP=7.41D-04 DE= 1.84D-05 OVMax= 6.75D-03

 Cycle   5  Pass 1  IDiag  1:
 E= -76.5853607832479     Delta-E=       -0.000018093228 Rises=F Damp=F
 DIIS: error= 1.51D-04 at cycle   5 NSaved=   5.
 NSaved= 5 IEnMin= 3 EnMin= -76.5853610803507     IErMin= 3 ErrMin= 8.65D-05
 ErrMax= 1.51D-04  0.00D+00 EMaxC= 1.00D-01 BMatC= 1.25D-06 BMatP= 9.15D-07
 IDIUse=3 WtCom= 4.48D-01 WtEn= 5.52D-01
 Coeff-Com:  0.399D-03-0.869D-01 0.784D-01-0.234D+00 0.124D+01
 Coeff-En:   0.000D+00 0.000D+00 0.622D+00 0.000D+00 0.378D+00
 Coeff:      0.179D-03-0.390D-01 0.378D+00-0.105D+00 0.765D+00
 Gap=     0.016 Goal=   None    Shift=    0.000
 Gap=     0.306 Goal=   None    Shift=    0.000
 RMSDP=3.12D-05 MaxDP=4.01D-04 DE=-1.81D-05 OVMax= 3.62D-03

 Cycle   6  Pass 1  IDiag  1:
 E= -76.5853604361602     Delta-E=        0.000000347088 Rises=F Damp=F
 DIIS: error= 1.88D-04 at cycle   6 NSaved=   6.
 NSaved= 6 IEnMin= 3 EnMin= -76.5853610803507     IErMin= 3 ErrMin= 8.65D-05
 ErrMax= 1.88D-04  0.00D+00 EMaxC= 1.00D-01 BMatC= 1.79D-06 BMatP= 9.15D-07
 IDIUse=3 WtCom= 4.48D-01 WtEn= 5.52D-01
 Coeff-Com:  0.131D-02 0.288D-02-0.128D+00 0.653D+00-0.127D+01 0.174D+01
 Coeff-En:   0.000D+00 0.000D+00 0.000D+00 0.000D+00 0.553D+00 0.447D+00
 Coeff:      0.586D-03 0.129D-02-0.576D-01 0.293D+00-0.264D+00 0.103D+01
 Gap=     0.016 Goal=   None    Shift=    0.000
 Gap=     0.306 Goal=   None    Shift=    0.000
 RMSDP=1.77D-05 MaxDP=2.27D-04 DE= 3.47D-07 OVMax= 2.05D-03

 Cycle   7  Pass 1  IDiag  1:
 E= -76.5853615232487     Delta-E=       -0.000001087089 Rises=F Damp=F
 DIIS: error= 6.07D-06 at cycle   7 NSaved=   7.
 NSaved= 7 IEnMin= 7 EnMin= -76.5853615232487     IErMin= 7 ErrMin= 6.07D-06
 ErrMax= 6.07D-06  0.00D+00 EMaxC= 1.00D-01 BMatC= 3.82D-09 BMatP= 9.15D-07
 IDIUse=1 WtCom= 1.00D+00 WtEn= 0.00D+00
 Coeff-Com: -0.144D-03-0.704D-04-0.756D-02-0.569D+00 0.106D+01-0.147D+01
 Coeff-Com:  0.199D+01
 Coeff:     -0.144D-03-0.704D-04-0.756D-02-0.569D+00 0.106D+01-0.147D+01
 Coeff:      0.199D+01
 Gap=     0.016 Goal=   None    Shift=    0.000
 Gap=     0.306 Goal=   None    Shift=    0.000
 RMSDP=1.03D-06 MaxDP=1.59D-05 DE=-1.09D-06 OVMax= 3.85D-05

 Cycle   8  Pass 1  IDiag  1:
 E= -76.5853615254185     Delta-E=       -0.000000002170 Rises=F Damp=F
 DIIS: error= 5.09D-07 at cycle   8 NSaved=   8.
 NSaved= 8 IEnMin= 8 EnMin= -76.5853615254185     IErMin= 8 ErrMin= 5.09D-07
 ErrMax= 5.09D-07  0.00D+00 EMaxC= 1.00D-01 BMatC= 4.39D-11 BMatP= 3.82D-09
 IDIUse=1 WtCom= 1.00D+00 WtEn= 0.00D+00
 Coeff-Com: -0.874D-04 0.222D-03 0.102D-01-0.237D-01 0.409D-01-0.678D-01
 Coeff-Com: -0.781D-01 0.112D+01
 Coeff:     -0.874D-04 0.222D-03 0.102D-01-0.237D-01 0.409D-01-0.678D-01
 Coeff:     -0.781D-01 0.112D+01
 Gap=     0.016 Goal=   None    Shift=    0.000
 Gap=     0.306 Goal=   None    Shift=    0.000
 RMSDP=1.21D-07 MaxDP=1.39D-06 DE=-2.17D-09 OVMax= 5.97D-06

 Cycle   9  Pass 1  IDiag  1:
 E= -76.5853615254508     Delta-E=       -0.000000000032 Rises=F Damp=F
 DIIS: error= 1.82D-07 at cycle   9 NSaved=   9.
 NSaved= 9 IEnMin= 9 EnMin= -76.5853615254508     IErMin= 9 ErrMin= 1.82D-07
 ErrMax= 1.82D-07  0.00D+00 EMaxC= 1.00D-01 BMatC= 2.80D-12 BMatP= 4.39D-11
 IDIUse=1 WtCom= 1.00D+00 WtEn= 0.00D+00
 Coeff-Com:  0.188D-04-0.185D-03-0.136D-02 0.180D-01-0.310D-01 0.481D-01
 Coeff-Com: -0.448D-01-0.338D+00 0.135D+01
 Coeff:      0.188D-04-0.185D-03-0.136D-02 0.180D-01-0.310D-01 0.481D-01
 Coeff:     -0.448D-01-0.338D+00 0.135D+01
 Gap=     0.016 Goal=   None    Shift=    0.000
 Gap=     0.306 Goal=   None    Shift=    0.000
 RMSDP=3.18D-08 MaxDP=4.54D-07 DE=-3.23D-11 OVMax= 8.86D-07

 Cycle  10  Pass 1  IDiag  1:
 E= -76.5853615254529     Delta-E=       -0.000000000002 Rises=F Damp=F
 DIIS: error= 3.21D-08 at cycle  10 NSaved=  10.
 NSaved=10 IEnMin=10 EnMin= -76.5853615254529     IErMin=10 ErrMin= 3.21D-08
 ErrMax= 3.21D-08  0.00D+00 EMaxC= 1.00D-01 BMatC= 8.52D-14 BMatP= 2.80D-12
 IDIUse=1 WtCom= 1.00D+00 WtEn= 0.00D+00
 Coeff-Com: -0.152D-05 0.419D-04 0.264D-03-0.206D-03-0.186D-03-0.684D-03
 Coeff-Com: -0.224D-02 0.993D-01-0.446D+00 0.135D+01
 Coeff:     -0.152D-05 0.419D-04 0.264D-03-0.206D-03-0.186D-03-0.684D-03
 Coeff:     -0.224D-02 0.993D-01-0.446D+00 0.135D+01
 Gap=     0.016 Goal=   None    Shift=    0.000
 Gap=     0.306 Goal=   None    Shift=    0.000
 RMSDP=4.13D-09 MaxDP=8.44D-08 DE=-2.12D-12 OVMax= 1.31D-07

 SCF Done:  E(UM062X) =  -76.5853615255     A.U. after   10 cycles
            NFock= 10  Conv=0.41D-08     -V/T= 2.0027
 <Sx>= 0.0000 <Sy>= 0.0000 <Sz>= 0.5000 <S**2>= 0.7513 S= 0.5006
 <L.S>=  0.00000000000    
 KE= 7.637906247481D+01 PE=-1.893938835361D+02 EE= 2.931475826569D+01
 Annihilation of the first spin contaminant:
 S**2 before annihilation     0.7513,   after     0.7500
 Leave Link  502 at Tue Dec  3 17:45:41 2024, MaxMem=  2147483648 cpu:              33.7 elap:               1.5
 (Enter /home/szhao/Apps/g16/l701.exe)
 ... and contract with generalized density number  0.
 Compute integral first derivatives.
 Leave Link  701 at Tue Dec  3 17:45:41 2024, MaxMem=  2147483648 cpu:               2.1 elap:               0.1
 (Enter /home/szhao/Apps/g16/l702.exe)
 L702 exits ... SP integral derivatives will be done elsewhere.
 Leave Link  702 at Tue Dec  3 17:45:41 2024, MaxMem=  2147483648 cpu:               0.3 elap:               0.0
 (Enter /home/szhao/Apps/g16/l703.exe)
 Integral derivatives from FoFJK, PRISM(SPDF).
 Compute integral first derivatives, UseDBF=F ICtDFT=           0.
 Calling FoFJK, ICntrl=      2127 FMM=F ISym2X=0 I1Cent= 0 IOpClX= 1 NMat=1 NMatS=1 NMatT=0.
 FoFJK:  IHMeth= 1 ICntrl=    2127 DoSepK=F KAlg= 0 I1Cent=           0 FoldK=F
 IRaf=         0 NMat=       1 IRICut=       1 DoRegI=T DoRafI=F ISym2E= 0 IDoP0=0 IntGTp=1.
 FoFCou: FMM=F IPFlag=           0 FMFlag=      100000 FMFlg1=         800
         NFxFlg=           0 DoJE=F BraDBF=F KetDBF=F FulRan=T
         wScrn=  0.000000 ICntrl=      2127 IOpCl=  1 I1Cent=           0 NGrid=           0
         NMat0=    1 NMatS0=      1 NMatT0=    0 NMatD0=    1 NMtDS0=    0 NMtDT0=    0
 Symmetry not used in FoFCou.
 Leave Link  703 at Tue Dec  3 17:45:41 2024, MaxMem=  2147483648 cpu:               7.7 elap:               0.3
 (Enter /home/szhao/Apps/g16/l716.exe)
 Dipole        =-4.21595719D-06 4.11042390D-13-2.76674390D-13
 -------------------------------------------------------------------
 Center     Atomic                   Forces (Hartrees/Bohr)
 Number     Number              X              Y              Z
 -------------------------------------------------------------------
      1        6          -0.000000000   -0.000000000   -0.000000000
      2        6          -0.000000000   -0.000000000   -0.000000000
      3        1          -0.000349720   -0.000000000   -0.000000000
      4        1           0.000350254    0.000000000   -0.000000000
 -------------------------------------------------------------------
 Cartesian Forces:  Max     0.000350254 RMS     0.000142882
 Leave Link  716 at Tue Dec  3 17:45:41 2024, MaxMem=  2147483648 cpu:               0.4 elap:               0.0
 (Enter /home/szhao/Apps/g16/l103.exe)

 GradGradGradGradGradGradGradGradGradGradGradGradGradGradGradGradGradGrad
 Berny optimization.
 Using GEDIIS/GDIIS optimizer.
 FormGI is forming the generalized inverse of G from B-inverse, IUseBI=4.
 Internal  Forces:  Max     0.000350254 RMS     0.000202065
 Search for a local minimum.
 Step number   2 out of a maximum of   22
 All quantities printed in internal units (Hartrees-Bohrs-Radians)
 RMS Force = .20207D-03 SwitMx=.10000D-02 MixMth= 2
 Mixed Optimization -- En-DIIS/RFO-DIIS
 Update second derivatives using D2CorX and points    1    2
 DE= -3.56D-04 DEPred=-3.52D-04 R= 1.01D+00
 TightC=F SS=  1.41D+00  RLast= 4.57D-02 DXNew= 5.0454D-01 1.3699D-01
 Trust test= 1.01D+00 RLast= 4.57D-02 DXMaxT set to 3.00D-01
 The second derivative matrix:
                          X1        Y1        Z1        X2        Y2
           X1           0.66259
           Y1          -0.00000   0.50000
           Z1          -0.00000   0.00000   0.50000
           X2          -0.16280   0.00000   0.00000   0.66301
           Y2          -0.00000   0.00000   0.00000   0.00000   0.50000
           Z2          -0.00000   0.00000   0.00000   0.00000   0.00000
           R1          -0.16259   0.00000   0.00000   0.16280   0.00000
           R2          -0.16280   0.00000   0.00000   0.16301   0.00000
           A1           0.00000  -0.00000  -0.00000  -0.00000  -0.00000
           A2          -0.00000   0.00000   0.00000   0.00000   0.00000
           A3          -0.00000   0.00000   0.00000   0.00000   0.00000
           A4           0.00000  -0.00000  -0.00000  -0.00000  -0.00000
                          Z2        R1        R2        A1        A2
           Z2           0.50000
           R1           0.00000   0.33066
           R2           0.00000  -0.00507   0.33067
           A1          -0.00000  -0.00000  -0.00000   0.00230
           A2           0.00000   0.00000   0.00000  -0.00000   0.00230
           A3           0.00000   0.00000   0.00000  -0.00000   0.00000
           A4          -0.00000  -0.00000  -0.00000   0.00000  -0.00000
                          A3        A4
           A3           0.00230
           A4          -0.00000   0.00230
 ITU=  1  0
 Use linear search instead of GDIIS.
     Eigenvalues ---    0.00230   0.00230   0.00230   0.32560   0.33574
     Eigenvalues --- 1000.000001000.000001000.000001000.000001000.00000
     Eigenvalues --- 1000.000001000.00000
 RFO step:  Lambda= 0.00000000D+00 EMin= 2.30000000D-03
 Quartic linear search produced a step of  0.03509.
 Iteration  1 RMS(Cart)=  0.00046252 RMS(Int)=  0.00000000
 Iteration  2 RMS(Cart)=  0.00000000 RMS(Int)=  0.00000000
 ITry= 1 IFail=0 DXMaxC= 1.13D-03 DCOld= 1.00D+10 DXMaxT= 3.00D-01 DXLimC= 3.00D+00 Rises=F
 Variable       Old X    -DE/DX   Delta X   Delta X   Delta X     New X
                                 (Linear)    (Quad)   (Total)
    X1      -16.78485  -0.00035   0.00000   0.00000   0.00000 -16.78485
    Y1        0.00000  -0.00000   0.00000   0.00000   0.00000   0.00000
    Z1        0.00000  -0.00000   0.00000   0.00000   0.00000   0.00000
    X2       16.78485   0.00035   0.00000   0.00000   0.00000  16.78485
    Y2        0.00000  -0.00000   0.00000   0.00000   0.00000   0.00000
    Z2        0.00000  -0.00000   0.00000   0.00000   0.00000   0.00000
    R1        2.11284   0.00035   0.00113  -0.00000   0.00113   2.11398
    R2        2.11284   0.00035   0.00113   0.00000   0.00113   2.11398
    A1        3.14159   0.00000   0.00000   0.00000   0.00000   3.14159
    A2        3.14159  -0.00000   0.00000  -0.00000   0.00000   3.14159
    A3        3.14159  -0.00000   0.00000  -0.00000   0.00000   3.14159
    A4        3.14159   0.00000   0.00000   0.00000   0.00000   3.14159
         Item               Value     Threshold  Converged?
 Maximum Force            0.000350     0.000450     YES
 RMS     Force            0.000202     0.000300     YES
 Maximum Displacement     0.001134     0.001800     YES
 RMS     Displacement     0.000463     0.001200     YES
 Predicted change in Energy=-3.751044D-07
 Optimization completed.
    -- Stationary point found.
                           ----------------------------
                           !   Optimized Parameters   !
                           ! (Angstroms and Degrees)  !
 --------------------------                            --------------------------
 ! Name  Definition              Value          Derivative Info.                !
 --------------------------------------------------------------------------------
 ! X1    R(1,-1)                -8.8822         -DE/DX =   -0.0003              !
 ! Y1    R(1,-2)                 0.0            -DE/DX =    0.0                 !
 ! Z1    R(1,-3)                 0.0            -DE/DX =    0.0                 !
 ! X2    R(2,-1)                 8.8822         -DE/DX =    0.0004              !
 ! Y2    R(2,-2)                 0.0            -DE/DX =    0.0                 !
 ! Z2    R(2,-3)                 0.0            -DE/DX =    0.0                 !
 ! R1    R(1,3)                  1.1181         -DE/DX =    0.0003              !
 ! R2    R(2,4)                  1.1181         -DE/DX =    0.0004              !
 ! A1    L(2,1,3,-2,-1)        180.0            -DE/DX =    0.0                 !
 ! A2    L(1,2,4,-2,-1)        180.0            -DE/DX =    0.0                 !
 ! A3    L(2,1,3,-3,-2)        180.0            -DE/DX =    0.0                 !
 ! A4    L(1,2,4,-3,-2)        180.0            -DE/DX =    0.0                 !
 --------------------------------------------------------------------------------
 Lowest energy point so far.  Saving SCF results.
 Largest change from initial coordinates is atom    4       0.017 Angstoms.
 GradGradGradGradGradGradGradGradGradGradGradGradGradGradGradGradGradGrad

 Leave Link  103 at Tue Dec  3 17:45:41 2024, MaxMem=  2147483648 cpu:               0.1 elap:               0.0
 (Enter /home/szhao/Apps/g16/l202.exe)
                          Input orientation:                          
 ---------------------------------------------------------------------
 Center     Atomic      Atomic             Coordinates (Angstroms)
 Number     Number       Type             X           Y           Z
 ---------------------------------------------------------------------
      1          6           0       -8.882160    0.000000    0.000000
      2          6           0        8.882160    0.000000    0.000000
      3          1           0      -10.000229   -0.000000   -0.000000
      4          1           0       10.000228   -0.000000   -0.000000
 ---------------------------------------------------------------------
                    Distance matrix (angstroms):
                    1          2          3          4
     1  C    0.000000
     2  C   17.764320   0.000000
     3  H    1.118069  18.882389   0.000000
     4  H   18.882388   1.118068  20.000458   0.000000
 Symmetry turned off by external request.
 Stoichiometry    C2H2(1+,2)
 Framework group  C*V[C*(HCCH)]
 Deg. of freedom     3
 Full point group                 C*V     NOp   4
 Rotational constants (GHZ):           0.0000000           0.2412310           0.2412310
 Leave Link  202 at Tue Dec  3 17:45:41 2024, MaxMem=  2147483648 cpu:               0.2 elap:               0.0
 (Enter /home/szhao/Apps/g16/l601.exe)
 Copying SCF densities to generalized density rwf, IOpCl= 1 IROHF=0.

 **********************************************************************

            Population analysis using the SCF density.

 **********************************************************************

 Alpha  occ. eigenvalues --  -10.90583 -10.90583  -0.94385  -0.94384  -0.59387
 Alpha  occ. eigenvalues --   -0.59387  -0.41318
 Alpha virt. eigenvalues --   -0.39717  -0.29315  -0.29315  -0.08382  -0.08382
 Alpha virt. eigenvalues --   -0.03025  -0.03025  -0.02858  -0.02858  -0.02717
 Alpha virt. eigenvalues --   -0.02717   0.03052   0.03052   0.31313   0.31313
 Alpha virt. eigenvalues --    0.40621   0.40621   0.41529   0.41529   0.44172
 Alpha virt. eigenvalues --    0.44172   0.50858   0.50858   0.93161   0.93161
 Alpha virt. eigenvalues --    0.93353   0.93354   1.11638   1.11638   1.12671
 Alpha virt. eigenvalues --    1.12672   1.39166   1.39166   1.66446   1.66446
 Alpha virt. eigenvalues --    1.66723   1.66723   2.19514   2.19514   2.31496
 Alpha virt. eigenvalues --    2.31496   2.47779   2.47779   2.49212   2.49212
 Alpha virt. eigenvalues --    2.97147   2.97147  23.27733  23.27733
  Beta  occ. eigenvalues --  -10.90169 -10.90169  -0.92025  -0.92025  -0.57994
  Beta  occ. eigenvalues --   -0.57994
  Beta virt. eigenvalues --   -0.27433  -0.27433  -0.25801  -0.25801  -0.08578
  Beta virt. eigenvalues --   -0.08578  -0.02735  -0.02735  -0.02228  -0.02228
  Beta virt. eigenvalues --   -0.01301  -0.01301   0.04855   0.04855   0.30657
  Beta virt. eigenvalues --    0.30657   0.41084   0.41084   0.41341   0.41341
  Beta virt. eigenvalues --    0.47167   0.47167   0.52965   0.52965   1.00253
  Beta virt. eigenvalues --    1.00253   1.01155   1.01155   1.14899   1.14899
  Beta virt. eigenvalues --    1.14909   1.14909   1.39566   1.39566   1.68156
  Beta virt. eigenvalues --    1.68156   1.68834   1.68834   2.35286   2.35286
  Beta virt. eigenvalues --    2.36229   2.36229   2.50391   2.50391   2.52747
  Beta virt. eigenvalues --    2.52747   3.06442   3.06442  23.29043  23.29044
          Condensed to atoms (all electrons):
               1          2          3          4
     1  C    5.460575   0.000000   0.239595   0.000000
     2  C    0.000000   5.460575   0.000000   0.239595
     3  H    0.239595   0.000000   0.560235   0.000000
     4  H    0.000000   0.239595   0.000000   0.560235
          Atomic-Atomic Spin Densities.
               1          2          3          4
     1  C    0.519207   0.000000  -0.003790   0.000000
     2  C    0.000000   0.519207   0.000000  -0.003790
     3  H   -0.003790   0.000000  -0.011627   0.000000
     4  H    0.000000  -0.003790   0.000000  -0.011627
 Mulliken charges and spin densities:
               1          2
     1  C    0.299830   0.515417
     2  C    0.299830   0.515417
     3  H    0.200170  -0.015417
     4  H    0.200170  -0.015417
 Sum of Mulliken charges =   1.00000   1.00000
 Mulliken charges and spin densities with hydrogens summed into heavy atoms:
               1          2
     1  C    0.500000   0.500000
     2  C    0.500000   0.500000
 Electronic spatial extent (au):  <R**2>=           3785.6967
 Charge=              1.0000 electrons
 Dipole moment (field-independent basis, Debye):
    X=             -0.0000    Y=              0.0000    Z=             -0.0000  Tot=              0.0000
 Quadrupole moment (field-independent basis, Debye-Ang):
   XX=            436.9621   YY=            -10.4652   ZZ=            -10.4467
   XY=              0.0000   XZ=              0.0000   YZ=             -0.9906
 Traceless Quadrupole moment (field-independent basis, Debye-Ang):
   XX=            298.2787   YY=           -149.1486   ZZ=           -149.1301
   XY=              0.0000   XZ=              0.0000   YZ=             -0.9906
 Octapole moment (field-independent basis, Debye-Ang**2):
  XXX=             -0.0008  YYY=              0.0000  ZZZ=              0.0000  XYY=             -0.0009
  XXY=              0.0000  XXZ=             -0.0000  XZZ=              0.0009  YZZ=              0.0000
  YYZ=              0.0000  XYZ=              0.0000
 Hexadecapole moment (field-independent basis, Debye-Ang**3):
 XXXX=          35622.3141 YYYY=            -10.3387 ZZZZ=            -10.2997 XXXY=              0.0000
 XXXZ=              0.0000 YYYX=             -0.0000 YYYZ=             -1.0445 ZZZX=             -0.0000
 ZZZY=             -1.0445 XXYY=           -841.2773 XXZZ=           -839.8035 YYZZ=             -3.4398
 XXYZ=            -78.8672 YYXZ=             -0.0000 ZZXY=             -0.0000
 N-N= 7.114701270138D+00 E-N=-1.893938833936D+02  KE= 7.637906247481D+01
                          Isotropic Fermi Contact Couplings
        Atom                 a.u.       MegaHertz       Gauss      10(-4) cm-1
     1  C(13)              0.07777      87.42405      31.19507      29.16152
     2  C(13)              0.07777      87.42409      31.19509      29.16154
     3  H(1)              -0.00407     -18.20481      -6.49593      -6.07247
     4  H(1)              -0.00407     -18.20473      -6.49590      -6.07244
 --------------------------------------------------------
       Center         ----  Spin Dipole Couplings  ----
                      3XX-RR        3YY-RR        3ZZ-RR
 --------------------------------------------------------
     1   Atom       -0.324381      0.166900      0.157481
     2   Atom       -0.324382      0.167002      0.157380
     3   Atom        0.041741     -0.020709     -0.021032
     4   Atom        0.041741     -0.020706     -0.021035
 --------------------------------------------------------
                        XY            XZ            YZ
 --------------------------------------------------------
     1   Atom        0.000000      0.000000      0.509471
     2   Atom       -0.000000     -0.000000      0.509471
     3   Atom       -0.000000     -0.000000      0.017447
     4   Atom        0.000000      0.000000      0.017447
 --------------------------------------------------------


 ---------------------------------------------------------------------------------
              Anisotropic Spin Dipole Couplings in Principal Axis System
 ---------------------------------------------------------------------------------

       Atom             a.u.   MegaHertz   Gauss  10(-4) cm-1        Axes

              Baa    -0.3473   -46.605   -16.630   -15.546 -0.0000 -0.7038  0.7104
     1 C(13)  Bbb    -0.3244   -43.529   -15.532   -14.520  1.0000 -0.0000  0.0000
              Bcc     0.6717    90.134    32.162    30.065  0.0000  0.7104  0.7038
 
              Baa    -0.3473   -46.605   -16.630   -15.546  0.0000 -0.7038  0.7104
     2 C(13)  Bbb    -0.3244   -43.529   -15.532   -14.520  1.0000  0.0000 -0.0000
              Bcc     0.6717    90.134    32.162    30.065 -0.0000  0.7104  0.7038
 
              Baa    -0.0383   -20.445    -7.295    -6.820 -0.0000 -0.7038  0.7104
     3 H(1)   Bbb    -0.0034    -1.826    -0.652    -0.609  0.0000  0.7104  0.7038
              Bcc     0.0417    22.271     7.947     7.429  1.0000 -0.0000 -0.0000
 
              Baa    -0.0383   -20.445    -7.295    -6.820  0.0000 -0.7038  0.7104
     4 H(1)   Bbb    -0.0034    -1.826    -0.652    -0.609 -0.0000  0.7104  0.7038
              Bcc     0.0417    22.271     7.947     7.429  1.0000  0.0000  0.0000
 

 ---------------------------------------------------------------------------------

 No NMR shielding tensors so no spin-rotation constants.
 Leave Link  601 at Tue Dec  3 17:45:42 2024, MaxMem=  2147483648 cpu:               3.1 elap:               0.1
 (Enter /home/szhao/Apps/g16/l9999.exe)
 1\1\GINC-NODE01\FOpt\UM062X\6-311+G(d,p)\C2H2(1+,2)\SZHAO\03-Dec-2024\
 0\\#p opt UM062X/6-311+G** nosymm int=superfine SCF=NoVarAcc\\Title Ca
 rd Required\\1,2\C,-8.88216,0.,0.\C,8.88216,0.,0.\H,-10.000229351,0.,0
 .\H,10.0002284585,0.,0.\\Version=ES64L-G16RevA.03\HF=-76.5853615\S2=0.
 751298\S2-1=0.\S2A=0.750001\RMSD=4.127e-09\RMSF=1.429e-04\Dipole=-0.00
 00041,0.,0.\Quadrupole=221.7628657,-110.8883142,-110.8745515,0.,0.,-0.
 7364879\PG=C*V [C*(H1C1C1H1)]\\@


 VIRTUE IS LEARNED AT YOUR MOTHER'S KNEE,
 VICES ARE PICKED UP AT SOME OTHER JOINT.
 Job cpu time:       0 days  0 hours  3 minutes 12.4 seconds.
 Elapsed time:       0 days  0 hours  0 minutes  8.7 seconds.
 File lengths (MBytes):  RWF=      6 Int=      0 D2E=      0 Chk=      1 Scr=      1
 Normal termination of Gaussian 16 at Tue Dec  3 17:45:42 2024.
