Title Card Required                                                     
FOpt      UM062X                                                      6-311+G(d,p)        
Number of atoms                            I                4
Info1-9                                    I   N=           9
          13          13           0           0           0         110
           2          18        -502
Full Title                                 C   N=           2
Title Card Required     
Route                                      C   N=           5
#p opt UM062X/6-311+G** nosymm int=superfine SCF=NoVarAcc   
Charge                                     I                1
Multiplicity                               I                2
Number of electrons                        I               13
Number of alpha electrons                  I                7
Number of beta electrons                   I                6
Number of basis functions                  I               56
Number of independent functions            I               56
Number of point charges in /Mol/           I                0
Number of translation vectors              I                0
Atomic numbers                             I   N=           4
           6           6           1           1
Nuclear charges                            R   N=           4
  6.00000000E+00  6.00000000E+00  1.00000000E+00  1.00000000E+00
Current cartesian coordinates              R   N=          12
 -1.67848498E+01  0.00000000E+00  0.00000000E+00  1.67848498E+01  0.00000000E+00
  0.00000000E+00 -1.88976947E+01 -3.91040069E-13 -1.45953366E-12  1.88976930E+01
 -5.02337837E-14 -1.01010909E-12
Number of symbols in /Mol/                 I                0
Force Field                                I                0
Atom Types                                 C   N=           4
                                                
Int Atom Types                             I   N=           4
           0           0           0           0
MM charges                                 R   N=           4
  0.00000000E+00  0.00000000E+00  0.00000000E+00  0.00000000E+00
Integer atomic weights                     I   N=           4
          12          12           1           1
Real atomic weights                        R   N=           4
  1.20000000E+01  1.20000000E+01  1.00782504E+00  1.00782504E+00
Atom fragment info                         I   N=           4
           0           0           0           0
Atom residue num                           I   N=           4
           0           0           0           0
Nuclear spins                              I   N=           4
           0           0           1           1
Nuclear ZEff                               R   N=           4
 -3.60000000E+00 -3.60000000E+00 -1.00000000E+00 -1.00000000E+00
Nuclear ZNuc                               R   N=           4
  6.00000000E+00  6.00000000E+00  1.00000000E+00  1.00000000E+00
Nuclear QMom                               R   N=           4
  0.00000000E+00  0.00000000E+00  0.00000000E+00  0.00000000E+00
Nuclear GFac                               R   N=           4
  0.00000000E+00  0.00000000E+00  2.79284600E+00  2.79284600E+00
MicOpt                                     I   N=           4
          -2          -2          -1          -1
Number of residues                         I                0
Number of secondary structures             I                0
Redundant internal dimensions              I   N=           4
          12           8           4           0
Redundant internal coordinate indices      I   N=          48
           1          -1           0           0           1          -2
           0           0           1          -3           0           0
           2          -1           0           0           2          -2
           0           0           2          -3           0           0
           1           3           0           0           2           4
           0           0           2           1           3          -4
           1           2           4          -4           2           1
           3          -8           1           2           4          -8
Redundant internal coordinates             R   N=          12
 -1.67848498E+01  0.00000000E+00  0.00000000E+00  1.67848498E+01  0.00000000E+00
  0.00000000E+00  2.11284486E+00  2.11284318E+00  3.14159265E+00  3.14159265E+00
  3.14159265E+00  3.14159265E+00
ZRed-IntVec                                I   N=          12
          -1          -1          -1          -1          -1          -1
           0           0           0           0           0           0
ZRed-FPVec                                 R   N=          12
  0.00000000E+00  0.00000000E+00  0.00000000E+00  0.00000000E+00  0.00000000E+00
  0.00000000E+00  0.00000000E+00  0.00000000E+00  0.00000000E+00  0.00000000E+00
  0.00000000E+00  0.00000000E+00
ZRed-Constraint1                           R   N=          12
 -1.67848498E+01  0.00000000E+00  0.00000000E+00  1.67848498E+01  0.00000000E+00
  0.00000000E+00  2.08057524E+00  2.08053366E+00  3.14159265E+00  3.14159265E+00
  3.14159265E+00  3.14159265E+00
ZRed-Constraint2                           R   N=          12
 -1.67848498E+01  0.00000000E+00  0.00000000E+00  1.67848498E+01  0.00000000E+00
  0.00000000E+00  0.00000000E+00  0.00000000E+00  0.00000000E+00  0.00000000E+00
  0.00000000E+00  0.00000000E+00
Number of contracted shells                I               20
Number of primitive shells                 I               38
Pure/Cartesian d shells                    I                0
Pure/Cartesian f shells                    I                0
Highest angular momentum                   I                2
Largest degree of contraction              I                6
Shell types                                I   N=          20
           0          -1          -1          -1          -1          -2
           0          -1          -1          -1          -1          -2
           0           0           0           1           0           0
           0           1
Number of primitives per shell             I   N=          20
           6           3           1           1           1           1
           6           3           1           1           1           1
           3           1           1           1           3           1
           1           1
Shell to atom map                          I   N=          20
           1           1           1           1           1           1
           2           2           2           2           2           2
           3           3           3           3           4           4
           4           4
Primitive exponents                        R   N=          38
  4.56324000E+03  6.82024000E+02  1.54973000E+02  4.44553000E+01  1.30290000E+01
  1.82773000E+00  2.09642000E+01  4.80331000E+00  1.45933000E+00  4.83456000E-01
  1.45585000E-01  4.38000000E-02  6.26000000E-01  4.56324000E+03  6.82024000E+02
  1.54973000E+02  4.44553000E+01  1.30290000E+01  1.82773000E+00  2.09642000E+01
  4.80331000E+00  1.45933000E+00  4.83456000E-01  1.45585000E-01  4.38000000E-02
  6.26000000E-01  3.38650000E+01  5.09479000E+00  1.15879000E+00  3.25840000E-01
  1.02741000E-01  7.50000000E-01  3.38650000E+01  5.09479000E+00  1.15879000E+00
  3.25840000E-01  1.02741000E-01  7.50000000E-01
Contraction coefficients                   R   N=          38
  1.96665025E-03  1.52306019E-02  7.61269097E-02  2.60801033E-01  6.16462078E-01
  2.21006028E-01  1.14660081E-01  9.19999648E-01 -3.03068213E-03  1.00000000E+00
  1.00000000E+00  1.00000000E+00  1.00000000E+00  1.96665025E-03  1.52306019E-02
  7.61269097E-02  2.60801033E-01  6.16462078E-01  2.21006028E-01  1.14660081E-01
  9.19999648E-01 -3.03068213E-03  1.00000000E+00  1.00000000E+00  1.00000000E+00
  1.00000000E+00  2.54938145E-02  1.90373109E-01  8.52161486E-01  1.00000000E+00
  1.00000000E+00  1.00000000E+00  2.54938145E-02  1.90373109E-01  8.52161486E-01
  1.00000000E+00  1.00000000E+00  1.00000000E+00
P(S=P) Contraction coefficients            R   N=          38
  0.00000000E+00  0.00000000E+00  0.00000000E+00  0.00000000E+00  0.00000000E+00
  0.00000000E+00  4.02486927E-02  2.37593957E-01  8.15853851E-01  1.00000000E+00
  1.00000000E+00  1.00000000E+00  0.00000000E+00  0.00000000E+00  0.00000000E+00
  0.00000000E+00  0.00000000E+00  0.00000000E+00  0.00000000E+00  4.02486927E-02
  2.37593957E-01  8.15853851E-01  1.00000000E+00  1.00000000E+00  1.00000000E+00
  0.00000000E+00  0.00000000E+00  0.00000000E+00  0.00000000E+00  0.00000000E+00
  0.00000000E+00  0.00000000E+00  0.00000000E+00  0.00000000E+00  0.00000000E+00
  0.00000000E+00  0.00000000E+00  0.00000000E+00
Coordinates of each shell                  R   N=          60
 -1.67848498E+01  0.00000000E+00  0.00000000E+00 -1.67848498E+01  0.00000000E+00
  0.00000000E+00 -1.67848498E+01  0.00000000E+00  0.00000000E+00 -1.67848498E+01
  0.00000000E+00  0.00000000E+00 -1.67848498E+01  0.00000000E+00  0.00000000E+00
 -1.67848498E+01  0.00000000E+00  0.00000000E+00  1.67848498E+01  0.00000000E+00
  0.00000000E+00  1.67848498E+01  0.00000000E+00  0.00000000E+00  1.67848498E+01
  0.00000000E+00  0.00000000E+00  1.67848498E+01  0.00000000E+00  0.00000000E+00
  1.67848498E+01  0.00000000E+00  0.00000000E+00  1.67848498E+01  0.00000000E+00
  0.00000000E+00 -1.88976947E+01 -3.91040069E-13 -1.45953366E-12 -1.88976947E+01
 -3.91040069E-13 -1.45953366E-12 -1.88976947E+01 -3.91040069E-13 -1.45953366E-12
 -1.88976947E+01 -3.91040069E-13 -1.45953366E-12  1.88976930E+01 -5.02337837E-14
 -1.01010909E-12  1.88976930E+01 -5.02337837E-14 -1.01010909E-12  1.88976930E+01
 -5.02337837E-14 -1.01010909E-12  1.88976930E+01 -5.02337837E-14 -1.01010909E-12
Num ILSW                                   I              100
ILSW                                       I   N=         100
           1           0           0           0           2           0
           0           0           0           0        4336          -1
           7           0           0           0           2           0
           0           0           0           0           1           0
           1           1           0           0           0           0
           0           0      100000           0          -1           0
           0           0           0           0           0           0
           0           0           0           1           0           0
           0 -2000000000           1           0           0           0
           0           0           4          52           0           0
           0           0          55           0           0           0
           0           0           0           4           0           1
           0           0           0           0           0           0
           0           0           0           0           0           0
           0           0           0           0           0           0
           0           0           0           0           0           0
           0           0           0           0
Num RLSW                                   I               52
RLSW                                       R   N=          52
  1.00000000E+00  1.00000000E+00  1.00000000E+00  1.00000000E+00  5.40000000E-01
  0.00000000E+00  0.00000000E+00  1.00000000E+00  0.00000000E+00  0.00000000E+00
  0.00000000E+00  0.00000000E+00  1.00000000E+00  0.00000000E+00  0.00000000E+00
  0.00000000E+00  0.00000000E+00  1.00000000E+00  0.00000000E+00  0.00000000E+00
  0.00000000E+00  0.00000000E+00  1.00000000E+00  0.00000000E+00  0.00000000E+00
  0.00000000E+00  0.00000000E+00  1.00000000E+00  0.00000000E+00  0.00000000E+00
  0.00000000E+00  0.00000000E+00  1.00000000E+00  0.00000000E+00  0.00000000E+00
  0.00000000E+00  0.00000000E+00  0.00000000E+00  1.00000000E+00  1.00000000E+00
  0.00000000E+00  1.00000000E+00  0.00000000E+00  0.00000000E+00  0.00000000E+00
  0.00000000E+00  0.00000000E+00  0.00000000E+00  0.00000000E+00  0.00000000E+00
  0.00000000E+00  0.00000000E+00
MxBond                                     I                2
NBond                                      I   N=           4
           2           2           1           1
IBond                                      I   N=           8
           2           3           1           4           1           0
           2           0
RBond                                      R   N=           8
  1.00000000E-01  1.00000000E+00  1.00000000E-01  1.00000000E+00  1.00000000E+00
  0.00000000E+00  1.00000000E+00  0.00000000E+00
Virial Ratio                               R      2.002700989563813E+00
SCF Energy                                 R     -7.658536152545288E+01
Total Energy                               R     -7.658536152545288E+01
S**2                                       R      7.512978187704782E-01
S**2 after annihilation                    R      7.500012119569448E-01
RMS Force                                  R      1.428816762147831E-04
RMS Density                                R      4.127013078658095E-09
Job Status                                 I                1
Nuclear derivative order                   I                1
External E-field                           R   N=          35
  0.00000000E+00  0.00000000E+00  0.00000000E+00  0.00000000E+00  0.00000000E+00
  0.00000000E+00  0.00000000E+00  0.00000000E+00  0.00000000E+00  0.00000000E+00
  0.00000000E+00  0.00000000E+00  0.00000000E+00  0.00000000E+00  0.00000000E+00
  0.00000000E+00  0.00000000E+00  0.00000000E+00  0.00000000E+00  0.00000000E+00
  0.00000000E+00  0.00000000E+00  0.00000000E+00  0.00000000E+00  0.00000000E+00
  0.00000000E+00  0.00000000E+00  0.00000000E+00  0.00000000E+00  0.00000000E+00
  0.00000000E+00  0.00000000E+00  0.00000000E+00  0.00000000E+00  0.00000000E+00
IOpCl                                      I                1
IROHF                                      I                0
Alpha Orbital Energies                     R   N=          56
 -1.09058328E+01 -1.09058327E+01 -9.43852073E-01 -9.43843661E-01 -5.93872800E-01
 -5.93869674E-01 -4.13181354E-01 -3.97167506E-01 -2.93146322E-01 -2.93146293E-01
 -8.38224356E-02 -8.38195045E-02 -3.02523982E-02 -3.02523782E-02 -2.85771005E-02
 -2.85770485E-02 -2.71684010E-02 -2.71671033E-02  3.05222593E-02  3.05233911E-02
  3.13131810E-01  3.13133436E-01  4.06212468E-01  4.06212509E-01  4.15289508E-01
  4.15289534E-01  4.41721917E-01  4.41722215E-01  5.08576003E-01  5.08577849E-01
  9.31605273E-01  9.31605337E-01  9.33531913E-01  9.33543807E-01  1.11637699E+00
  1.11638286E+00  1.12671201E+00  1.12671777E+00  1.39165708E+00  1.39165769E+00
  1.66445670E+00  1.66445735E+00  1.66723377E+00  1.66723492E+00  2.19513712E+00
  2.19513792E+00  2.31496207E+00  2.31496210E+00  2.47778678E+00  2.47778688E+00
  2.49212088E+00  2.49212097E+00  2.97146760E+00  2.97146808E+00  2.32773311E+01
  2.32773325E+01
Beta Orbital Energies                      R   N=          56
 -1.09016885E+01 -1.09016884E+01 -9.20247866E-01 -9.20247630E-01 -5.79940097E-01
 -5.79940074E-01 -2.74333441E-01 -2.74333399E-01 -2.58010880E-01 -2.58010835E-01
 -8.57820165E-02 -8.57819937E-02 -2.73453099E-02 -2.73452978E-02 -2.22784869E-02
 -2.22784729E-02 -1.30133547E-02 -1.30133378E-02  4.85540784E-02  4.85543467E-02
  3.06565329E-01  3.06565436E-01  4.10842093E-01  4.10842123E-01  4.13409407E-01
  4.13409439E-01  4.71671250E-01  4.71671480E-01  5.29647339E-01  5.29647747E-01
  1.00252644E+00  1.00252669E+00  1.01154968E+00  1.01154994E+00  1.14898828E+00
  1.14898831E+00  1.14908946E+00  1.14908949E+00  1.39566270E+00  1.39566309E+00
  1.68156225E+00  1.68156292E+00  1.68833780E+00  1.68833848E+00  2.35286004E+00
  2.35286043E+00  2.36229221E+00  2.36229407E+00  2.50390616E+00  2.50390625E+00
  2.52746679E+00  2.52746687E+00  3.06442197E+00  3.06442326E+00  2.32904336E+01
  2.32904351E+01
Alpha MO coefficients                      R   N=        3136
  5.28378700E-01  4.35317539E-01 -1.90687174E-03  3.41420570E-16 -9.39697309E-16
  8.75474758E-03 -1.10592152E-03 -1.38418338E-16 -4.79215647E-16 -3.71311385E-03
 -7.00264544E-05  1.45825829E-16  6.21624266E-16  4.06628118E-04  6.04803198E-04
  8.06517512E-17  2.95125155E-16 -4.51654916E-04  3.12829088E-16 -1.93633127E-05
  7.82646901E-04 -1.85501396E-17  1.97319309E-01  1.62566270E-01  7.12107575E-04
  3.72723290E-16 -2.18345560E-16  3.26939613E-03  4.13004979E-04 -2.28947405E-16
 -1.39274947E-16 -1.38657586E-03  2.61683458E-05  2.40108079E-17  5.22503470E-17
  1.51879752E-04 -2.25857726E-04  1.07425862E-17  1.97581733E-16 -1.68663185E-04
 -2.87213495E-16 -7.20670486E-06  2.92269195E-04 -1.48493662E-16  3.45616944E-04
 -2.46077017E-03  2.04646894E-03 -1.73107128E-03 -1.12320949E-15 -4.19424650E-15
  1.29069884E-04 -9.18980927E-04  7.64217079E-04  6.46462168E-04  7.59235959E-17
 -8.48763707E-16 -1.97319314E-01 -1.62566280E-01  7.12108296E-04 -3.15791715E-16
  6.19423486E-16 -3.26940739E-03  4.12995776E-04  2.69564928E-16 -2.38831487E-16
  1.38671538E-03  2.61276654E-05 -6.09639107E-17 -2.56368346E-16 -1.51814238E-04
 -2.25862633E-04  1.68880727E-16  3.01350071E-17  1.68672631E-04 -1.95676190E-16
  7.26334949E-06 -2.92283727E-04 -9.65032668E-17  5.28378702E-01  4.35317541E-01
  1.90687222E-03  1.16489727E-15 -7.43421963E-16  8.75476268E-03  1.10593094E-03
 -8.48664823E-16 -3.67013744E-18 -3.71316395E-03  7.00110221E-05  5.03022437E-16
  1.46055488E-16  4.06599106E-04 -6.04806824E-04 -2.42459691E-16  3.39663213E-16
 -4.51657886E-04 -2.76393884E-16 -1.93843824E-05  7.82660169E-04  8.46653379E-17
 -1.29065159E-04  9.18933840E-04 -7.64273407E-04  6.46453103E-04  3.07664483E-16
  1.38839261E-15  3.45613215E-04 -2.46077050E-03  2.04650002E-03  1.73107789E-03
 -3.37033044E-16 -2.84261734E-15 -7.86643963E-02 -1.28422554E-01 -5.56863406E-02
 -6.74403040E-15 -2.79025455E-14  3.78715292E-01 -8.54307361E-02  2.53593642E-15
 -2.19998243E-14  2.39153499E-01 -3.19069022E-02  9.85769828E-15  1.44318524E-14
 -5.39994166E-03 -2.25639498E-03 -4.33732369E-15 -9.88428910E-15 -4.22835029E-03
 -1.53961098E-14  3.66026839E-04  7.31695214E-03 -1.20970056E-14 -8.07732667E-02
 -1.31865362E-01  5.71793763E-02  8.75013904E-15 -1.91844060E-14  3.88868078E-01
  8.77212004E-02  2.10615591E-14 -1.59478465E-14  2.45564466E-01  3.27622427E-02
  1.99683738E-14  1.05336459E-14 -5.54489933E-03  2.31687208E-03 -3.82835461E-15
 -6.91164902E-15 -4.34179752E-03  1.04088429E-14  3.75775645E-04  7.51311877E-03
  1.09809238E-14  9.72339861E-02  1.20907869E-01 -1.93519526E-03  1.66327150E-02
 -3.78972401E-14 -2.90707763E-14  9.98408827E-02  1.24149501E-01 -1.98693373E-03
 -1.70786420E-02 -2.39733164E-14 -2.03708171E-14 -8.07730230E-02 -1.31865060E-01
 -5.71813909E-02 -6.96972441E-15 -2.87338393E-14  3.88869697E-01 -8.77239184E-02
  2.58921647E-15 -2.29749346E-14  2.45555768E-01 -3.27604193E-02  1.00327431E-14
  1.49590921E-14 -5.55232665E-03 -2.31629827E-03 -4.27916721E-15 -1.01536612E-14
 -4.34226015E-03 -1.57177184E-14  3.73372170E-04  7.51411455E-03 -1.21613969E-14
  7.86641098E-02  1.28422177E-01 -5.56886015E-02 -8.71586450E-15  1.93471131E-14
 -3.78716664E-01 -8.54337172E-02 -2.03989645E-14  1.46247086E-14 -2.39144163E-01
 -3.19050402E-02 -1.96154189E-14 -9.87813756E-15  5.40754881E-03 -2.25580875E-03
  3.74172875E-15  6.51413128E-15  4.22897686E-03 -1.01761230E-14 -3.63561607E-04
 -7.31793780E-03 -1.06854893E-14  9.98423699E-02  1.24155067E-01 -1.98106321E-03
  1.70792055E-02 -3.87561804E-14 -2.98062053E-14 -9.72357718E-02 -1.20913759E-01
  1.92920194E-03  1.66333113E-02  2.33253522E-14  1.99066926E-14 -4.25435455E-02
 -7.09289637E-02  1.65318320E-01  2.36593740E-14  9.69543683E-14  2.19852561E-01
  2.44566161E-01 -1.77387387E-14  1.28443629E-13  2.62914590E-01  1.39682292E-01
  3.80202731E-14  3.35520914E-14  1.80048269E-02 -2.23561265E-03 -1.59045507E-14
  1.60684641E-15  1.48273013E-02  5.30356727E-15  5.48637448E-06 -2.56817393E-02
  9.34834230E-15 -4.29893005E-02 -7.16721323E-02 -1.67050311E-01 -4.20724063E-14
  6.78592248E-14  2.22156107E-01 -2.47128361E-01 -5.13684046E-14  9.15373403E-14
  2.65669345E-01 -1.41145636E-01 -6.05820196E-14  2.24827485E-14  1.81933992E-02
  2.25903506E-03 -1.16658523E-15  1.65758552E-15  1.49826423E-02 -4.35088680E-15
  5.52593265E-06 -2.59508003E-02 -2.17122306E-14 -9.49034631E-02 -1.71209359E-01
 -7.88936438E-02 -7.84630782E-03 -4.26973615E-15  2.81602126E-14 -9.58976837E-02
 -1.73002932E-01 -7.97201378E-02  7.92849342E-03  1.06986075E-14  1.94974654E-14
 -4.29907629E-02 -7.16746099E-02  1.67049734E-01  2.36722328E-14  9.76134729E-14
  2.22165552E-01  2.47127695E-01 -1.87155563E-14  1.28492353E-13  2.65668847E-01
  1.41148820E-01  3.84249526E-14  3.36526736E-14  1.81854502E-02 -2.25843403E-03
 -1.62918817E-14  1.21883838E-15  1.49823313E-02  5.46596739E-15  3.74680326E-06
 -2.59502265E-02  9.53474801E-15  4.25450762E-02  7.09315588E-02  1.65317774E-01
  4.23982948E-14 -6.72175479E-14 -2.19862369E-01  2.44565446E-01  5.06932576E-14
 -8.99930238E-14 -2.62914685E-01  1.39685334E-01  6.05834441E-14 -2.19722784E-14
 -1.79968464E-02 -2.23501930E-03  1.12354196E-15 -1.70982480E-15 -1.48269953E-02
  4.37105308E-15 -3.69022338E-06  2.56811775E-02  2.13004316E-14 -9.58960277E-02
 -1.72998521E-01 -7.97154301E-02 -7.92788995E-03 -4.36761120E-15  2.83928828E-14
  9.49017303E-02  1.71204749E-01  7.88888955E-02 -7.84567649E-03 -1.03095364E-14
 -1.93593855E-14  4.17868389E-15  3.51092273E-15 -3.62015316E-14  1.47917112E-01
  1.46556135E-01  1.40727754E-13 -9.09089179E-14  2.32850876E-01  2.30708438E-01
 -1.38096115E-12  8.50084163E-13  2.10601592E-01  2.08663863E-01 -1.38863980E-12
  8.15198431E-13  1.74191618E-02  1.72588944E-02  3.25049524E-14 -1.34038431E-02
 -3.13135602E-15 -6.80460920E-14 -1.35283161E-02  4.11726860E-15  1.46653517E-14
  1.43461128E-14  1.47931774E-01  1.46541398E-01  1.54187918E-14 -2.04719186E-13
  2.32873966E-01  2.30685248E-01 -9.41663851E-13 -6.24045036E-13  2.10622477E-01
  2.08642890E-01 -5.06177832E-13 -2.92957665E-13  1.74208873E-02  1.72571577E-02
  7.92354975E-14  1.34025078E-02  5.86535720E-16 -1.49625798E-13  1.35296697E-02
  7.25198844E-14 -8.70622163E-14  3.14875218E-12  1.39030793E-13  1.16475968E-02
  1.15404281E-02 -2.60784252E-14  5.67783832E-13  1.27173307E-12 -2.48852207E-13
  1.16487610E-02  1.15392772E-02 -4.10883744E-15 -3.36042959E-15  3.55452921E-14
 -1.47911470E-01 -1.46550545E-01 -1.41585781E-13  8.95040808E-14 -2.32839501E-01
 -2.30697167E-01  1.38076378E-12 -8.47446676E-13 -2.10591932E-01 -2.08654291E-01
  1.38852498E-12 -8.15871737E-13 -1.74315498E-02 -1.72711683E-02 -3.23800027E-14
  1.34959129E-02  2.96657711E-15  6.77658694E-14  1.36212410E-02  3.99713735E-15
  1.45032997E-14  1.37965642E-14  1.47926055E-01  1.46535733E-01  1.65142563E-14
 -2.05359453E-13  2.32862469E-01  2.30673858E-01 -9.45941229E-13 -6.28244964E-13
  2.10612706E-01  2.08633210E-01 -5.10607176E-13 -2.95335419E-13  1.74332674E-02
  1.72694214E-02  7.92250505E-14  1.34945614E-02  5.87352376E-16 -1.50153144E-13
  1.36225967E-02 -7.27780701E-14  9.01466883E-14 -3.15050383E-12 -1.38181642E-13
 -1.16945443E-02 -1.15869437E-02 -2.62545800E-14  5.67371831E-13  1.28225560E-12
 -2.49262990E-13  1.16957072E-02  1.15857821E-02  5.16166133E-15  2.78329392E-14
 -1.39841706E-13 -1.70981291E-01  1.72569079E-01 -2.27213471E-13  2.23294058E-13
 -2.76267621E-01  2.78833144E-01  6.57688395E-13 -6.33558838E-13 -2.63817884E-01
  2.66267784E-01  1.42138556E-12 -8.79103285E-13 -5.00276525E-02  5.04922403E-02
  6.75945402E-14 -1.57125896E-02  6.95437583E-15 -1.22100394E-13  1.55680196E-02
  1.46048650E-15  2.84651590E-15  5.73535281E-14 -9.30143089E-02  9.38968174E-02
 -3.37021650E-14  9.15157565E-14 -1.50290373E-01  1.51716317E-01  2.36745102E-13
  2.64110240E-13 -1.43517694E-01  1.44879373E-01  2.05314424E-13  1.37651227E-13
 -2.72152075E-02  2.74734302E-02 -1.22177017E-14  8.54940699E-03  4.33166021E-15
  2.31134309E-14 -8.46905350E-03 -1.00332024E-13  1.01198111E-12 -2.98433072E-12
  1.99082119E-13 -1.51042954E-02  1.52445591E-02  1.44763737E-14 -4.51129244E-14
 -4.83113219E-13  2.76598876E-14 -8.21678571E-03  8.29474574E-03 -2.78180701E-15
 -1.50993866E-14  7.65046514E-14  9.30236965E-02 -9.38875452E-02  1.23472412E-13
 -1.21318006E-13  1.50305542E-01 -1.51701335E-01 -3.60485988E-13  3.47909511E-13
  1.43532157E-01 -1.44865044E-01 -7.80727600E-13  4.81045406E-13  2.72178975E-02
 -2.74706598E-02 -3.68483937E-14  8.54855620E-03 -3.53470018E-15  6.62888036E-14
 -8.46990176E-03  2.61106725E-15  5.17910392E-15  1.05557758E-13 -1.70964058E-01
  1.72586144E-01 -6.18205410E-14  1.68545638E-13 -2.76239781E-01  2.78860723E-01
  4.36136563E-13  4.86121132E-13 -2.63791305E-01  2.66294127E-01  3.77534222E-13
  2.52178788E-13 -5.00225875E-02  5.04972107E-02 -2.24879315E-14  1.57141555E-02
  7.95572075E-15  4.24015712E-14 -1.55664625E-02  5.45964423E-14 -5.51460999E-13
  1.63572746E-12 -1.08147730E-13  8.21760971E-03 -8.29392130E-03  2.65452421E-14
 -8.41160390E-14 -8.88206321E-13  5.09668305E-14 -1.51027855E-02  1.52460792E-02
  2.55656249E-02  4.28185539E-02  4.97046142E-02  7.78750039E-15  1.87454600E-14
 -1.25018057E-01  1.04483119E-01 -6.59390636E-14  6.06197957E-14 -5.16321937E-01
  1.27374924E-01  5.60959979E-14  1.11369057E-13  9.55680667E-01 -3.84353527E-01
  2.61298209E-14 -2.40165509E-13  6.48709726E-03 -4.28080100E-14  1.87698212E-03
 -1.12706832E-02  1.36426351E-14  2.53160183E-02  4.24005076E-02 -4.92191286E-02
 -1.46683924E-14  1.28030594E-14 -1.23797584E-01 -1.03462826E-01 -2.23020047E-14
  4.15475979E-14 -5.11280343E-01 -1.26130500E-01 -1.80774545E-14  7.34474774E-14
  9.46351279E-01  3.80601354E-01  2.13942782E-14 -1.50782946E-13  6.42347059E-03
  2.90965499E-14  1.85867764E-03 -1.11608821E-02  1.62294804E-15 -7.45071764E-04
  1.32306419E-01 -9.11704511E-02 -4.43018504E-03  7.84907545E-14 -1.38315659E-13
 -7.37944833E-04  1.31014483E-01 -9.02820806E-02  4.38687969E-03  2.11661060E-14
 -9.45984056E-14 -2.53147701E-02 -4.23982867E-02 -4.92238119E-02 -7.22119121E-15
 -1.89978994E-14  1.23786675E-01 -1.03469094E-01  6.50409475E-14 -5.94267089E-14
  5.11292363E-01 -1.26155060E-01 -5.49902574E-14 -1.10503736E-13 -9.46323269E-01
  3.80618634E-01 -2.66224337E-14  2.37840124E-13 -6.42357368E-03  4.24813437E-14
 -1.85618942E-03  1.11602723E-02 -1.32973645E-14  2.55643532E-02  4.28163068E-02
 -4.97089159E-02 -1.43991968E-14  1.25790870E-14 -1.25007238E-01 -1.04489028E-01
 -2.36159901E-14  4.18057918E-14 -5.16332736E-01 -1.27398024E-01 -1.72838482E-14
  7.35871743E-14  9.55654541E-01  3.84371644E-01  2.12924960E-14 -1.52250817E-13
  6.48661135E-03  2.91289164E-14  1.87451136E-03 -1.12705446E-02  1.72577360E-15
  7.36727390E-04 -1.31024802E-01  9.02529875E-02  4.38664959E-03 -7.75617769E-14
  1.37116286E-13 -7.44139871E-04  1.32316420E-01 -9.11445870E-02  4.42984609E-03
  2.12466318E-14 -9.59253768E-14  1.99988483E-14  2.35592931E-14  2.11940498E-13
  7.28815569E-02 -7.35602376E-02  2.55019019E-14  5.54231368E-14  8.19752764E-02
 -8.27382748E-02 -1.31791467E-12  1.26018886E-12  2.61016474E-01 -2.63447533E-01
 -2.08738615E-12  7.64569262E-13 -7.13825241E-01  7.20474245E-01 -4.49386424E-14
  6.04161770E-03 -3.66135923E-15  7.99530686E-14 -5.98588285E-03 -2.22394376E-15
 -4.03645381E-15 -3.06010511E-14  4.52052466E-02 -4.56353349E-02  1.21334838E-14
 -2.64142405E-14  5.08456916E-02 -5.13292139E-02  4.46196030E-14 -1.14939452E-13
  1.61897110E-01 -1.63437702E-01 -6.34489811E-14  3.10939935E-13 -4.42754577E-01
  4.46968129E-01  4.30326502E-16 -3.74810731E-03 -1.92101927E-15 -1.00611996E-15
  3.71278739E-03  1.28887347E-13 -3.00402382E-13  4.20185330E-12 -1.38821863E-13
 -2.41869305E-03  2.44126101E-03 -6.81713272E-15  1.32579669E-14 -1.96144029E-14
  1.17265295E-14 -1.50020162E-03  1.51450304E-03 -1.24183253E-14 -1.46367588E-14
 -1.31403917E-13 -4.52097976E-02  4.56307958E-02 -1.57504986E-14 -3.43129204E-14
 -5.08507920E-02  5.13240940E-02  8.17736873E-13 -7.81472175E-13 -1.61913464E-01
  1.63421496E-01  1.29436448E-12 -4.74939714E-13  4.42799323E-01 -4.46923824E-01
  2.78785283E-14 -3.74772860E-03  2.26130847E-15 -4.96000364E-14  3.71315524E-03
 -3.59216396E-15 -6.51611269E-15 -4.93453463E-14  7.28741814E-02 -7.35675158E-02
  1.96259019E-14 -4.26326174E-14  8.19669766E-02 -8.27464504E-02  7.19377668E-14
 -1.85223696E-13  2.60990121E-01 -2.63473669E-01 -1.02078161E-13  5.01609747E-13
 -7.13753140E-01  7.20545701E-01  7.11916423E-16 -6.04222424E-03 -3.09266479E-15
 -1.63762142E-15  5.98528588E-03 -7.99570517E-14  1.86376836E-13 -2.60643044E-12
  8.61008830E-14  1.50036342E-03 -1.51436275E-03 -1.09956822E-14  2.13177271E-14
 -3.18690366E-14  1.89059079E-14 -2.41843970E-03  2.44149469E-03  2.13641317E-14
  3.58811972E-14 -2.02116255E-13 -6.14705307E-02 -6.09031002E-02 -1.46664429E-13
 -2.12920217E-13 -5.80917044E-02 -5.75551088E-02  1.65623483E-13 -1.18133370E-12
 -2.31799293E-01 -2.29659995E-01  2.11714996E-12  1.01299050E-12  6.57356024E-01
  6.51289744E-01 -1.05733809E-14  4.78320716E-03  4.03968161E-15  2.24651112E-14
  4.82777835E-03  2.92041246E-14  4.48025544E-14  7.51088676E-14 -5.06877729E-02
 -5.02098227E-02 -1.11985962E-13  1.42328418E-13 -4.79013010E-02 -4.74493274E-02
 -6.66738924E-13  3.16552744E-13 -1.91139871E-01 -1.89337914E-01  4.83348928E-13
 -1.59197263E-12  5.42052894E-01  5.36943169E-01 -2.85219185E-14 -3.94334213E-03
  1.94964050E-15  5.31892101E-14 -3.98088436E-03 -3.00903672E-14 -1.77607946E-13
 -1.94723987E-12 -4.65741403E-15  3.46120833E-03  3.42930183E-03  5.40081517E-14
 -2.52680950E-13  8.66118476E-13  4.87785201E-14  2.85415024E-03  2.82727428E-03
 -1.76293343E-14 -2.96080286E-14  1.66686198E-13  5.06861740E-02  5.02182931E-02
  1.20995342E-13  1.75558822E-13  4.79019186E-02  4.74594464E-02 -1.36307578E-13
  9.74310904E-13  1.91125863E-01  1.89361943E-01 -1.74605041E-12 -8.35961897E-13
 -5.41998769E-01 -5.36997038E-01  8.19490997E-15 -3.94427079E-03 -3.34105110E-15