 Entering Gaussian System, Link 0=g16
 Initial command:
 /home/szhao/Apps/g16/l1.exe "/home/szhao/tmp/Gau-102689.inp" -scrdir="/home/szhao/tmp/"
 Default is to use a total of  16 processors:
                               16 via shared-memory
                                1 via Linda
 Entering Link 1 = /home/szhao/Apps/g16/l1.exe PID=    102690.
  
 Copyright (c) 1988,1990,1992,1993,1995,1998,2003,2009,2016,
            Gaussian, Inc.  All Rights Reserved.
  
 This is part of the Gaussian(R) 16 program.  It is based on
 the Gaussian(R) 09 system (copyright 2009, Gaussian, Inc.),
 the Gaussian(R) 03 system (copyright 2003, Gaussian, Inc.),
 the Gaussian(R) 98 system (copyright 1998, Gaussian, Inc.),
 the Gaussian(R) 94 system (copyright 1995, Gaussian, Inc.),
 the Gaussian 92(TM) system (copyright 1992, Gaussian, Inc.),
 the Gaussian 90(TM) system (copyright 1990, Gaussian, Inc.),
 the Gaussian 88(TM) system (copyright 1988, Gaussian, Inc.),
 the Gaussian 86(TM) system (copyright 1986, Carnegie Mellon
 University), and the Gaussian 82(TM) system (copyright 1983,
 Carnegie Mellon University). Gaussian is a federally registered
 trademark of Gaussian, Inc.
  
 This software contains proprietary and confidential information,
 including trade secrets, belonging to Gaussian, Inc.
  
 This software is provided under written license and may be
 used, copied, transmitted, or stored only in accord with that
 written license.
  
 The following legend is applicable only to US Government
 contracts under FAR:
  
                    RESTRICTED RIGHTS LEGEND
  
 Use, reproduction and disclosure by the US Government is
 subject to restrictions as set forth in subparagraphs (a)
 and (c) of the Commercial Computer Software - Restricted
 Rights clause in FAR 52.227-19.
  
 Gaussian, Inc.
 340 Quinnipiac St., Bldg. 40, Wallingford CT 06492
  
  
 ---------------------------------------------------------------
 Warning -- This program may not be used in any manner that
 competes with the business of Gaussian, Inc. or will provide
 assistance to any competitor of Gaussian, Inc.  The licensee
 of this program is prohibited from giving any competitor of
 Gaussian, Inc. access to this program.  By using this program,
 the user acknowledges that Gaussian, Inc. is engaged in the
 business of creating and licensing software in the field of
 computational chemistry and represents and warrants to the
 licensee that it is not a competitor of Gaussian, Inc. and that
 it will not use this program in any manner prohibited above.
 ---------------------------------------------------------------
  

 Cite this work as:
 Gaussian 16, Revision A.03,
 M. J. Frisch, G. W. Trucks, H. B. Schlegel, G. E. Scuseria, 
 M. A. Robb, J. R. Cheeseman, G. Scalmani, V. Barone, 
 G. A. Petersson, H. Nakatsuji, X. Li, M. Caricato, A. V. Marenich, 
 J. Bloino, B. G. Janesko, R. Gomperts, B. Mennucci, H. P. Hratchian, 
 J. V. Ortiz, A. F. Izmaylov, J. L. Sonnenberg, D. Williams-Young, 
 F. Ding, F. Lipparini, F. Egidi, J. Goings, B. Peng, A. Petrone, 
 T. Henderson, D. Ranasinghe, V. G. Zakrzewski, J. Gao, N. Rega, 
 G. Zheng, W. Liang, M. Hada, M. Ehara, K. Toyota, R. Fukuda, 
 J. Hasegawa, M. Ishida, T. Nakajima, Y. Honda, O. Kitao, H. Nakai, 
 T. Vreven, K. Throssell, J. A. Montgomery, Jr., J. E. Peralta, 
 F. Ogliaro, M. J. Bearpark, J. J. Heyd, E. N. Brothers, K. N. Kudin, 
 V. N. Staroverov, T. A. Keith, R. Kobayashi, J. Normand, 
 K. Raghavachari, A. P. Rendell, J. C. Burant, S. S. Iyengar, 
 J. Tomasi, M. Cossi, J. M. Millam, M. Klene, C. Adamo, R. Cammi, 
 J. W. Ochterski, R. L. Martin, K. Morokuma, O. Farkas, 
 J. B. Foresman, and D. J. Fox, Gaussian, Inc., Wallingford CT, 2016.
 
 ******************************************
 Gaussian 16:  ES64L-G16RevA.03 25-Dec-2016
                21-Apr-2025 
 ******************************************
 %chk=opt.chk
 %mem=4GB
 %nprocshared=8
 Will use up to    8 processors via shared memory.
 --------------------------------------------
 #p opt UM062X/6-311+G** nosymm int=superfine
 --------------------------------------------
 1/18=20,19=15,26=5,38=1/1,3;
 2/9=110,12=2,15=1,17=6,18=5,40=1/2;
 3/5=4,6=6,7=111,11=2,25=1,30=1,71=1,74=-55,75=-7,116=2/1,2,3;
 4//1;
 5/5=2,38=5/2;
 6/7=2,8=2,9=2,10=2,28=1/1;
 7/30=1/1,2,3,16;
 1/18=20,19=15,26=5/3(2);
 2/9=110,15=1/2;
 99//99;
 2/9=110,15=1/2;
 3/5=4,6=6,7=111,11=2,25=1,30=1,71=1,74=-55,75=-7,116=2/1,2,3;
 4/5=5,16=3,69=1/1;
 5/5=2,38=5/2;
 7/30=1/1,2,3,16;
 1/18=20,19=15,26=5/3(-5);
 2/9=110,15=1/2;
 6/7=2,8=2,9=2,10=2,19=2,28=1/1;
 99/9=1/99;
 Leave Link    1 at Mon Apr 21 20:09:12 2025, MaxMem=   536870912 cpu:               1.7 elap:               0.2
 (Enter /home/szhao/Apps/g16/l101.exe)
 -------------------
 Title Card Required
 -------------------
 Symbolic Z-matrix:
 Charge =  1 Multiplicity = 2
 Si                   -1   -2.27629   0.        0. 
 Si                   -1    2.27629   0.        0. 
 H                    0     2.47437  -1.45402   0. 
 H                    0    -2.47369  -0.72694   1.25938 
 H                    0     2.47431   0.72706  -1.25921 
 H                    0     2.47343   0.72707   1.25935 
 H                    0    -2.4744    1.45402  -0.00003 
 H                    0    -2.47402  -0.7272   -1.25918 
 
 Add virtual bond connecting atoms Si2        and Si1        Dist= 8.60D+00.
 ITRead=  2  2  0  0  0  0  0  0
 MicOpt= -2 -2 -1 -1 -1 -1 -1 -1
 NAtoms=      8 NQM=        6 NQMF=       2 NMMI=      0 NMMIF=      0
                NMic=       0 NMicF=      0.
                    Isotopes and Nuclear Properties:
 (Nuclear quadrupole moments (NQMom) in fm**2, nuclear magnetic moments (NMagM)
  in nuclear magnetons)

  Atom         1           2           3           4           5           6           7           8
 IAtWgt=          28          28           1           1           1           1           1           1
 AtmWgt=  27.9769284  27.9769284   1.0078250   1.0078250   1.0078250   1.0078250   1.0078250   1.0078250
 NucSpn=           0           0           1           1           1           1           1           1
 AtZEff=  -0.0000000  -0.0000000  -0.0000000  -0.0000000  -0.0000000  -0.0000000  -0.0000000  -0.0000000
 NQMom=    0.0000000   0.0000000   0.0000000   0.0000000   0.0000000   0.0000000   0.0000000   0.0000000
 NMagM=    0.0000000   0.0000000   2.7928460   2.7928460   2.7928460   2.7928460   2.7928460   2.7928460
 AtZNuc=  14.0000000  14.0000000   1.0000000   1.0000000   1.0000000   1.0000000   1.0000000   1.0000000
 Leave Link  101 at Mon Apr 21 20:09:13 2025, MaxMem=   536870912 cpu:               2.5 elap:               0.3
 (Enter /home/szhao/Apps/g16/l103.exe)

 GradGradGradGradGradGradGradGradGradGradGradGradGradGradGradGradGradGrad
 Berny optimization.
 Initialization pass.
                           ----------------------------
                           !    Initial Parameters    !
                           ! (Angstroms and Degrees)  !
 --------------------------                            --------------------------
 ! Name  Definition              Value          Derivative Info.                !
 --------------------------------------------------------------------------------
 ! X1    R(1,-1)                -2.2763         Frozen                          !
 ! Y1    R(1,-2)                 0.0            Frozen                          !
 ! Z1    R(1,-3)                 0.0            Frozen                          !
 ! X2    R(2,-1)                 2.2763         Frozen                          !
 ! Y2    R(2,-2)                 0.0            Frozen                          !
 ! Z2    R(2,-3)                 0.0            Frozen                          !
 ! R1    R(1,4)                  1.4675         estimate D2E/DX2                !
 ! R2    R(1,7)                  1.4675         estimate D2E/DX2                !
 ! R3    R(1,8)                  1.4675         estimate D2E/DX2                !
 ! R4    R(2,3)                  1.4675         estimate D2E/DX2                !
 ! R5    R(2,5)                  1.4675         estimate D2E/DX2                !
 ! R6    R(2,6)                  1.4675         estimate D2E/DX2                !
 ! A1    A(2,1,4)               97.7308         estimate D2E/DX2                !
 ! A2    A(2,1,7)               97.7588         estimate D2E/DX2                !
 ! A3    A(2,1,8)               97.7435         estimate D2E/DX2                !
 ! A4    A(4,1,7)              118.2095         estimate D2E/DX2                !
 ! A5    A(4,1,8)              118.2153         estimate D2E/DX2                !
 ! A6    A(7,1,8)              118.2164         estimate D2E/DX2                !
 ! A7    A(1,2,3)               97.7576         estimate D2E/DX2                !
 ! A8    A(1,2,5)               97.755          estimate D2E/DX2                !
 ! A9    A(1,2,6)               97.7205         estimate D2E/DX2                !
 ! A10   A(3,2,5)              118.2102         estimate D2E/DX2                !
 ! A11   A(3,2,6)              118.2156         estimate D2E/DX2                !
 ! A12   A(5,2,6)              118.2155         estimate D2E/DX2                !
 ! D1    D(4,1,2,3)             60.0055         estimate D2E/DX2                !
 ! D2    D(4,1,2,5)           -179.9926         estimate D2E/DX2                !
 ! D3    D(4,1,2,6)            -59.9939         estimate D2E/DX2                !
 ! D4    D(7,1,2,3)           -179.9987         estimate D2E/DX2                !
 ! D5    D(7,1,2,5)            -59.9967         estimate D2E/DX2                !
 ! D6    D(7,1,2,6)             60.002          estimate D2E/DX2                !
 ! D7    D(8,1,2,3)            -59.9927         estimate D2E/DX2                !
 ! D8    D(8,1,2,5)             60.0092         estimate D2E/DX2                !
 ! D9    D(8,1,2,6)           -179.9921         estimate D2E/DX2                !
 --------------------------------------------------------------------------------
 Trust Radius=3.00D-01 FncErr=1.00D-07 GrdErr=1.00D-07 EigMax=2.50D+02 EigMin=1.00D-04
 Number of steps in this run=     43 maximum allowed number of steps=    100.
 GradGradGradGradGradGradGradGradGradGradGradGradGradGradGradGradGradGrad

 Leave Link  103 at Mon Apr 21 20:09:13 2025, MaxMem=   536870912 cpu:               0.3 elap:               0.1
 (Enter /home/szhao/Apps/g16/l202.exe)
                          Input orientation:                          
 ---------------------------------------------------------------------
 Center     Atomic      Atomic             Coordinates (Angstroms)
 Number     Number       Type             X           Y           Z
 ---------------------------------------------------------------------
      1         14           0       -2.276292    0.000000    0.000000
      2         14           0        2.276292    0.000000    0.000000
      3          1           0        2.474372   -1.454024    0.000000
      4          1           0       -2.473694   -0.726942    1.259381
      5          1           0        2.474306    0.727060   -1.259209
      6          1           0        2.473433    0.727070    1.259353
      7          1           0       -2.474404    1.454020   -0.000034
      8          1           0       -2.474016   -0.727201   -1.259181
 ---------------------------------------------------------------------
                    Distance matrix (angstroms):
                    1          2          3          4          5
     1  Si   0.000000
     2  Si   4.552584   0.000000
     3  H    4.968198   1.467454   0.000000
     4  H    1.467464   4.967580   5.157329   0.000000
     5  H    4.968139   1.467458   2.518479   5.739348   0.000000
     6  H    4.967343   1.467470   2.518560   5.156377   2.518563
     7  H    1.467454   4.968227   5.739956   2.518475   5.157879
     8  H    1.467465   4.967875   5.157553   2.518561   5.157594
                    6          7          8
     6  H    0.000000
     7  H    5.157093   0.000000
     8  H    5.738918   2.518566   0.000000
 Symmetry turned off by external request.
 Stoichiometry    H6Si2(1+,2)
 Framework group  C1[X(H6Si2)]
 Deg. of freedom    18
 Full point group                 C1      NOp   1
 Rotational constants (GHZ):          39.5281440           1.5161517           1.5161491
 Leave Link  202 at Mon Apr 21 20:09:13 2025, MaxMem=   536870912 cpu:               0.2 elap:               0.1
 (Enter /home/szhao/Apps/g16/l301.exe)
 Standard basis: 6-311+G(d,p) (5D, 7F)
 Ernie: Thresh=  0.10000D-02 Tol=  0.10000D-05 Strict=F.
    96 basis functions,   148 primitive gaussians,    98 cartesian basis functions
    17 alpha electrons       16 beta electrons
       nuclear repulsion energy        64.1739652155 Hartrees.
 IExCor= 4336 DFT=T Ex+Corr=M062X ExCW=0 ScaHFX=  0.540000
 ScaDFX=  1.000000  1.000000  1.000000  1.000000 ScalE2=  1.000000  1.000000
 IRadAn=      7 IRanWt=     -1 IRanGd=            0 ICorTp=0 IEmpDi=  4
 NAtoms=    8 NActive=    8 NUniq=    8 SFac= 1.00D+00 NAtFMM=   60 NAOKFM=F Big=F
 Integral buffers will be    131072 words long.
 Raffenetti 2 integral format.
 Two-electron integral symmetry is turned off.
 Leave Link  301 at Mon Apr 21 20:09:14 2025, MaxMem=   536870912 cpu:               0.6 elap:               0.2
 (Enter /home/szhao/Apps/g16/l302.exe)
 NPDir=0 NMtPBC=     1 NCelOv=     1 NCel=       1 NClECP=     1 NCelD=      1
         NCelK=      1 NCelE2=     1 NClLst=     1 CellRange=     0.0.
 One-electron integrals computed using PRISM.
 NBasis=    96 RedAO= T EigKep=  8.93D-03  NBF=    96
 NBsUse=    96 1.00D-06 EigRej= -1.00D+00 NBFU=    96
 Precomputing XC quadrature grid using
 IXCGrd= 4 IRadAn=           7 IRanWt=          -1 IRanGd=           0 AccXCQ= 0.00D+00.
 Generated NRdTot=       0 NPtTot=           0 NUsed=           0 NTot=          32
 NSgBfM=    90    90    90    90    90 MxSgAt=     8 MxSgA2=     8.
 Leave Link  302 at Mon Apr 21 20:09:14 2025, MaxMem=   536870912 cpu:               1.6 elap:               0.3
 (Enter /home/szhao/Apps/g16/l303.exe)
 DipDrv:  MaxL=1.
 Leave Link  303 at Mon Apr 21 20:09:14 2025, MaxMem=   536870912 cpu:               0.5 elap:               0.1
 (Enter /home/szhao/Apps/g16/l401.exe)
 ExpMin= 3.31D-02 ExpMax= 6.94D+04 ExpMxC= 2.33D+03 IAcc=3 IRadAn=         7 AccDes= 0.00D+00
 Harris functional with IExCor= 1009 and IRadAn=       7 diagonalized for initial guess.
 HarFok:  IExCor= 1009 AccDes= 0.00D+00 IRadAn=         7 IDoV= 1 UseB2=F ITyADJ=14
 ICtDFT=  3500011 ScaDFX=  1.000000  1.000000  1.000000  1.000000
 FoFCou: FMM=F IPFlag=           0 FMFlag=      100000 FMFlg1=           0
         NFxFlg=           0 DoJE=T BraDBF=F KetDBF=T FulRan=T
         wScrn=  0.000000 ICntrl=       500 IOpCl=  0 I1Cent=   200000004 NGrid=           0
         NMat0=    1 NMatS0=      1 NMatT0=    0 NMatD0=    1 NMtDS0=    0 NMtDT0=    0
 Symmetry not used in FoFCou.
 Harris En= -581.897189804564    
 JPrj=0 DoOrth=F DoCkMO=F.
 Initial guess <Sx>= 0.0000 <Sy>= 0.0000 <Sz>= 0.5000 <S**2>= 0.7500 S= 0.5000
 Leave Link  401 at Mon Apr 21 20:09:15 2025, MaxMem=   536870912 cpu:               6.2 elap:               0.8
 (Enter /home/szhao/Apps/g16/l502.exe)
 Keep R1 and R2 ints in memory in canonical form, NReq=29092346.
 FoFCou: FMM=F IPFlag=           0 FMFlag=           0 FMFlg1=           0
         NFxFlg=           0 DoJE=F BraDBF=F KetDBF=F FulRan=T
         wScrn=  0.000000 ICntrl=       600 IOpCl=  0 I1Cent=           0 NGrid=           0
         NMat0=    1 NMatS0=   4656 NMatT0=    0 NMatD0=    1 NMtDS0=    0 NMtDT0=    0
 Symmetry not used in FoFCou.
 Two-electron integral symmetry not used.
 UHF open shell SCF:
 Using DIIS extrapolation, IDIIS=  1040.
 NGot=   536870912 LenX=   515167018 LenY=   515156973
 Requested convergence on RMS density matrix=1.00D-08 within 128 cycles.
 Requested convergence on MAX density matrix=1.00D-06.
 Requested convergence on             energy=1.00D-06.
 No special actions if energy rises.

 Cycle   1  Pass 1  IDiag  1:
 E= -582.104381130094    
 DIIS: error= 2.78D-02 at cycle   1 NSaved=   1.
 NSaved= 1 IEnMin= 1 EnMin= -582.104381130094     IErMin= 1 ErrMin= 2.78D-02
 ErrMax= 2.78D-02  0.00D+00 EMaxC= 1.00D-01 BMatC= 2.19D-01 BMatP= 2.19D-01
 IDIUse=3 WtCom= 7.22D-01 WtEn= 2.78D-01
 Coeff-Com:  0.100D+01
 Coeff-En:   0.100D+01
 Coeff:      0.100D+01
 Gap=     0.110 Goal=   None    Shift=    0.000
 Gap=     0.283 Goal=   None    Shift=    0.000
 GapD=    0.110 DampG=1.000 DampE=0.500 DampFc=0.5000 IDamp=-1.
 Damping current iteration by 5.00D-01
 RMSDP=2.87D-03 MaxDP=6.85D-02              OVMax= 8.95D-02

 Cycle   2  Pass 1  IDiag  1:
 E= -582.122130087260     Delta-E=       -0.017748957166 Rises=F Damp=T
 DIIS: error= 1.42D-02 at cycle   2 NSaved=   2.
 NSaved= 2 IEnMin= 2 EnMin= -582.122130087260     IErMin= 2 ErrMin= 1.42D-02
 ErrMax= 1.42D-02  0.00D+00 EMaxC= 1.00D-01 BMatC= 3.94D-02 BMatP= 2.19D-01
 IDIUse=3 WtCom= 8.58D-01 WtEn= 1.42D-01
 Coeff-Com: -0.552D+00 0.155D+01
 Coeff-En:   0.000D+00 0.100D+01
 Coeff:     -0.473D+00 0.147D+01
 Gap=     0.112 Goal=   None    Shift=    0.000
 Gap=     0.287 Goal=   None    Shift=    0.000
 RMSDP=1.23D-03 MaxDP=3.25D-02 DE=-1.77D-02 OVMax= 2.44D-02

 Cycle   3  Pass 1  IDiag  1:
 E= -582.137708443325     Delta-E=       -0.015578356064 Rises=F Damp=F
 DIIS: error= 1.11D-03 at cycle   3 NSaved=   3.
 NSaved= 3 IEnMin= 3 EnMin= -582.137708443325     IErMin= 3 ErrMin= 1.11D-03
 ErrMax= 1.11D-03  0.00D+00 EMaxC= 1.00D-01 BMatC= 3.91D-04 BMatP= 3.94D-02
 IDIUse=3 WtCom= 9.89D-01 WtEn= 1.11D-02
 Coeff-Com: -0.883D-01 0.168D+00 0.921D+00
 Coeff-En:   0.000D+00 0.000D+00 0.100D+01
 Coeff:     -0.873D-01 0.166D+00 0.922D+00
 Gap=     0.112 Goal=   None    Shift=    0.000
 Gap=     0.283 Goal=   None    Shift=    0.000
 RMSDP=1.35D-04 MaxDP=3.63D-03 DE=-1.56D-02 OVMax= 5.17D-03

 Cycle   4  Pass 1  IDiag  1:
 E= -582.137768700804     Delta-E=       -0.000060257479 Rises=F Damp=F
 DIIS: error= 2.60D-04 at cycle   4 NSaved=   4.
 NSaved= 4 IEnMin= 4 EnMin= -582.137768700804     IErMin= 4 ErrMin= 2.60D-04
 ErrMax= 2.60D-04  0.00D+00 EMaxC= 1.00D-01 BMatC= 9.45D-06 BMatP= 3.91D-04
 IDIUse=3 WtCom= 9.97D-01 WtEn= 2.60D-03
 Coeff-Com: -0.219D-02 0.194D-02-0.315D-01 0.103D+01
 Coeff-En:   0.000D+00 0.000D+00 0.000D+00 0.100D+01
 Coeff:     -0.219D-02 0.193D-02-0.314D-01 0.103D+01
 Gap=     0.112 Goal=   None    Shift=    0.000
 Gap=     0.282 Goal=   None    Shift=    0.000
 RMSDP=4.82D-05 MaxDP=1.23D-03 DE=-6.03D-05 OVMax= 1.81D-03

 Cycle   5  Pass 1  IDiag  1:
 E= -582.137776451920     Delta-E=       -0.000007751116 Rises=F Damp=F
 DIIS: error= 9.57D-05 at cycle   5 NSaved=   5.
 NSaved= 5 IEnMin= 5 EnMin= -582.137776451920     IErMin= 5 ErrMin= 9.57D-05
 ErrMax= 9.57D-05  0.00D+00 EMaxC= 1.00D-01 BMatC= 1.35D-06 BMatP= 9.45D-06
 IDIUse=1 WtCom= 1.00D+00 WtEn= 0.00D+00
 Coeff-Com:  0.984D-02-0.183D-01-0.704D-01-0.234D+00 0.131D+01
 Coeff:      0.984D-02-0.183D-01-0.704D-01-0.234D+00 0.131D+01
 Gap=     0.113 Goal=   None    Shift=    0.000
 Gap=     0.282 Goal=   None    Shift=    0.000
 RMSDP=2.29D-05 MaxDP=6.56D-04 DE=-7.75D-06 OVMax= 8.16D-04

 Cycle   6  Pass 1  IDiag  1:
 E= -582.137777976356     Delta-E=       -0.000001524437 Rises=F Damp=F
 DIIS: error= 1.63D-05 at cycle   6 NSaved=   6.
 NSaved= 6 IEnMin= 6 EnMin= -582.137777976356     IErMin= 6 ErrMin= 1.63D-05
 ErrMax= 1.63D-05  0.00D+00 EMaxC= 1.00D-01 BMatC= 6.18D-08 BMatP= 1.35D-06
 IDIUse=1 WtCom= 1.00D+00 WtEn= 0.00D+00
 Coeff-Com: -0.156D-02 0.297D-02 0.141D-01-0.377D-01-0.180D+00 0.120D+01
 Coeff:     -0.156D-02 0.297D-02 0.141D-01-0.377D-01-0.180D+00 0.120D+01
 Gap=     0.113 Goal=   None    Shift=    0.000
 Gap=     0.282 Goal=   None    Shift=    0.000
 RMSDP=3.62D-06 MaxDP=1.04D-04 DE=-1.52D-06 OVMax= 1.57D-04

 Cycle   7  Pass 1  IDiag  1:
 E= -582.137778043085     Delta-E=       -0.000000066729 Rises=F Damp=F
 DIIS: error= 3.88D-06 at cycle   7 NSaved=   7.
 NSaved= 7 IEnMin= 7 EnMin= -582.137778043085     IErMin= 7 ErrMin= 3.88D-06
 ErrMax= 3.88D-06  0.00D+00 EMaxC= 1.00D-01 BMatC= 2.08D-09 BMatP= 6.18D-08
 IDIUse=1 WtCom= 1.00D+00 WtEn= 0.00D+00
 Coeff-Com: -0.309D-03 0.580D-03 0.170D-02 0.198D-01-0.529D-01-0.143D+00
 Coeff-Com:  0.117D+01
 Coeff:     -0.309D-03 0.580D-03 0.170D-02 0.198D-01-0.529D-01-0.143D+00
 Coeff:      0.117D+01
 Gap=     0.113 Goal=   None    Shift=    0.000
 Gap=     0.282 Goal=   None    Shift=    0.000
 RMSDP=8.80D-07 MaxDP=2.01D-05 DE=-6.67D-08 OVMax= 4.25D-05

 Cycle   8  Pass 1  IDiag  1:
 E= -582.137778045289     Delta-E=       -0.000000002204 Rises=F Damp=F
 DIIS: error= 4.07D-07 at cycle   8 NSaved=   8.
 NSaved= 8 IEnMin= 8 EnMin= -582.137778045289     IErMin= 8 ErrMin= 4.07D-07
 ErrMax= 4.07D-07  0.00D+00 EMaxC= 1.00D-01 BMatC= 3.04D-11 BMatP= 2.08D-09
 IDIUse=1 WtCom= 1.00D+00 WtEn= 0.00D+00
 Coeff-Com:  0.417D-04-0.772D-04-0.339D-03 0.473D-03 0.395D-02-0.187D-01
 Coeff-Com: -0.192D-01 0.103D+01
 Coeff:      0.417D-04-0.772D-04-0.339D-03 0.473D-03 0.395D-02-0.187D-01
 Coeff:     -0.192D-01 0.103D+01
 Gap=     0.113 Goal=   None    Shift=    0.000
 Gap=     0.282 Goal=   None    Shift=    0.000
 RMSDP=8.50D-08 MaxDP=1.55D-06 DE=-2.20D-09 OVMax= 4.40D-06

 Cycle   9  Pass 1  IDiag  1:
 E= -582.137778045311     Delta-E=       -0.000000000022 Rises=F Damp=F
 DIIS: error= 1.79D-07 at cycle   9 NSaved=   9.
 NSaved= 9 IEnMin= 9 EnMin= -582.137778045311     IErMin= 9 ErrMin= 1.79D-07
 ErrMax= 1.79D-07  0.00D+00 EMaxC= 1.00D-01 BMatC= 2.03D-12 BMatP= 3.04D-11
 IDIUse=1 WtCom= 1.00D+00 WtEn= 0.00D+00
 Coeff-Com:  0.992D-05-0.185D-04-0.664D-04-0.521D-03 0.161D-02 0.375D-02
 Coeff-Com: -0.420D-01 0.129D+00 0.908D+00
 Coeff:      0.992D-05-0.185D-04-0.664D-04-0.521D-03 0.161D-02 0.375D-02
 Coeff:     -0.420D-01 0.129D+00 0.908D+00
 Gap=     0.113 Goal=   None    Shift=    0.000
 Gap=     0.282 Goal=   None    Shift=    0.000
 RMSDP=2.91D-08 MaxDP=7.49D-07 DE=-2.16D-11 OVMax= 1.51D-06

 Cycle  10  Pass 1  IDiag  1:
 E= -582.137778045313     Delta-E=       -0.000000000002 Rises=F Damp=F
 DIIS: error= 3.97D-08 at cycle  10 NSaved=  10.
 NSaved=10 IEnMin=10 EnMin= -582.137778045313     IErMin=10 ErrMin= 3.97D-08
 ErrMax= 3.97D-08  0.00D+00 EMaxC= 1.00D-01 BMatC= 2.15D-13 BMatP= 2.03D-12
 IDIUse=1 WtCom= 1.00D+00 WtEn= 0.00D+00
 Coeff-Com: -0.315D-05 0.567D-05 0.266D-04 0.133D-03-0.573D-03-0.776D-03
 Coeff-Com:  0.151D-01-0.928D-01-0.192D+00 0.127D+01
 Coeff:     -0.315D-05 0.567D-05 0.266D-04 0.133D-03-0.573D-03-0.776D-03
 Coeff:      0.151D-01-0.928D-01-0.192D+00 0.127D+01
 Gap=     0.113 Goal=   None    Shift=    0.000
 Gap=     0.282 Goal=   None    Shift=    0.000
 RMSDP=1.06D-08 MaxDP=2.66D-07 DE=-2.05D-12 OVMax= 5.68D-07

 Cycle  11  Pass 1  IDiag  1:
 E= -582.137778045314     Delta-E=       -0.000000000001 Rises=F Damp=F
 DIIS: error= 1.07D-08 at cycle  11 NSaved=  11.
 NSaved=11 IEnMin=11 EnMin= -582.137778045314     IErMin=11 ErrMin= 1.07D-08
 ErrMax= 1.07D-08  0.00D+00 EMaxC= 1.00D-01 BMatC= 2.94D-14 BMatP= 2.15D-13
 IDIUse=1 WtCom= 1.00D+00 WtEn= 0.00D+00
 Coeff-Com: -0.167D-05 0.310D-05 0.114D-04 0.808D-04-0.275D-03-0.528D-03
 Coeff-Com:  0.733D-02-0.327D-01-0.113D+00 0.260D+00 0.879D+00
 Coeff:     -0.167D-05 0.310D-05 0.114D-04 0.808D-04-0.275D-03-0.528D-03
 Coeff:      0.733D-02-0.327D-01-0.113D+00 0.260D+00 0.879D+00
 Gap=     0.113 Goal=   None    Shift=    0.000
 Gap=     0.282 Goal=   None    Shift=    0.000
 RMSDP=3.14D-09 MaxDP=8.06D-08 DE=-9.09D-13 OVMax= 2.00D-07

 SCF Done:  E(UM062X) =  -582.137778045     A.U. after   11 cycles
            NFock= 11  Conv=0.31D-08     -V/T= 2.0017
 <Sx>= 0.0000 <Sy>= 0.0000 <Sz>= 0.5000 <S**2>= 0.7536 S= 0.5018
 <L.S>=  0.00000000000    
 KE= 5.811615275169D+02 PE=-1.507490157591D+03 EE= 2.800168868129D+02
 Annihilation of the first spin contaminant:
 S**2 before annihilation     0.7536,   after     0.7500
 Leave Link  502 at Mon Apr 21 20:09:38 2025, MaxMem=   536870912 cpu:             173.2 elap:              22.7
 (Enter /home/szhao/Apps/g16/l601.exe)
 Copying SCF densities to generalized density rwf, IOpCl= 1 IROHF=0.

 **********************************************************************

            Population analysis using the SCF density.

 **********************************************************************

 Alpha  occ. eigenvalues --  -67.22678 -67.22678  -5.77491  -5.77490  -4.09162
 Alpha  occ. eigenvalues --   -4.09161  -4.08359  -4.08359  -4.08359  -4.08359
 Alpha  occ. eigenvalues --   -0.81052  -0.80656  -0.61319  -0.61318  -0.61231
 Alpha  occ. eigenvalues --   -0.61230  -0.41444
 Alpha virt. eigenvalues --   -0.30190  -0.11852  -0.11318  -0.10057  -0.10056
 Alpha virt. eigenvalues --   -0.09350  -0.08434  -0.08433  -0.07726  -0.07495
 Alpha virt. eigenvalues --   -0.07493  -0.06233  -0.06228  -0.04629   0.00925
 Alpha virt. eigenvalues --    0.12765   0.13297   0.13299   0.15784   0.15788
 Alpha virt. eigenvalues --    0.17122   0.22475   0.24022   0.24023   0.25850
 Alpha virt. eigenvalues --    0.25853   0.26723   0.30365   0.35668   0.37441
 Alpha virt. eigenvalues --    0.37442   0.37742   0.37743   0.56322   0.57305
 Alpha virt. eigenvalues --    0.69080   0.69083   0.69548   0.69551   1.02955
 Alpha virt. eigenvalues --    1.02995   1.02996   1.03256   1.03256   1.05770
 Alpha virt. eigenvalues --    1.12820   1.12820   1.28924   1.28925   1.28945
 Alpha virt. eigenvalues --    1.28946   1.30650   1.31769   1.42982   1.42985
 Alpha virt. eigenvalues --    1.43584   1.43587   1.69773   1.71112   1.94083
 Alpha virt. eigenvalues --    1.94086   1.94244   1.94247   2.41824   2.41826
 Alpha virt. eigenvalues --    2.43729   2.43733   2.47459   2.50212   5.35623
 Alpha virt. eigenvalues --    5.39967  11.23953  11.26255  11.39325  11.39326
 Alpha virt. eigenvalues --   11.40239  11.40240 140.93896 140.99056
  Beta  occ. eigenvalues --  -67.22415 -67.22415  -5.77407  -5.77406  -4.08547
  Beta  occ. eigenvalues --   -4.08547  -4.08270  -4.08270  -4.08270  -4.08270
  Beta  occ. eigenvalues --   -0.79320  -0.79099  -0.61136  -0.61135  -0.61036
  Beta  occ. eigenvalues --   -0.61035
  Beta virt. eigenvalues --   -0.32817  -0.23416  -0.15254  -0.13257  -0.13255
  Beta virt. eigenvalues --   -0.10700  -0.09882  -0.08761  -0.08760  -0.07511
  Beta virt. eigenvalues --   -0.07018  -0.07018  -0.05890  -0.05889  -0.05746
  Beta virt. eigenvalues --    0.01331   0.05844   0.12056   0.12056   0.14737
  Beta virt. eigenvalues --    0.14738   0.15534   0.21942   0.23753   0.23755
  Beta virt. eigenvalues --    0.24349   0.24353   0.25766   0.29078   0.34716
  Beta virt. eigenvalues --    0.40315   0.40316   0.40390   0.40391   0.59894
  Beta virt. eigenvalues --    0.60669   0.69790   0.69793   0.70228   0.70230
  Beta virt. eigenvalues --    1.02703   1.02849   1.02850   1.03330   1.03331
  Beta virt. eigenvalues --    1.03796   1.13049   1.13050   1.29819   1.29820
  Beta virt. eigenvalues --    1.29835   1.29836   1.31170   1.32156   1.43472
  Beta virt. eigenvalues --    1.43475   1.44060   1.44063   1.70541   1.71883
  Beta virt. eigenvalues --    1.95036   1.95039   1.95224   1.95227   2.42304
  Beta virt. eigenvalues --    2.42306   2.44259   2.44262   2.47834   2.50487
  Beta virt. eigenvalues --    5.36792   5.41239  11.25642  11.27849  11.39917
  Beta virt. eigenvalues --   11.39918  11.40860  11.40861 140.94357 140.99522
          Condensed to atoms (all electrons):
               1          2          3          4          5          6
     1  Si  12.350261   0.074011  -0.002350   0.359033  -0.002350  -0.002352
     2  Si   0.074011  12.350260   0.359054  -0.002352   0.359047   0.359023
     3  H   -0.002350   0.359054   0.676975   0.000045  -0.015963  -0.015960
     4  H    0.359033  -0.002352   0.000045   0.677010   0.000033   0.000046
     5  H   -0.002350   0.359047  -0.015963   0.000033   0.676986  -0.015959
     6  H   -0.002352   0.359023  -0.015960   0.000046  -0.015959   0.677017
     7  H    0.359054  -0.002350   0.000033  -0.015964   0.000045   0.000045
     8  H    0.359037  -0.002351   0.000045  -0.015959   0.000045   0.000033
               7          8
     1  Si   0.359054   0.359037
     2  Si  -0.002350  -0.002351
     3  H    0.000033   0.000045
     4  H   -0.015964  -0.015959
     5  H    0.000045   0.000045
     6  H    0.000045   0.000033
     7  H    0.676974  -0.015959
     8  H   -0.015959   0.676994
          Atomic-Atomic Spin Densities.
               1          2          3          4          5          6
     1  Si   0.539329   0.071941  -0.002461  -0.023219  -0.002462  -0.002466
     2  Si   0.071941   0.539329  -0.023207  -0.002465  -0.023212  -0.023223
     3  H   -0.002461  -0.023207   0.006633   0.000076   0.003725   0.003726
     4  H   -0.023219  -0.002465   0.000076   0.006651   0.000016   0.000076
     5  H   -0.002462  -0.023212   0.003725   0.000016   0.006638   0.003726
     6  H   -0.002466  -0.023223   0.003726   0.000076   0.003726   0.006660
     7  H   -0.023207  -0.002461   0.000016   0.003726   0.000076   0.000076
     8  H   -0.023216  -0.002463   0.000076   0.003726   0.000076   0.000016
               7          8
     1  Si  -0.023207  -0.023216
     2  Si  -0.002461  -0.002463
     3  H    0.000016   0.000076
     4  H    0.003726   0.003726
     5  H    0.000076   0.000076
     6  H    0.000076   0.000016
     7  H    0.006633   0.003725
     8  H    0.003725   0.006647
 Mulliken charges and spin densities:
               1          2
     1  Si   0.505656   0.534239
     2  Si   0.505657   0.534239
     3  H   -0.001879  -0.011415
     4  H   -0.001892  -0.011411
     5  H   -0.001884  -0.011416
     6  H   -0.001893  -0.011408
     7  H   -0.001879  -0.011415
     8  H   -0.001885  -0.011413
 Sum of Mulliken charges =   1.00000   1.00000
 Mulliken charges and spin densities with hydrogens summed into heavy atoms:
               1          2
     1  Si   0.500000   0.500000
     2  Si   0.500000   0.500000
 Electronic spatial extent (au):  <R**2>=            730.7840
 Charge=              1.0000 electrons
 Dipole moment (field-independent basis, Debye):
    X=              0.0000    Y=              0.0000    Z=             -0.0000  Tot=              0.0000
 Quadrupole moment (field-independent basis, Debye-Ang):
   XX=              3.8671   YY=            -26.3027   ZZ=            -26.3026
   XY=              0.0002   XZ=              0.0004   YZ=              0.0001
 Traceless Quadrupole moment (field-independent basis, Debye-Ang):
   XX=             20.1131   YY=            -10.0566   ZZ=            -10.0565
   XY=              0.0002   XZ=              0.0004   YZ=              0.0001
 Octapole moment (field-independent basis, Debye-Ang**2):
  XXX=              0.0001  YYY=              0.0000  ZZZ=             -0.0004  XYY=             -0.0000
  XXY=             -0.0000  XXZ=              0.0006  XZZ=              0.0000  YZZ=              0.0000
  YYZ=             -0.0003  XYZ=             -0.0004
 Hexadecapole moment (field-independent basis, Debye-Ang**3):
 XXXX=           -661.9284 YYYY=            -68.1173 ZZZZ=            -68.1181 XXXY=              0.0070
 XXXZ=              0.0065 YYYX=             -2.9480 YYYZ=             -0.0002 ZZZX=              0.0019
 ZZZY=             -0.0003 XXYY=           -154.3113 XXZZ=           -154.3149 YYZZ=            -22.7057
 XXYZ=             -0.0001 YYXZ=              0.0010 ZZXY=              2.9504
 N-N= 6.417396521551D+01 E-N=-1.507490157643D+03  KE= 5.811615275169D+02
                          Isotropic Fermi Contact Couplings
        Atom                 a.u.       MegaHertz       Gauss      10(-4) cm-1
     1  Si(29)             0.10012     -88.98255     -31.75119     -29.68138
     2  Si(29)             0.10012     -88.98220     -31.75106     -29.68127
     3  H(1)              -0.00246     -11.01625      -3.93087      -3.67463
     4  H(1)              -0.00246     -11.00501      -3.92686      -3.67088
     5  H(1)              -0.00246     -11.01536      -3.93055      -3.67433
     6  H(1)              -0.00246     -10.99850      -3.92454      -3.66871
     7  H(1)              -0.00246     -11.01666      -3.93102      -3.67476
     8  H(1)              -0.00246     -11.00818      -3.92799      -3.67193
 --------------------------------------------------------
       Center         ----  Spin Dipole Couplings  ----
                      3XX-RR        3YY-RR        3ZZ-RR
 --------------------------------------------------------
     1   Atom        0.839216     -0.419564     -0.419652
     2   Atom        0.839215     -0.419564     -0.419651
     3   Atom        0.004717      0.007170     -0.011888
     4   Atom        0.004715     -0.007126      0.002411
     5   Atom        0.004717     -0.007124      0.002407
     6   Atom        0.004715     -0.007124      0.002410
     7   Atom        0.004717      0.007170     -0.011888
     8   Atom        0.004716     -0.007122      0.002406
 --------------------------------------------------------
                        XY            XZ            YZ
 --------------------------------------------------------
     1   Atom        0.000344     -0.000174     -0.000002
     2   Atom        0.000315      0.000458     -0.000003
     3   Atom       -0.003231      0.000004      0.000001
     4   Atom        0.001614     -0.002794     -0.008252
     5   Atom        0.001618     -0.002795     -0.008252
     6   Atom        0.001613      0.002794      0.008254
     7   Atom       -0.003232     -0.000002     -0.000000
     8   Atom        0.001617      0.002794      0.008253
 --------------------------------------------------------


 ---------------------------------------------------------------------------------
              Anisotropic Spin Dipole Couplings in Principal Axis System
 ---------------------------------------------------------------------------------

       Atom             a.u.   MegaHertz   Gauss  10(-4) cm-1        Axes

              Baa    -0.4197    44.518    15.885    14.850  0.0001  0.0263  0.9997
     1 Si(29) Bbb    -0.4196    44.509    15.882    14.847 -0.0003  0.9997 -0.0263
              Bcc     0.8392   -89.027   -31.767   -29.696  1.0000  0.0003 -0.0001
 
              Baa    -0.4197    44.518    15.885    14.850 -0.0004  0.0366  0.9993
     2 Si(29) Bbb    -0.4196    44.509    15.882    14.847 -0.0002  0.9993 -0.0366
              Bcc     0.8392   -89.027   -31.767   -29.696  1.0000  0.0003  0.0004
 
              Baa    -0.0119    -6.343    -2.263    -2.116 -0.0003 -0.0001  1.0000
     3 H(1)   Bbb     0.0025     1.327     0.474     0.443  0.8231  0.5680  0.0003
              Bcc     0.0094     5.015     1.790     1.673 -0.5680  0.8231 -0.0001
 
              Baa    -0.0119    -6.343    -2.263    -2.116 -0.0001  0.8661  0.4998
     4 H(1)   Bbb     0.0025     1.329     0.474     0.443  0.8234 -0.2836  0.4916
              Bcc     0.0094     5.014     1.789     1.672 -0.5675 -0.4116  0.7131
 
              Baa    -0.0119    -6.343    -2.263    -2.116 -0.0003  0.8661  0.4999
     5 H(1)   Bbb     0.0025     1.328     0.474     0.443  0.8231 -0.2837  0.4919
              Bcc     0.0094     5.015     1.789     1.673 -0.5679 -0.4116  0.7128
 
              Baa    -0.0119    -6.343    -2.263    -2.116  0.0000  0.8661 -0.4999
     6 H(1)   Bbb     0.0025     1.330     0.474     0.444  0.8235 -0.2836 -0.4914
              Bcc     0.0094     5.014     1.789     1.672  0.5673  0.4117  0.7132
 
              Baa    -0.0119    -6.343    -2.263    -2.116  0.0001  0.0000  1.0000
     7 H(1)   Bbb     0.0025     1.327     0.474     0.443  0.8230  0.5680 -0.0001
              Bcc     0.0094     5.016     1.790     1.673 -0.5680  0.8230  0.0000
 
              Baa    -0.0119    -6.343    -2.263    -2.116 -0.0002  0.8660 -0.5000
     8 H(1)   Bbb     0.0025     1.329     0.474     0.443  0.8232 -0.2837 -0.4917
              Bcc     0.0094     5.014     1.789     1.673  0.5677  0.4117  0.7129
 

 ---------------------------------------------------------------------------------

 No NMR shielding tensors so no spin-rotation constants.
 Leave Link  601 at Mon Apr 21 20:09:39 2025, MaxMem=   536870912 cpu:               2.7 elap:               0.4
 (Enter /home/szhao/Apps/g16/l701.exe)
 ... and contract with generalized density number  0.
 Compute integral first derivatives.
 Leave Link  701 at Mon Apr 21 20:09:39 2025, MaxMem=   536870912 cpu:               1.7 elap:               0.3
 (Enter /home/szhao/Apps/g16/l702.exe)
 L702 exits ... SP integral derivatives will be done elsewhere.
 Leave Link  702 at Mon Apr 21 20:09:40 2025, MaxMem=   536870912 cpu:               1.2 elap:               0.2
 (Enter /home/szhao/Apps/g16/l703.exe)
 Integral derivatives from FoFJK, PRISM(SPDF).
 Compute integral first derivatives, UseDBF=F ICtDFT=           0.
 Calling FoFJK, ICntrl=      2127 FMM=F ISym2X=0 I1Cent= 0 IOpClX= 1 NMat=1 NMatS=1 NMatT=0.
 FoFJK:  IHMeth= 1 ICntrl=    2127 DoSepK=F KAlg= 0 I1Cent=           0 FoldK=F
 IRaf=         0 NMat=       1 IRICut=       1 DoRegI=T DoRafI=F ISym2E= 0 IDoP0=0 IntGTp=1.
 FoFCou: FMM=F IPFlag=           0 FMFlag=      100000 FMFlg1=         800
         NFxFlg=           0 DoJE=F BraDBF=F KetDBF=F FulRan=T
         wScrn=  0.000000 ICntrl=      2127 IOpCl=  1 I1Cent=           0 NGrid=           0
         NMat0=    1 NMatS0=      1 NMatT0=    0 NMatD0=    1 NMtDS0=    0 NMtDT0=    0
 Symmetry not used in FoFCou.
 Leave Link  703 at Mon Apr 21 20:09:43 2025, MaxMem=   536870912 cpu:              23.1 elap:               3.0
 (Enter /home/szhao/Apps/g16/l716.exe)
 Dipole        = 2.66983433D-06 9.69332879D-07-5.94309784D-07
 -------------------------------------------------------------------
 Center     Atomic                   Forces (Hartrees/Bohr)
 Number     Number              X              Y              Z
 -------------------------------------------------------------------
      1       14          -0.000000000   -0.000000000   -0.000000000
      2       14          -0.000000000   -0.000000000   -0.000000000
      3        1          -0.002155592    0.000377263    0.000002330
      4        1           0.002148618    0.000189240   -0.000336923
      5        1          -0.002149461   -0.000188301    0.000334215
      6        1          -0.002147433   -0.000193258   -0.000338028
      7        1           0.002155638   -0.000377089   -0.000003717
      8        1           0.002148317    0.000192740    0.000335484
 -------------------------------------------------------------------
 Cartesian Forces:  Max     0.002155638 RMS     0.001092382
 Leave Link  716 at Mon Apr 21 20:09:43 2025, MaxMem=   536870912 cpu:               0.5 elap:               0.1
 (Enter /home/szhao/Apps/g16/l103.exe)

 GradGradGradGradGradGradGradGradGradGradGradGradGradGradGradGradGradGrad
 Berny optimization.
 FormGI is forming the generalized inverse of G from B-inverse, IUseBI=4.
 Internal  Forces:  Max     0.006452573 RMS     0.002759710
 Search for a local minimum.
 Step number   1 out of a maximum of   43
 All quantities printed in internal units (Hartrees-Bohrs-Radians)
 RMS Force = .24949D-02 SwitMx=.10000D-02 MixMth= 1
 Mixed Optimization -- RFO/linear search
 Second derivative matrix not updated -- first step.
 ITU=  0
     Eigenvalues ---    0.00230   0.07635   0.07635   0.07636   0.07637
     Eigenvalues ---    0.16000   0.16000   0.16000   0.16000   0.16000
     Eigenvalues ---    0.16000   0.18377   0.18377   0.18377   0.18378
     Eigenvalues ---    0.18378   0.183781000.000001000.000001000.00000
     Eigenvalues --- 1000.000001000.000001000.000001000.000001000.00000
     Eigenvalues --- 1000.000001000.000001000.000001000.000001000.00000
     Eigenvalues --- 1000.000001000.000001000.00000
 RFO step:  Lambda=-1.04141725D-03 EMin= 2.30000000D-03
 Linear search not attempted -- first point.
 Iteration  1 RMS(Cart)=  0.03512568 RMS(Int)=  0.00079328
 Iteration  2 RMS(Cart)=  0.00071882 RMS(Int)=  0.00056716
 Iteration  3 RMS(Cart)=  0.00000192 RMS(Int)=  0.00056716
 Iteration  4 RMS(Cart)=  0.00000001 RMS(Int)=  0.00056716
 ITry= 1 IFail=0 DXMaxC= 8.35D-02 DCOld= 1.00D+10 DXMaxT= 3.00D-01 DXLimC= 3.00D+00 Rises=F
 Variable       Old X    -DE/DX   Delta X   Delta X   Delta X     New X
                                 (Linear)    (Quad)   (Total)
    X1       -4.30157   0.00645   0.00000   0.00000   0.00000  -4.30157
    Y1        0.00000   0.00001   0.00000   0.00000   0.00000   0.00000
    Z1        0.00000  -0.00000   0.00000   0.00000   0.00000   0.00000
    X2        4.30157  -0.00645   0.00000   0.00000   0.00000   4.30157
    Y2        0.00000  -0.00001   0.00000   0.00000   0.00000   0.00000
    Z2        0.00000  -0.00000   0.00000   0.00000   0.00000   0.00000
    R1        2.77311  -0.00067   0.00000  -0.00364  -0.00364   2.76947
    R2        2.77309  -0.00066   0.00000  -0.00360  -0.00360   2.76949
    R3        2.77311  -0.00067   0.00000  -0.00364  -0.00364   2.76947
    R4        2.77309  -0.00066   0.00000  -0.00360  -0.00360   2.76949
    R5        2.77309  -0.00067   0.00000  -0.00363  -0.00363   2.76947
    R6        2.77312  -0.00067   0.00000  -0.00365  -0.00365   2.76947
    A1        1.70572  -0.00477   0.00000  -0.02963  -0.03008   1.67565
    A2        1.70621  -0.00479   0.00000  -0.02976  -0.03021   1.67600
    A3        1.70595  -0.00477   0.00000  -0.02964  -0.03008   1.67586
    A4        2.06315   0.00218   0.00000   0.01354   0.01229   2.07543
    A5        2.06325   0.00217   0.00000   0.01346   0.01221   2.07545
    A6        2.06326   0.00217   0.00000   0.01348   0.01222   2.07549
    A7        1.70619  -0.00479   0.00000  -0.02976  -0.03021   1.67598
    A8        1.70615  -0.00477   0.00000  -0.02965  -0.03010   1.67605
    A9        1.70554  -0.00477   0.00000  -0.02962  -0.03007   1.67548
   A10        2.06316   0.00218   0.00000   0.01353   0.01228   2.07543
   A11        2.06325   0.00217   0.00000   0.01349   0.01223   2.07548
   A12        2.06325   0.00217   0.00000   0.01346   0.01221   2.07546
    D1        1.04729  -0.00000   0.00000  -0.00001  -0.00001   1.04728
    D2       -3.14146  -0.00000   0.00000  -0.00000  -0.00000  -3.14147
    D3       -1.04709  -0.00000   0.00000  -0.00001  -0.00001  -1.04710
    D4       -3.14157   0.00000   0.00000   0.00003   0.00003  -3.14154
    D5       -1.04714   0.00000   0.00000   0.00004   0.00004  -1.04710
    D6        1.04723   0.00000   0.00000   0.00003   0.00003   1.04726
    D7       -1.04707  -0.00000   0.00000  -0.00001  -0.00001  -1.04708
    D8        1.04736  -0.00000   0.00000  -0.00000  -0.00000   1.04736
    D9       -3.14146  -0.00000   0.00000  -0.00001  -0.00001  -3.14146
         Item               Value     Threshold  Converged?
 Maximum Force            0.004793     0.000450     NO 
 RMS     Force            0.002495     0.000300     NO 
 Maximum Displacement     0.083547     0.001800     NO 
 RMS     Displacement     0.035630     0.001200     NO 
 Predicted change in Energy=-5.231979D-04
 Lowest energy point so far.  Saving SCF results.
 GradGradGradGradGradGradGradGradGradGradGradGradGradGradGradGradGradGrad

 Leave Link  103 at Mon Apr 21 20:09:43 2025, MaxMem=   536870912 cpu:               1.4 elap:               0.2
 (Enter /home/szhao/Apps/g16/l202.exe)
                          Input orientation:                          
 ---------------------------------------------------------------------
 Center     Atomic      Atomic             Coordinates (Angstroms)
 Number     Number       Type             X           Y           Z
 ---------------------------------------------------------------------
      1         14           0       -2.276292    0.000000    0.000000
      2         14           0        2.276292    0.000000    0.000000
      3          1           0        2.430162   -1.457451    0.000000
      4          1           0       -2.429671   -0.728638    1.262287
      5          1           0        2.430259    0.728765   -1.262142
      6          1           0        2.429428    0.728743    1.262254
      7          1           0       -2.430193    1.457448   -0.000078
      8          1           0       -2.429987   -0.728878   -1.262108
 ---------------------------------------------------------------------
                    Distance matrix (angstroms):
                    1          2          3          4          5
     1  Si   0.000000
     2  Si   4.552584   0.000000
     3  H    4.926954   1.465551   0.000000
     4  H    1.465540   4.926497   5.073709   0.000000
     5  H    4.927040   1.465540   2.524390   5.667071   0.000000
     6  H    4.926272   1.465539   2.524427   5.072948   2.524396
     7  H    1.465551   4.926982   5.667423   2.524389   5.074226
     8  H    1.465538   4.926788   5.073932   2.524395   5.074121
                    6          7          8
     6  H    0.000000
     7  H    5.073500   0.000000
     8  H    5.666655   2.524429   0.000000
 Symmetry turned off by external request.
 Stoichiometry    H6Si2(1+,2)
 Framework group  C1[X(H6Si2)]
 Deg. of freedom    18
 Full point group                 C1      NOp   1
 Rotational constants (GHZ):          39.3445185           1.5219842           1.5219831
 Leave Link  202 at Mon Apr 21 20:09:43 2025, MaxMem=   536870912 cpu:               0.2 elap:               0.1
 (Enter /home/szhao/Apps/g16/l301.exe)
 Standard basis: 6-311+G(d,p) (5D, 7F)
 Ernie: Thresh=  0.10000D-02 Tol=  0.10000D-05 Strict=F.
    96 basis functions,   148 primitive gaussians,    98 cartesian basis functions
    17 alpha electrons       16 beta electrons
       nuclear repulsion energy        64.2990545355 Hartrees.
 IExCor= 4336 DFT=T Ex+Corr=M062X ExCW=0 ScaHFX=  0.540000
 ScaDFX=  1.000000  1.000000  1.000000  1.000000 ScalE2=  1.000000  1.000000
 IRadAn=      7 IRanWt=     -1 IRanGd=            0 ICorTp=0 IEmpDi=  4
 NAtoms=    8 NActive=    8 NUniq=    8 SFac= 1.00D+00 NAtFMM=   60 NAOKFM=F Big=F
 Integral buffers will be    131072 words long.
 Raffenetti 2 integral format.
 Two-electron integral symmetry is turned off.
 Leave Link  301 at Mon Apr 21 20:09:44 2025, MaxMem=   536870912 cpu:               0.8 elap:               0.2
 (Enter /home/szhao/Apps/g16/l302.exe)
 NPDir=0 NMtPBC=     1 NCelOv=     1 NCel=       1 NClECP=     1 NCelD=      1
         NCelK=      1 NCelE2=     1 NClLst=     1 CellRange=     0.0.
 One-electron integrals computed using PRISM.
 NBasis=    96 RedAO= T EigKep=  8.97D-03  NBF=    96
 NBsUse=    96 1.00D-06 EigRej= -1.00D+00 NBFU=    96
 Precomputing XC quadrature grid using
 IXCGrd= 4 IRadAn=           7 IRanWt=          -1 IRanGd=           0 AccXCQ= 0.00D+00.
 Generated NRdTot=       0 NPtTot=           0 NUsed=           0 NTot=          32
 NSgBfM=    90    90    90    90    90 MxSgAt=     8 MxSgA2=     8.
 Leave Link  302 at Mon Apr 21 20:09:44 2025, MaxMem=   536870912 cpu:               1.9 elap:               0.3
 (Enter /home/szhao/Apps/g16/l303.exe)
 DipDrv:  MaxL=1.
 Leave Link  303 at Mon Apr 21 20:09:44 2025, MaxMem=   536870912 cpu:               0.7 elap:               0.1
 (Enter /home/szhao/Apps/g16/l401.exe)
 Initial guess from the checkpoint file:  "opt.chk"
 B after Tr=     0.000000    0.000000   -0.000005
         Rot=    1.000000    0.000000    0.000000    0.000002 Ang=   0.00 deg.
 Guess basis will be translated and rotated to current coordinates.
 JPrj=2 DoOrth=T DoCkMO=T.
 Initial guess <Sx>= 0.0000 <Sy>= 0.0000 <Sz>= 0.5000 <S**2>= 0.7536 S= 0.5018
 Generating alternative initial guess.
 ExpMin= 3.31D-02 ExpMax= 6.94D+04 ExpMxC= 2.33D+03 IAcc=3 IRadAn=         5 AccDes= 0.00D+00
 Harris functional with IExCor= 1009 and IRadAn=       5 diagonalized for initial guess.
 HarFok:  IExCor= 1009 AccDes= 0.00D+00 IRadAn=         5 IDoV= 1 UseB2=F ITyADJ=14
 ICtDFT=  3500011 ScaDFX=  1.000000  1.000000  1.000000  1.000000
 FoFCou: FMM=F IPFlag=           0 FMFlag=      100000 FMFlg1=           0
         NFxFlg=           0 DoJE=T BraDBF=F KetDBF=T FulRan=T
         wScrn=  0.000000 ICntrl=       500 IOpCl=  0 I1Cent=   200000004 NGrid=           0
         NMat0=    1 NMatS0=      1 NMatT0=    0 NMatD0=    1 NMtDS0=    0 NMtDT0=    0
 Symmetry not used in FoFCou.
 Harris En= -581.896488581813    
 Leave Link  401 at Mon Apr 21 20:09:45 2025, MaxMem=   536870912 cpu:               4.4 elap:               0.7
 (Enter /home/szhao/Apps/g16/l502.exe)
 Keep R1 and R2 ints in memory in canonical form, NReq=29092346.
 FoFCou: FMM=F IPFlag=           0 FMFlag=           0 FMFlg1=           0
         NFxFlg=           0 DoJE=F BraDBF=F KetDBF=F FulRan=T
         wScrn=  0.000000 ICntrl=       600 IOpCl=  0 I1Cent=           0 NGrid=           0
         NMat0=    1 NMatS0=   4656 NMatT0=    0 NMatD0=    1 NMtDS0=    0 NMtDT0=    0
 Symmetry not used in FoFCou.
 Two-electron integral symmetry not used.
 UHF open shell SCF:
 Using DIIS extrapolation, IDIIS=  1040.
 NGot=   536870912 LenX=   515167018 LenY=   515156973
 Requested convergence on RMS density matrix=1.00D-08 within 128 cycles.
 Requested convergence on MAX density matrix=1.00D-06.
 Requested convergence on             energy=1.00D-06.
 No special actions if energy rises.

 Cycle   1  Pass 1  IDiag  1:
 E= -582.138227572881    
 DIIS: error= 2.07D-03 at cycle   1 NSaved=   1.
 NSaved= 1 IEnMin= 1 EnMin= -582.138227572881     IErMin= 1 ErrMin= 2.07D-03
 ErrMax= 2.07D-03  0.00D+00 EMaxC= 1.00D-01 BMatC= 4.48D-04 BMatP= 4.48D-04
 IDIUse=3 WtCom= 9.79D-01 WtEn= 2.07D-02
 Coeff-Com:  0.100D+01
 Coeff-En:   0.100D+01
 Coeff:      0.100D+01
 Gap=     0.406 Goal=   None    Shift=    0.000
 Gap=     0.489 Goal=   None    Shift=    0.000
 GapD=    0.406 DampG=2.000 DampE=1.000 DampFc=2.0000 IDamp=-1.
 RMSDP=2.11D-04 MaxDP=5.56D-03              OVMax= 1.60D-02

 Cycle   2  Pass 1  IDiag  1:
 E= -582.138487588444     Delta-E=       -0.000260015563 Rises=F Damp=F
 DIIS: error= 6.22D-04 at cycle   2 NSaved=   2.
 NSaved= 2 IEnMin= 2 EnMin= -582.138487588444     IErMin= 2 ErrMin= 6.22D-04
 ErrMax= 6.22D-04  0.00D+00 EMaxC= 1.00D-01 BMatC= 1.84D-05 BMatP= 4.48D-04
 IDIUse=3 WtCom= 9.94D-01 WtEn= 6.22D-03
 Coeff-Com: -0.120D+00 0.112D+01
 Coeff-En:   0.000D+00 0.100D+01
 Coeff:     -0.119D+00 0.112D+01
 Gap=     0.111 Goal=   None    Shift=    0.000
 Gap=     0.287 Goal=   None    Shift=    0.000
 RMSDP=1.37D-04 MaxDP=4.16D-03 DE=-2.60D-04 OVMax= 7.85D-03

 Cycle   3  Pass 1  IDiag  1:
 E= -582.138514207332     Delta-E=       -0.000026618888 Rises=F Damp=F
 DIIS: error= 1.64D-04 at cycle   3 NSaved=   3.
 NSaved= 3 IEnMin= 3 EnMin= -582.138514207332     IErMin= 3 ErrMin= 1.64D-04
 ErrMax= 1.64D-04  0.00D+00 EMaxC= 1.00D-01 BMatC= 3.37D-06 BMatP= 1.84D-05
 IDIUse=3 WtCom= 9.98D-01 WtEn= 1.64D-03
 Coeff-Com: -0.365D-01 0.717D-01 0.965D+00
 Coeff-En:   0.000D+00 0.000D+00 0.100D+01
 Coeff:     -0.365D-01 0.716D-01 0.965D+00
 Gap=     0.111 Goal=   None    Shift=    0.000
 Gap=     0.287 Goal=   None    Shift=    0.000
 RMSDP=3.78D-05 MaxDP=1.12D-03 DE=-2.66D-05 OVMax= 1.95D-03

 Cycle   4  Pass 1  IDiag  1:
 E= -582.138517636918     Delta-E=       -0.000003429586 Rises=F Damp=F
 DIIS: error= 6.88D-05 at cycle   4 NSaved=   4.
 NSaved= 4 IEnMin= 4 EnMin= -582.138517636918     IErMin= 4 ErrMin= 6.88D-05
 ErrMax= 6.88D-05  0.00D+00 EMaxC= 1.00D-01 BMatC= 4.68D-07 BMatP= 3.37D-06
 IDIUse=1 WtCom= 1.00D+00 WtEn= 0.00D+00
 Coeff-Com:  0.180D-01-0.179D+00-0.142D+00 0.130D+01
 Coeff:      0.180D-01-0.179D+00-0.142D+00 0.130D+01
 Gap=     0.111 Goal=   None    Shift=    0.000
 Gap=     0.287 Goal=   None    Shift=    0.000
 RMSDP=2.96D-05 MaxDP=8.53D-04 DE=-3.43D-06 OVMax= 1.48D-03

 Cycle   5  Pass 1  IDiag  1:
 E= -582.138518408048     Delta-E=       -0.000000771130 Rises=F Damp=F
 DIIS: error= 1.36D-05 at cycle   5 NSaved=   5.
 NSaved= 5 IEnMin= 5 EnMin= -582.138518408048     IErMin= 5 ErrMin= 1.36D-05
 ErrMax= 1.36D-05  0.00D+00 EMaxC= 1.00D-01 BMatC= 1.79D-08 BMatP= 4.68D-07
 IDIUse=1 WtCom= 1.00D+00 WtEn= 0.00D+00
 Coeff-Com: -0.292D-03 0.176D-01-0.225D-01-0.143D+00 0.115D+01
 Coeff:     -0.292D-03 0.176D-01-0.225D-01-0.143D+00 0.115D+01
 Gap=     0.111 Goal=   None    Shift=    0.000
 Gap=     0.287 Goal=   None    Shift=    0.000
 RMSDP=1.58D-06 MaxDP=2.79D-05 DE=-7.71D-07 OVMax= 1.05D-04

 Cycle   6  Pass 1  IDiag  1:
 E= -582.138518424725     Delta-E=       -0.000000016678 Rises=F Damp=F
 DIIS: error= 2.29D-06 at cycle   6 NSaved=   6.
 NSaved= 6 IEnMin= 6 EnMin= -582.138518424725     IErMin= 6 ErrMin= 2.29D-06
 ErrMax= 2.29D-06  0.00D+00 EMaxC= 1.00D-01 BMatC= 1.44D-09 BMatP= 1.79D-08
 IDIUse=1 WtCom= 1.00D+00 WtEn= 0.00D+00
 Coeff-Com: -0.116D-02 0.136D-01 0.141D-01-0.120D+00 0.960D-01 0.997D+00
 Coeff:     -0.116D-02 0.136D-01 0.141D-01-0.120D+00 0.960D-01 0.997D+00
 Gap=     0.111 Goal=   None    Shift=    0.000
 Gap=     0.287 Goal=   None    Shift=    0.000
 RMSDP=5.75D-07 MaxDP=1.29D-05 DE=-1.67D-08 OVMax= 2.05D-05

 Cycle   7  Pass 1  IDiag  1:
 E= -582.138518425602     Delta-E=       -0.000000000877 Rises=F Damp=F
 DIIS: error= 4.75D-07 at cycle   7 NSaved=   7.
 NSaved= 7 IEnMin= 7 EnMin= -582.138518425602     IErMin= 7 ErrMin= 4.75D-07
 ErrMax= 4.75D-07  0.00D+00 EMaxC= 1.00D-01 BMatC= 3.86D-11 BMatP= 1.44D-09
 IDIUse=1 WtCom= 1.00D+00 WtEn= 0.00D+00
 Coeff-Com:  0.942D-04-0.169D-02 0.261D-02 0.929D-02-0.524D-01-0.113D-01
 Coeff-Com:  0.105D+01
 Coeff:      0.942D-04-0.169D-02 0.261D-02 0.929D-02-0.524D-01-0.113D-01
 Coeff:      0.105D+01
 Gap=     0.111 Goal=   None    Shift=    0.000
 Gap=     0.287 Goal=   None    Shift=    0.000
 RMSDP=1.40D-07 MaxDP=4.31D-06 DE=-8.77D-10 OVMax= 5.16D-06

 Cycle   8  Pass 1  IDiag  1:
 E= -582.138518425626     Delta-E=       -0.000000000024 Rises=F Damp=F
 DIIS: error= 8.05D-08 at cycle   8 NSaved=   8.
 NSaved= 8 IEnMin= 8 EnMin= -582.138518425626     IErMin= 8 ErrMin= 8.05D-08
 ErrMax= 8.05D-08  0.00D+00 EMaxC= 1.00D-01 BMatC= 1.44D-12 BMatP= 3.86D-11
 IDIUse=1 WtCom= 1.00D+00 WtEn= 0.00D+00
 Coeff-Com:  0.273D-04-0.289D-03-0.507D-03 0.297D-02 0.380D-03-0.308D-01
 Coeff-Com:  0.221D-02 0.103D+01
 Coeff:      0.273D-04-0.289D-03-0.507D-03 0.297D-02 0.380D-03-0.308D-01
 Coeff:      0.221D-02 0.103D+01
 Gap=     0.111 Goal=   None    Shift=    0.000
 Gap=     0.287 Goal=   None    Shift=    0.000
 RMSDP=1.42D-08 MaxDP=4.75D-07 DE=-2.40D-11 OVMax= 4.68D-07

 Cycle   9  Pass 1  IDiag  1:
 E= -582.138518425627     Delta-E=       -0.000000000001 Rises=F Damp=F
 DIIS: error= 2.83D-08 at cycle   9 NSaved=   9.
 NSaved= 9 IEnMin= 9 EnMin= -582.138518425627     IErMin= 9 ErrMin= 2.83D-08
 ErrMax= 2.83D-08  0.00D+00 EMaxC= 1.00D-01 BMatC= 2.11D-13 BMatP= 1.44D-12
 IDIUse=1 WtCom= 1.00D+00 WtEn= 0.00D+00
 Coeff-Com: -0.801D-05 0.152D-03-0.359D-03-0.582D-03 0.448D-02 0.622D-03
 Coeff-Com: -0.108D+00 0.402D-01 0.106D+01
 Coeff:     -0.801D-05 0.152D-03-0.359D-03-0.582D-03 0.448D-02 0.622D-03
 Coeff:     -0.108D+00 0.402D-01 0.106D+01
 Gap=     0.111 Goal=   None    Shift=    0.000
 Gap=     0.287 Goal=   None    Shift=    0.000
 RMSDP=5.78D-09 MaxDP=1.88D-07 DE=-7.96D-13 OVMax= 2.26D-07

 SCF Done:  E(UM062X) =  -582.138518426     A.U. after    9 cycles
            NFock=  9  Conv=0.58D-08     -V/T= 2.0017
 <Sx>= 0.0000 <Sy>= 0.0000 <Sz>= 0.5000 <S**2>= 0.7537 S= 0.5019
 <L.S>=  0.00000000000    
 KE= 5.811701844136D+02 PE=-1.507758822739D+03 EE= 2.801510653641D+02
 Annihilation of the first spin contaminant:
 S**2 before annihilation     0.7537,   after     0.7500
 Leave Link  502 at Mon Apr 21 20:10:05 2025, MaxMem=   536870912 cpu:             148.9 elap:              19.9
 (Enter /home/szhao/Apps/g16/l701.exe)
 ... and contract with generalized density number  0.
 Compute integral first derivatives.
 Leave Link  701 at Mon Apr 21 20:10:06 2025, MaxMem=   536870912 cpu:               1.4 elap:               0.3
 (Enter /home/szhao/Apps/g16/l702.exe)
 L702 exits ... SP integral derivatives will be done elsewhere.
 Leave Link  702 at Mon Apr 21 20:10:07 2025, MaxMem=   536870912 cpu:               0.8 elap:               0.1
 (Enter /home/szhao/Apps/g16/l703.exe)
 Integral derivatives from FoFJK, PRISM(SPDF).
 Compute integral first derivatives, UseDBF=F ICtDFT=           0.
 Calling FoFJK, ICntrl=      2127 FMM=F ISym2X=0 I1Cent= 0 IOpClX= 1 NMat=1 NMatS=1 NMatT=0.
 FoFJK:  IHMeth= 1 ICntrl=    2127 DoSepK=F KAlg= 0 I1Cent=           0 FoldK=F
 IRaf=         0 NMat=       1 IRICut=       1 DoRegI=T DoRafI=F ISym2E= 0 IDoP0=0 IntGTp=1.
 FoFCou: FMM=F IPFlag=           0 FMFlag=      100000 FMFlg1=         800
         NFxFlg=           0 DoJE=F BraDBF=F KetDBF=F FulRan=T
         wScrn=  0.000000 ICntrl=      2127 IOpCl=  1 I1Cent=           0 NGrid=           0
         NMat0=    1 NMatS0=      1 NMatT0=    0 NMatD0=    1 NMtDS0=    0 NMtDT0=    0
 Symmetry not used in FoFCou.
 Leave Link  703 at Mon Apr 21 20:10:11 2025, MaxMem=   536870912 cpu:              27.5 elap:               3.7
 (Enter /home/szhao/Apps/g16/l716.exe)
 Dipole        = 2.02194833D-06-3.20431967D-07 1.68527146D-05
 -------------------------------------------------------------------
 Center     Atomic                   Forces (Hartrees/Bohr)
 Number     Number              X              Y              Z
 -------------------------------------------------------------------
      1       14          -0.000000000   -0.000000000   -0.000000000
      2       14          -0.000000000   -0.000000000   -0.000000000
      3        1          -0.000885380    0.000110480    0.000001449
      4        1           0.000885143    0.000055124   -0.000092506
      5        1          -0.000886335   -0.000054968    0.000092244
      6        1          -0.000884012   -0.000056320   -0.000091530
      7        1           0.000885454   -0.000110438   -0.000001640
      8        1           0.000885161    0.000056226    0.000091176
 -------------------------------------------------------------------
 Cartesian Forces:  Max     0.000886335 RMS     0.000445933
 Leave Link  716 at Mon Apr 21 20:10:11 2025, MaxMem=   536870912 cpu:               1.0 elap:               0.2
 (Enter /home/szhao/Apps/g16/l103.exe)

 GradGradGradGradGradGradGradGradGradGradGradGradGradGradGradGradGradGrad
 Berny optimization.
 Using GEDIIS/GDIIS optimizer.
 FormGI is forming the generalized inverse of G from B-inverse, IUseBI=4.
 Internal  Forces:  Max     0.002655758 RMS     0.001169883
 Search for a local minimum.
 Step number   2 out of a maximum of   43
 All quantities printed in internal units (Hartrees-Bohrs-Radians)
 RMS Force = .10725D-02 SwitMx=.10000D-02 MixMth= 1
 Mixed Optimization -- RFO/linear search
 Update second derivatives using D2CorX and points    1    2
 DE= -7.40D-04 DEPred=-5.23D-04 R= 1.42D+00
 TightC=F SS=  1.41D+00  RLast= 8.01D-02 DXNew= 5.0454D-01 2.4042D-01
 Trust test= 1.42D+00 RLast= 8.01D-02 DXMaxT set to 3.00D-01
 ITU=  1  0
 Use linear search instead of GDIIS.
     Eigenvalues ---    0.00230   0.07819   0.07819   0.07820   0.07820
     Eigenvalues ---    0.09128   0.16000   0.16000   0.16000   0.16000
     Eigenvalues ---    0.16000   0.18377   0.18377   0.18378   0.18378
     Eigenvalues ---    0.18378   0.183821000.000001000.000001000.00000
     Eigenvalues --- 1000.000001000.000001000.000001000.000001000.00000
     Eigenvalues --- 1000.000001000.000001000.000001000.000001000.00000
     Eigenvalues --- 1000.000001000.000001000.00000
 RFO step:  Lambda=-8.66786017D-07 EMin= 2.30000000D-03
 Quartic linear search produced a step of  0.77646.
 Iteration  1 RMS(Cart)=  0.02838640 RMS(Int)=  0.00091858
 Iteration  2 RMS(Cart)=  0.00038896 RMS(Int)=  0.00085004
 Iteration  3 RMS(Cart)=  0.00000116 RMS(Int)=  0.00085004
 Iteration  4 RMS(Cart)=  0.00000001 RMS(Int)=  0.00085004
 ITry= 1 IFail=0 DXMaxC= 6.70D-02 DCOld= 1.00D+10 DXMaxT= 3.00D-01 DXLimC= 3.00D+00 Rises=F
 Variable       Old X    -DE/DX   Delta X   Delta X   Delta X     New X
                                 (Linear)    (Quad)   (Total)
    X1       -4.30157   0.00266   0.00000   0.00000   0.00000  -4.30157
    Y1        0.00000   0.00000   0.00000   0.00000   0.00000   0.00000
    Z1        0.00000  -0.00000   0.00000   0.00000   0.00000   0.00000
    X2        4.30157  -0.00266   0.00000   0.00000   0.00000   4.30157
    Y2        0.00000  -0.00000   0.00000   0.00000   0.00000   0.00000
    Z2        0.00000   0.00000   0.00000   0.00000   0.00000   0.00000
    R1        2.76947  -0.00020  -0.00282   0.00086  -0.00196   2.76751
    R2        2.76949  -0.00020  -0.00279   0.00080  -0.00199   2.76750
    R3        2.76947  -0.00020  -0.00283   0.00087  -0.00196   2.76751
    R4        2.76949  -0.00020  -0.00279   0.00080  -0.00199   2.76750
    R5        2.76947  -0.00020  -0.00282   0.00085  -0.00197   2.76750
    R6        2.76947  -0.00020  -0.00283   0.00087  -0.00196   2.76751
    A1        1.67565  -0.00213  -0.02336  -0.00030  -0.02419   1.65146
    A2        1.67600  -0.00213  -0.02346  -0.00022  -0.02421   1.65180
    A3        1.67586  -0.00213  -0.02336  -0.00031  -0.02420   1.65166
    A4        2.07543   0.00076   0.00954   0.00006   0.00768   2.08311
    A5        2.07545   0.00076   0.00948   0.00017   0.00773   2.08318
    A6        2.07549   0.00076   0.00949   0.00006   0.00763   2.08311
    A7        1.67598  -0.00213  -0.02346  -0.00021  -0.02420   1.65178
    A8        1.67605  -0.00214  -0.02337  -0.00032  -0.02422   1.65182
    A9        1.67548  -0.00213  -0.02335  -0.00029  -0.02416   1.65131
   A10        2.07543   0.00076   0.00953   0.00007   0.00768   2.08311
   A11        2.07548   0.00076   0.00950   0.00005   0.00763   2.08312
   A12        2.07546   0.00076   0.00948   0.00017   0.00773   2.08318
    D1        1.04728   0.00000  -0.00001   0.00004   0.00003   1.04732
    D2       -3.14147  -0.00000  -0.00000   0.00002   0.00001  -3.14146
    D3       -1.04710   0.00000  -0.00001   0.00008   0.00007  -1.04703
    D4       -3.14154   0.00000   0.00002   0.00001   0.00004  -3.14150
    D5       -1.04710  -0.00000   0.00003  -0.00001   0.00002  -1.04709
    D6        1.04726   0.00000   0.00002   0.00005   0.00007   1.04733
    D7       -1.04708  -0.00000  -0.00001  -0.00002  -0.00003  -1.04710
    D8        1.04736  -0.00000  -0.00000  -0.00005  -0.00005   1.04731
    D9       -3.14146  -0.00000  -0.00001   0.00002   0.00001  -3.14145
         Item               Value     Threshold  Converged?
 Maximum Force            0.002137     0.000450     NO 
 RMS     Force            0.001073     0.000300     NO 
 Maximum Displacement     0.066954     0.001800     NO 
 RMS     Displacement     0.028576     0.001200     NO 
 Predicted change in Energy=-1.705110D-04
 Lowest energy point so far.  Saving SCF results.
 GradGradGradGradGradGradGradGradGradGradGradGradGradGradGradGradGradGrad

 Leave Link  103 at Mon Apr 21 20:10:12 2025, MaxMem=   536870912 cpu:               2.1 elap:               0.3
 (Enter /home/szhao/Apps/g16/l202.exe)
                          Input orientation:                          
 ---------------------------------------------------------------------
 Center     Atomic      Atomic             Coordinates (Angstroms)
 Number     Number       Type             X           Y           Z
 ---------------------------------------------------------------------
      1         14           0       -2.276292    0.000000    0.000000
      2         14           0        2.276292    0.000000    0.000000
      3          1           0        2.394761   -1.459696   -0.000006
      4          1           0       -2.394293   -0.729725    1.264255
      5          1           0        2.394828    0.729877   -1.264115
      6          1           0        2.394084    0.729814    1.264224
      7          1           0       -2.394787    1.459694   -0.000125
      8          1           0       -2.394592   -0.729970   -1.264085
 ---------------------------------------------------------------------
                    Distance matrix (angstroms):
                    1          2          3          4          5
     1  Si   0.000000
     2  Si   4.552584   0.000000
     3  H    4.893817   1.464496   0.000000
     4  H    1.464501   4.893384   5.006621   0.000000
     5  H    4.893881   1.464500   2.528281   5.608813   0.000000
     6  H    4.893189   1.464502   2.528287   5.005878   2.528340
     7  H    1.464496   4.893842   5.609154   2.528283   5.007068
     8  H    1.464501   4.893662   5.006825   2.528340   5.006965
                    6          7          8
     6  H    0.000000
     7  H    5.006455   0.000000
     8  H    5.608452   2.528285   0.000000
 Symmetry turned off by external request.
 Stoichiometry    H6Si2(1+,2)
 Framework group  C1[X(H6Si2)]
 Deg. of freedom    18
 Full point group                 C1      NOp   1
 Rotational constants (GHZ):          39.2232886           1.5266403           1.5266386
 Leave Link  202 at Mon Apr 21 20:10:12 2025, MaxMem=   536870912 cpu:               0.9 elap:               0.2
 (Enter /home/szhao/Apps/g16/l301.exe)
 Standard basis: 6-311+G(d,p) (5D, 7F)
 Ernie: Thresh=  0.10000D-02 Tol=  0.10000D-05 Strict=F.
    96 basis functions,   148 primitive gaussians,    98 cartesian basis functions
    17 alpha electrons       16 beta electrons
       nuclear repulsion energy        64.3911056440 Hartrees.
 IExCor= 4336 DFT=T Ex+Corr=M062X ExCW=0 ScaHFX=  0.540000
 ScaDFX=  1.000000  1.000000  1.000000  1.000000 ScalE2=  1.000000  1.000000
 IRadAn=      7 IRanWt=     -1 IRanGd=            0 ICorTp=0 IEmpDi=  4
 NAtoms=    8 NActive=    8 NUniq=    8 SFac= 1.00D+00 NAtFMM=   60 NAOKFM=F Big=F
 Integral buffers will be    131072 words long.
 Raffenetti 2 integral format.
 Two-electron integral symmetry is turned off.
 Leave Link  301 at Mon Apr 21 20:10:12 2025, MaxMem=   536870912 cpu:               0.9 elap:               0.2
 (Enter /home/szhao/Apps/g16/l302.exe)
 NPDir=0 NMtPBC=     1 NCelOv=     1 NCel=       1 NClECP=     1 NCelD=      1
         NCelK=      1 NCelE2=     1 NClLst=     1 CellRange=     0.0.
 One-electron integrals computed using PRISM.
 NBasis=    96 RedAO= T EigKep=  9.00D-03  NBF=    96
 NBsUse=    96 1.00D-06 EigRej= -1.00D+00 NBFU=    96
 Precomputing XC quadrature grid using
 IXCGrd= 4 IRadAn=           7 IRanWt=          -1 IRanGd=           0 AccXCQ= 0.00D+00.
 Generated NRdTot=       0 NPtTot=           0 NUsed=           0 NTot=          32
 NSgBfM=    91    91    91    91    91 MxSgAt=     8 MxSgA2=     8.
 Leave Link  302 at Mon Apr 21 20:10:13 2025, MaxMem=   536870912 cpu:               1.9 elap:               0.3
 (Enter /home/szhao/Apps/g16/l303.exe)
 DipDrv:  MaxL=1.
 Leave Link  303 at Mon Apr 21 20:10:13 2025, MaxMem=   536870912 cpu:               1.7 elap:               0.4
 (Enter /home/szhao/Apps/g16/l401.exe)
 Initial guess from the checkpoint file:  "opt.chk"
 B after Tr=     0.000000    0.000000   -0.000004
         Rot=    1.000000    0.000000    0.000000    0.000001 Ang=   0.00 deg.
 Guess basis will be translated and rotated to current coordinates.
 JPrj=2 DoOrth=T DoCkMO=T.
 Initial guess <Sx>= 0.0000 <Sy>= 0.0000 <Sz>= 0.5000 <S**2>= 0.7537 S= 0.5019
 Generating alternative initial guess.
 ExpMin= 3.31D-02 ExpMax= 6.94D+04 ExpMxC= 2.33D+03 IAcc=3 IRadAn=         5 AccDes= 0.00D+00
 Harris functional with IExCor= 1009 and IRadAn=       5 diagonalized for initial guess.
 HarFok:  IExCor= 1009 AccDes= 0.00D+00 IRadAn=         5 IDoV= 1 UseB2=F ITyADJ=14
 ICtDFT=  3500011 ScaDFX=  1.000000  1.000000  1.000000  1.000000
 FoFCou: FMM=F IPFlag=           0 FMFlag=      100000 FMFlg1=           0
         NFxFlg=           0 DoJE=T BraDBF=F KetDBF=T FulRan=T
         wScrn=  0.000000 ICntrl=       500 IOpCl=  0 I1Cent=   200000004 NGrid=           0
         NMat0=    1 NMatS0=      1 NMatT0=    0 NMatD0=    1 NMtDS0=    0 NMtDT0=    0
 Symmetry not used in FoFCou.
 Harris En= -581.896317783343    
 Leave Link  401 at Mon Apr 21 20:10:14 2025, MaxMem=   536870912 cpu:               4.0 elap:               0.6
 (Enter /home/szhao/Apps/g16/l502.exe)
 Keep R1 and R2 ints in memory in canonical form, NReq=29092346.
 FoFCou: FMM=F IPFlag=           0 FMFlag=           0 FMFlg1=           0
         NFxFlg=           0 DoJE=F BraDBF=F KetDBF=F FulRan=T
         wScrn=  0.000000 ICntrl=       600 IOpCl=  0 I1Cent=           0 NGrid=           0
         NMat0=    1 NMatS0=   4656 NMatT0=    0 NMatD0=    1 NMtDS0=    0 NMtDT0=    0
 Symmetry not used in FoFCou.
 Two-electron integral symmetry not used.
 UHF open shell SCF:
 Using DIIS extrapolation, IDIIS=  1040.
 NGot=   536870912 LenX=   515167018 LenY=   515156973
 Requested convergence on RMS density matrix=1.00D-08 within 128 cycles.
 Requested convergence on MAX density matrix=1.00D-06.
 Requested convergence on             energy=1.00D-06.
 No special actions if energy rises.

 Cycle   1  Pass 1  IDiag  1:
 E= -582.138491775625    
 DIIS: error= 1.66D-03 at cycle   1 NSaved=   1.
 NSaved= 1 IEnMin= 1 EnMin= -582.138491775625     IErMin= 1 ErrMin= 1.66D-03
 ErrMax= 1.66D-03  0.00D+00 EMaxC= 1.00D-01 BMatC= 2.95D-04 BMatP= 2.95D-04
 IDIUse=3 WtCom= 9.83D-01 WtEn= 1.66D-02
 Coeff-Com:  0.100D+01
 Coeff-En:   0.100D+01
 Coeff:      0.100D+01
 Gap=     0.403 Goal=   None    Shift=    0.000
 Gap=     0.482 Goal=   None    Shift=    0.000
 GapD=    0.403 DampG=2.000 DampE=1.000 DampFc=2.0000 IDamp=-1.
 RMSDP=1.84D-04 MaxDP=4.73D-03              OVMax= 1.38D-02

 Cycle   2  Pass 1  IDiag  1:
 E= -582.138673188358     Delta-E=       -0.000181412733 Rises=F Damp=F
 DIIS: error= 5.37D-04 at cycle   2 NSaved=   2.
 NSaved= 2 IEnMin= 2 EnMin= -582.138673188358     IErMin= 2 ErrMin= 5.37D-04
 ErrMax= 5.37D-04  0.00D+00 EMaxC= 1.00D-01 BMatC= 1.31D-05 BMatP= 2.95D-04
 IDIUse=3 WtCom= 9.95D-01 WtEn= 5.37D-03
 Coeff-Com: -0.129D+00 0.113D+01
 Coeff-En:   0.000D+00 0.100D+01
 Coeff:     -0.129D+00 0.113D+01
 Gap=     0.110 Goal=   None    Shift=    0.000
 Gap=     0.291 Goal=   None    Shift=    0.000
 RMSDP=1.20D-04 MaxDP=3.44D-03 DE=-1.81D-04 OVMax= 6.93D-03

 Cycle   3  Pass 1  IDiag  1:
 E= -582.138693330147     Delta-E=       -0.000020141788 Rises=F Damp=F
 DIIS: error= 1.46D-04 at cycle   3 NSaved=   3.
 NSaved= 3 IEnMin= 3 EnMin= -582.138693330147     IErMin= 3 ErrMin= 1.46D-04
 ErrMax= 1.46D-04  0.00D+00 EMaxC= 1.00D-01 BMatC= 2.42D-06 BMatP= 1.31D-05
 IDIUse=3 WtCom= 9.99D-01 WtEn= 1.46D-03
 Coeff-Com: -0.360D-01 0.389D-01 0.997D+00
 Coeff-En:   0.000D+00 0.000D+00 0.100D+01
 Coeff:     -0.359D-01 0.388D-01 0.997D+00
 Gap=     0.110 Goal=   None    Shift=    0.000
 Gap=     0.291 Goal=   None    Shift=    0.000
 RMSDP=3.39D-05 MaxDP=9.43D-04 DE=-2.01D-05 OVMax= 1.77D-03

 Cycle   4  Pass 1  IDiag  1:
 E= -582.138695928602     Delta-E=       -0.000002598455 Rises=F Damp=F
 DIIS: error= 5.70D-05 at cycle   4 NSaved=   4.
 NSaved= 4 IEnMin= 4 EnMin= -582.138695928602     IErMin= 4 ErrMin= 5.70D-05
 ErrMax= 5.70D-05  0.00D+00 EMaxC= 1.00D-01 BMatC= 3.25D-07 BMatP= 2.42D-06
 IDIUse=1 WtCom= 1.00D+00 WtEn= 0.00D+00
 Coeff-Com:  0.193D-01-0.187D+00-0.732D-01 0.124D+01
 Coeff:      0.193D-01-0.187D+00-0.732D-01 0.124D+01
 Gap=     0.110 Goal=   None    Shift=    0.000
 Gap=     0.291 Goal=   None    Shift=    0.000
 RMSDP=2.44D-05 MaxDP=6.60D-04 DE=-2.60D-06 OVMax= 1.23D-03

 Cycle   5  Pass 1  IDiag  1:
 E= -582.138696452300     Delta-E=       -0.000000523698 Rises=F Damp=F
 DIIS: error= 1.10D-05 at cycle   5 NSaved=   5.
 NSaved= 5 IEnMin= 5 EnMin= -582.138696452300     IErMin= 5 ErrMin= 1.10D-05
 ErrMax= 1.10D-05  0.00D+00 EMaxC= 1.00D-01 BMatC= 1.31D-08 BMatP= 3.25D-07
 IDIUse=1 WtCom= 1.00D+00 WtEn= 0.00D+00
 Coeff-Com: -0.557D-03 0.210D-01-0.253D-01-0.157D+00 0.116D+01
 Coeff:     -0.557D-03 0.210D-01-0.253D-01-0.157D+00 0.116D+01
 Gap=     0.110 Goal=   None    Shift=    0.000
 Gap=     0.291 Goal=   None    Shift=    0.000
 RMSDP=1.27D-06 MaxDP=2.42D-05 DE=-5.24D-07 OVMax= 8.70D-05

 Cycle   6  Pass 1  IDiag  1:
 E= -582.138696464436     Delta-E=       -0.000000012136 Rises=F Damp=F
 DIIS: error= 1.88D-06 at cycle   6 NSaved=   6.
 NSaved= 6 IEnMin= 6 EnMin= -582.138696464436     IErMin= 6 ErrMin= 1.88D-06
 ErrMax= 1.88D-06  0.00D+00 EMaxC= 1.00D-01 BMatC= 1.06D-09 BMatP= 1.31D-08
 IDIUse=1 WtCom= 1.00D+00 WtEn= 0.00D+00
 Coeff-Com: -0.130D-02 0.150D-01 0.776D-02-0.120D+00 0.115D+00 0.984D+00
 Coeff:     -0.130D-02 0.150D-01 0.776D-02-0.120D+00 0.115D+00 0.984D+00
 Gap=     0.110 Goal=   None    Shift=    0.000
 Gap=     0.291 Goal=   None    Shift=    0.000
 RMSDP=4.66D-07 MaxDP=1.04D-05 DE=-1.21D-08 OVMax= 1.77D-05

 Cycle   7  Pass 1  IDiag  1:
 E= -582.138696465055     Delta-E=       -0.000000000619 Rises=F Damp=F
 DIIS: error= 4.06D-07 at cycle   7 NSaved=   7.
 NSaved= 7 IEnMin= 7 EnMin= -582.138696465055     IErMin= 7 ErrMin= 4.06D-07
 ErrMax= 4.06D-07  0.00D+00 EMaxC= 1.00D-01 BMatC= 2.63D-11 BMatP= 1.06D-09
 IDIUse=1 WtCom= 1.00D+00 WtEn= 0.00D+00
 Coeff-Com:  0.120D-03-0.196D-02 0.282D-02 0.107D-01-0.520D-01-0.232D-01
 Coeff-Com:  0.106D+01
 Coeff:      0.120D-03-0.196D-02 0.282D-02 0.107D-01-0.520D-01-0.232D-01
 Coeff:      0.106D+01
 Gap=     0.110 Goal=   None    Shift=    0.000
 Gap=     0.291 Goal=   None    Shift=    0.000
 RMSDP=1.18D-07 MaxDP=3.42D-06 DE=-6.19D-10 OVMax= 4.32D-06

 Cycle   8  Pass 1  IDiag  1:
 E= -582.138696465073     Delta-E=       -0.000000000018 Rises=F Damp=F
 DIIS: error= 7.10D-08 at cycle   8 NSaved=   8.
 NSaved= 8 IEnMin= 8 EnMin= -582.138696465073     IErMin= 8 ErrMin= 7.10D-08
 ErrMax= 7.10D-08  0.00D+00 EMaxC= 1.00D-01 BMatC= 1.13D-12 BMatP= 2.63D-11
 IDIUse=1 WtCom= 1.00D+00 WtEn= 0.00D+00
 Coeff-Com:  0.277D-04-0.297D-03-0.391D-03 0.293D-02 0.443D-04-0.312D-01
 Coeff-Com:  0.604D-02 0.102D+01
 Coeff:      0.277D-04-0.297D-03-0.391D-03 0.293D-02 0.443D-04-0.312D-01
 Coeff:      0.604D-02 0.102D+01
 Gap=     0.110 Goal=   None    Shift=    0.000
 Gap=     0.291 Goal=   None    Shift=    0.000
 RMSDP=1.23D-08 MaxDP=4.02D-07 DE=-1.75D-11 OVMax= 3.79D-07

 Cycle   9  Pass 1  IDiag  1:
 E= -582.138696465073     Delta-E=        0.000000000000 Rises=F Damp=F
 DIIS: error= 2.50D-08 at cycle   9 NSaved=   9.
 NSaved= 9 IEnMin= 8 EnMin= -582.138696465073     IErMin= 9 ErrMin= 2.50D-08
 ErrMax= 2.50D-08  0.00D+00 EMaxC= 1.00D-01 BMatC= 1.66D-13 BMatP= 1.13D-12
 IDIUse=1 WtCom= 1.00D+00 WtEn= 0.00D+00
 Coeff-Com: -0.126D-04 0.213D-03-0.420D-03-0.927D-03 0.530D-02 0.246D-02
 Coeff-Com: -0.124D+00 0.245D-01 0.109D+01
 Coeff:     -0.126D-04 0.213D-03-0.420D-03-0.927D-03 0.530D-02 0.246D-02
 Coeff:     -0.124D+00 0.245D-01 0.109D+01
 Gap=     0.110 Goal=   None    Shift=    0.000
 Gap=     0.291 Goal=   None    Shift=    0.000
 RMSDP=5.47D-09 MaxDP=1.77D-07 DE= 0.00D+00 OVMax= 2.03D-07

 SCF Done:  E(UM062X) =  -582.138696465     A.U. after    9 cycles
            NFock=  9  Conv=0.55D-08     -V/T= 2.0017
 <Sx>= 0.0000 <Sy>= 0.0000 <Sz>= 0.5000 <S**2>= 0.7539 S= 0.5019
 <L.S>=  0.00000000000    
 KE= 5.811746174613D+02 PE=-1.507954498805D+03 EE= 2.802500792346D+02
 Annihilation of the first spin contaminant:
 S**2 before annihilation     0.7539,   after     0.7500
 Leave Link  502 at Mon Apr 21 20:10:35 2025, MaxMem=   536870912 cpu:             155.7 elap:              20.8
 (Enter /home/szhao/Apps/g16/l701.exe)
 ... and contract with generalized density number  0.
 Compute integral first derivatives.
 Leave Link  701 at Mon Apr 21 20:10:36 2025, MaxMem=   536870912 cpu:               1.5 elap:               0.2
 (Enter /home/szhao/Apps/g16/l702.exe)
 L702 exits ... SP integral derivatives will be done elsewhere.
 Leave Link  702 at Mon Apr 21 20:10:36 2025, MaxMem=   536870912 cpu:               0.7 elap:               0.1
 (Enter /home/szhao/Apps/g16/l703.exe)
 Integral derivatives from FoFJK, PRISM(SPDF).
 Compute integral first derivatives, UseDBF=F ICtDFT=           0.
 Calling FoFJK, ICntrl=      2127 FMM=F ISym2X=0 I1Cent= 0 IOpClX= 1 NMat=1 NMatS=1 NMatT=0.
 FoFJK:  IHMeth= 1 ICntrl=    2127 DoSepK=F KAlg= 0 I1Cent=           0 FoldK=F
 IRaf=         0 NMat=       1 IRICut=       1 DoRegI=T DoRafI=F ISym2E= 0 IDoP0=0 IntGTp=1.
 FoFCou: FMM=F IPFlag=           0 FMFlag=      100000 FMFlg1=         800
         NFxFlg=           0 DoJE=F BraDBF=F KetDBF=F FulRan=T
         wScrn=  0.000000 ICntrl=      2127 IOpCl=  1 I1Cent=           0 NGrid=           0
         NMat0=    1 NMatS0=      1 NMatT0=    0 NMatD0=    1 NMtDS0=    0 NMtDT0=    0
 Symmetry not used in FoFCou.
 Leave Link  703 at Mon Apr 21 20:10:39 2025, MaxMem=   536870912 cpu:              26.5 elap:               3.4
 (Enter /home/szhao/Apps/g16/l716.exe)
 Dipole        =-2.55774345D-07-1.06917222D-06 2.39247141D-05
 -------------------------------------------------------------------
 Center     Atomic                   Forces (Hartrees/Bohr)
 Number     Number              X              Y              Z
 -------------------------------------------------------------------
      1       14          -0.000000000   -0.000000000   -0.000000000
      2       14          -0.000000000   -0.000000000   -0.000000000
      3        1          -0.000025405   -0.000028661    0.000000367
      4        1           0.000034466   -0.000011994    0.000024763
      5        1          -0.000035489    0.000012339   -0.000024995
      6        1          -0.000033814    0.000011657    0.000024569
      7        1           0.000025467    0.000028626    0.000000006
      8        1           0.000034799   -0.000011959   -0.000024667
 -------------------------------------------------------------------
 Cartesian Forces:  Max     0.000035489 RMS     0.000021176
 Leave Link  716 at Mon Apr 21 20:10:40 2025, MaxMem=   536870912 cpu:               0.5 elap:               0.2
 (Enter /home/szhao/Apps/g16/l103.exe)

 GradGradGradGradGradGradGradGradGradGradGradGradGradGradGradGradGradGrad
 Berny optimization.
 Using GEDIIS/GDIIS optimizer.
 FormGI is forming the generalized inverse of G from B-inverse, IUseBI=4.
 Internal  Forces:  Max     0.000097207 RMS     0.000046424
 Search for a local minimum.
 Step number   3 out of a maximum of   43
 All quantities printed in internal units (Hartrees-Bohrs-Radians)
 RMS Force = .44378D-04 SwitMx=.10000D-02 MixMth= 2
 Mixed Optimization -- En-DIIS/RFO-DIIS
 Update second derivatives using D2CorX and points    1    2    3
 DE= -1.78D-04 DEPred=-1.71D-04 R= 1.04D+00
 TightC=F SS=  1.41D+00  RLast= 6.24D-02 DXNew= 5.0454D-01 1.8711D-01
 Trust test= 1.04D+00 RLast= 6.24D-02 DXMaxT set to 3.00D-01
 ITU=  1  1  0
 Use linear search instead of GDIIS.
     Eigenvalues ---    0.00230   0.07937   0.07938   0.07938   0.07938
     Eigenvalues ---    0.08566   0.16000   0.16000   0.16000   0.16000
     Eigenvalues ---    0.16001   0.18377   0.18377   0.18378   0.18378
     Eigenvalues ---    0.18378   0.183961000.000001000.000001000.00000
     Eigenvalues --- 1000.000001000.000001000.000001000.000001000.00000
     Eigenvalues --- 1000.000001000.000001000.000001000.000001000.00000
     Eigenvalues --- 1000.000001000.000001000.00000
 RFO step:  Lambda=-4.45537546D-08 EMin= 2.29999997D-03
 Quartic linear search produced a step of  0.04191.
 Iteration  1 RMS(Cart)=  0.00123892 RMS(Int)=  0.00001756
 Iteration  2 RMS(Cart)=  0.00000080 RMS(Int)=  0.00001755
 ITry= 1 IFail=0 DXMaxC= 3.07D-03 DCOld= 1.00D+10 DXMaxT= 3.00D-01 DXLimC= 3.00D+00 Rises=F
 Variable       Old X    -DE/DX   Delta X   Delta X   Delta X     New X
                                 (Linear)    (Quad)   (Total)
    X1       -4.30157   0.00009   0.00000   0.00000   0.00000  -4.30157
    Y1        0.00000  -0.00000   0.00000   0.00000   0.00000   0.00000
    Z1        0.00000   0.00000   0.00000   0.00000   0.00000   0.00000
    X2        4.30157  -0.00009   0.00000   0.00000   0.00000   4.30157
    Y2        0.00000   0.00000   0.00000   0.00000   0.00000   0.00000
    Z2        0.00000  -0.00000   0.00000   0.00000   0.00000   0.00000
    R1        2.76751   0.00002  -0.00008   0.00018   0.00010   2.76761
    R2        2.76750   0.00003  -0.00008   0.00019   0.00011   2.76761
[...]
    D1        1.04732  -0.00000   0.00000  -0.00000  -0.00000   1.04732
    D2       -3.14145  -0.00000   0.00000   0.00000   0.00000  -3.14145
    D3       -1.04702  -0.00000   0.00000  -0.00000  -0.00000  -1.04702
    D4       -3.14150   0.00000   0.00000   0.00000   0.00000  -3.14150
    D5       -1.04709   0.00000  -0.00000   0.00000   0.00000  -1.04709
    D6        1.04734  -0.00000   0.00000  -0.00000  -0.00000   1.04734
    D7       -1.04711   0.00000  -0.00000   0.00000   0.00000  -1.04711
    D8        1.04730   0.00000  -0.00000   0.00000   0.00000   1.04730
    D9       -3.14145  -0.00000   0.00000   0.00000   0.00000  -3.14145
         Item               Value     Threshold  Converged?
 Maximum Force            0.000015     0.000450     YES
 RMS     Force            0.000005     0.000300     YES
 Maximum Displacement     0.000220     0.001800     YES
 RMS     Displacement     0.000084     0.001200     YES
 Predicted change in Energy=-2.476621D-09
 Optimization completed.
    -- Stationary point found.
                           ----------------------------
                           !   Optimized Parameters   !
                           ! (Angstroms and Degrees)  !
 --------------------------                            --------------------------
 ! Name  Definition              Value          Derivative Info.                !
 --------------------------------------------------------------------------------
 ! X1    R(1,-1)                -2.2763         -DE/DX =    0.0                 !
 ! Y1    R(1,-2)                 0.0            -DE/DX =    0.0                 !
 ! Z1    R(1,-3)                 0.0            -DE/DX =    0.0                 !
 ! X2    R(2,-1)                 2.2763         -DE/DX =    0.0                 !
 ! Y2    R(2,-2)                 0.0            -DE/DX =    0.0                 !
 ! Z2    R(2,-3)                 0.0            -DE/DX =    0.0                 !
 ! R1    R(1,4)                  1.4646         -DE/DX =    0.0                 !
 ! R2    R(1,7)                  1.4646         -DE/DX =    0.0                 !
 ! R3    R(1,8)                  1.4646         -DE/DX =    0.0                 !
 ! R4    R(2,3)                  1.4646         -DE/DX =    0.0                 !
 ! R5    R(2,5)                  1.4646         -DE/DX =    0.0                 !
 ! R6    R(2,6)                  1.4646         -DE/DX =    0.0                 !
 ! A1    A(2,1,4)               94.5588         -DE/DX =    0.0                 !
 ! A2    A(2,1,7)               94.587          -DE/DX =    0.0                 !
 ! A3    A(2,1,8)               94.5701         -DE/DX =    0.0                 !
 ! A4    A(4,1,7)              119.3693         -DE/DX =    0.0                 !
 ! A5    A(4,1,8)              119.3755         -DE/DX =    0.0                 !
 ! A6    A(7,1,8)              119.3694         -DE/DX =    0.0                 !
 ! A7    A(1,2,3)               94.586          -DE/DX =    0.0                 !
 ! A8    A(1,2,5)               94.5787         -DE/DX =    0.0                 !
 ! A9    A(1,2,6)               94.5513         -DE/DX =    0.0                 !
 ! A10   A(3,2,5)              119.3694         -DE/DX =    0.0                 !
 ! A11   A(3,2,6)              119.3693         -DE/DX =    0.0                 !
 ! A12   A(5,2,6)              119.3755         -DE/DX =    0.0                 !
 ! D1    D(4,1,2,3)             60.0072         -DE/DX =    0.0                 !
 ! D2    D(4,1,2,5)           -179.992          -DE/DX =    0.0                 !
 ! D3    D(4,1,2,6)            -59.9897         -DE/DX =    0.0                 !
 ! D4    D(7,1,2,3)           -179.9947         -DE/DX =    0.0                 !
 ! D5    D(7,1,2,5)            -59.9939         -DE/DX =    0.0                 !
 ! D6    D(7,1,2,6)             60.0084         -DE/DX =    0.0                 !
 ! D7    D(8,1,2,3)            -59.9949         -DE/DX =    0.0                 !
 ! D8    D(8,1,2,5)             60.0059         -DE/DX =    0.0                 !
 ! D9    D(8,1,2,6)           -179.9918         -DE/DX =    0.0                 !
 --------------------------------------------------------------------------------
 Lowest energy point so far.  Saving SCF results.
 Largest change from initial coordinates is atom    5       0.081 Angstoms.
 GradGradGradGradGradGradGradGradGradGradGradGradGradGradGradGradGradGrad

 Leave Link  103 at Mon Apr 21 20:11:03 2025, MaxMem=   536870912 cpu:               1.5 elap:               0.3
 (Enter /home/szhao/Apps/g16/l202.exe)
                          Input orientation:                          
 ---------------------------------------------------------------------
 Center     Atomic      Atomic             Coordinates (Angstroms)
 Number     Number       Type             X           Y           Z
 ---------------------------------------------------------------------
      1         14           0       -2.276292    0.000000    0.000000
      2         14           0        2.276292    0.000000    0.000000
      3          1           0        2.393392   -1.459866   -0.000007
      4          1           0       -2.392697   -0.729808    1.264417
      5          1           0        2.393204    0.729964   -1.264279
      6          1           0        2.392506    0.729894    1.264385
      7          1           0       -2.393417    1.459863   -0.000127
      8          1           0       -2.392987   -0.730055   -1.264246
 ---------------------------------------------------------------------
                    Distance matrix (angstroms):
                    1          2          3          4          5
     1  Si   0.000000
     2  Si   4.552584   0.000000
     3  H    4.892561   1.464555   0.000000
     4  H    1.464554   4.891915   5.003839   0.000000
     5  H    4.892386   1.464553   2.528584   5.606254   0.000000
     6  H    4.891736   1.464554   2.528583   5.002889   2.528663
     7  H    1.464554   4.892585   5.606992   2.528583   5.004255
     8  H    1.464554   4.892184   5.004033   2.528663   5.003927
                    6          7          8
     6  H    0.000000
     7  H    5.003689   0.000000
     8  H    5.605922   2.528585   0.000000
 Symmetry turned off by external request.
 Stoichiometry    H6Si2(1+,2)
 Framework group  C1[X(H6Si2)]
 Deg. of freedom    18
 Full point group                 C1      NOp   1
 Rotational constants (GHZ):          39.2137424           1.5268369           1.5268344
 Leave Link  202 at Mon Apr 21 20:11:04 2025, MaxMem=   536870912 cpu:               0.3 elap:               0.2
 (Enter /home/szhao/Apps/g16/l601.exe)
 Copying SCF densities to generalized density rwf, IOpCl= 1 IROHF=0.

 **********************************************************************

            Population analysis using the SCF density.

 **********************************************************************

 Alpha  occ. eigenvalues --  -67.22544 -67.22544  -5.77380  -5.77378  -4.09062
 Alpha  occ. eigenvalues --   -4.09062  -4.08251  -4.08251  -4.08251  -4.08251
 Alpha  occ. eigenvalues --   -0.81093  -0.80693  -0.61450  -0.61449  -0.61352
 Alpha  occ. eigenvalues --   -0.61351  -0.40722
 Alpha virt. eigenvalues --   -0.29778  -0.12206  -0.11794  -0.09962  -0.09660
 Alpha virt. eigenvalues --   -0.09657  -0.08431  -0.08431  -0.07705  -0.07370
 Alpha virt. eigenvalues --   -0.07369  -0.06166  -0.06161  -0.04730   0.00655
 Alpha virt. eigenvalues --    0.13076   0.13289   0.13291   0.15751   0.15754
 Alpha virt. eigenvalues --    0.17196   0.22595   0.23938   0.23939   0.26336
 Alpha virt. eigenvalues --    0.26383   0.26386   0.30254   0.35904   0.37603
 Alpha virt. eigenvalues --    0.37606   0.37851   0.37854   0.57333   0.58347
 Alpha virt. eigenvalues --    0.68589   0.68592   0.69245   0.69247   1.02919
 Alpha virt. eigenvalues --    1.02919   1.03297   1.03297   1.03400   1.05933
 Alpha virt. eigenvalues --    1.12610   1.12610   1.29515   1.30216   1.30217
 Alpha virt. eigenvalues --    1.30302   1.30303   1.30546   1.42426   1.42429
 Alpha virt. eigenvalues --    1.42828   1.42831   1.70400   1.71493   1.94554
 Alpha virt. eigenvalues --    1.94557   1.94753   1.94756   2.42090   2.42093
 Alpha virt. eigenvalues --    2.44100   2.44102   2.47116   2.49751   5.35601
 Alpha virt. eigenvalues --    5.40412  11.23770  11.26055  11.39889  11.39889
 Alpha virt. eigenvalues --   11.40748  11.40748 140.93920 140.99675
  Beta  occ. eigenvalues --  -67.22276 -67.22276  -5.77300  -5.77298  -4.08436
  Beta  occ. eigenvalues --   -4.08436  -4.08159  -4.08159  -4.08159  -4.08159
  Beta  occ. eigenvalues --   -0.79351  -0.79116  -0.61332  -0.61331  -0.61223
  Beta  occ. eigenvalues --   -0.61222
  Beta virt. eigenvalues --   -0.32080  -0.23132  -0.15223  -0.12710  -0.12708
  Beta virt. eigenvalues --   -0.10874  -0.10831  -0.08921  -0.08920  -0.07303
  Beta virt. eigenvalues --   -0.06949  -0.06949  -0.05797  -0.05797  -0.05603
  Beta virt. eigenvalues --    0.01223   0.06501   0.12060   0.12060   0.14709
  Beta virt. eigenvalues --    0.14709   0.15477   0.21962   0.23556   0.23557
  Beta virt. eigenvalues --    0.25190   0.25194   0.25442   0.28775   0.34925
  Beta virt. eigenvalues --    0.40617   0.40617   0.40686   0.40686   0.60933
  Beta virt. eigenvalues --    0.61781   0.69236   0.69239   0.69851   0.69853
  Beta virt. eigenvalues --    1.02968   1.02968   1.03078   1.03270   1.03271
  Beta virt. eigenvalues --    1.04073   1.12855   1.12855   1.30064   1.30936
  Beta virt. eigenvalues --    1.31229   1.31230   1.31316   1.31318   1.42900
  Beta virt. eigenvalues --    1.42904   1.43285   1.43288   1.71121   1.72217
  Beta virt. eigenvalues --    1.95465   1.95468   1.95697   1.95700   2.42575
  Beta virt. eigenvalues --    2.42578   2.44673   2.44676   2.47479   2.49976
  Beta virt. eigenvalues --    5.36808   5.41726  11.25495  11.27684  11.40509
  Beta virt. eigenvalues --   11.40511  11.41397  11.41398 140.94392 141.00153
          Condensed to atoms (all electrons):
               1          2          3          4          5          6
     1  Si  12.338851   0.074708  -0.002404   0.364103  -0.002403  -0.002405
     2  Si   0.074708  12.338851   0.364121  -0.002405   0.364113   0.364098
     3  H   -0.002404   0.364121   0.672408   0.000043  -0.016905  -0.016905
     4  H    0.364103  -0.002405   0.000043   0.672429   0.000036   0.000043
     5  H   -0.002403   0.364113  -0.016905   0.000036   0.672410  -0.016901
     6  H   -0.002405   0.364098  -0.016905   0.000043  -0.016901   0.672438
     7  H    0.364121  -0.002404   0.000036  -0.016905   0.000043   0.000043
     8  H    0.364107  -0.002404   0.000043  -0.016901   0.000043   0.000036
               7          8
     1  Si   0.364121   0.364107
     2  Si  -0.002404  -0.002404
     3  H    0.000036   0.000043
     4  H   -0.016905  -0.016901
     5  H    0.000043   0.000043
     6  H    0.000043   0.000036
     7  H    0.672407  -0.016905
     8  H   -0.016905   0.672420
          Atomic-Atomic Spin Densities.
               1          2          3          4          5          6
     1  Si   0.541601   0.072782  -0.002514  -0.018391  -0.002515  -0.002519
     2  Si   0.072782   0.541601  -0.018386  -0.002518  -0.018386  -0.018393
     3  H   -0.002514  -0.018386  -0.002055   0.000083   0.002772   0.002774
     4  H   -0.018391  -0.002518   0.000083  -0.002042   0.000016   0.000083
     5  H   -0.002515  -0.018386   0.002772   0.000016  -0.002050   0.002774
     6  H   -0.002519  -0.018393   0.002774   0.000083   0.002774  -0.002038
     7  H   -0.018386  -0.002514   0.000016   0.002773   0.000083   0.000083
     8  H   -0.018389  -0.002517   0.000083   0.002775   0.000083   0.000016
               7          8
     1  Si  -0.018386  -0.018389
     2  Si  -0.002514  -0.002517
     3  H    0.000016   0.000083
     4  H    0.002773   0.002775
     5  H    0.000083   0.000083
     6  H    0.000083   0.000016
     7  H   -0.002056   0.002773
     8  H    0.002773  -0.002046
 Mulliken charges and spin densities:
               1          2
     1  Si   0.501321   0.551670
     2  Si   0.501321   0.551669
     3  H   -0.000437  -0.017227
     4  H   -0.000444  -0.017221
     5  H   -0.000437  -0.017223
     6  H   -0.000447  -0.017220
     7  H   -0.000437  -0.017227
     8  H   -0.000440  -0.017222
 Sum of Mulliken charges =   1.00000   1.00000
 Mulliken charges and spin densities with hydrogens summed into heavy atoms:
               1          2
     1  Si   0.500000   0.500000
     2  Si   0.500000   0.500000
 Electronic spatial extent (au):  <R**2>=            722.1219
 Charge=              1.0000 electrons
 Dipole moment (field-independent basis, Debye):
    X=              0.0000    Y=             -0.0000    Z=              0.0001  Tot=              0.0001
 Quadrupole moment (field-independent basis, Debye-Ang):
   XX=              4.4844   YY=            -26.2227   ZZ=            -26.2225
   XY=              0.0007   XZ=              0.0001   YZ=             -0.0000
 Traceless Quadrupole moment (field-independent basis, Debye-Ang):
   XX=             20.4714   YY=            -10.2358   ZZ=            -10.2355
   XY=              0.0007   XZ=              0.0001   YZ=             -0.0000
 Octapole moment (field-independent basis, Debye-Ang**2):
  XXX=              0.0000  YYY=              0.0000  ZZZ=              0.0001  XYY=             -0.0000
  XXY=             -0.0000  XXZ=              0.0007  XZZ=              0.0000  YZZ=              0.0000
  YYZ=             -0.0003  XYZ=             -0.0003
 Hexadecapole moment (field-independent basis, Debye-Ang**3):
 XXXX=           -644.7275 YYYY=            -67.9891 ZZZZ=            -67.9903 XXXY=              0.0129
 XXXZ=              0.0026 YYYX=             -2.8301 YYYZ=             -0.0000 ZZZX=              0.0004
 ZZZY=              0.0000 XXYY=           -152.4035 XXZZ=           -152.4058 YYZZ=            -22.6634
 XXYZ=             -0.0006 YYXZ=              0.0005 ZZXY=              2.8353
 N-N= 6.439290291159D+01 E-N=-1.507957980053D+03  KE= 5.811741920549D+02
                          Isotropic Fermi Contact Couplings
        Atom                 a.u.       MegaHertz       Gauss      10(-4) cm-1
     1  Si(29)             0.08590     -76.34320     -27.24115     -25.46535
     2  Si(29)             0.08590     -76.34322     -27.24116     -25.46536
     3  H(1)              -0.00432     -19.29071      -6.88341      -6.43469
     4  H(1)              -0.00431     -19.27563      -6.87803      -6.42966
     5  H(1)              -0.00431     -19.28204      -6.88031      -6.43180
     6  H(1)              -0.00431     -19.27257      -6.87693      -6.42864
     7  H(1)              -0.00432     -19.29104      -6.88352      -6.43480
     8  H(1)              -0.00431     -19.27866      -6.87911      -6.43067
 --------------------------------------------------------
       Center         ----  Spin Dipole Couplings  ----
                      3XX-RR        3YY-RR        3ZZ-RR
 --------------------------------------------------------
     1   Atom        0.863433     -0.431764     -0.431670
     2   Atom        0.863433     -0.431764     -0.431669
     3   Atom        0.005133      0.007436     -0.012569
     4   Atom        0.005133     -0.007570      0.002437
     5   Atom        0.005134     -0.007567      0.002434
     6   Atom        0.005133     -0.007569      0.002436
     7   Atom        0.005133      0.007436     -0.012569
     8   Atom        0.005133     -0.007566      0.002433
 --------------------------------------------------------
                        XY            XZ            YZ
 --------------------------------------------------------
     1   Atom        0.000350     -0.000156      0.000000
     2   Atom        0.000326      0.000382     -0.000000
     3   Atom       -0.002342      0.000004      0.000000
     4   Atom        0.001172     -0.002026     -0.008663
     5   Atom        0.001176     -0.002026     -0.008663
     6   Atom        0.001171      0.002026      0.008664
     7   Atom       -0.002342     -0.000002     -0.000002
     8   Atom        0.001174      0.002026      0.008664
 --------------------------------------------------------


 ---------------------------------------------------------------------------------
              Anisotropic Spin Dipole Couplings in Principal Axis System
 ---------------------------------------------------------------------------------

       Atom             a.u.   MegaHertz   Gauss  10(-4) cm-1        Axes

              Baa    -0.4318    45.803    16.344    15.278 -0.0003  1.0000 -0.0012
     1 Si(29) Bbb    -0.4317    45.793    16.340    15.275  0.0001  0.0012  1.0000
              Bcc     0.8634   -91.597   -32.684   -30.553  1.0000  0.0003 -0.0001
 
              Baa    -0.4318    45.803    16.344    15.278 -0.0003  1.0000  0.0063
     2 Si(29) Bbb    -0.4317    45.793    16.340    15.275 -0.0003 -0.0063  1.0000
              Bcc     0.8634   -91.596   -32.684   -30.553  1.0000  0.0003  0.0003
 
              Baa    -0.0126    -6.706    -2.393    -2.237 -0.0002 -0.0001  1.0000
     3 H(1)   Bbb     0.0037     1.961     0.700     0.654  0.8488  0.5286  0.0002
              Bcc     0.0089     4.746     1.693     1.583 -0.5286  0.8488 -0.0001
 
              Baa    -0.0126    -6.707    -2.393    -2.237 -0.0001  0.8661  0.4999
     4 H(1)   Bbb     0.0037     1.962     0.700     0.654  0.8490 -0.2640  0.4576
              Bcc     0.0089     4.745     1.693     1.583 -0.5283 -0.4245  0.7353
 
              Baa    -0.0126    -6.707    -2.393    -2.237 -0.0003  0.8660  0.5000
     5 H(1)   Bbb     0.0037     1.961     0.700     0.654  0.8488 -0.2641  0.4579
              Bcc     0.0089     4.746     1.693     1.583 -0.5286 -0.4246  0.7350
 
              Baa    -0.0126    -6.707    -2.393    -2.237 -0.0001  0.8660 -0.5000
     6 H(1)   Bbb     0.0037     1.962     0.700     0.654  0.8491 -0.2641 -0.4575
              Bcc     0.0089     4.745     1.693     1.583  0.5282  0.4246  0.7353
 
              Baa    -0.0126    -6.706    -2.393    -2.237  0.0001  0.0001  1.0000
     7 H(1)   Bbb     0.0037     1.961     0.700     0.654  0.8488  0.5286 -0.0001
              Bcc     0.0089     4.746     1.693     1.583 -0.5286  0.8488 -0.0000
 
              Baa    -0.0126    -6.707    -2.393    -2.237 -0.0002  0.8660 -0.5001
     8 H(1)   Bbb     0.0037     1.961     0.700     0.654  0.8489 -0.2641 -0.4578
              Bcc     0.0089     4.746     1.693     1.583  0.5285  0.4246  0.7351
 

 ---------------------------------------------------------------------------------

 No NMR shielding tensors so no spin-rotation constants.
 Leave Link  601 at Mon Apr 21 20:11:04 2025, MaxMem=   536870912 cpu:               2.8 elap:               0.4
 (Enter /home/szhao/Apps/g16/l9999.exe)
 1\1\GINC-NODE03\FOpt\UM062X\6-311+G(d,p)\H6Si2(1+,2)\SZHAO\21-Apr-2025
 \0\\#p opt UM062X/6-311+G** nosymm int=superfine\\Title Card Required\
 \1,2\Si,-2.27629201,0.,0.\Si,2.27629201,0.,0.\H,2.3933919098,-1.459865
 6097,-0.0000066323\H,-2.3926973387,-0.7298077994,1.2644165319\H,2.3932
 04058,0.7299644899,-1.2642785249\H,2.3925055635,0.7298941269,1.2643845
 619\H,-2.3934171518,1.4598634861,-0.0001274986\H,-2.3929870075,-0.7300
 549231,-1.2642464765\\Version=ES64L-G16RevA.03\HF=-582.1386968\S2=0.75
 3872\S2-1=0.\S2A=0.750012\RMSD=5.489e-09\RMSF=2.694e-06\Dipole=0.00000
 07,-0.0000006,0.0000133\Quadrupole=15.2199635,-7.6100837,-7.6098798,0.
 0005212,0.0000491,-0.0000067\PG=C01 [X(H6Si2)]\\@


 Everything starts as somebody's daydream.
                           -- Larry Niven
 Job cpu time:       0 days  0 hours 12 minutes 39.8 seconds.
 Elapsed time:       0 days  0 hours  1 minutes 43.2 seconds.
 File lengths (MBytes):  RWF=     22 Int=      0 D2E=      0 Chk=      3 Scr=      2
 Normal termination of Gaussian 16 at Mon Apr 21 20:11:05 2025.
