Title Card Required                                                     
FOpt      UM062X                                                      6-311+G(d,p)        
Number of atoms                            I                4
Info1-9                                    I   N=           9
          13          13           0           0           0         110
           2          18        -502
Full Title                                 C   N=           2
Title Card Required     
Route                                      C   N=           4
#p opt UM062X/6-311+G** nosymm int=superfine    
Charge                                     I                1
Multiplicity                               I                2
Number of electrons                        I               13
Number of alpha electrons                  I                7
Number of beta electrons                   I                6
Number of basis functions                  I               56
Number of independent functions            I               56
Number of point charges in /Mol/           I                0
Number of translation vectors              I                0
Atomic numbers                             I   N=           4
           6           6           1           1
Nuclear charges                            R   N=           4
  6.00000000E+00  6.00000000E+00  1.00000000E+00  1.00000000E+00
Current cartesian coordinates              R   N=          12
 -1.31506721E+00  0.00000000E+00  0.00000000E+00  1.31506721E+00  0.00000000E+00
  0.00000000E+00 -3.36632753E+00 -4.39149372E-10 -6.12088006E-10  3.36632851E+00
  4.37161060E-10 -5.82007168E-10
Number of symbols in /Mol/                 I                0
Force Field                                I                0
Atom Types                                 C   N=           4
                                                
Int Atom Types                             I   N=           4
           0           0           0           0
MM charges                                 R   N=           4
  0.00000000E+00  0.00000000E+00  0.00000000E+00  0.00000000E+00
Integer atomic weights                     I   N=           4
          12          12           1           1
Real atomic weights                        R   N=           4
  1.20000000E+01  1.20000000E+01  1.00782504E+00  1.00782504E+00
Atom fragment info                         I   N=           4
           0           0           0           0
Atom residue num                           I   N=           4
           0           0           0           0
Nuclear spins                              I   N=           4
           0           0           1           1
Nuclear ZEff                               R   N=           4
 -3.60000000E+00 -3.60000000E+00 -1.00000000E+00 -1.00000000E+00
Nuclear ZNuc                               R   N=           4
  6.00000000E+00  6.00000000E+00  1.00000000E+00  1.00000000E+00
Nuclear QMom                               R   N=           4
  0.00000000E+00  0.00000000E+00  0.00000000E+00  0.00000000E+00
Nuclear GFac                               R   N=           4
  0.00000000E+00  0.00000000E+00  2.79284600E+00  2.79284600E+00
MicOpt                                     I   N=           4
          -2          -2          -1          -1
Number of residues                         I                0
Number of secondary structures             I                0
Redundant internal dimensions              I   N=           4
          12           8           4           0
Redundant internal coordinate indices      I   N=          48
           1          -1           0           0           1          -2
           0           0           1          -3           0           0
           2          -1           0           0           2          -2
           0           0           2          -3           0           0
           1           3           0           0           2           4
           0           0           2           1           3          -4
           1           2           4          -4           2           1
           3          -8           1           2           4          -8
Redundant internal coordinates             R   N=          12
 -1.31506721E+00  0.00000000E+00  0.00000000E+00  1.31506721E+00  0.00000000E+00
  0.00000000E+00  2.05126032E+00  2.05126130E+00  3.14159265E+00  3.14159265E+00
  3.14159265E+00  3.14159265E+00
ZRed-IntVec                                I   N=          12
          -1          -1          -1          -1          -1          -1
           0           0           0           0           0           0
ZRed-FPVec                                 R   N=          12
  0.00000000E+00  0.00000000E+00  0.00000000E+00  0.00000000E+00  0.00000000E+00
  0.00000000E+00  0.00000000E+00  0.00000000E+00  0.00000000E+00  0.00000000E+00
  0.00000000E+00  0.00000000E+00
ZRed-Constraint1                           R   N=          12
 -1.31506721E+00  0.00000000E+00  0.00000000E+00  1.31506721E+00  0.00000000E+00
  0.00000000E+00  2.28807525E+00  2.28805197E+00  3.14159265E+00  3.14159265E+00
  3.14159265E+00  3.14159265E+00
ZRed-Constraint2                           R   N=          12
 -1.31506721E+00  0.00000000E+00  0.00000000E+00  1.31506721E+00  0.00000000E+00
  0.00000000E+00  0.00000000E+00  0.00000000E+00  0.00000000E+00  0.00000000E+00
  0.00000000E+00  0.00000000E+00
Number of contracted shells                I               20
Number of primitive shells                 I               38
Pure/Cartesian d shells                    I                0
Pure/Cartesian f shells                    I                0
Highest angular momentum                   I                2
Largest degree of contraction              I                6
Shell types                                I   N=          20
           0          -1          -1          -1          -1          -2
           0          -1          -1          -1          -1          -2
           0           0           0           1           0           0
           0           1
Number of primitives per shell             I   N=          20
           6           3           1           1           1           1
           6           3           1           1           1           1
           3           1           1           1           3           1
           1           1
Shell to atom map                          I   N=          20
           1           1           1           1           1           1
           2           2           2           2           2           2
           3           3           3           3           4           4
           4           4
Primitive exponents                        R   N=          38
  4.56324000E+03  6.82024000E+02  1.54973000E+02  4.44553000E+01  1.30290000E+01
  1.82773000E+00  2.09642000E+01  4.80331000E+00  1.45933000E+00  4.83456000E-01
  1.45585000E-01  4.38000000E-02  6.26000000E-01  4.56324000E+03  6.82024000E+02
  1.54973000E+02  4.44553000E+01  1.30290000E+01  1.82773000E+00  2.09642000E+01
  4.80331000E+00  1.45933000E+00  4.83456000E-01  1.45585000E-01  4.38000000E-02
  6.26000000E-01  3.38650000E+01  5.09479000E+00  1.15879000E+00  3.25840000E-01
  1.02741000E-01  7.50000000E-01  3.38650000E+01  5.09479000E+00  1.15879000E+00
  3.25840000E-01  1.02741000E-01  7.50000000E-01
Contraction coefficients                   R   N=          38
  1.96665025E-03  1.52306019E-02  7.61269097E-02  2.60801033E-01  6.16462078E-01
  2.21006028E-01  1.14660081E-01  9.19999648E-01 -3.03068213E-03  1.00000000E+00
  1.00000000E+00  1.00000000E+00  1.00000000E+00  1.96665025E-03  1.52306019E-02
  7.61269097E-02  2.60801033E-01  6.16462078E-01  2.21006028E-01  1.14660081E-01
  9.19999648E-01 -3.03068213E-03  1.00000000E+00  1.00000000E+00  1.00000000E+00
  1.00000000E+00  2.54938145E-02  1.90373109E-01  8.52161486E-01  1.00000000E+00
  1.00000000E+00  1.00000000E+00  2.54938145E-02  1.90373109E-01  8.52161486E-01
  1.00000000E+00  1.00000000E+00  1.00000000E+00
P(S=P) Contraction coefficients            R   N=          38
  0.00000000E+00  0.00000000E+00  0.00000000E+00  0.00000000E+00  0.00000000E+00
  0.00000000E+00  4.02486927E-02  2.37593957E-01  8.15853851E-01  1.00000000E+00
  1.00000000E+00  1.00000000E+00  0.00000000E+00  0.00000000E+00  0.00000000E+00
  0.00000000E+00  0.00000000E+00  0.00000000E+00  0.00000000E+00  4.02486927E-02
  2.37593957E-01  8.15853851E-01  1.00000000E+00  1.00000000E+00  1.00000000E+00
  0.00000000E+00  0.00000000E+00  0.00000000E+00  0.00000000E+00  0.00000000E+00
  0.00000000E+00  0.00000000E+00  0.00000000E+00  0.00000000E+00  0.00000000E+00
  0.00000000E+00  0.00000000E+00  0.00000000E+00
Coordinates of each shell                  R   N=          60
 -1.31506721E+00  0.00000000E+00  0.00000000E+00 -1.31506721E+00  0.00000000E+00
  0.00000000E+00 -1.31506721E+00  0.00000000E+00  0.00000000E+00 -1.31506721E+00
  0.00000000E+00  0.00000000E+00 -1.31506721E+00  0.00000000E+00  0.00000000E+00
 -1.31506721E+00  0.00000000E+00  0.00000000E+00  1.31506721E+00  0.00000000E+00
  0.00000000E+00  1.31506721E+00  0.00000000E+00  0.00000000E+00  1.31506721E+00
  0.00000000E+00  0.00000000E+00  1.31506721E+00  0.00000000E+00  0.00000000E+00
  1.31506721E+00  0.00000000E+00  0.00000000E+00  1.31506721E+00  0.00000000E+00
  0.00000000E+00 -3.36632753E+00 -4.39149372E-10 -6.12088006E-10 -3.36632753E+00
 -4.39149372E-10 -6.12088006E-10 -3.36632753E+00 -4.39149372E-10 -6.12088006E-10
 -3.36632753E+00 -4.39149372E-10 -6.12088006E-10  3.36632851E+00  4.37161060E-10
 -5.82007168E-10  3.36632851E+00  4.37161060E-10 -5.82007168E-10  3.36632851E+00
  4.37161060E-10 -5.82007168E-10  3.36632851E+00  4.37161060E-10 -5.82007168E-10
Num ILSW                                   I              100
ILSW                                       I   N=         100
           1           0           0           0           2           0
           0           0           0           0        4336          -1
           7           0           0           0           2           0
           0           0           0           0           1           0
           1           1           0           0           0           0
           0           0      100000           0          -1           0
           0           0           0           0           0           0
           0           0           0           1           0           0
           0 -2000000000           1           0           0           0
           0           0           4          52           0           0
           0           0          55           0           0           0
           0           0           0           4           0           1
           0           0           0           0           0           0
           0           0           0           0           0           0
           0           0           0           0           0           0
           0           0           0           0           0           0
           0           0           0           0
Num RLSW                                   I               52
RLSW                                       R   N=          52
  1.00000000E+00  1.00000000E+00  1.00000000E+00  1.00000000E+00  5.40000000E-01
  0.00000000E+00  0.00000000E+00  1.00000000E+00  0.00000000E+00  0.00000000E+00
  0.00000000E+00  0.00000000E+00  1.00000000E+00  0.00000000E+00  0.00000000E+00
  0.00000000E+00  0.00000000E+00  1.00000000E+00  0.00000000E+00  0.00000000E+00
  0.00000000E+00  0.00000000E+00  1.00000000E+00  0.00000000E+00  0.00000000E+00
  0.00000000E+00  0.00000000E+00  1.00000000E+00  0.00000000E+00  0.00000000E+00
  0.00000000E+00  0.00000000E+00  1.00000000E+00  0.00000000E+00  0.00000000E+00
  0.00000000E+00  0.00000000E+00  0.00000000E+00  1.00000000E+00  1.00000000E+00
  0.00000000E+00  1.00000000E+00  0.00000000E+00  0.00000000E+00  0.00000000E+00
  0.00000000E+00  0.00000000E+00  0.00000000E+00  0.00000000E+00  0.00000000E+00
  0.00000000E+00  0.00000000E+00
MxBond                                     I                2
NBond                                      I   N=           4
           2           2           1           1
IBond                                      I   N=           8
           2           3           1           4           1           0
           2           0
RBond                                      R   N=           8
  1.50000000E+00  1.00000000E+00  1.50000000E+00  1.00000000E+00  1.00000000E+00
  0.00000000E+00  1.00000000E+00  0.00000000E+00
Virial Ratio                               R      2.009723459014952E+00
SCF Energy                                 R     -7.687154021164433E+01
Total Energy                               R     -7.687154021164433E+01
S**2                                       R      7.522639417005168E-01
S**2 after annihilation                    R      7.500036083085395E-01
RMS Force                                  R      5.249756150144562E-05
RMS Density                                R      5.928865082026035E-09
Job Status                                 I                1
Nuclear derivative order                   I                1
External E-field                           R   N=          35
  0.00000000E+00  0.00000000E+00  0.00000000E+00  0.00000000E+00  0.00000000E+00
  0.00000000E+00  0.00000000E+00  0.00000000E+00  0.00000000E+00  0.00000000E+00
  0.00000000E+00  0.00000000E+00  0.00000000E+00  0.00000000E+00  0.00000000E+00
  0.00000000E+00  0.00000000E+00  0.00000000E+00  0.00000000E+00  0.00000000E+00
  0.00000000E+00  0.00000000E+00  0.00000000E+00  0.00000000E+00  0.00000000E+00
  0.00000000E+00  0.00000000E+00  0.00000000E+00  0.00000000E+00  0.00000000E+00
  0.00000000E+00  0.00000000E+00  0.00000000E+00  0.00000000E+00  0.00000000E+00
IOpCl                                      I                1
IROHF                                      I                0
Alpha Orbital Energies                     R   N=          56
 -1.09659567E+01 -1.09650021E+01 -1.17731015E+00 -9.79989132E-01 -8.82249898E-01
 -6.91360758E-01 -6.66990909E-01 -3.09960551E-01 -2.89749008E-01 -1.79231567E-01
 -1.43948063E-01 -1.12475417E-01 -9.83552152E-02 -9.59783646E-02 -8.69485443E-02
 -5.06028460E-02 -4.67892119E-02  2.13613970E-02  4.42333414E-02  1.25418249E-01
  2.00026512E-01  3.05735014E-01  3.18060647E-01  3.66454594E-01  3.72422593E-01
  4.63776610E-01  4.85084523E-01  5.08426897E-01  5.51384730E-01  7.21728252E-01
  7.36590273E-01  8.10051214E-01  8.85050805E-01  8.86691056E-01  1.14037231E+00
  1.14679914E+00  1.17887198E+00  1.18012477E+00  1.38876202E+00  1.47059453E+00
  1.48199273E+00  1.66591425E+00  2.02189928E+00  2.04134292E+00  2.24998856E+00
  2.39566875E+00  2.42393102E+00  2.42448952E+00  2.53703631E+00  2.55081975E+00
  2.58302051E+00  2.89703452E+00  2.95393707E+00  3.34801191E+00  2.32036259E+01
  2.40778042E+01
Beta Orbital Energies                      R   N=          56
 -1.09635775E+01 -1.09628148E+01 -1.13245759E+00 -9.63612078E-01 -8.76673121E-01
 -6.43617987E-01 -4.40776028E-01 -2.72977011E-01 -2.38806198E-01 -1.64156594E-01
 -1.55410912E-01 -1.14753851E-01 -1.01482945E-01 -9.90009562E-02 -8.51261773E-02
 -4.69329661E-02 -4.21261817E-02  1.66583452E-02  4.59912064E-02  1.31245433E-01
  2.09056299E-01  2.93740200E-01  3.17450789E-01  3.55854933E-01  3.71347509E-01
  4.42878322E-01  4.84200033E-01  5.32619453E-01  5.64659065E-01  7.55489920E-01
  7.62795759E-01  7.81234189E-01  9.21911666E-01  9.43794728E-01  1.15523084E+00
  1.16577402E+00  1.20782657E+00  1.22864705E+00  1.40514447E+00  1.49078900E+00
  1.49874004E+00  1.68994337E+00  2.04749674E+00  2.05528466E+00  2.27208090E+00
  2.42883780E+00  2.43518452E+00  2.44439588E+00  2.58829857E+00  2.59053025E+00
  2.59656936E+00  2.92647966E+00  3.04783683E+00  3.35957332E+00  2.32136982E+01
  2.40973962E+01
Alpha MO coefficients                      R   N=        3136
  3.98940093E-01  3.28152394E-01  6.28067577E-04 -3.17279620E-14  5.24686251E-13
  7.55868715E-03 -2.04935353E-03 -2.76440126E-13 -8.66643930E-13 -3.11773703E-03
  3.87631071E-04  2.34074366E-14  2.22997576E-13 -4.14636064E-04  1.55443354E-03
  4.90615111E-13  1.50409307E-13 -3.93723325E-04  4.65466516E-13  2.44114465E-05
  7.32843726E-04  5.53390899E-13  3.98955769E-01  3.28165266E-01 -6.28060501E-04
  1.60201590E-13  3.35436874E-13  7.55905457E-03  2.04929603E-03  2.39431286E-13
 -8.07328286E-13 -3.11811989E-03 -3.87237635E-04 -3.83037855E-15  2.05256530E-13
 -4.14927071E-04 -1.55435101E-03 -4.96081083E-13  1.26238358E-13 -3.93793044E-04
 -4.41493760E-13  2.44126331E-05  7.32966956E-04  5.85864984E-13  1.44550893E-04
 -2.83963087E-03  2.85727672E-03 -1.65918262E-03 -2.84106943E-13 -4.56406402E-13
  1.44550166E-04 -2.83982884E-03  2.85720725E-03  1.65926777E-03  2.71992319E-13
 -4.31007141E-13  3.99115512E-01  3.27736893E-01 -1.73520809E-04  1.04261017E-14
  4.30527381E-13  9.49360213E-03  1.31476214E-03 -5.73203521E-13 -5.41806255E-13
 -9.82078144E-03 -1.01276323E-02 -2.84298791E-13 -1.20340125E-12 -8.05724968E-03
 -2.25788235E-03 -1.06784094E-13 -4.89307099E-13 -1.81070365E-03  9.51510814E-13
  3.01831865E-05  3.19915900E-03  5.23770100E-13 -3.99099843E-01 -3.27724005E-01
 -1.73545380E-04 -1.24881977E-13 -2.37754872E-13 -9.49329992E-03  1.31484866E-03
 -5.13392779E-13  4.69384921E-13  9.82066488E-03 -1.01276454E-02 -2.90823898E-13
  1.19617877E-12  8.05723286E-03 -2.25794294E-03 -1.11908924E-13  4.78641512E-13
  1.81068677E-03  9.17821227E-13 -3.01822286E-05 -3.19912778E-03 -5.89515737E-13
 -4.84235923E-05 -5.27317556E-03 -1.68950248E-03 -2.27131508E-03 -8.92457675E-13
 -1.05387876E-12  4.84271155E-05  5.27305563E-03  1.68961330E-03 -2.27124638E-03
 -8.72747288E-13  9.91184103E-13 -8.91548448E-02 -1.44891944E-01  6.14291105E-02
 -2.31240457E-12 -3.04066132E-12  4.02200581E-01  8.14589210E-02 -4.55753638E-12
 -3.81513051E-12  2.13906628E-01  1.52930114E-02 -2.74336941E-12 -3.18350268E-12
 -4.15815718E-03 -2.03972895E-02 -3.85279130E-12 -6.70601789E-13 -7.90251888E-03
  2.79239536E-12  3.61549678E-03  2.12251178E-02  1.52251456E-12 -8.91548214E-02
 -1.44891905E-01 -6.14291529E-02  3.04275796E-12 -4.87408882E-12  4.02200479E-01
 -8.14589683E-02  6.01625340E-12 -8.56101721E-12  2.13906548E-01 -1.52930064E-02
  3.22805823E-12 -2.01167282E-12 -4.15817040E-03  2.03972926E-02  3.91402690E-12
 -2.06393900E-12 -7.90251413E-03 -2.30373185E-12  3.61549579E-03  2.12251075E-02
  2.74350453E-12  4.26970826E-02  4.55075648E-02 -1.86493664E-02  4.72411323E-03
  1.24121370E-13  3.06918789E-13  4.26970197E-02  4.55075118E-02 -1.86493568E-02
 -4.72410773E-03  3.73702208E-14 -8.15253297E-14 -6.81417775E-02 -1.12650003E-01
 -9.40079358E-02 -1.69996807E-11 -1.41981030E-11  3.21504504E-01 -1.26310099E-01
 -2.47747516E-11 -1.66227405E-11  2.72345654E-01 -2.81901918E-02 -9.27025716E-12
 -8.31152052E-12 -2.59045749E-01 -7.57414833E-02 -1.05627660E-13 -5.03118434E-12
 -3.67695285E-03  5.20651713E-12  2.67589262E-03  1.19473591E-02  2.06854599E-12
  6.81417916E-02  1.12650029E-01 -9.40076014E-02 -1.85332343E-11  1.54191861E-11
 -3.21504600E-01 -1.26309673E-01 -2.83204055E-11  2.02938037E-11 -2.72345714E-01
 -2.81900766E-02 -9.77899452E-12  8.53671081E-12  2.59045756E-01 -7.57414998E-02
 -1.06764997E-12  5.35547279E-12  3.67695886E-03  5.97661775E-12 -2.67589383E-03
 -1.19473720E-02 -4.05535995E-12  1.22237318E-01  1.56608427E-01 -4.32858093E-03
  2.01348200E-02  4.14193822E-12  6.74309776E-12 -1.22237075E-01 -1.56608161E-01
  4.32859768E-03  2.01347797E-02  4.18206188E-12 -6.44310622E-12  7.43555800E-03
  1.18232352E-02  1.88127889E-01  1.68663654E-11  3.32572163E-11 -2.94826224E-02
  2.59320412E-01  2.13561018E-11  4.63685584E-11 -7.47825212E-02  1.08968224E-01
  1.37972423E-11  2.22260107E-11 -8.04846997E-03  6.25736834E-03  4.73114274E-12
  5.38648890E-13 -3.22462336E-03  1.43430784E-12 -5.48344171E-05  5.47087609E-03
 -4.92053952E-12  7.43566306E-03  1.18234118E-02 -1.88128012E-01 -1.79511069E-11
  3.19734837E-11 -2.94831521E-02 -2.59320636E-01 -2.36722194E-11  4.53080650E-11
 -7.47830303E-02 -1.08968333E-01 -1.38168485E-11  2.17548297E-11 -8.04781701E-03
 -6.25756435E-03 -4.97226611E-12  6.23640514E-13 -3.22462262E-03  3.82396827E-13
 -5.48389758E-05  5.47086530E-03 -5.61342440E-12 -1.30479735E-01 -1.80447638E-01
  1.84189783E-03 -2.48353472E-02 -7.03719034E-12 -8.20249081E-12 -1.30479874E-01
 -1.80447882E-01  1.84190432E-03  2.48353731E-02  6.97762271E-12 -8.19538235E-12
 -9.58277427E-12 -1.67198529E-11 -4.28220889E-11  7.35723627E-02  1.82967302E-01
  5.15066865E-11 -6.32406557E-11  1.21397403E-01  3.01903542E-01 -1.58616851E-11
 -1.66409514E-10  8.12915801E-02  2.02164068E-01 -1.41733067E-09 -4.11082028E-10
 -2.25222822E-03 -5.60092276E-03  2.29051284E-12  2.88248605E-02  4.30174831E-14
  1.66260206E-12  1.15906771E-02 -6.37605225E-13 -7.83601842E-13  3.60797249E-11
  7.35723609E-02  1.82967298E-01  1.00922402E-12  6.00499316E-11  1.21397398E-01
  3.01903529E-01  7.74214728E-11 -1.29137759E-10  8.12915799E-02  2.02164067E-01
  1.41627084E-09 -4.15738569E-10 -2.25222728E-03 -5.60092042E-03  2.13551549E-12
 -2.88248622E-02  2.24726391E-12 -6.74065993E-12 -1.15906778E-02 -6.77198112E-12
 -3.02485907E-11 -5.11499277E-11 -1.02479785E-11  4.86587525E-03  1.21009584E-02
  7.36416670E-14  5.18785048E-11  6.90716946E-11 -2.23597358E-12  4.86587112E-03
  1.21009481E-02 -7.98404589E-12 -1.38699696E-11  7.10819537E-12  1.82153188E-01
 -7.32450178E-02  4.66288173E-11  8.44756009E-12  3.00794842E-01 -1.20951644E-01
 -6.71843672E-11 -1.67678560E-10  2.01811426E-01 -8.11496249E-02 -1.16671508E-09
 -3.43596992E-10 -2.12068450E-03  8.52635576E-04 -4.69392008E-14 -1.12761630E-02
  2.33313103E-12  3.35081306E-12  2.80427376E-02  1.23152308E-11  2.12866287E-11
 -2.45972810E-11  1.82153184E-01 -7.32450165E-02 -6.85613366E-11 -4.13756914E-11
  3.00794832E-01 -1.20951640E-01  4.30749009E-11 -1.81860192E-10  2.01811427E-01
 -8.11496252E-02  1.16619995E-09 -3.44653266E-10 -2.12068197E-03  8.52634557E-04
 -2.03058324E-12  1.12761633E-02 -1.68985707E-12 -2.67518730E-12 -2.80427383E-02
 -6.54984677E-12 -5.23526746E-11 -7.21715496E-11 -7.49858936E-12  1.33787840E-02
 -5.37969968E-03  8.22650767E-12  4.07350162E-11  6.43686761E-11 -1.07867055E-11
  1.33787730E-02 -5.37969523E-03 -2.98930364E-11 -5.22019439E-11 -2.10199184E-11
  8.03591804E-02  1.99845767E-01  1.70716872E-10 -2.72300797E-11  1.30370849E-01
  3.24220044E-01 -5.69592567E-11 -6.44025995E-10  1.68247670E-01  4.18416159E-01
 -3.38880401E-09 -1.06103682E-09  4.84108750E-02  1.20392994E-01  1.05611602E-11
 -2.80792349E-02  9.54899145E-13 -1.08172299E-11 -1.12908206E-02  2.60867281E-11
  4.58590099E-11  1.00687430E-11 -8.03591828E-02 -1.99845773E-01 -1.57207921E-10
  1.99332118E-11 -1.30370851E-01 -3.24220047E-01  1.62764865E-10 -5.77855866E-10
 -1.68247676E-01 -4.18416173E-01  3.42973528E-09 -1.02758437E-09 -4.84108792E-02
 -1.20393004E-01 -3.17580607E-12 -2.80792307E-02 -4.16217352E-12  8.48199655E-12
 -1.12908189E-02 -6.31346038E-11 -2.68441943E-10 -4.21006323E-10 -1.44005454E-11
  9.39366932E-03  2.33611687E-02  4.22891300E-11  2.22482312E-10  3.39689693E-10
 -1.15967170E-11 -9.39366770E-03 -2.33611646E-02  8.00936972E-12  1.42907283E-11
 -3.47872985E-11  1.96271159E-01 -7.89218436E-02 -6.60987187E-11 -4.41819805E-11
  3.14282329E-01 -1.26374833E-01  1.92271092E-10  1.15279317E-10  4.27502829E-01
 -1.71901504E-01 -2.00498370E-09 -5.78659377E-10  1.52911687E-01 -6.14865557E-02
 -4.23364744E-12  1.19453509E-02  1.06289898E-12  1.09574142E-11 -2.97069397E-02
 -1.78654216E-11 -3.08417646E-11  3.46541679E-11 -1.96271164E-01  7.89218454E-02
  1.06756301E-10  6.33175014E-11 -3.14282332E-01  1.26374834E-01 -5.68277534E-12
  2.37444280E-10 -4.27502840E-01  1.71901508E-01  2.08438461E-09 -5.56170261E-10
 -1.52911699E-01  6.14865606E-02  1.44237780E-11  1.19453498E-02  3.51109847E-12
 -1.64425055E-11 -2.97069368E-02  1.57410866E-12  3.01528688E-11  6.96869382E-11
 -3.49567088E-12  2.47929708E-02 -9.96940244E-03 -4.73733287E-11 -1.23804495E-10
 -1.96826495E-10  1.86144531E-12 -2.47929665E-02  9.96940073E-03 -6.02901565E-02
 -1.03656022E-01  2.25586076E-02 -1.06410396E-12 -7.25914624E-11  3.22994847E-01
  2.55059553E-02 -1.53256711E-11 -1.42242090E-10  1.01148137E+00  9.10676129E-02
 -1.35497852E-11 -2.09394220E-10  5.02387351E+00  1.62698426E+00 -9.88776402E-11
 -2.50766929E-10  2.78289831E-02  6.41569897E-12  3.80280503E-03 -4.02731536E-02
 -6.72648470E-12  6.02902143E-02  1.03656119E-01  2.25582916E-02 -2.98369472E-11
  7.25128627E-11 -3.22995109E-01  2.55054845E-02 -4.03984550E-11  1.28903258E-10
 -1.01148242E+00  9.10669974E-02 -1.33608479E-10  2.11505390E-10 -5.02387295E+00
  1.62698557E+00  1.80596144E-10  2.62328144E-10 -2.78290212E-02  7.15569811E-12
 -3.80280902E-03  4.02732113E-02  9.55683396E-12 -9.39550450E-02 -2.85921272E-01
 -4.80489696E-01  1.76539363E-02  3.78190357E-12 -1.12198941E-11  9.39552281E-02
  2.85921891E-01  4.80490715E-01  1.76539971E-02 -1.39197478E-13  1.22384257E-11
  2.38913057E-02  4.17169434E-02  3.20756398E-02 -1.95888875E-12  5.23578155E-12
 -1.53943772E-01  6.23437546E-02  5.48747274E-13  1.83913380E-11 -3.10737071E-01
  6.19800315E-02 -2.08842906E-11 -3.40531527E-12  9.45844226E-01 -5.36505674E-01
 -1.90054331E-10 -6.95651005E-11  1.06788101E-02 -4.22136643E-12  6.08689838E-04
 -1.72272661E-02 -4.37390064E-12  2.38912380E-02  4.17168249E-02 -3.20756567E-02
 -3.07423867E-13  7.72679648E-12 -1.53943384E-01 -6.23437438E-02 -7.56096115E-12
  2.34230419E-11 -3.10735703E-01 -6.19804741E-02  1.80955172E-11  4.28360856E-12
  9.45850540E-01  5.36503292E-01  2.11300677E-10 -1.21770298E-10  1.06788314E-02
  4.23595206E-12  6.08693631E-04 -1.72272950E-02 -4.01302778E-12 -2.31332555E-02
  4.00032460E-02 -2.70853531E-01 -8.88307877E-03 -4.53003892E-12 -4.70723763E-12
 -2.31333267E-02  4.00029530E-02 -2.70853752E-01  8.88307075E-03  4.76917211E-12
 -4.51527084E-12 -1.19685772E-03 -1.38775234E-03 -9.78748758E-02 -3.54471770E-11
 -3.52584124E-11 -3.10662059E-02 -1.45499434E-01 -4.98596288E-11 -4.81943692E-11
  2.50558193E-01 -2.60754488E-01 -1.65277919E-10 -1.25556457E-10  2.79953736E-01
  7.97517514E-01  3.94251001E-11  1.17124444E-10  2.54128235E-02 -1.97105654E-11
  2.47719769E-03 -3.88518601E-02 -3.16513004E-13 -1.19678813E-03 -1.38763070E-03
  9.78748684E-02  3.46704894E-11 -3.82941857E-11 -3.10666066E-02  1.45499408E-01
  4.82930250E-11 -4.63902217E-11  2.50556617E-01  2.60754799E-01  1.66169990E-10
 -1.52923455E-10  2.79935303E-01 -7.97510233E-01 -3.88242065E-11  2.55771931E-10
  2.54128120E-02  1.86056167E-11  2.47719471E-03 -3.88518465E-02  7.26300898E-13
 -5.80439060E-02 -2.02235584E-01 -6.38017144E-01  2.37664548E-02 -2.32275454E-12
  5.16501128E-12 -5.80439524E-02 -2.02235470E-01 -6.38017432E-01 -2.37664073E-02
  2.24436448E-12  5.96049390E-12  6.98535243E-12  1.21878946E-11  2.79592248E-11
 -2.59938685E-02 -6.49584339E-02 -3.09572599E-11  3.32255598E-11 -3.07913036E-02
 -7.69730341E-02 -1.39133718E-10  2.29597435E-11 -7.62036786E-02 -1.90444218E-01
  2.81625173E-09  2.91825649E-10  2.30405480E-01  5.75810617E-01 -9.79820234E-12
 -1.61671654E-02 -7.41221919E-13  1.41911775E-11 -6.47013425E-03 -4.79710673E-12
 -8.11061435E-12 -3.49481011E-11 -2.59938777E-02 -6.49584569E-02  1.90018291E-11
 -5.83784693E-11 -3.07913169E-02 -7.69730675E-02  2.23736851E-10 -1.82758795E-11
 -7.62037030E-02 -1.90444279E-01 -2.69357269E-09  1.30860446E-09  2.30405626E-01
  5.75810982E-01 -7.86398681E-12  1.61671671E-02 -7.82338129E-13  1.43113369E-11
  6.47013493E-03  2.47796702E-11  5.05815959E-11  1.00836805E-10 -7.72955836E-12
  2.75411777E-03  6.88045870E-03  6.05352852E-12 -1.11082023E-11 -3.17473087E-11
  1.16131156E-11  2.75412207E-03  6.88046945E-03  2.62620550E-12  4.36642083E-12
 -1.03969763E-11 -6.45979101E-02  2.58467716E-02 -9.61395134E-12 -1.67440814E-11
 -8.36528198E-02  3.34815024E-02 -2.14073610E-10 -1.86480367E-10 -1.87381948E-01
  7.49799377E-02  2.69827221E-10  1.07116566E-10  5.74107108E-01 -2.29723030E-01
  3.86215860E-12  6.34669127E-03  1.18496733E-13 -8.05184074E-12 -1.58637063E-02
 -4.85257925E-12 -8.37999578E-12  1.67876655E-11 -6.45979345E-02  2.58467813E-02
  2.29241717E-11  2.47901927E-11 -8.36528545E-02  3.34815163E-02  2.02102640E-10
 -1.69364112E-10 -1.87382019E-01  7.49799658E-02 -3.42901360E-10 -2.93052142E-10
  5.74107488E-01 -2.29723182E-01  2.71336512E-12 -6.34669176E-03  8.26840481E-13
 -2.93503581E-12  1.58637076E-02 -6.12040014E-12 -2.99682517E-11 -2.01750479E-10
  3.74519916E-12  6.37218577E-03 -2.54880034E-03 -5.85521596E-12  1.91030935E-11
  1.56879096E-10 -4.97182178E-12  6.37219613E-03 -2.54880449E-03  2.51994709E-02
  4.27903808E-02 -6.79815428E-02  6.43232097E-12  5.59357677E-11 -1.15596454E-01
 -1.08212760E-01  1.97711777E-12  6.57546828E-11 -5.87801289E-01 -1.57734867E-02
  5.72673346E-11  3.02363755E-10  2.04931446E+00  1.53244280E+00  4.92882866E-11
  1.31003528E-10 -2.96936021E-02  6.24723830E-12 -2.94532938E-03  4.52904401E-02
  1.34214856E-11 -2.51994776E-02 -4.27903925E-02 -6.79816756E-02 -2.75852383E-12
 -4.32965119E-11  1.15596551E-01 -1.08212961E-01 -3.02774561E-12 -5.26485841E-11
  5.87800731E-01 -1.57740546E-02  2.25140488E-11 -2.63798471E-10 -2.04931423E+00
  1.53244561E+00  2.08348578E-10 -2.22672880E-10  2.96935627E-02  1.74417735E-12
  2.94532514E-03 -4.52903807E-02 -1.34309805E-11  9.36206488E-02  2.16215287E-01
  9.14110078E-01  3.62497272E-03  4.57026354E-12  1.35247961E-11 -9.36206178E-02
 -2.16215013E-01 -9.14109418E-01  3.62502819E-03  4.39733950E-12 -1.39877509E-11
 -2.16261686E-11 -3.92236615E-11 -1.87733054E-11 -3.11803310E-02 -7.75313705E-02
  1.07966556E-10 -1.35623657E-11 -4.11412148E-02 -1.02299218E-01  2.35835015E-10
 -9.46201286E-10 -1.19105101E-01 -2.96159988E-01 -3.15596170E-08 -9.08653116E-09
  7.77835964E-01  1.93413625E+00 -1.77241023E-11  5.62647589E-06  1.17946498E-12