 Entering Gaussian System, Link 0=g16
 Initial command:
 /home/szhao/Apps/g16/l1.exe "/home/szhao/tmp/Gau-13668.inp" -scrdir="/home/szhao/tmp/"
 Default is to use a total of  16 processors:
                               16 via shared-memory
                                1 via Linda
 Entering Link 1 = /home/szhao/Apps/g16/l1.exe PID=     13671.
  
 Copyright (c) 1988,1990,1992,1993,1995,1998,2003,2009,2016,
            Gaussian, Inc.  All Rights Reserved.
  
 This is part of the Gaussian(R) 16 program.  It is based on
 the Gaussian(R) 09 system (copyright 2009, Gaussian, Inc.),
 the Gaussian(R) 03 system (copyright 2003, Gaussian, Inc.),
 the Gaussian(R) 98 system (copyright 1998, Gaussian, Inc.),
 the Gaussian(R) 94 system (copyright 1995, Gaussian, Inc.),
 the Gaussian 92(TM) system (copyright 1992, Gaussian, Inc.),
 the Gaussian 90(TM) system (copyright 1990, Gaussian, Inc.),
 the Gaussian 88(TM) system (copyright 1988, Gaussian, Inc.),
 the Gaussian 86(TM) system (copyright 1986, Carnegie Mellon
 University), and the Gaussian 82(TM) system (copyright 1983,
 Carnegie Mellon University). Gaussian is a federally registered
 trademark of Gaussian, Inc.
  
 This software contains proprietary and confidential information,
 including trade secrets, belonging to Gaussian, Inc.
  
 This software is provided under written license and may be
 used, copied, transmitted, or stored only in accord with that
 written license.
  
 The following legend is applicable only to US Government
 contracts under FAR:
  
                    RESTRICTED RIGHTS LEGEND
  
 Use, reproduction and disclosure by the US Government is
 subject to restrictions as set forth in subparagraphs (a)
 and (c) of the Commercial Computer Software - Restricted
 Rights clause in FAR 52.227-19.
  
 Gaussian, Inc.
 340 Quinnipiac St., Bldg. 40, Wallingford CT 06492
  
  
 ---------------------------------------------------------------
 Warning -- This program may not be used in any manner that
 competes with the business of Gaussian, Inc. or will provide
 assistance to any competitor of Gaussian, Inc.  The licensee
 of this program is prohibited from giving any competitor of
 Gaussian, Inc. access to this program.  By using this program,
 the user acknowledges that Gaussian, Inc. is engaged in the
 business of creating and licensing software in the field of
 computational chemistry and represents and warrants to the
 licensee that it is not a competitor of Gaussian, Inc. and that
 it will not use this program in any manner prohibited above.
 ---------------------------------------------------------------
  

 Cite this work as:
 Gaussian 16, Revision A.03,
 M. J. Frisch, G. W. Trucks, H. B. Schlegel, G. E. Scuseria, 
 M. A. Robb, J. R. Cheeseman, G. Scalmani, V. Barone, 
 G. A. Petersson, H. Nakatsuji, X. Li, M. Caricato, A. V. Marenich, 
 J. Bloino, B. G. Janesko, R. Gomperts, B. Mennucci, H. P. Hratchian, 
 J. V. Ortiz, A. F. Izmaylov, J. L. Sonnenberg, D. Williams-Young, 
 F. Ding, F. Lipparini, F. Egidi, J. Goings, B. Peng, A. Petrone, 
 T. Henderson, D. Ranasinghe, V. G. Zakrzewski, J. Gao, N. Rega, 
 G. Zheng, W. Liang, M. Hada, M. Ehara, K. Toyota, R. Fukuda, 
 J. Hasegawa, M. Ishida, T. Nakajima, Y. Honda, O. Kitao, H. Nakai, 
 T. Vreven, K. Throssell, J. A. Montgomery, Jr., J. E. Peralta, 
 F. Ogliaro, M. J. Bearpark, J. J. Heyd, E. N. Brothers, K. N. Kudin, 
 V. N. Staroverov, T. A. Keith, R. Kobayashi, J. Normand, 
 K. Raghavachari, A. P. Rendell, J. C. Burant, S. S. Iyengar, 
 J. Tomasi, M. Cossi, J. M. Millam, M. Klene, C. Adamo, R. Cammi, 
 J. W. Ochterski, R. L. Martin, K. Morokuma, O. Farkas, 
 J. B. Foresman, and D. J. Fox, Gaussian, Inc., Wallingford CT, 2016.
 
 ******************************************
 Gaussian 16:  ES64L-G16RevA.03 25-Dec-2016
                19-Nov-2024 
 ******************************************
 %chk=opt.chk
 %mem=16GB
 %nprocshared=24
 Will use up to   24 processors via shared memory.
 --------------------------------------------
 #p opt UM062X/6-311+G** nosymm int=superfine
 --------------------------------------------
 1/18=20,19=15,26=5,38=1/1,3;
 2/9=110,12=2,15=1,17=6,18=5,40=1/2;
 3/5=4,6=6,7=111,11=2,25=1,30=1,71=1,74=-55,75=-7,116=2/1,2,3;
 4//1;
 5/5=2,38=5/2;
 6/7=2,8=2,9=2,10=2,28=1/1;
 7/30=1/1,2,3,16;
 1/18=20,19=15,26=5/3(2);
 2/9=110,15=1/2;
 99//99;
 2/9=110,15=1/2;
 3/5=4,6=6,7=111,11=2,25=1,30=1,71=1,74=-55,75=-7,116=2/1,2,3;
 4/5=5,16=3,69=1/1;
 5/5=2,38=5/2;
 7/30=1/1,2,3,16;
 1/18=20,19=15,26=5/3(-5);
 2/9=110,15=1/2;
 6/7=2,8=2,9=2,10=2,19=2,28=1/1;
 99/9=1/99;
 Leave Link    1 at Tue Nov 19 13:07:40 2024, MaxMem=  2147483648 cpu:               1.1 elap:               0.1
 (Enter /home/szhao/Apps/g16/l101.exe)
 -------------------
 Title Card Required
 -------------------
 Symbolic Z-matrix:
 Charge =  1 Multiplicity = 2
 C                    -1   -0.74561   0.        0. 
 C                    -1    0.74561   0.        0. 
 H                    0    -2.04289   0.        0. 
 H                    0     2.04288   0.        0. 
 
 ITRead=  2  2  0  0
 MicOpt= -2 -2 -1 -1
 NAtoms=      4 NQM=        2 NQMF=       2 NMMI=      0 NMMIF=      0
                NMic=       0 NMicF=      0.
                    Isotopes and Nuclear Properties:
 (Nuclear quadrupole moments (NQMom) in fm**2, nuclear magnetic moments (NMagM)
  in nuclear magnetons)

  Atom         1           2           3           4
 IAtWgt=          12          12           1           1
 AtmWgt=  12.0000000  12.0000000   1.0078250   1.0078250
 NucSpn=           0           0           1           1
 AtZEff=  -0.0000000  -0.0000000  -0.0000000  -0.0000000
 NQMom=    0.0000000   0.0000000   0.0000000   0.0000000
 NMagM=    0.0000000   0.0000000   2.7928460   2.7928460
 AtZNuc=   6.0000000   6.0000000   1.0000000   1.0000000
 Leave Link  101 at Tue Nov 19 13:07:41 2024, MaxMem=  2147483648 cpu:              18.5 elap:               0.8
 (Enter /home/szhao/Apps/g16/l103.exe)

 GradGradGradGradGradGradGradGradGradGradGradGradGradGradGradGradGradGrad
 Berny optimization.
 Initialization pass.
                           ----------------------------
                           !    Initial Parameters    !
                           ! (Angstroms and Degrees)  !
 --------------------------                            --------------------------
 ! Name  Definition              Value          Derivative Info.                !
 --------------------------------------------------------------------------------
 ! X1    R(1,-1)                -0.7456         Frozen                          !
 ! Y1    R(1,-2)                 0.0            Frozen                          !
 ! Z1    R(1,-3)                 0.0            Frozen                          !
 ! X2    R(2,-1)                 0.7456         Frozen                          !
 ! Y2    R(2,-2)                 0.0            Frozen                          !
 ! Z2    R(2,-3)                 0.0            Frozen                          !
 ! R1    R(1,3)                  1.2973         estimate D2E/DX2                !
 ! R2    R(2,4)                  1.2973         estimate D2E/DX2                !
 ! A1    L(2,1,3,-2,-1)        180.0            estimate D2E/DX2                !
 ! A2    L(1,2,4,-2,-1)        180.0            estimate D2E/DX2                !
 ! A3    L(2,1,3,-3,-2)        180.0            estimate D2E/DX2                !
 ! A4    L(1,2,4,-3,-2)        180.0            estimate D2E/DX2                !
 --------------------------------------------------------------------------------
 Trust Radius=3.00D-01 FncErr=1.00D-07 GrdErr=1.00D-07 EigMax=2.50D+02 EigMin=1.00D-04
 Number of steps in this run=     22 maximum allowed number of steps=    100.
 GradGradGradGradGradGradGradGradGradGradGradGradGradGradGradGradGradGrad

 Leave Link  103 at Tue Nov 19 13:07:41 2024, MaxMem=  2147483648 cpu:               0.4 elap:               0.0
 (Enter /home/szhao/Apps/g16/l202.exe)
                          Input orientation:                          
 ---------------------------------------------------------------------
 Center     Atomic      Atomic             Coordinates (Angstroms)
 Number     Number       Type             X           Y           Z
 ---------------------------------------------------------------------
      1          6           0       -0.745611    0.000000    0.000000
      2          6           0        0.745611    0.000000    0.000000
      3          1           0       -2.042894    0.000000    0.000000
      4          1           0        2.042881    0.000000    0.000000
 ---------------------------------------------------------------------
                    Distance matrix (angstroms):
                    1          2          3          4
     1  C    0.000000
     2  C    1.491222   0.000000
     3  H    1.297283   2.788505   0.000000
     4  H    2.788492   1.297270   4.085774   0.000000
 Symmetry turned off by external request.
 Stoichiometry    C2H2(1+,2)
 Framework group  C*V[C*(HCCH)]
 Deg. of freedom     3
 Full point group                 C*V     NOp   4
 Rotational constants (GHZ):           0.0000000          23.2309584          23.2309584
 Leave Link  202 at Tue Nov 19 13:07:41 2024, MaxMem=  2147483648 cpu:               0.1 elap:               0.0
 (Enter /home/szhao/Apps/g16/l301.exe)
 Standard basis: 6-311+G(d,p) (5D, 7F)
 Ernie: Thresh=  0.10000D-02 Tol=  0.10000D-05 Strict=F.
    56 basis functions,    88 primitive gaussians,    58 cartesian basis functions
     7 alpha electrons        6 beta electrons
       nuclear repulsion energy        20.0767550481 Hartrees.
 IExCor= 4336 DFT=T Ex+Corr=M062X ExCW=0 ScaHFX=  0.540000
 ScaDFX=  1.000000  1.000000  1.000000  1.000000 ScalE2=  1.000000  1.000000
 IRadAn=      7 IRanWt=     -1 IRanGd=            0 ICorTp=0 IEmpDi=  4
 NAtoms=    4 NActive=    4 NUniq=    4 SFac= 1.00D+00 NAtFMM=   60 NAOKFM=F Big=F
 Integral buffers will be    131072 words long.
 Raffenetti 2 integral format.
 Two-electron integral symmetry is turned off.
 Leave Link  301 at Tue Nov 19 13:07:41 2024, MaxMem=  2147483648 cpu:               1.2 elap:               0.1
 (Enter /home/szhao/Apps/g16/l302.exe)
 NPDir=0 NMtPBC=     1 NCelOv=     1 NCel=       1 NClECP=     1 NCelD=      1
         NCelK=      1 NCelE2=     1 NClLst=     1 CellRange=     0.0.
 One-electron integrals computed using PRISM.
 NBasis=    56 RedAO= T EigKep=  3.25D-04  NBF=    56
 NBsUse=    56 1.00D-06 EigRej= -1.00D+00 NBFU=    56
 Precomputing XC quadrature grid using
 IXCGrd= 4 IRadAn=           7 IRanWt=          -1 IRanGd=           0 AccXCQ= 0.00D+00.
 Generated NRdTot=       0 NPtTot=           0 NUsed=           0 NTot=          32
 NSgBfM=    58    58    58    58    58 MxSgAt=     4 MxSgA2=     4.
 Leave Link  302 at Tue Nov 19 13:07:41 2024, MaxMem=  2147483648 cpu:               4.6 elap:               0.2
 (Enter /home/szhao/Apps/g16/l303.exe)
 DipDrv:  MaxL=1.
 Leave Link  303 at Tue Nov 19 13:07:41 2024, MaxMem=  2147483648 cpu:               0.9 elap:               0.0
 (Enter /home/szhao/Apps/g16/l401.exe)
 ExpMin= 4.38D-02 ExpMax= 4.56D+03 ExpMxC= 6.82D+02 IAcc=3 IRadAn=         7 AccDes= 0.00D+00
 Harris functional with IExCor= 1009 and IRadAn=       7 diagonalized for initial guess.
 HarFok:  IExCor= 1009 AccDes= 0.00D+00 IRadAn=         7 IDoV= 1 UseB2=F ITyADJ=14
 ICtDFT=  3500011 ScaDFX=  1.000000  1.000000  1.000000  1.000000
 FoFCou: FMM=F IPFlag=           0 FMFlag=      100000 FMFlg1=           0
         NFxFlg=           0 DoJE=T BraDBF=F KetDBF=T FulRan=T
         wScrn=  0.000000 ICntrl=       500 IOpCl=  0 I1Cent=   200000004 NGrid=           0
         NMat0=    1 NMatS0=      1 NMatT0=    0 NMatD0=    1 NMtDS0=    0 NMtDT0=    0
 Symmetry not used in FoFCou.
 Harris En= -76.8275381276450    
 JPrj=0 DoOrth=F DoCkMO=F.
 Initial guess <Sx>= 0.0000 <Sy>= 0.0000 <Sz>= 0.5000 <S**2>= 0.7500 S= 0.5000
 Leave Link  401 at Tue Nov 19 13:07:42 2024, MaxMem=  2147483648 cpu:               4.6 elap:               0.2
 (Enter /home/szhao/Apps/g16/l502.exe)
 Keep R1 and R2 ints in memory in canonical form, NReq=23774294.
 FoFCou: FMM=F IPFlag=           0 FMFlag=           0 FMFlg1=           0
         NFxFlg=           0 DoJE=F BraDBF=F KetDBF=F FulRan=T
         wScrn=  0.000000 ICntrl=       600 IOpCl=  0 I1Cent=           0 NGrid=           0
         NMat0=    1 NMatS0=   1596 NMatT0=    0 NMatD0=    1 NMtDS0=    0 NMtDT0=    0
 Symmetry not used in FoFCou.
 Two-electron integral symmetry not used.
 UHF open shell SCF:
 Using DIIS extrapolation, IDIIS=  1040.
 NGot=  2147483648 LenX=  2144926146 LenY=  2144922341
 Requested convergence on RMS density matrix=1.00D-08 within 128 cycles.
 Requested convergence on MAX density matrix=1.00D-06.
 Requested convergence on             energy=1.00D-06.
 No special actions if energy rises.

 Cycle   1  Pass 1  IDiag  1:
 E= -76.7833914311009    
 DIIS: error= 2.31D-02 at cycle   1 NSaved=   1.
 NSaved= 1 IEnMin= 1 EnMin= -76.7833914311009     IErMin= 1 ErrMin= 2.31D-02
 ErrMax= 2.31D-02  0.00D+00 EMaxC= 1.00D-01 BMatC= 4.75D-02 BMatP= 4.75D-02
 IDIUse=3 WtCom= 7.69D-01 WtEn= 2.31D-01
 Coeff-Com:  0.100D+01
 Coeff-En:   0.100D+01
 Coeff:      0.100D+01
 Gap=     0.339 Goal=   None    Shift=    0.000
 Gap=     0.195 Goal=   None    Shift=    0.000
 GapD=    0.195 DampG=1.000 DampE=0.500 DampFc=0.5000 IDamp=-1.
 Damping current iteration by 5.00D-01
 RMSDP=2.05D-03 MaxDP=3.15D-02              OVMax= 5.06D-02

 Cycle   2  Pass 1  IDiag  1:
 E= -76.7878646917545     Delta-E=       -0.004473260654 Rises=F Damp=T
 DIIS: error= 1.08D-02 at cycle   2 NSaved=   2.
 NSaved= 2 IEnMin= 2 EnMin= -76.7878646917545     IErMin= 2 ErrMin= 1.08D-02
 ErrMax= 1.08D-02  0.00D+00 EMaxC= 1.00D-01 BMatC= 1.11D-02 BMatP= 4.75D-02
 IDIUse=3 WtCom= 8.92D-01 WtEn= 1.08D-01
 Coeff-Com: -0.745D+00 0.174D+01
 Coeff-En:   0.000D+00 0.100D+01
 Coeff:     -0.664D+00 0.166D+01
 Gap=     0.317 Goal=   None    Shift=    0.000
 Gap=     0.194 Goal=   None    Shift=    0.000
 RMSDP=1.16D-03 MaxDP=1.71D-02 DE=-4.47D-03 OVMax= 1.89D-02

 Cycle   3  Pass 1  IDiag  1:
 E= -76.7922654839962     Delta-E=       -0.004400792242 Rises=F Damp=F
 DIIS: error= 2.60D-03 at cycle   3 NSaved=   3.
 NSaved= 3 IEnMin= 3 EnMin= -76.7922654839962     IErMin= 3 ErrMin= 2.60D-03
 ErrMax= 2.60D-03  0.00D+00 EMaxC= 1.00D-01 BMatC= 4.27D-04 BMatP= 1.11D-02
 IDIUse=3 WtCom= 9.74D-01 WtEn= 2.60D-02
 Coeff-Com: -0.234D+00 0.449D+00 0.785D+00
 Coeff-En:   0.000D+00 0.000D+00 0.100D+01
 Coeff:     -0.228D+00 0.437D+00 0.791D+00
 Gap=     0.318 Goal=   None    Shift=    0.000
 Gap=     0.195 Goal=   None    Shift=    0.000
 RMSDP=1.68D-04 MaxDP=3.80D-03 DE=-4.40D-03 OVMax= 5.94D-03

 Cycle   4  Pass 1  IDiag  1:
 E= -76.7924112363936     Delta-E=       -0.000145752397 Rises=F Damp=F
 DIIS: error= 5.97D-04 at cycle   4 NSaved=   4.
 NSaved= 4 IEnMin= 4 EnMin= -76.7924112363936     IErMin= 4 ErrMin= 5.97D-04
 ErrMax= 5.97D-04  0.00D+00 EMaxC= 1.00D-01 BMatC= 1.42D-05 BMatP= 4.27D-04
 IDIUse=3 WtCom= 9.94D-01 WtEn= 5.97D-03
 Coeff-Com:  0.810D-01-0.163D+00-0.191D+00 0.127D+01
 Coeff-En:   0.000D+00 0.000D+00 0.000D+00 0.100D+01
 Coeff:      0.805D-01-0.162D+00-0.190D+00 0.127D+01
 Gap=     0.318 Goal=   None    Shift=    0.000
 Gap=     0.195 Goal=   None    Shift=    0.000
 RMSDP=7.32D-05 MaxDP=1.42D-03 DE=-1.46D-04 OVMax= 2.72D-03

 Cycle   5  Pass 1  IDiag  1:
 E= -76.7924244495110     Delta-E=       -0.000013213117 Rises=F Damp=F
 DIIS: error= 1.76D-04 at cycle   5 NSaved=   5.
 NSaved= 5 IEnMin= 5 EnMin= -76.7924244495110     IErMin= 5 ErrMin= 1.76D-04
 ErrMax= 1.76D-04  0.00D+00 EMaxC= 1.00D-01 BMatC= 1.72D-06 BMatP= 1.42D-05
 IDIUse=3 WtCom= 9.98D-01 WtEn= 1.76D-03
 Coeff-Com:  0.911D-02-0.160D-01-0.543D-01-0.251D+00 0.131D+01
 Coeff-En:   0.000D+00 0.000D+00 0.000D+00 0.000D+00 0.100D+01
 Coeff:      0.909D-02-0.160D-01-0.542D-01-0.251D+00 0.131D+01
 Gap=     0.318 Goal=   None    Shift=    0.000
 Gap=     0.195 Goal=   None    Shift=    0.000
 RMSDP=2.94D-05 MaxDP=4.79D-04 DE=-1.32D-05 OVMax= 9.82D-04

 Cycle   6  Pass 1  IDiag  1:
 E= -76.7924262581184     Delta-E=       -0.000001808607 Rises=F Damp=F
 DIIS: error= 2.94D-05 at cycle   6 NSaved=   6.
 NSaved= 6 IEnMin= 6 EnMin= -76.7924262581184     IErMin= 6 ErrMin= 2.94D-05
 ErrMax= 2.94D-05  0.00D+00 EMaxC= 1.00D-01 BMatC= 1.15D-07 BMatP= 1.72D-06
 IDIUse=1 WtCom= 1.00D+00 WtEn= 0.00D+00
 Coeff-Com: -0.696D-02 0.141D-01 0.182D-01-0.973D-01-0.102D-01 0.108D+01
 Coeff:     -0.696D-02 0.141D-01 0.182D-01-0.973D-01-0.102D-01 0.108D+01
 Gap=     0.318 Goal=   None    Shift=    0.000
 Gap=     0.195 Goal=   None    Shift=    0.000
 RMSDP=6.68D-06 MaxDP=1.12D-04 DE=-1.81D-06 OVMax= 1.86D-04

 Cycle   7  Pass 1  IDiag  1:
 E= -76.7924262730900     Delta-E=       -0.000000014972 Rises=F Damp=F
 DIIS: error= 4.24D-05 at cycle   7 NSaved=   7.
 NSaved= 7 IEnMin= 7 EnMin= -76.7924262730900     IErMin= 6 ErrMin= 2.94D-05
 ErrMax= 4.24D-05  0.00D+00 EMaxC= 1.00D-01 BMatC= 2.14D-07 BMatP= 1.15D-07
 IDIUse=1 WtCom= 1.00D+00 WtEn= 0.00D+00
 Coeff-Com: -0.599D-02 0.119D-01 0.191D-01-0.440D-01-0.146D+00 0.780D+00
 Coeff-Com:  0.385D+00
 Coeff:     -0.599D-02 0.119D-01 0.191D-01-0.440D-01-0.146D+00 0.780D+00
 Coeff:      0.385D+00
 Gap=     0.318 Goal=   None    Shift=    0.000
 Gap=     0.195 Goal=   None    Shift=    0.000
 RMSDP=2.41D-06 MaxDP=3.98D-05 DE=-1.50D-08 OVMax= 1.18D-04

 Cycle   8  Pass 1  IDiag  1:
 E= -76.7924263324838     Delta-E=       -0.000000059394 Rises=F Damp=F
 DIIS: error= 2.08D-06 at cycle   8 NSaved=   8.
 NSaved= 8 IEnMin= 8 EnMin= -76.7924263324838     IErMin= 8 ErrMin= 2.08D-06
 ErrMax= 2.08D-06  0.00D+00 EMaxC= 1.00D-01 BMatC= 6.85D-10 BMatP= 1.15D-07
 IDIUse=1 WtCom= 1.00D+00 WtEn= 0.00D+00
 Coeff-Com:  0.100D-02-0.201D-02-0.256D-02 0.107D-01 0.828D-02-0.131D+00
 Coeff-Com: -0.123D-01 0.113D+01
 Coeff:      0.100D-02-0.201D-02-0.256D-02 0.107D-01 0.828D-02-0.131D+00
 Coeff:     -0.123D-01 0.113D+01
 Gap=     0.318 Goal=   None    Shift=    0.000
 Gap=     0.195 Goal=   None    Shift=    0.000
 RMSDP=2.74D-07 MaxDP=3.78D-06 DE=-5.94D-08 OVMax= 1.11D-05

 Cycle   9  Pass 1  IDiag  1:
 E= -76.7924263327898     Delta-E=       -0.000000000306 Rises=F Damp=F
 DIIS: error= 2.34D-07 at cycle   9 NSaved=   9.
 NSaved= 9 IEnMin= 9 EnMin= -76.7924263327898     IErMin= 9 ErrMin= 2.34D-07
 ErrMax= 2.34D-07  0.00D+00 EMaxC= 1.00D-01 BMatC= 4.50D-12 BMatP= 6.85D-10
 IDIUse=1 WtCom= 1.00D+00 WtEn= 0.00D+00
 Coeff-Com: -0.628D-04 0.127D-03 0.103D-03-0.565D-03-0.132D-03 0.661D-02
 Coeff-Com: -0.338D-02-0.144D+00 0.114D+01
 Coeff:     -0.628D-04 0.127D-03 0.103D-03-0.565D-03-0.132D-03 0.661D-02
 Coeff:     -0.338D-02-0.144D+00 0.114D+01
 Gap=     0.318 Goal=   None    Shift=    0.000
 Gap=     0.195 Goal=   None    Shift=    0.000
 RMSDP=3.47D-08 MaxDP=4.89D-07 DE=-3.06D-10 OVMax= 1.10D-06

 Cycle  10  Pass 1  IDiag  1:
 E= -76.7924263327927     Delta-E=       -0.000000000003 Rises=F Damp=F
 DIIS: error= 1.94D-08 at cycle  10 NSaved=  10.
 NSaved=10 IEnMin=10 EnMin= -76.7924263327927     IErMin=10 ErrMin= 1.94D-08
 ErrMax= 1.94D-08  0.00D+00 EMaxC= 1.00D-01 BMatC= 5.10D-14 BMatP= 4.50D-12
 IDIUse=1 WtCom= 1.00D+00 WtEn= 0.00D+00
 Coeff-Com: -0.164D-05 0.295D-05 0.102D-04-0.162D-04-0.128D-03 0.733D-03
 Coeff-Com:  0.641D-03 0.606D-02-0.154D+00 0.115D+01
 Coeff:     -0.164D-05 0.295D-05 0.102D-04-0.162D-04-0.128D-03 0.733D-03
 Coeff:      0.641D-03 0.606D-02-0.154D+00 0.115D+01
 Gap=     0.318 Goal=   None    Shift=    0.000
 Gap=     0.195 Goal=   None    Shift=    0.000
 RMSDP=4.79D-09 MaxDP=7.04D-08 DE=-2.90D-12 OVMax= 9.47D-08

 SCF Done:  E(UM062X) =  -76.7924263328     A.U. after   10 cycles
            NFock= 10  Conv=0.48D-08     -V/T= 2.0169
 <Sx>= 0.0000 <Sy>= 0.0000 <Sz>= 0.5000 <S**2>= 0.7535 S= 0.5017
 <L.S>=  0.00000000000    
 KE= 7.551829928199D+01 PE=-2.135706761441D+02 EE= 4.118319548121D+01
 Annihilation of the first spin contaminant:
 S**2 before annihilation     0.7535,   after     0.7500
 Leave Link  502 at Tue Nov 19 13:07:44 2024, MaxMem=  2147483648 cpu:              53.3 elap:               2.3
 (Enter /home/szhao/Apps/g16/l601.exe)
 Copying SCF densities to generalized density rwf, IOpCl= 1 IROHF=0.

 **********************************************************************

            Population analysis using the SCF density.

 **********************************************************************

 Alpha  occ. eigenvalues --  -10.97144 -10.97081  -1.12192  -0.91325  -0.80575
 Alpha  occ. eigenvalues --   -0.65317  -0.63015
 Alpha virt. eigenvalues --   -0.31239  -0.29245  -0.25754  -0.16637  -0.12766
 Alpha virt. eigenvalues --   -0.09202  -0.09187  -0.08965  -0.05191  -0.04866
 Alpha virt. eigenvalues --    0.00602   0.01748   0.11030   0.21099   0.31904
 Alpha virt. eigenvalues --    0.33329   0.36112   0.36425   0.37181   0.43018
 Alpha virt. eigenvalues --    0.50038   0.51175   0.72338   0.73662   0.75226
 Alpha virt. eigenvalues --    0.92651   0.92792   1.09561   1.09999   1.16667
 Alpha virt. eigenvalues --    1.16772   1.28040   1.32698   1.33521   1.49294
 Alpha virt. eigenvalues --    1.78754   1.80562   2.10445   2.32701   2.36675
 Alpha virt. eigenvalues --    2.39405   2.45587   2.51775   2.52399   2.54832
 Alpha virt. eigenvalues --    2.80368   3.26082  23.02739  23.50131
  Beta  occ. eigenvalues --  -10.96880 -10.96834  -1.07766  -0.89467  -0.79972
  Beta  occ. eigenvalues --   -0.60828
  Beta virt. eigenvalues --   -0.41313  -0.27559  -0.24101  -0.23928  -0.15839
  Beta virt. eigenvalues --   -0.14308  -0.09670  -0.09465  -0.09356  -0.04994
  Beta virt. eigenvalues --   -0.04676   0.00283   0.00881   0.11982   0.21822
  Beta virt. eigenvalues --    0.31218   0.33300   0.35629   0.37057   0.37742
  Beta virt. eigenvalues --    0.41753   0.50535   0.52362   0.72907   0.75558
  Beta virt. eigenvalues --    0.76323   0.95983   0.98343   1.10868   1.11788
  Beta virt. eigenvalues --    1.19319   1.21617   1.29759   1.34261   1.35065
  Beta virt. eigenvalues --    1.50742   1.81361   1.82238   2.14674   2.34553
  Beta virt. eigenvalues --    2.40204   2.41004   2.48363   2.55761   2.56846
  Beta virt. eigenvalues --    2.57894   2.81612   3.27541  23.03690  23.51549
          Condensed to atoms (all electrons):
               1          2          3          4
     1  C    4.851097   0.771241   0.275693   0.018735
     2  C    0.771241   4.851095   0.018736   0.275697
     3  H    0.275693   0.018736   0.288715   0.000086
     4  H    0.018735   0.275697   0.000086   0.288717
          Atomic-Atomic Spin Densities.
               1          2          3          4
     1  C    0.438728   0.100631  -0.008971  -0.000338
     2  C    0.100631   0.438728  -0.000338  -0.008970
     3  H   -0.008971  -0.000338  -0.020739  -0.000003
     4  H   -0.000338  -0.008970  -0.000003  -0.020738
 Mulliken charges and spin densities:
               1          2
     1  C    0.083234   0.530050
     2  C    0.083231   0.530051
     3  H    0.416770  -0.030050
     4  H    0.416765  -0.030050
 Sum of Mulliken charges =   1.00000   1.00000
 Mulliken charges and spin densities with hydrogens summed into heavy atoms:
               1          2
     1  C    0.500004   0.499999
     2  C    0.499996   0.500001
 Electronic spatial extent (au):  <R**2>=             67.3805
 Charge=              1.0000 electrons
 Dipole moment (field-independent basis, Debye):
    X=             -0.0000    Y=              0.0000    Z=             -0.0000  Tot=              0.0000
 Quadrupole moment (field-independent basis, Debye-Ang):
   XX=              5.0125   YY=            -10.7501   ZZ=            -12.7570
   XY=              0.0000   XZ=              0.0000   YZ=             -0.0408
 Traceless Quadrupole moment (field-independent basis, Debye-Ang):
   XX=             11.1773   YY=             -4.5852   ZZ=             -6.5921
   XY=              0.0000   XZ=              0.0000   YZ=             -0.0408
 Octapole moment (field-independent basis, Debye-Ang**2):
  XXX=             -0.0004  YYY=              0.0000  ZZZ=             -0.0000  XYY=              0.0000
  XXY=             -0.0000  XXZ=             -0.0000  XZZ=              0.0000  YZZ=              0.0000
  YYZ=             -0.0000  XYZ=             -0.0000
 Hexadecapole moment (field-independent basis, Debye-Ang**3):
 XXXX=              7.1730 YYYY=            -10.5200 ZZZZ=            -14.4224 XXXY=              0.0000
 XXXZ=             -0.0000 YYYX=             -0.0000 YYYZ=             -0.0396 ZZZX=             -0.0000
 ZZZY=             -0.0396 XXYY=            -13.2220 XXZZ=            -14.6708 YYZZ=             -4.1570
 XXYZ=             -0.0294 YYXZ=             -0.0000 ZZXY=             -0.0000
 N-N= 2.007675504811D+01 E-N=-2.135706763769D+02  KE= 7.551829928199D+01
                          Isotropic Fermi Contact Couplings
        Atom                 a.u.       MegaHertz       Gauss      10(-4) cm-1
     1  C(13)              0.11159     125.45021      44.76375      41.84569
     2  C(13)              0.11159     125.44940      44.76346      41.84541
     3  H(1)              -0.01324     -59.16614     -21.11195     -19.73570
     4  H(1)              -0.01324     -59.16518     -21.11161     -19.73538
 --------------------------------------------------------
       Center         ----  Spin Dipole Couplings  ----
                      3XX-RR        3YY-RR        3ZZ-RR
 --------------------------------------------------------
     1   Atom       -0.283844      0.616040     -0.332196
     2   Atom       -0.283846      0.616041     -0.332195
     3   Atom        0.038390     -0.011472     -0.026918
     4   Atom        0.038391     -0.011472     -0.026919
 --------------------------------------------------------
                        XY            XZ            YZ
 --------------------------------------------------------
     1   Atom       -0.000000     -0.000000     -0.019262
     2   Atom        0.000000      0.000000     -0.019262
     3   Atom        0.000000     -0.000000     -0.000314
     4   Atom       -0.000000      0.000000     -0.000314
 --------------------------------------------------------


 ---------------------------------------------------------------------------------
              Anisotropic Spin Dipole Couplings in Principal Axis System
 ---------------------------------------------------------------------------------

       Atom             a.u.   MegaHertz   Gauss  10(-4) cm-1        Axes

              Baa    -0.3326   -44.630   -15.925   -14.887  0.0000  0.0203  0.9998
     1 C(13)  Bbb    -0.2838   -38.089   -13.591   -12.705  1.0000  0.0000 -0.0000
              Bcc     0.6164    82.719    29.516    27.592 -0.0000  0.9998 -0.0203
 
              Baa    -0.3326   -44.630   -15.925   -14.887 -0.0000  0.0203  0.9998
     2 C(13)  Bbb    -0.2838   -38.089   -13.591   -12.705  1.0000 -0.0000  0.0000
              Bcc     0.6164    82.719    29.516    27.592  0.0000  0.9998 -0.0203
 
              Baa    -0.0269   -14.366    -5.126    -4.792  0.0000  0.0203  0.9998
     3 H(1)   Bbb    -0.0115    -6.117    -2.183    -2.041 -0.0000  0.9998 -0.0203
              Bcc     0.0384    20.483     7.309     6.832  1.0000  0.0000 -0.0000
 
              Baa    -0.0269   -14.366    -5.126    -4.792 -0.0000  0.0203  0.9998
     4 H(1)   Bbb    -0.0115    -6.117    -2.183    -2.041  0.0000  0.9998 -0.0203
              Bcc     0.0384    20.483     7.309     6.833  1.0000 -0.0000  0.0000
 

 ---------------------------------------------------------------------------------

 No NMR shielding tensors so no spin-rotation constants.
 Leave Link  601 at Tue Nov 19 13:07:44 2024, MaxMem=  2147483648 cpu:               4.7 elap:               0.2
 (Enter /home/szhao/Apps/g16/l701.exe)
 ... and contract with generalized density number  0.
 Compute integral first derivatives.
 Leave Link  701 at Tue Nov 19 13:07:45 2024, MaxMem=  2147483648 cpu:               3.1 elap:               0.2
 (Enter /home/szhao/Apps/g16/l702.exe)
 L702 exits ... SP integral derivatives will be done elsewhere.
 Leave Link  702 at Tue Nov 19 13:07:45 2024, MaxMem=  2147483648 cpu:               1.0 elap:               0.1
 (Enter /home/szhao/Apps/g16/l703.exe)
 Integral derivatives from FoFJK, PRISM(SPDF).
 Compute integral first derivatives, UseDBF=F ICtDFT=           0.
 Calling FoFJK, ICntrl=      2127 FMM=F ISym2X=0 I1Cent= 0 IOpClX= 1 NMat=1 NMatS=1 NMatT=0.
 FoFJK:  IHMeth= 1 ICntrl=    2127 DoSepK=F KAlg= 0 I1Cent=           0 FoldK=F
 IRaf=         0 NMat=       1 IRICut=       1 DoRegI=T DoRafI=F ISym2E= 0 IDoP0=0 IntGTp=1.
 FoFCou: FMM=F IPFlag=           0 FMFlag=      100000 FMFlg1=         800
         NFxFlg=           0 DoJE=F BraDBF=F KetDBF=F FulRan=T
         wScrn=  0.000000 ICntrl=      2127 IOpCl=  1 I1Cent=           0 NGrid=           0
         NMat0=    1 NMatS0=      1 NMatT0=    0 NMatD0=    1 NMtDS0=    0 NMtDT0=    0
 Symmetry not used in FoFCou.
 Leave Link  703 at Tue Nov 19 13:07:45 2024, MaxMem=  2147483648 cpu:              10.6 elap:               0.4
 (Enter /home/szhao/Apps/g16/l716.exe)
 Dipole        =-1.76302038D-05 6.27567916D-16-1.61020905D-15
 -------------------------------------------------------------------
 Center     Atomic                   Forces (Hartrees/Bohr)
 Number     Number              X              Y              Z
 -------------------------------------------------------------------
      1        6          -0.000000000   -0.000000000   -0.000000000
      2        6          -0.000000000   -0.000000000   -0.000000000
      3        1           0.081648415   -0.000000000   -0.000000000
      4        1          -0.081646029    0.000000000   -0.000000000
 -------------------------------------------------------------------
 Cartesian Forces:  Max     0.081648415 RMS     0.033332339
 Leave Link  716 at Tue Nov 19 13:07:45 2024, MaxMem=  2147483648 cpu:               1.0 elap:               0.1
 (Enter /home/szhao/Apps/g16/l103.exe)

 GradGradGradGradGradGradGradGradGradGradGradGradGradGradGradGradGradGrad
 Berny optimization.
 FormGI is forming the generalized inverse of G from B-inverse, IUseBI=4.
 Internal  Forces:  Max     0.081648415 RMS     0.047139046
 Search for a local minimum.
 Step number   1 out of a maximum of   22
 All quantities printed in internal units (Hartrees-Bohrs-Radians)
 RMS Force = .47139D-01 SwitMx=.10000D-02 MixMth= 1
 Mixed Optimization -- RFO/linear search
 Second derivative matrix not updated -- first step.
 The second derivative matrix:
                          X1        Y1        Z1        X2        Y2
           X1           0.50000
           Y1           0.00000   0.50000
           Z1           0.00000   0.00000   0.50000
           X2           0.00000   0.00000   0.00000   0.50000
           Y2           0.00000   0.00000   0.00000   0.00000   0.50000
           Z2           0.00000   0.00000   0.00000   0.00000   0.00000
           R1           0.00000   0.00000   0.00000   0.00000   0.00000
           R2           0.00000   0.00000   0.00000   0.00000   0.00000
           A1           0.00000   0.00000   0.00000   0.00000   0.00000
           A2           0.00000   0.00000   0.00000   0.00000   0.00000
           A3           0.00000   0.00000   0.00000   0.00000   0.00000
           A4           0.00000   0.00000   0.00000   0.00000   0.00000
                          Z2        R1        R2        A1        A2
           Z2           0.50000
           R1           0.00000   0.18737
           R2           0.00000   0.00000   0.18737
           A1           0.00000   0.00000   0.00000   0.00230
           A2           0.00000   0.00000   0.00000   0.00000   0.00230
           A3           0.00000   0.00000   0.00000   0.00000   0.00000
           A4           0.00000   0.00000   0.00000   0.00000   0.00000
                          A3        A4
           A3           0.00230
           A4           0.00000   0.00230
 ITU=  0
     Eigenvalues ---    0.00230   0.00230   0.00230   0.18737   0.18737
     Eigenvalues --- 1000.000001000.000001000.000001000.000001000.00000
     Eigenvalues --- 1000.000001000.00000
 RFO step:  Lambda=-5.50070888D-02 EMin= 2.30000000D-03
 Linear search not attempted -- first point.
 Maximum step size (   0.300) exceeded in Quadratic search.
    -- Step size scaled by   0.630
 Iteration  1 RMS(Cart)=  0.08164966 RMS(Int)=  0.00495288
 Iteration  2 RMS(Cart)=  0.00495288 RMS(Int)=  0.00000000
 Iteration  3 RMS(Cart)=  0.00000000 RMS(Int)=  0.00000000
 ITry= 1 IFail=0 DXMaxC= 2.12D-01 DCOld= 1.00D+10 DXMaxT= 3.00D-01 DXLimC= 3.00D+00 Rises=F
 Variable       Old X    -DE/DX   Delta X   Delta X   Delta X     New X
                                 (Linear)    (Quad)   (Total)
    X1       -1.40900   0.08165   0.00000   0.00000   0.00000  -1.40900
    Y1        0.00000   0.00000   0.00000   0.00000   0.00000   0.00000
    Z1        0.00000  -0.00000   0.00000   0.00000   0.00000   0.00000
    X2        1.40900  -0.08165   0.00000   0.00000   0.00000   1.40900
    Y2        0.00000   0.00000   0.00000   0.00000   0.00000   0.00000
    Z2        0.00000  -0.00000   0.00000   0.00000   0.00000   0.00000
    R1        2.45151  -0.08165   0.00000  -0.21214  -0.21214   2.23937
    R2        2.45148  -0.08165   0.00000  -0.21213  -0.21213   2.23936
    A1        3.14159   0.00000   0.00000   0.00000   0.00000   3.14159
    A2        3.14159  -0.00000   0.00000  -0.00000   0.00000   3.14159
    A3        3.14159   0.00000   0.00000   0.00000   0.00000   3.14159
    A4        3.14159  -0.00000   0.00000  -0.00000   0.00000   3.14159
         Item               Value     Threshold  Converged?
 Maximum Force            0.081648     0.000450     NO 
 RMS     Force            0.047139     0.000300     NO 
 Maximum Displacement     0.212138     0.001800     NO 
 RMS     Displacement     0.086603     0.001200     NO 
 Predicted change in Energy=-2.620827D-02
 Lowest energy point so far.  Saving SCF results.
 GradGradGradGradGradGradGradGradGradGradGradGradGradGradGradGradGradGrad

 Leave Link  103 at Tue Nov 19 13:07:46 2024, MaxMem=  2147483648 cpu:               0.7 elap:               0.1
 (Enter /home/szhao/Apps/g16/l202.exe)
                          Input orientation:                          
 ---------------------------------------------------------------------
 Center     Atomic      Atomic             Coordinates (Angstroms)
 Number     Number       Type             X           Y           Z
 ---------------------------------------------------------------------
      1          6           0       -0.745611    0.000000    0.000000
      2          6           0        0.745611    0.000000    0.000000
      3          1           0       -1.930635   -0.000000    0.000000
      4          1           0        1.930628    0.000000   -0.000000
 ---------------------------------------------------------------------
                    Distance matrix (angstroms):
                    1          2          3          4
     1  C    0.000000
     2  C    1.491222   0.000000
     3  H    1.185024   2.676246   0.000000
     4  H    2.676239   1.185017   3.861264   0.000000
 Symmetry turned off by external request.
 Stoichiometry    C2H2(1+,2)
 Framework group  C*V[C*(HCCH)]
 Deg. of freedom     3
 Full point group                 C*V     NOp   4
 Rotational constants (GHZ):           0.0000000          24.2324447          24.2324447
 Leave Link  202 at Tue Nov 19 13:07:46 2024, MaxMem=  2147483648 cpu:               0.2 elap:               0.0
 (Enter /home/szhao/Apps/g16/l301.exe)
 Standard basis: 6-311+G(d,p) (5D, 7F)
 Ernie: Thresh=  0.10000D-02 Tol=  0.10000D-05 Strict=F.
    56 basis functions,    88 primitive gaussians,    58 cartesian basis functions
     7 alpha electrons        6 beta electrons
       nuclear repulsion energy        20.6434995190 Hartrees.
 IExCor= 4336 DFT=T Ex+Corr=M062X ExCW=0 ScaHFX=  0.540000
 ScaDFX=  1.000000  1.000000  1.000000  1.000000 ScalE2=  1.000000  1.000000
 IRadAn=      7 IRanWt=     -1 IRanGd=            0 ICorTp=0 IEmpDi=  4
 NAtoms=    4 NActive=    4 NUniq=    4 SFac= 1.00D+00 NAtFMM=   60 NAOKFM=F Big=F
 Integral buffers will be    131072 words long.
 Raffenetti 2 integral format.
 Two-electron integral symmetry is turned off.
 Leave Link  301 at Tue Nov 19 13:07:46 2024, MaxMem=  2147483648 cpu:               1.3 elap:               0.1
 (Enter /home/szhao/Apps/g16/l302.exe)
 NPDir=0 NMtPBC=     1 NCelOv=     1 NCel=       1 NClECP=     1 NCelD=      1
         NCelK=      1 NCelE2=     1 NClLst=     1 CellRange=     0.0.
 One-electron integrals computed using PRISM.
 NBasis=    56 RedAO= T EigKep=  3.38D-04  NBF=    56
 NBsUse=    56 1.00D-06 EigRej= -1.00D+00 NBFU=    56
 Precomputing XC quadrature grid using
 IXCGrd= 4 IRadAn=           7 IRanWt=          -1 IRanGd=           0 AccXCQ= 0.00D+00.
 Generated NRdTot=       0 NPtTot=           0 NUsed=           0 NTot=          32
 NSgBfM=    58    58    58    58    58 MxSgAt=     4 MxSgA2=     4.
 Leave Link  302 at Tue Nov 19 13:07:46 2024, MaxMem=  2147483648 cpu:               4.6 elap:               0.2
 (Enter /home/szhao/Apps/g16/l303.exe)
 DipDrv:  MaxL=1.
 Leave Link  303 at Tue Nov 19 13:07:46 2024, MaxMem=  2147483648 cpu:               0.9 elap:               0.1
 (Enter /home/szhao/Apps/g16/l401.exe)
 Initial guess from the checkpoint file:  "opt.chk"
 B after Tr=     0.000001   -0.000000    0.000000
         Rot=    0.707108    0.707105   -0.000000   -0.000000 Ang=  90.00 deg.
 Guess basis will be translated and rotated to current coordinates.
 JPrj=2 DoOrth=T DoCkMO=T.
 Initial guess <Sx>= 0.0000 <Sy>= 0.0000 <Sz>= 0.5000 <S**2>= 0.7532 S= 0.5016
 Generating alternative initial guess.
 ExpMin= 4.38D-02 ExpMax= 4.56D+03 ExpMxC= 6.82D+02 IAcc=3 IRadAn=         5 AccDes= 0.00D+00
 Harris functional with IExCor= 1009 and IRadAn=       5 diagonalized for initial guess.
 HarFok:  IExCor= 1009 AccDes= 0.00D+00 IRadAn=         5 IDoV= 1 UseB2=F ITyADJ=14
 ICtDFT=  3500011 ScaDFX=  1.000000  1.000000  1.000000  1.000000
 FoFCou: FMM=F IPFlag=           0 FMFlag=      100000 FMFlg1=           0
         NFxFlg=           0 DoJE=T BraDBF=F KetDBF=T FulRan=T
         wScrn=  0.000000 ICntrl=       500 IOpCl=  0 I1Cent=   200000004 NGrid=           0
         NMat0=    1 NMatS0=      1 NMatT0=    0 NMatD0=    1 NMtDS0=    0 NMtDT0=    0
 Symmetry not used in FoFCou.
 Harris En= -76.8532601122384    
 Leave Link  401 at Tue Nov 19 13:07:46 2024, MaxMem=  2147483648 cpu:               5.3 elap:               0.2
 (Enter /home/szhao/Apps/g16/l502.exe)
 Keep R1 and R2 ints in memory in canonical form, NReq=23774294.
 FoFCou: FMM=F IPFlag=           0 FMFlag=           0 FMFlg1=           0
         NFxFlg=           0 DoJE=F BraDBF=F KetDBF=F FulRan=T
         wScrn=  0.000000 ICntrl=       600 IOpCl=  0 I1Cent=           0 NGrid=           0
         NMat0=    1 NMatS0=   1596 NMatT0=    0 NMatD0=    1 NMtDS0=    0 NMtDT0=    0
 Symmetry not used in FoFCou.
 Two-electron integral symmetry not used.
 UHF open shell SCF:
 Using DIIS extrapolation, IDIIS=  1040.
 NGot=  2147483648 LenX=  2144926146 LenY=  2144922341
 Requested convergence on RMS density matrix=1.00D-08 within 128 cycles.
 Requested convergence on MAX density matrix=1.00D-06.
 Requested convergence on             energy=1.00D-06.
 No special actions if energy rises.

 Cycle   1  Pass 1  IDiag  1:
 E= -76.8184317394119    
 DIIS: error= 9.55D-03 at cycle   1 NSaved=   1.
 NSaved= 1 IEnMin= 1 EnMin= -76.8184317394119     IErMin= 1 ErrMin= 9.55D-03
 ErrMax= 9.55D-03  0.00D+00 EMaxC= 1.00D-01 BMatC= 1.07D-02 BMatP= 1.07D-02
 IDIUse=3 WtCom= 9.05D-01 WtEn= 9.55D-02
 Coeff-Com:  0.100D+01
 Coeff-En:   0.100D+01
 Coeff:      0.100D+01
 Gap=     0.647 Goal=   None    Shift=    0.000
 Gap=     0.604 Goal=   None    Shift=    0.000
 GapD=    0.604 DampG=2.000 DampE=1.000 DampFc=2.0000 IDamp=-1.
 RMSDP=1.47D-03 MaxDP=2.07D-02              OVMax= 2.38D-02

 Cycle   2  Pass 1  IDiag  1:
 E= -76.8212335265540     Delta-E=       -0.002801787142 Rises=F Damp=F
 DIIS: error= 1.18D-03 at cycle   2 NSaved=   2.
 NSaved= 2 IEnMin= 2 EnMin= -76.8212335265540     IErMin= 2 ErrMin= 1.18D-03
 ErrMax= 1.18D-03  0.00D+00 EMaxC= 1.00D-01 BMatC= 2.42D-04 BMatP= 1.07D-02
 IDIUse=3 WtCom= 9.88D-01 WtEn= 1.18D-02
 Coeff-Com:  0.317D-01 0.968D+00
 Coeff-En:   0.000D+00 0.100D+01
 Coeff:      0.313D-01 0.969D+00
 Gap=     0.317 Goal=   None    Shift=    0.000
 Gap=     0.196 Goal=   None    Shift=    0.000
 RMSDP=1.40D-04 MaxDP=2.33D-03 DE=-2.80D-03 OVMax= 2.94D-03

 Cycle   3  Pass 1  IDiag  1:
 E= -76.8212831397364     Delta-E=       -0.000049613182 Rises=F Damp=F
 DIIS: error= 2.74D-04 at cycle   3 NSaved=   3.
 NSaved= 3 IEnMin= 3 EnMin= -76.8212831397364     IErMin= 3 ErrMin= 2.74D-04
 ErrMax= 2.74D-04  0.00D+00 EMaxC= 1.00D-01 BMatC= 9.23D-06 BMatP= 2.42D-04
 IDIUse=3 WtCom= 9.97D-01 WtEn= 2.74D-03
 Coeff-Com: -0.908D-02 0.932D-01 0.916D+00
 Coeff-En:   0.000D+00 0.000D+00 0.100D+01
 Coeff:     -0.906D-02 0.930D-01 0.916D+00
 Gap=     0.317 Goal=   None    Shift=    0.000
 Gap=     0.196 Goal=   None    Shift=    0.000
 RMSDP=2.54D-05 MaxDP=4.48D-04 DE=-4.96D-05 OVMax= 1.03D-03

 Cycle   4  Pass 1  IDiag  1:
 E= -76.8212856970796     Delta-E=       -0.000002557343 Rises=F Damp=F
 DIIS: error= 9.18D-05 at cycle   4 NSaved=   4.
 NSaved= 4 IEnMin= 4 EnMin= -76.8212856970796     IErMin= 4 ErrMin= 9.18D-05
 ErrMax= 9.18D-05  0.00D+00 EMaxC= 1.00D-01 BMatC= 6.67D-07 BMatP= 9.23D-06
 IDIUse=1 WtCom= 1.00D+00 WtEn= 0.00D+00
 Coeff-Com: -0.204D-02-0.858D-02 0.159D+00 0.852D+00
 Coeff:     -0.204D-02-0.858D-02 0.159D+00 0.852D+00
 Gap=     0.317 Goal=   None    Shift=    0.000
 Gap=     0.196 Goal=   None    Shift=    0.000
 RMSDP=7.97D-06 MaxDP=1.92D-04 DE=-2.56D-06 OVMax= 2.32D-04

 Cycle   5  Pass 1  IDiag  1:
 E= -76.8212859244226     Delta-E=       -0.000000227343 Rises=F Damp=F
 DIIS: error= 4.21D-05 at cycle   5 NSaved=   5.
 NSaved= 5 IEnMin= 5 EnMin= -76.8212859244226     IErMin= 5 ErrMin= 4.21D-05
 ErrMax= 4.21D-05  0.00D+00 EMaxC= 1.00D-01 BMatC= 5.46D-08 BMatP= 6.67D-07
 IDIUse=1 WtCom= 1.00D+00 WtEn= 0.00D+00
 Coeff-Com:  0.416D-03-0.867D-02-0.492D-01 0.101D+00 0.956D+00
 Coeff:      0.416D-03-0.867D-02-0.492D-01 0.101D+00 0.956D+00
 Gap=     0.317 Goal=   None    Shift=    0.000
 Gap=     0.196 Goal=   None    Shift=    0.000
 RMSDP=2.15D-06 MaxDP=3.58D-05 DE=-2.27D-07 OVMax= 1.11D-04

 Cycle   6  Pass 1  IDiag  1:
 E= -76.8212859480049     Delta-E=       -0.000000023582 Rises=F Damp=F
 DIIS: error= 7.19D-06 at cycle   6 NSaved=   6.
 NSaved= 6 IEnMin= 6 EnMin= -76.8212859480049     IErMin= 6 ErrMin= 7.19D-06
 ErrMax= 7.19D-06  0.00D+00 EMaxC= 1.00D-01 BMatC= 3.85D-09 BMatP= 5.46D-08
 IDIUse=1 WtCom= 1.00D+00 WtEn= 0.00D+00
 Coeff-Com:  0.423D-04 0.281D-02 0.348D-02-0.805D-01-0.244D+00 0.132D+01
 Coeff:      0.423D-04 0.281D-02 0.348D-02-0.805D-01-0.244D+00 0.132D+01
 Gap=     0.317 Goal=   None    Shift=    0.000
 Gap=     0.196 Goal=   None    Shift=    0.000
 RMSDP=1.03D-06 MaxDP=1.99D-05 DE=-2.36D-08 OVMax= 3.31D-05

 Cycle   7  Pass 1  IDiag  1:
 E= -76.8212859499912     Delta-E=       -0.000000001986 Rises=F Damp=F
 DIIS: error= 6.33D-06 at cycle   7 NSaved=   7.
 NSaved= 7 IEnMin= 7 EnMin= -76.8212859499912     IErMin= 7 ErrMin= 6.33D-06
 ErrMax= 6.33D-06  0.00D+00 EMaxC= 1.00D-01 BMatC= 3.62D-09 BMatP= 3.85D-09
 IDIUse=1 WtCom= 1.00D+00 WtEn= 0.00D+00
 Coeff-Com: -0.168D-05 0.246D-02 0.555D-02-0.599D-01-0.221D+00 0.844D+00
 Coeff-Com:  0.429D+00
 Coeff:     -0.168D-05 0.246D-02 0.555D-02-0.599D-01-0.221D+00 0.844D+00
 Coeff:      0.429D+00
 Gap=     0.317 Goal=   None    Shift=    0.000
 Gap=     0.196 Goal=   None    Shift=    0.000
 RMSDP=3.64D-07 MaxDP=6.69D-06 DE=-1.99D-09 OVMax= 1.81D-05

 Cycle   8  Pass 1  IDiag  1:
 E= -76.8212859509901     Delta-E=       -0.000000000999 Rises=F Damp=F
 DIIS: error= 1.48D-06 at cycle   8 NSaved=   8.
 NSaved= 8 IEnMin= 8 EnMin= -76.8212859509901     IErMin= 8 ErrMin= 1.48D-06
 ErrMax= 1.48D-06  0.00D+00 EMaxC= 1.00D-01 BMatC= 2.40D-10 BMatP= 3.62D-09
 IDIUse=1 WtCom= 1.00D+00 WtEn= 0.00D+00
 Coeff-Com: -0.179D-04-0.155D-03 0.356D-03 0.843D-02 0.222D-01-0.231D+00
 Coeff-Com:  0.162D+00 0.104D+01
 Coeff:     -0.179D-04-0.155D-03 0.356D-03 0.843D-02 0.222D-01-0.231D+00
 Coeff:      0.162D+00 0.104D+01
 Gap=     0.317 Goal=   None    Shift=    0.000
 Gap=     0.196 Goal=   None    Shift=    0.000
 RMSDP=1.72D-07 MaxDP=3.47D-06 DE=-9.99D-10 OVMax= 5.02D-06

 Cycle   9  Pass 1  IDiag  1:
 E= -76.8212859510860     Delta-E=       -0.000000000096 Rises=F Damp=F
 DIIS: error= 8.36D-08 at cycle   9 NSaved=   9.
 NSaved= 9 IEnMin= 9 EnMin= -76.8212859510860     IErMin= 9 ErrMin= 8.36D-08
 ErrMax= 8.36D-08  0.00D+00 EMaxC= 1.00D-01 BMatC= 5.70D-13 BMatP= 2.40D-10
 IDIUse=1 WtCom= 1.00D+00 WtEn= 0.00D+00
 Coeff-Com:  0.328D-05-0.507D-05-0.700D-04-0.779D-03-0.288D-02 0.370D-01
 Coeff-Com: -0.402D-01-0.220D+00 0.123D+01
 Coeff:      0.328D-05-0.507D-05-0.700D-04-0.779D-03-0.288D-02 0.370D-01
 Coeff:     -0.402D-01-0.220D+00 0.123D+01
 Gap=     0.317 Goal=   None    Shift=    0.000
 Gap=     0.196 Goal=   None    Shift=    0.000
 RMSDP=1.42D-08 MaxDP=2.74D-07 DE=-9.60D-11 OVMax= 5.44D-07

 Cycle  10  Pass 1  IDiag  1:
 E= -76.8212859510864     Delta-E=       -0.000000000000 Rises=F Damp=F
 DIIS: error= 1.23D-08 at cycle  10 NSaved=  10.
 NSaved=10 IEnMin=10 EnMin= -76.8212859510864     IErMin=10 ErrMin= 1.23D-08
 ErrMax= 1.23D-08  0.00D+00 EMaxC= 1.00D-01 BMatC= 7.10D-15 BMatP= 5.70D-13
 IDIUse=1 WtCom= 1.00D+00 WtEn= 0.00D+00
 Coeff-Com: -0.331D-06 0.168D-05 0.708D-05 0.401D-04 0.283D-03-0.379D-02
 Coeff-Com:  0.514D-02 0.264D-01-0.210D+00 0.118D+01
 Coeff:     -0.331D-06 0.168D-05 0.708D-05 0.401D-04 0.283D-03-0.379D-02
 Coeff:      0.514D-02 0.264D-01-0.210D+00 0.118D+01
 Gap=     0.317 Goal=   None    Shift=    0.000
 Gap=     0.196 Goal=   None    Shift=    0.000
 RMSDP=1.99D-09 MaxDP=2.00D-08 DE=-4.26D-13 OVMax= 2.08D-07

 SCF Done:  E(UM062X) =  -76.8212859511     A.U. after   10 cycles
            NFock= 10  Conv=0.20D-08     -V/T= 2.0148
 <Sx>= 0.0000 <Sy>= 0.0000 <Sz>= 0.5000 <S**2>= 0.7527 S= 0.5014
 <L.S>=  0.00000000000    
 KE= 7.569779751201D+01 PE=-2.147034310609D+02 EE= 4.154084807882D+01
 Annihilation of the first spin contaminant:
 S**2 before annihilation     0.7527,   after     0.7500
 Leave Link  502 at Tue Nov 19 13:07:49 2024, MaxMem=  2147483648 cpu:              50.9 elap:               2.2
 (Enter /home/szhao/Apps/g16/l701.exe)
 ... and contract with generalized density number  0.
 Compute integral first derivatives.
 Leave Link  701 at Tue Nov 19 13:07:49 2024, MaxMem=  2147483648 cpu:               2.5 elap:               0.1
 (Enter /home/szhao/Apps/g16/l702.exe)
 L702 exits ... SP integral derivatives will be done elsewhere.
 Leave Link  702 at Tue Nov 19 13:07:49 2024, MaxMem=  2147483648 cpu:               0.9 elap:               0.1
 (Enter /home/szhao/Apps/g16/l703.exe)
 Integral derivatives from FoFJK, PRISM(SPDF).
 Compute integral first derivatives, UseDBF=F ICtDFT=           0.
 Calling FoFJK, ICntrl=      2127 FMM=F ISym2X=0 I1Cent= 0 IOpClX= 1 NMat=1 NMatS=1 NMatT=0.
 FoFJK:  IHMeth= 1 ICntrl=    2127 DoSepK=F KAlg= 0 I1Cent=           0 FoldK=F
 IRaf=         0 NMat=       1 IRICut=       1 DoRegI=T DoRafI=F ISym2E= 0 IDoP0=0 IntGTp=1.
 FoFCou: FMM=F IPFlag=           0 FMFlag=      100000 FMFlg1=         800
         NFxFlg=           0 DoJE=F BraDBF=F KetDBF=F FulRan=T
         wScrn=  0.000000 ICntrl=      2127 IOpCl=  1 I1Cent=           0 NGrid=           0
         NMat0=    1 NMatS0=      1 NMatT0=    0 NMatD0=    1 NMtDS0=    0 NMtDT0=    0
 Symmetry not used in FoFCou.
 Leave Link  703 at Tue Nov 19 13:07:50 2024, MaxMem=  2147483648 cpu:              10.9 elap:               0.5
 (Enter /home/szhao/Apps/g16/l716.exe)
 Dipole        =-8.42244969D-06-1.03153026D-08 7.25491637D-09
 -------------------------------------------------------------------
 Center     Atomic                   Forces (Hartrees/Bohr)
 Number     Number              X              Y              Z
 -------------------------------------------------------------------
      1        6          -0.000000000   -0.000000000   -0.000000000
      2        6          -0.000000000   -0.000000000   -0.000000000
      3        1           0.050561831    0.000000001   -0.000000001
      4        1          -0.050559190    0.000000000   -0.000000000
 -------------------------------------------------------------------
 Cartesian Forces:  Max     0.050561831 RMS     0.020641242
 Leave Link  716 at Tue Nov 19 13:07:50 2024, MaxMem=  2147483648 cpu:               0.9 elap:               0.1
 (Enter /home/szhao/Apps/g16/l103.exe)

 GradGradGradGradGradGradGradGradGradGradGradGradGradGradGradGradGradGrad
 Berny optimization.
 Using GEDIIS/GDIIS optimizer.
 FormGI is forming the generalized inverse of G from B-inverse, IUseBI=4.
 Internal  Forces:  Max     0.050561831 RMS     0.029191124
 Search for a local minimum.
 Step number   2 out of a maximum of   22
 All quantities printed in internal units (Hartrees-Bohrs-Radians)
 RMS Force = .29191D-01 SwitMx=.10000D-02 MixMth= 1
 Mixed Optimization -- RFO/linear search
 Update second derivatives using D2CorX and points    1    2
 DE= -2.89D-02 DEPred=-2.62D-02 R= 1.10D+00
 TightC=F SS=  1.41D+00  RLast= 3.00D-01 DXNew= 5.0454D-01 9.0000D-01
 Trust test= 1.10D+00 RLast= 3.00D-01 DXMaxT set to 5.05D-01
 The second derivative matrix:
                          X1        Y1        Z1        X2        Y2
           X1           0.57327
           Y1          -0.00000   0.50000
           Z1           0.00000  -0.00000   0.50000
           X2          -0.07327   0.00000  -0.00000   0.57327
           Y2          -0.00000   0.00000  -0.00000   0.00000   0.50000
           Z2           0.00000  -0.00000   0.00000  -0.00000  -0.00000
           R1          -0.07327   0.00000  -0.00000   0.07327   0.00000
           R2          -0.07327   0.00000  -0.00000   0.07327   0.00000
           A1          -0.00000   0.00000  -0.00000   0.00000   0.00000
           A2           0.00000  -0.00000   0.00000  -0.00000  -0.00000
           A3          -0.00000   0.00000  -0.00000   0.00000   0.00000
           A4           0.00000  -0.00000   0.00000  -0.00000  -0.00000
                          Z2        R1        R2        A1        A2
           Z2           0.50000
           R1          -0.00000   0.16695
           R2          -0.00000  -0.02041   0.16696
           A1          -0.00000   0.00000   0.00000   0.00230
           A2           0.00000  -0.00000  -0.00000  -0.00000   0.00230
           A3          -0.00000   0.00000   0.00000   0.00000  -0.00000
           A4           0.00000  -0.00000  -0.00000  -0.00000   0.00000
                          A3        A4
           A3           0.00230
           A4          -0.00000   0.00230
 ITU=  1  0
 Use linear search instead of GDIIS.
     Eigenvalues ---    0.00230   0.00230   0.00230   0.14654   0.18737
     Eigenvalues --- 1000.000001000.000001000.000001000.000001000.00000
     Eigenvalues --- 1000.000001000.00000
 RFO step:  Lambda=-1.53891154D-06 EMin= 2.30000000D-03
 Quartic linear search produced a step of  0.89231.
 Iteration  1 RMS(Cart)=  0.07727638 RMS(Int)=  0.00000000
 Iteration  2 RMS(Cart)=  0.00000001 RMS(Int)=  0.00000000
 ITry= 1 IFail=0 DXMaxC= 1.89D-01 DCOld= 1.00D+10 DXMaxT= 5.05D-01 DXLimC= 3.00D+00 Rises=F
 Variable       Old X    -DE/DX   Delta X   Delta X   Delta X     New X
                                 (Linear)    (Quad)   (Total)
    X1       -1.40900   0.05056   0.00000   0.00000   0.00000  -1.40900
    Y1        0.00000   0.00000   0.00000   0.00000   0.00000   0.00000
    Z1        0.00000  -0.00000   0.00000   0.00000   0.00000   0.00000
    X2        1.40900  -0.05056   0.00000   0.00000   0.00000   1.40900
    Y2        0.00000   0.00000   0.00000   0.00000   0.00000   0.00000
    Z2        0.00000  -0.00000   0.00000   0.00000   0.00000   0.00000
    R1        2.23937  -0.05056  -0.18929  -0.00000  -0.18930   2.05007
    R2        2.23936  -0.05056  -0.18928   0.00000  -0.18928   2.05008
    A1        3.14159   0.00000   0.00000   0.00000   0.00000   3.14159
    A2        3.14159  -0.00000   0.00000  -0.00000  -0.00000   3.14159
    A3        3.14159   0.00000   0.00000   0.00000   0.00000   3.14159
    A4        3.14159  -0.00000   0.00000  -0.00000  -0.00000   3.14159
         Item               Value     Threshold  Converged?
 Maximum Force            0.050562     0.000450     NO 
 RMS     Force            0.029191     0.000300     NO 
 Maximum Displacement     0.189297     0.001800     NO 
 RMS     Displacement     0.077276     0.001200     NO 
 Predicted change in Energy=-1.389031D-02
 Lowest energy point so far.  Saving SCF results.
 GradGradGradGradGradGradGradGradGradGradGradGradGradGradGradGradGradGrad

 Leave Link  103 at Tue Nov 19 13:07:50 2024, MaxMem=  2147483648 cpu:               0.9 elap:               0.1
 (Enter /home/szhao/Apps/g16/l202.exe)
                          Input orientation:                          
 ---------------------------------------------------------------------
 Center     Atomic      Atomic             Coordinates (Angstroms)
 Number     Number       Type             X           Y           Z
 ---------------------------------------------------------------------
      1          6           0       -0.745611    0.000000    0.000000
      2          6           0        0.745611    0.000000    0.000000
      3          1           0       -1.830463    0.000000   -0.000000
      4          1           0        1.830467    0.000000   -0.000000
 ---------------------------------------------------------------------
                    Distance matrix (angstroms):
                    1          2          3          4
     1  C    0.000000
     2  C    1.491222   0.000000
     3  H    1.084852   2.576074   0.000000
     4  H    2.576078   1.084856   3.660930   0.000000
 Symmetry turned off by external request.
 Stoichiometry    C2H2(1+,2)
 Framework group  C*V[C*(HCCH)]
 Deg. of freedom     3
 Full point group                 C*V     NOp   4
 Rotational constants (GHZ):           0.0000000          25.1481138          25.1481138
 Leave Link  202 at Tue Nov 19 13:07:50 2024, MaxMem=  2147483648 cpu:               1.1 elap:               0.1
 (Enter /home/szhao/Apps/g16/l301.exe)
 Standard basis: 6-311+G(d,p) (5D, 7F)
 Ernie: Thresh=  0.10000D-02 Tol=  0.10000D-05 Strict=F.
    56 basis functions,    88 primitive gaussians,    58 cartesian basis functions
     7 alpha electrons        6 beta electrons
       nuclear repulsion energy        21.2380367859 Hartrees.
 IExCor= 4336 DFT=T Ex+Corr=M062X ExCW=0 ScaHFX=  0.540000
 ScaDFX=  1.000000  1.000000  1.000000  1.000000 ScalE2=  1.000000  1.000000
 IRadAn=      7 IRanWt=     -1 IRanGd=            0 ICorTp=0 IEmpDi=  4
 NAtoms=    4 NActive=    4 NUniq=    4 SFac= 1.00D+00 NAtFMM=   60 NAOKFM=F Big=F
 Integral buffers will be    131072 words long.
 Raffenetti 2 integral format.
 Two-electron integral symmetry is turned off.
 Leave Link  301 at Tue Nov 19 13:07:50 2024, MaxMem=  2147483648 cpu:               1.3 elap:               0.1
 (Enter /home/szhao/Apps/g16/l302.exe)
 NPDir=0 NMtPBC=     1 NCelOv=     1 NCel=       1 NClECP=     1 NCelD=      1
         NCelK=      1 NCelE2=     1 NClLst=     1 CellRange=     0.0.
 One-electron integrals computed using PRISM.
 NBasis=    56 RedAO= T EigKep=  3.47D-04  NBF=    56
 NBsUse=    56 1.00D-06 EigRej= -1.00D+00 NBFU=    56
 Precomputing XC quadrature grid using
 IXCGrd= 4 IRadAn=           7 IRanWt=          -1 IRanGd=           0 AccXCQ= 0.00D+00.
 Generated NRdTot=       0 NPtTot=           0 NUsed=           0 NTot=          32
 NSgBfM=    58    58    58    58    58 MxSgAt=     4 MxSgA2=     4.
 Leave Link  302 at Tue Nov 19 13:07:50 2024, MaxMem=  2147483648 cpu:               3.5 elap:               0.2
 (Enter /home/szhao/Apps/g16/l303.exe)
 DipDrv:  MaxL=1.
 Leave Link  303 at Tue Nov 19 13:07:50 2024, MaxMem=  2147483648 cpu:               1.0 elap:               0.1
 (Enter /home/szhao/Apps/g16/l401.exe)
 Initial guess from the checkpoint file:  "opt.chk"
 B after Tr=     0.000001    0.000000   -0.000000
         Rot=    0.997791   -0.066432   -0.000000   -0.000000 Ang=  -7.62 deg.
 Guess basis will be translated and rotated to current coordinates.
 JPrj=2 DoOrth=T DoCkMO=T.
 Initial guess <Sx>= 0.0000 <Sy>= 0.0000 <Sz>= 0.5000 <S**2>= 0.7525 S= 0.5013
 Generating alternative initial guess.
 ExpMin= 4.38D-02 ExpMax= 4.56D+03 ExpMxC= 6.82D+02 IAcc=3 IRadAn=         5 AccDes= 0.00D+00
 Harris functional with IExCor= 1009 and IRadAn=       5 diagonalized for initial guess.
 HarFok:  IExCor= 1009 AccDes= 0.00D+00 IRadAn=         5 IDoV= 1 UseB2=F ITyADJ=14
 ICtDFT=  3500011 ScaDFX=  1.000000  1.000000  1.000000  1.000000
 FoFCou: FMM=F IPFlag=           0 FMFlag=      100000 FMFlg1=           0
         NFxFlg=           0 DoJE=T BraDBF=F KetDBF=T FulRan=T
         wScrn=  0.000000 ICntrl=       500 IOpCl=  0 I1Cent=   200000004 NGrid=           0
         NMat0=    1 NMatS0=      1 NMatT0=    0 NMatD0=    1 NMtDS0=    0 NMtDT0=    0
 Symmetry not used in FoFCou.
 Harris En= -76.8617139394389    
 Leave Link  401 at Tue Nov 19 13:07:51 2024, MaxMem=  2147483648 cpu:               4.8 elap:               0.2
 (Enter /home/szhao/Apps/g16/l502.exe)
 Keep R1 and R2 ints in memory in canonical form, NReq=23774294.
 FoFCou: FMM=F IPFlag=           0 FMFlag=           0 FMFlg1=           0
         NFxFlg=           0 DoJE=F BraDBF=F KetDBF=F FulRan=T
         wScrn=  0.000000 ICntrl=       600 IOpCl=  0 I1Cent=           0 NGrid=           0
         NMat0=    1 NMatS0=   1596 NMatT0=    0 NMatD0=    1 NMtDS0=    0 NMtDT0=    0
 Symmetry not used in FoFCou.
 Two-electron integral symmetry not used.
 UHF open shell SCF:
 Using DIIS extrapolation, IDIIS=  1040.
 NGot=  2147483648 LenX=  2144926146 LenY=  2144922341
 Requested convergence on RMS density matrix=1.00D-08 within 128 cycles.
 Requested convergence on MAX density matrix=1.00D-06.
 Requested convergence on             energy=1.00D-06.
 No special actions if energy rises.

 Cycle   1  Pass 1  IDiag  1:
 E= -76.8283741657718    
 DIIS: error= 1.03D-02 at cycle   1 NSaved=   1.
 NSaved= 1 IEnMin= 1 EnMin= -76.8283741657718     IErMin= 1 ErrMin= 1.03D-02
 ErrMax= 1.03D-02  0.00D+00 EMaxC= 1.00D-01 BMatC= 1.22D-02 BMatP= 1.22D-02
 IDIUse=3 WtCom= 8.97D-01 WtEn= 1.03D-01
 Coeff-Com:  0.100D+01
 Coeff-En:   0.100D+01
 Coeff:      0.100D+01
 Recover alternate guess density for next cycle.
 RMSDP=4.99D-03 MaxDP=4.66D-02              OVMax= 0.00D+00

 Cycle   2  Pass 1  IDiag  1:
 E= -76.8228035280612     Delta-E=        0.005570637711 Rises=F Damp=F
 Switch densities from cycles 1 and 2 for lowest energy.
 DIIS: error= 2.32D-02 at cycle   2 NSaved=   2.
 NSaved= 2 IEnMin= 1 EnMin= -76.8283741657718     IErMin= 1 ErrMin= 1.03D-02
 ErrMax= 2.32D-02  0.00D+00 EMaxC= 1.00D+00 BMatC= 5.06D-02 BMatP= 1.22D-02
 IDIUse=1 WtCom= 1.00D+00 WtEn= 0.00D+00
 Coeff-Com:  0.789D+00 0.211D+00
 Coeff:      0.789D+00 0.211D+00
 Gap=     0.337 Goal=   None    Shift=    0.000
 Gap=     0.082 Goal=   None    Shift=    0.000
 RMSDP=1.57D-03 MaxDP=1.62D-02 DE= 5.57D-03 OVMax= 5.13D-01

 Cycle   3  Pass 1  IDiag  1:
 E= -76.8312339863336     Delta-E=       -0.008430458272 Rises=F Damp=F
 DIIS: error= 1.28D-03 at cycle   3 NSaved=   3.
 NSaved= 3 IEnMin= 3 EnMin= -76.8312339863336     IErMin= 3 ErrMin= 1.28D-03
 ErrMax= 1.28D-03  0.00D+00 EMaxC= 1.00D+00 BMatC= 3.19D-04 BMatP= 1.22D-02
 IDIUse=1 WtCom= 1.00D+00 WtEn= 0.00D+00
 Coeff-Com:  0.406D-01 0.104D-01 0.949D+00
 Coeff:      0.406D-01 0.104D-01 0.949D+00
 Gap=     0.317 Goal=   None    Shift=    0.000
 Gap=     0.195 Goal=   None    Shift=    0.000
 RMSDP=1.79D-04 MaxDP=4.33D-03 DE=-8.43D-03 OVMax= 3.50D-03

 Cycle   4  Pass 1  IDiag  1:
 E= -76.8313004347581     Delta-E=       -0.000066448425 Rises=F Damp=F
 DIIS: error= 4.83D-04 at cycle   4 NSaved=   4.
 NSaved= 4 IEnMin= 4 EnMin= -76.8313004347581     IErMin= 4 ErrMin= 4.83D-04
 ErrMax= 4.83D-04  0.00D+00 EMaxC= 1.00D+00 BMatC= 2.64D-05 BMatP= 3.19D-04
 IDIUse=1 WtCom= 1.00D+00 WtEn= 0.00D+00
 Coeff-Com: -0.414D-02-0.608D-02 0.169D+00 0.842D+00
 Coeff:     -0.414D-02-0.608D-02 0.169D+00 0.842D+00
 Gap=     0.317 Goal=   None    Shift=    0.000
 Gap=     0.197 Goal=   None    Shift=    0.000
 RMSDP=4.03D-05 MaxDP=7.77D-04 DE=-6.64D-05 OVMax= 2.54D-03

 Cycle   5  Pass 1  IDiag  1:
 E= -76.8313074657988     Delta-E=       -0.000007031041 Rises=F Damp=F
 DIIS: error= 1.04D-04 at cycle   5 NSaved=   5.
 NSaved= 5 IEnMin= 5 EnMin= -76.8313074657988     IErMin= 5 ErrMin= 1.04D-04
 ErrMax= 1.04D-04  0.00D+00 EMaxC= 1.00D+00 BMatC= 6.59D-07 BMatP= 2.64D-05
 IDIUse=1 WtCom= 1.00D+00 WtEn= 0.00D+00
 Coeff-Com: -0.118D-02 0.122D-03-0.186D-01 0.670D-01 0.953D+00
 Coeff:     -0.118D-02 0.122D-03-0.186D-01 0.670D-01 0.953D+00
 Gap=     0.317 Goal=   None    Shift=    0.000
 Gap=     0.197 Goal=   None    Shift=    0.000
 RMSDP=8.59D-06 MaxDP=2.13D-04 DE=-7.03D-06 OVMax= 2.93D-04

 Cycle   6  Pass 1  IDiag  1:
 E= -76.8313077036325     Delta-E=       -0.000000237834 Rises=F Damp=F
 DIIS: error= 2.36D-05 at cycle   6 NSaved=   6.
 NSaved= 6 IEnMin= 6 EnMin= -76.8313077036325     IErMin= 6 ErrMin= 2.36D-05
 ErrMax= 2.36D-05  0.00D+00 EMaxC= 1.00D+00 BMatC= 2.70D-08 BMatP= 6.59D-07
 IDIUse=1 WtCom= 1.00D+00 WtEn= 0.00D+00
 Coeff-Com:  0.297D-03 0.377D-04-0.536D-02-0.315D-01-0.445D-03 0.104D+01
 Coeff:      0.297D-03 0.377D-04-0.536D-02-0.315D-01-0.445D-03 0.104D+01
 Gap=     0.317 Goal=   None    Shift=    0.000
 Gap=     0.197 Goal=   None    Shift=    0.000
 RMSDP=2.24D-06 MaxDP=2.94D-05 DE=-2.38D-07 OVMax= 9.78D-05

 Cycle   7  Pass 1  IDiag  1:
 E= -76.8313077162237     Delta-E=       -0.000000012591 Rises=F Damp=F
 DIIS: error= 5.49D-06 at cycle   7 NSaved=   7.
 NSaved= 7 IEnMin= 7 EnMin= -76.8313077162237     IErMin= 7 ErrMin= 5.49D-06
 ErrMax= 5.49D-06  0.00D+00 EMaxC= 1.00D+00 BMatC= 2.25D-09 BMatP= 2.70D-08
 IDIUse=1 WtCom= 1.00D+00 WtEn= 0.00D+00
 Coeff-Com:  0.102D-04-0.150D-04 0.147D-02 0.814D-03-0.396D-01-0.108D+00
 Coeff-Com:  0.115D+01
 Coeff:      0.102D-04-0.150D-04 0.147D-02 0.814D-03-0.396D-01-0.108D+00
 Coeff:      0.115D+01
 Gap=     0.317 Goal=   None    Shift=    0.000
 Gap=     0.197 Goal=   None    Shift=    0.000
 RMSDP=7.58D-07 MaxDP=1.51D-05 DE=-1.26D-08 OVMax= 2.43D-05

 Cycle   8  Pass 1  IDiag  1:
 E= -76.8313077163189     Delta-E=       -0.000000000095 Rises=F Damp=F
 DIIS: error= 6.93D-06 at cycle   8 NSaved=   8.
 NSaved= 8 IEnMin= 8 EnMin= -76.8313077163189     IErMin= 7 ErrMin= 5.49D-06
 ErrMax= 6.93D-06  0.00D+00 EMaxC= 1.00D+00 BMatC= 4.34D-09 BMatP= 2.25D-09
 IDIUse=1 WtCom= 1.00D+00 WtEn= 0.00D+00
 Coeff-Com: -0.355D-04-0.166D-04 0.185D-02 0.508D-02-0.293D-01-0.224D+00
 Coeff-Com:  0.831D+00 0.416D+00
 Coeff:     -0.355D-04-0.166D-04 0.185D-02 0.508D-02-0.293D-01-0.224D+00
 Coeff:      0.831D+00 0.416D+00
 Gap=     0.317 Goal=   None    Shift=    0.000
 Gap=     0.197 Goal=   None    Shift=    0.000
 RMSDP=3.53D-07 MaxDP=6.55D-06 DE=-9.52D-11 OVMax= 1.78D-05

 Cycle   9  Pass 1  IDiag  1:
 E= -76.8313077175405     Delta-E=       -0.000000001222 Rises=F Damp=F
 DIIS: error= 5.98D-07 at cycle   9 NSaved=   9.
 NSaved= 9 IEnMin= 9 EnMin= -76.8313077175405     IErMin= 9 ErrMin= 5.98D-07
 ErrMax= 5.98D-07  0.00D+00 EMaxC= 1.00D+00 BMatC= 5.62D-11 BMatP= 2.25D-09
 IDIUse=1 WtCom= 1.00D+00 WtEn= 0.00D+00
 Coeff-Com: -0.271D-05 0.241D-05-0.249D-03-0.111D-03 0.628D-02 0.238D-01
 Coeff-Com: -0.223D+00 0.835D-02 0.118D+01
 Coeff:     -0.271D-05 0.241D-05-0.249D-03-0.111D-03 0.628D-02 0.238D-01
 Coeff:     -0.223D+00 0.835D-02 0.118D+01
 Gap=     0.317 Goal=   None    Shift=    0.000
 Gap=     0.197 Goal=   None    Shift=    0.000
 RMSDP=8.91D-08 MaxDP=1.80D-06 DE=-1.22D-09 OVMax= 4.07D-06

 Cycle  10  Pass 1  IDiag  1:
 E= -76.8313077175690     Delta-E=       -0.000000000029 Rises=F Damp=F
 DIIS: error= 2.25D-07 at cycle  10 NSaved=  10.
 NSaved=10 IEnMin=10 EnMin= -76.8313077175690     IErMin=10 ErrMin= 2.25D-07
 ErrMax= 2.25D-07  0.00D+00 EMaxC= 1.00D+00 BMatC= 1.03D-12 BMatP= 5.62D-11
 IDIUse=1 WtCom= 1.00D+00 WtEn= 0.00D+00
 Coeff-Com:  0.625D-06-0.140D-06 0.180D-04-0.243D-04-0.528D-03-0.215D-02
 Coeff-Com:  0.286D-01-0.514D-02-0.193D+00 0.117D+01
 Coeff:      0.625D-06-0.140D-06 0.180D-04-0.243D-04-0.528D-03-0.215D-02
 Coeff:      0.286D-01-0.514D-02-0.193D+00 0.117D+01
 Gap=     0.317 Goal=   None    Shift=    0.000
 Gap=     0.197 Goal=   None    Shift=    0.000
 RMSDP=2.66D-08 MaxDP=3.30D-07 DE=-2.85D-11 OVMax= 3.75D-06

 Cycle  11  Pass 1  IDiag  1:
 E= -76.8313077175739     Delta-E=       -0.000000000005 Rises=F Damp=F
 DIIS: error= 2.24D-07 at cycle  11 NSaved=  11.
 NSaved=11 IEnMin=11 EnMin= -76.8313077175739     IErMin=11 ErrMin= 2.24D-07
 ErrMax= 2.24D-07  0.00D+00 EMaxC= 1.00D+00 BMatC= 9.00D-13 BMatP= 1.03D-12
 IDIUse=1 WtCom= 1.00D+00 WtEn= 0.00D+00
 Coeff-Com: -0.168D-06 0.216D-06-0.420D-05 0.117D-04 0.147D-03 0.421D-03
 Coeff-Com: -0.763D-02 0.148D-02 0.521D-01-0.322D+00 0.128D+01
 Coeff:     -0.168D-06 0.216D-06-0.420D-05 0.117D-04 0.147D-03 0.421D-03
 Coeff:     -0.763D-02 0.148D-02 0.521D-01-0.322D+00 0.128D+01
 Gap=     0.317 Goal=   None    Shift=    0.000
 Gap=     0.197 Goal=   None    Shift=    0.000
 RMSDP=2.73D-08 MaxDP=3.43D-07 DE=-4.86D-12 OVMax= 3.95D-06

 Cycle  12  Pass 1  IDiag  1:
 E= -76.8313077175790     Delta-E=       -0.000000000005 Rises=F Damp=F
 DIIS: error= 2.24D-07 at cycle  12 NSaved=  12.
 NSaved=12 IEnMin=12 EnMin= -76.8313077175790     IErMin=12 ErrMin= 2.24D-07
 ErrMax= 2.24D-07  0.00D+00 EMaxC= 1.00D+00 BMatC= 8.98D-13 BMatP= 9.00D-13
 IDIUse=1 WtCom= 1.00D+00 WtEn= 0.00D+00
 Coeff-Com: -0.474D-07 0.180D-06-0.182D-05 0.293D-06 0.665D-04 0.153D-03
 Coeff-Com: -0.235D-02 0.223D-03 0.137D-01-0.205D-01-0.337D+00 0.135D+01
 Coeff:     -0.474D-07 0.180D-06-0.182D-05 0.293D-06 0.665D-04 0.153D-03
 Coeff:     -0.235D-02 0.223D-03 0.137D-01-0.205D-01-0.337D+00 0.135D+01
 Gap=     0.317 Goal=   None    Shift=    0.000
 Gap=     0.197 Goal=   None    Shift=    0.000
 RMSDP=3.08D-08 MaxDP=3.86D-07 DE=-5.09D-12 OVMax= 4.45D-06

 Cycle  13  Pass 1  IDiag  1:
 E= -76.8313077175847     Delta-E=       -0.000000000006 Rises=F Damp=F
 DIIS: error= 2.24D-07 at cycle  13 NSaved=  13.
 NSaved=13 IEnMin=13 EnMin= -76.8313077175847     IErMin=12 ErrMin= 2.24D-07
 ErrMax= 2.24D-07  0.00D+00 EMaxC= 1.00D+00 BMatC= 8.98D-13 BMatP= 8.98D-13
 IDIUse=1 WtCom= 1.00D+00 WtEn= 0.00D+00
 Coeff-Com: -0.650D-07 0.195D-06-0.198D-05-0.401D-05 0.843D-04 0.186D-03
 Coeff-Com: -0.243D-02 0.923D-04 0.127D-01 0.141D-01-0.955D+00 0.870D+01
 Coeff-Com: -0.677D+01
 Coeff:     -0.650D-07 0.195D-06-0.198D-05-0.401D-05 0.843D-04 0.186D-03
 Coeff:     -0.243D-02 0.923D-04 0.127D-01 0.141D-01-0.955D+00 0.870D+01
 Coeff:     -0.677D+01
 Gap=     0.317 Goal=   None    Shift=    0.000
 Gap=     0.197 Goal=   None    Shift=    0.000
 RMSDP=1.93D-07 MaxDP=2.42D-06 DE=-5.71D-12 OVMax= 2.79D-05

 Cycle  14  Pass 1  IDiag  1:
 E= -76.8313077175491     Delta-E=        0.000000000036 Rises=F Damp=F
 DIIS: error= 2.24D-07 at cycle  14 NSaved=  14.
 NSaved=14 IEnMin=13 EnMin= -76.8313077175847     IErMin=14 ErrMin= 2.24D-07
 ErrMax= 2.24D-07  0.00D+00 EMaxC= 1.00D+00 BMatC= 8.98D-13 BMatP= 8.98D-13
 IDIUse=1 WtCom= 1.00D+00 WtEn= 0.00D+00
 Large coefficients: NSaved= 14 BigCof=   19.15 CofMax=   10.00 Det=-2.06D-18
 Inversion failed.  Reducing to 13 matrices.
 Large coefficients: NSaved= 13 BigCof=   21.00 CofMax=   10.00 Det=-2.16D-18
 Inversion failed.  Reducing to 12 matrices.
 Large coefficients: NSaved= 12 BigCof=   20.02 CofMax=   10.00 Det=-2.21D-18
 Inversion failed.  Reducing to 11 matrices.
 Large coefficients: NSaved= 11 BigCof=   20.42 CofMax=   10.00 Det=-2.25D-18
 Inversion failed.  Reducing to 10 matrices.
 Large coefficients: NSaved= 10 BigCof=   20.09 CofMax=   10.00 Det=-3.43D-18
 Inversion failed.  Reducing to  9 matrices.
 Large coefficients: NSaved=  9 BigCof=   16.35 CofMax=   10.00 Det=-5.66D-18
 Inversion failed.  Reducing to  8 matrices.
 Large coefficients: NSaved=  8 BigCof=   16.34 CofMax=   10.00 Det=-5.68D-18
 Inversion failed.  Reducing to  7 matrices.
 Large coefficients: NSaved=  7 BigCof=   15.09 CofMax=   10.00 Det=-5.81D-18
 Inversion failed.  Reducing to  6 matrices.
 Large coefficients: NSaved=  6 BigCof=   14.71 CofMax=   10.00 Det=-5.81D-18
 Inversion failed.  Reducing to  5 matrices.
 Large coefficients: NSaved=  5 BigCof=   14.48 CofMax=   10.00 Det=-5.82D-18
 Inversion failed.  Reducing to  4 matrices.
 Large coefficients: NSaved=  4 BigCof=   11.95 CofMax=   10.00 Det=-5.88D-18
 Inversion failed.  Reducing to  3 matrices.
 Large coefficients: NSaved=  3 BigCof=   10.99 CofMax=   10.00 Det=-6.75D-18
 Inversion failed.  Reducing to  2 matrices.
 Large coefficients: NSaved=  2 BigCof=   10.75 CofMax=   10.00 Det=-9.12D-18
 Coeff-Com: -0.975D+01 0.107D+02
 Coeff:     -0.975D+01 0.107D+02
 Gap=     0.317 Goal=   None    Shift=    0.000
 Gap=     0.197 Goal=   None    Shift=    0.000
 RMSDP=1.86D-06 MaxDP=2.33D-05 DE= 3.56D-11 OVMax= 2.69D-04

 Cycle  15  Pass 1  IDiag  1:
 E= -76.8313077172060     Delta-E=        0.000000000343 Rises=F Damp=F
 DIIS: error= 2.24D-07 at cycle  15 NSaved=   3.
 NSaved= 3 IEnMin= 1 EnMin= -76.8313077175847     IErMin= 3 ErrMin= 2.24D-07
 ErrMax= 2.24D-07  0.00D+00 EMaxC= 1.00D+00 BMatC= 8.97D-13 BMatP= 8.98D-13
 IDIUse=1 WtCom= 1.00D+00 WtEn= 0.00D+00
 Coeff-Com: -0.505D+01 0.431D+01 0.174D+01
 Coeff:     -0.505D+01 0.431D+01 0.174D+01
 Gap=     0.317 Goal=   None    Shift=    0.000
 Gap=     0.197 Goal=   None    Shift=    0.000
 RMSDP=2.33D-06 MaxDP=2.92D-05 DE= 3.43D-10 OVMax= 3.37D-04

 Cycle  16  Pass 1  IDiag  1:
 E= -76.8313077167762     Delta-E=        0.000000000430 Rises=F Damp=F
 DIIS: error= 2.23D-07 at cycle  16 NSaved=   4.
 NSaved= 4 IEnMin= 1 EnMin= -76.8313077175847     IErMin= 4 ErrMin= 2.23D-07
 ErrMax= 2.23D-07  0.00D+00 EMaxC= 1.00D+00 BMatC= 8.96D-13 BMatP= 8.97D-13
 IDIUse=1 WtCom= 1.00D+00 WtEn= 0.00D+00
 Coeff-Com: -0.385D+01 0.374D+01 0.194D+00 0.917D+00
 Coeff:     -0.385D+01 0.374D+01 0.194D+00 0.917D+00
 Gap=     0.317 Goal=   None    Shift=    0.000
 Gap=     0.197 Goal=   None    Shift=    0.000
 RMSDP=7.35D-07 MaxDP=9.21D-06 DE= 4.30D-10 OVMax= 1.06D-04

 Cycle  17  Pass 1  IDiag  1:
 E= -76.8313077166408     Delta-E=        0.000000000135 Rises=F Damp=F
 DIIS: error= 2.23D-07 at cycle  17 NSaved=   5.
 NSaved= 5 IEnMin= 1 EnMin= -76.8313077175847     IErMin= 5 ErrMin= 2.23D-07
 ErrMax= 2.23D-07  0.00D+00 EMaxC= 1.00D+00 BMatC= 8.95D-13 BMatP= 8.96D-13
 IDIUse=1 WtCom= 1.00D+00 WtEn= 0.00D+00
 Coeff-Com: -0.661D+01 0.923D+01-0.489D+01-0.796D-01 0.334D+01
 Coeff:     -0.661D+01 0.923D+01-0.489D+01-0.796D-01 0.334D+01
 Gap=     0.317 Goal=   None    Shift=    0.000
 Gap=     0.197 Goal=   None    Shift=    0.000
 RMSDP=3.36D-06 MaxDP=4.21D-05 DE= 1.35D-10 OVMax= 4.86D-04

 Cycle  18  Pass 1  IDiag  1:
 E= -76.8313077160223     Delta-E=        0.000000000618 Rises=F Damp=F
 DIIS: error= 2.23D-07 at cycle  18 NSaved=   6.
 NSaved= 6 IEnMin= 1 EnMin= -76.8313077175847     IErMin= 6 ErrMin= 2.23D-07
 ErrMax= 2.23D-07  0.00D+00 EMaxC= 1.00D+00 BMatC= 8.97D-13 BMatP= 8.95D-13
 IDIUse=1 WtCom= 1.00D+00 WtEn= 0.00D+00
 Large coefficients: NSaved=  6 BigCof=   21.69 CofMax=   10.00 Det=-5.24D-18
 Inversion failed.  Reducing to  5 matrices.
 Large coefficients: NSaved=  5 BigCof=   10.69 CofMax=   10.00 Det=-6.11D-18
 Inversion failed.  Reducing to  4 matrices.
 Coeff-Com: -0.222D+01 0.185D+01 0.957D+00 0.417D+00
 Coeff:     -0.222D+01 0.185D+01 0.957D+00 0.417D+00
 Gap=     0.317 Goal=   None    Shift=    0.000
 Gap=     0.197 Goal=   None    Shift=    0.000
 RMSDP=2.88D-07 MaxDP=3.61D-06 DE= 6.18D-10 OVMax= 4.17D-05

 Cycle  19  Pass 1  IDiag  1:
 E= -76.8313077159694     Delta-E=        0.000000000053 Rises=F Damp=F
 DIIS: error= 2.23D-07 at cycle  19 NSaved=   5.
 NSaved= 5 IEnMin= 1 EnMin= -76.8313077175847     IErMin= 5 ErrMin= 2.23D-07
 ErrMax= 2.23D-07  0.00D+00 EMaxC= 1.00D+00 BMatC= 8.95D-13 BMatP= 8.95D-13
 IDIUse=1 WtCom= 1.00D+00 WtEn= 0.00D+00
 Coeff-Com: -0.284D+01 0.338D+01-0.177D+01 0.705D+00 0.152D+01
 Coeff:     -0.284D+01 0.338D+01-0.177D+01 0.705D+00 0.152D+01
 Gap=     0.317 Goal=   None    Shift=    0.000
 Gap=     0.197 Goal=   None    Shift=    0.000
 RMSDP=2.12D-06 MaxDP=2.65D-05 DE= 5.29D-11 OVMax= 3.06D-04

 Cycle  20  Pass 1  IDiag  1:
 E= -76.8313077155807     Delta-E=        0.000000000389 Rises=F Damp=F
 DIIS: error= 2.23D-07 at cycle  20 NSaved=   6.
 NSaved= 6 IEnMin= 1 EnMin= -76.8313077175847     IErMin= 6 ErrMin= 2.23D-07
 ErrMax= 2.23D-07  0.00D+00 EMaxC= 1.00D+00 BMatC= 8.92D-13 BMatP= 8.95D-13
 IDIUse=1 WtCom= 1.00D+00 WtEn= 0.00D+00
 Large coefficients: NSaved=  6 BigCof=   72.78 CofMax=   10.00 Det=-6.56D-18
 Inversion failed.  Reducing to  5 matrices.
 Coeff-Com: -0.812D+01 0.959D+01-0.425D+01 0.139D+01 0.239D+01
 Coeff:     -0.812D+01 0.959D+01-0.425D+01 0.139D+01 0.239D+01
 Gap=     0.317 Goal=   None    Shift=    0.000
 Gap=     0.197 Goal=   None    Shift=    0.000
 RMSDP=7.41D-06 MaxDP=9.26D-05 DE= 3.89D-10 OVMax= 1.07D-03

 Cycle  21  Pass 1  IDiag  1:
 E= -76.8313077142244     Delta-E=        0.000000001356 Rises=F Damp=F
 DIIS: error= 2.22D-07 at cycle  21 NSaved=   6.
 NSaved= 6 IEnMin= 1 EnMin= -76.8313077175847     IErMin= 6 ErrMin= 2.22D-07
 ErrMax= 2.22D-07  0.00D+00 EMaxC= 1.00D+00 BMatC= 9.22D-13 BMatP= 8.92D-13
 IDIUse=1 WtCom= 1.00D+00 WtEn= 0.00D+00
 Large coefficients: NSaved=  6 BigCof=  129.10 CofMax=   10.00 Det=-5.64D-18
 Inversion failed.  Reducing to  5 matrices.
 Large coefficients: NSaved=  5 BigCof=   23.48 CofMax=   10.00 Det=-7.27D-18
 Inversion failed.  Reducing to  4 matrices.
 Coeff-Com:  0.340D+01-0.470D+01 0.187D+01 0.434D+00
 Coeff:      0.340D+01-0.470D+01 0.187D+01 0.434D+00
 Gap=     0.317 Goal=   None    Shift=    0.000
 Gap=     0.197 Goal=   None    Shift=    0.000
 RMSDP=9.05D-06 MaxDP=1.13D-04 DE= 1.36D-09 OVMax= 1.31D-03

 Cycle  22  Pass 1  IDiag  1:
 E= -76.8313077125736     Delta-E=        0.000000001651 Rises=F Damp=F
 DIIS: error= 2.20D-07 at cycle  22 NSaved=   5.
 NSaved= 5 IEnMin= 1 EnMin= -76.8313077175847     IErMin= 5 ErrMin= 2.20D-07
 ErrMax= 2.20D-07  0.00D+00 EMaxC= 1.00D+00 BMatC= 1.37D-12 BMatP= 8.92D-13
 IDIUse=1 WtCom= 1.00D+00 WtEn= 0.00D+00
 Coeff-Com:  0.618D+01-0.782D+01 0.212D+01 0.586D+00-0.678D-01
 Coeff:      0.618D+01-0.782D+01 0.212D+01 0.586D+00-0.678D-01
 Gap=     0.317 Goal=   None    Shift=    0.000
 Gap=     0.197 Goal=   None    Shift=    0.000
 RMSDP=3.08D-06 MaxDP=3.84D-05 DE= 1.65D-09 OVMax= 4.45D-04

 Cycle  23  Pass 1  IDiag  1:
 E= -76.8313077120147     Delta-E=        0.000000000559 Rises=F Damp=F
 DIIS: error= 2.20D-07 at cycle  23 NSaved=   6.
 NSaved= 6 IEnMin= 1 EnMin= -76.8313077175847     IErMin= 6 ErrMin= 2.20D-07
 ErrMax= 2.20D-07  0.00D+00 EMaxC= 1.00D+00 BMatC= 1.81D-12 BMatP= 8.92D-13
 IDIUse=1 WtCom= 1.00D+00 WtEn= 0.00D+00
 Large coefficients: NSaved=  6 BigCof=   69.82 CofMax=   10.00 Det=-4.33D-18
 Inversion failed.  Reducing to  5 matrices.
 Coeff-Com:  0.249D+01-0.334D+01 0.118D+01 0.236D+01-0.169D+01
 Coeff:      0.249D+01-0.334D+01 0.118D+01 0.236D+01-0.169D+01
 Gap=     0.317 Goal=   None    Shift=    0.000
 Gap=     0.197 Goal=   None    Shift=    0.000
 RMSDP=5.33D-06 MaxDP=6.65D-05 DE= 5.59D-10 OVMax= 7.71D-04

 Cycle  24  Pass 1  IDiag  1:
 E= -76.8313077129834     Delta-E=       -0.000000000969 Rises=F Damp=F
 DIIS: error= 2.21D-07 at cycle  24 NSaved=   6.
 NSaved= 6 IEnMin= 1 EnMin= -76.8313077175847     IErMin= 5 ErrMin= 2.20D-07
 ErrMax= 2.21D-07  0.00D+00 EMaxC= 1.00D+00 BMatC= 1.18D-12 BMatP= 8.92D-13
 IDIUse=1 WtCom= 1.00D+00 WtEn= 0.00D+00
 Large coefficients: NSaved=  6 BigCof=   22.94 CofMax=   10.00 Det=-4.14D-18
 Inversion failed.  Reducing to  5 matrices.
 Large coefficients: NSaved=  5 BigCof=   22.37 CofMax=   10.00 Det=-5.19D-18
 Inversion failed.  Reducing to  4 matrices.
 Large coefficients: NSaved=  4 BigCof=   22.96 CofMax=   10.00 Det=-5.32D-18
 Inversion failed.  Reducing to  3 matrices.
 Coeff-Com: -0.401D+00-0.180D+01 0.320D+01
 Coeff:     -0.401D+00-0.180D+01 0.320D+01
 Gap=     0.317 Goal=   None    Shift=    0.000
 Gap=     0.197 Goal=   None    Shift=    0.000
 RMSDP=4.28D-07 MaxDP=5.35D-06 DE=-9.69D-10 OVMax= 6.19D-05

 Cycle  25  Pass 1  IDiag  1:
 E= -76.8313077129054     Delta-E=        0.000000000078 Rises=F Damp=F
 DIIS: error= 2.21D-07 at cycle  25 NSaved=   4.
 NSaved= 4 IEnMin= 1 EnMin= -76.8313077175847     IErMin= 2 ErrMin= 2.20D-07
 ErrMax= 2.21D-07  0.00D+00 EMaxC= 1.00D+00 BMatC= 1.18D-12 BMatP= 8.98D-13
 IDIUse=1 WtCom= 1.00D+00 WtEn= 0.00D+00
 Coeff-Com: -0.468D+00-0.189D+01 0.410D+01-0.743D+00
 Coeff:     -0.468D+00-0.189D+01 0.410D+01-0.743D+00
 Gap=     0.317 Goal=   None    Shift=    0.000
 Gap=     0.197 Goal=   None    Shift=    0.000
 RMSDP=8.83D-07 MaxDP=1.10D-05 DE= 7.79D-11 OVMax= 1.28D-04

 Cycle  26  Pass 1  IDiag  1:
 E= -76.8313077127448     Delta-E=        0.000000000161 Rises=F Damp=F
 DIIS: error= 2.21D-07 at cycle  26 NSaved=   5.
 NSaved= 5 IEnMin= 1 EnMin= -76.8313077175847     IErMin= 2 ErrMin= 2.20D-07
 ErrMax= 2.21D-07  0.00D+00 EMaxC= 1.00D+00 BMatC= 1.27D-12 BMatP= 8.98D-13
 IDIUse=1 WtCom= 1.00D+00 WtEn= 0.00D+00
 Large coefficients: NSaved=  5 BigCof=   19.58 CofMax=   10.00 Det=-3.59D-17
 Inversion failed.  Reducing to  4 matrices.
 Coeff-Com:  0.567D+00-0.452D+00 0.362D+01-0.274D+01
 Coeff:      0.567D+00-0.452D+00 0.362D+01-0.274D+01
 Gap=     0.317 Goal=   None    Shift=    0.000
 Gap=     0.197 Goal=   None    Shift=    0.000
 RMSDP=1.76D-05 MaxDP=2.20D-04 DE= 1.61D-10 OVMax= 2.55D-03

 Cycle  27  Pass 1  IDiag  1:
 E= -76.8313077159645     Delta-E=       -0.000000003220 Rises=F Damp=F
 DIIS: error= 2.23D-07 at cycle  27 NSaved=   5.
 NSaved= 5 IEnMin= 1 EnMin= -76.8313077175847     IErMin= 4 ErrMin= 2.21D-07
 ErrMax= 2.23D-07  0.00D+00 EMaxC= 1.00D+00 BMatC= 9.22D-13 BMatP= 8.98D-13
 IDIUse=1 WtCom= 1.00D+00 WtEn= 0.00D+00
 Coeff-Com: -0.448D+00 0.185D+01 0.493D+00-0.181D+01 0.911D+00
 Coeff:     -0.448D+00 0.185D+01 0.493D+00-0.181D+01 0.911D+00
 Gap=     0.317 Goal=   None    Shift=    0.000
 Gap=     0.197 Goal=   None    Shift=    0.000
 RMSDP=1.05D-05 MaxDP=1.32D-04 DE=-3.22D-09 OVMax= 1.52D-03

 Cycle  28  Pass 1  IDiag  1:
 E= -76.8313077140372     Delta-E=        0.000000001927 Rises=F Damp=F
 DIIS: error= 2.22D-07 at cycle  28 NSaved=   6.
 NSaved= 6 IEnMin= 1 EnMin= -76.8313077175847     IErMin= 4 ErrMin= 2.21D-07
 ErrMax= 2.22D-07  0.00D+00 EMaxC= 1.00D+00 BMatC= 9.04D-13 BMatP= 8.98D-13
 IDIUse=1 WtCom= 1.00D+00 WtEn= 0.00D+00
 Large coefficients: NSaved=  6 BigCof=  269.68 CofMax=   10.00 Det=-2.47D-18
 Inversion failed.  Reducing to  5 matrices.
 Coeff-Com: -0.141D+01 0.328D+01-0.323D+01 0.117D+01 0.120D+01
 Coeff:     -0.141D+01 0.328D+01-0.323D+01 0.117D+01 0.120D+01
 Gap=     0.317 Goal=   None    Shift=    0.000
 Gap=     0.197 Goal=   None    Shift=    0.000
 RMSDP=1.39D-05 MaxDP=1.73D-04 DE= 1.93D-09 OVMax= 2.00D-03

 Cycle  29  Pass 1  IDiag  1:
 E= -76.8313077115167     Delta-E=        0.000000002521 Rises=F Damp=F
 DIIS: error= 2.20D-07 at cycle  29 NSaved=   6.
 NSaved= 6 IEnMin= 1 EnMin= -76.8313077175847     IErMin= 6 ErrMin= 2.20D-07
 ErrMax= 2.20D-07  0.00D+00 EMaxC= 1.00D+00 BMatC= 2.04D-12 BMatP= 8.98D-13
 IDIUse=1 WtCom= 1.00D+00 WtEn= 0.00D+00
 Large coefficients: NSaved=  6 BigCof=   89.11 CofMax=   10.00 Det=-5.70D-18
 Inversion failed.  Reducing to  5 matrices.
 Coeff-Com: -0.616D+00 0.145D+01 0.272D+00 0.662D+00-0.767D+00
 Coeff:     -0.616D+00 0.145D+01 0.272D+00 0.662D+00-0.767D+00
 Gap=     0.317 Goal=   None    Shift=    0.000
[...]
 ErrMax= 8.80D-08  0.00D+00 EMaxC= 1.00D-01 BMatC= 3.94D-13 BMatP= 1.30D-11
 IDIUse=1 WtCom= 1.00D+00 WtEn= 0.00D+00
 Coeff-Com: -0.177D-04-0.161D-03-0.181D-03 0.616D-02 0.902D-02-0.305D-01
 Coeff-Com: -0.356D+00 0.137D+01
 Coeff:     -0.177D-04-0.161D-03-0.181D-03 0.616D-02 0.902D-02-0.305D-01
 Coeff:     -0.356D+00 0.137D+01
 Gap=     0.317 Goal=   None    Shift=    0.000
 Gap=     0.197 Goal=   None    Shift=    0.000
 RMSDP=1.25D-08 MaxDP=2.05D-07 DE=-5.85D-12 OVMax= 3.86D-07

 Cycle   9  Pass 1  IDiag  1:
 E= -76.8313289325022     Delta-E=       -0.000000000000 Rises=F Damp=F
 DIIS: error= 9.42D-09 at cycle   9 NSaved=   9.
 NSaved= 9 IEnMin= 9 EnMin= -76.8313289325022     IErMin= 9 ErrMin= 9.42D-09
 ErrMax= 9.42D-09  0.00D+00 EMaxC= 1.00D-01 BMatC= 5.86D-15 BMatP= 3.94D-13
 IDIUse=1 WtCom= 1.00D+00 WtEn= 0.00D+00
 Coeff-Com:  0.370D-05-0.110D-04-0.630D-04-0.259D-03 0.115D-02 0.361D-02
 Coeff-Com:  0.295D-01-0.215D+00 0.118D+01
 Coeff:      0.370D-05-0.110D-04-0.630D-04-0.259D-03 0.115D-02 0.361D-02
 Coeff:      0.295D-01-0.215D+00 0.118D+01
 Gap=     0.317 Goal=   None    Shift=    0.000
 Gap=     0.197 Goal=   None    Shift=    0.000
 RMSDP=1.63D-09 MaxDP=2.13D-08 DE=-2.98D-13 OVMax= 1.65D-07

 SCF Done:  E(UM062X) =  -76.8313289325     A.U. after    9 cycles
            NFock=  9  Conv=0.16D-08     -V/T= 2.0121
 <Sx>= 0.0000 <Sy>= 0.0000 <Sz>= 0.5000 <S**2>= 0.7523 S= 0.5012
 <L.S>=  0.00000000000    
 KE= 7.591067804254D+01 PE=-2.158562915488D+02 EE= 4.190363615329D+01
 Annihilation of the first spin contaminant:
 S**2 before annihilation     0.7523,   after     0.7500
 Leave Link  502 at Tue Nov 19 13:08:19 2024, MaxMem=  2147483648 cpu:              47.0 elap:               2.0
 (Enter /home/szhao/Apps/g16/l701.exe)
 ... and contract with generalized density number  0.
 Compute integral first derivatives.
 Leave Link  701 at Tue Nov 19 13:08:19 2024, MaxMem=  2147483648 cpu:               2.5 elap:               0.1
 (Enter /home/szhao/Apps/g16/l702.exe)
 L702 exits ... SP integral derivatives will be done elsewhere.
 Leave Link  702 at Tue Nov 19 13:08:19 2024, MaxMem=  2147483648 cpu:               0.9 elap:               0.1
 (Enter /home/szhao/Apps/g16/l703.exe)
 Integral derivatives from FoFJK, PRISM(SPDF).
 Compute integral first derivatives, UseDBF=F ICtDFT=           0.
 Calling FoFJK, ICntrl=      2127 FMM=F ISym2X=0 I1Cent= 0 IOpClX= 1 NMat=1 NMatS=1 NMatT=0.
 FoFJK:  IHMeth= 1 ICntrl=    2127 DoSepK=F KAlg= 0 I1Cent=           0 FoldK=F
 IRaf=         0 NMat=       1 IRICut=       1 DoRegI=T DoRafI=F ISym2E= 0 IDoP0=0 IntGTp=1.
 FoFCou: FMM=F IPFlag=           0 FMFlag=      100000 FMFlg1=         800
         NFxFlg=           0 DoJE=F BraDBF=F KetDBF=F FulRan=T
         wScrn=  0.000000 ICntrl=      2127 IOpCl=  1 I1Cent=           0 NGrid=           0
         NMat0=    1 NMatS0=      1 NMatT0=    0 NMatD0=    1 NMtDS0=    0 NMtDT0=    0
 Symmetry not used in FoFCou.
 Leave Link  703 at Tue Nov 19 13:08:19 2024, MaxMem=  2147483648 cpu:              10.5 elap:               0.4
 (Enter /home/szhao/Apps/g16/l716.exe)
 Dipole        =-3.32504916D-06-7.88610281D-06 6.60553873D-06
 -------------------------------------------------------------------
 Center     Atomic                   Forces (Hartrees/Bohr)
 Number     Number              X              Y              Z
 -------------------------------------------------------------------
      1        6          -0.000000000   -0.000000000   -0.000000000
      2        6          -0.000000000   -0.000000000   -0.000000000
      3        1           0.000156095    0.000000266   -0.000000306
      4        1          -0.000154103    0.000000266   -0.000000308
 -------------------------------------------------------------------
 Cartesian Forces:  Max     0.000156095 RMS     0.000063321
 Leave Link  716 at Tue Nov 19 13:08:19 2024, MaxMem=  2147483648 cpu:               1.0 elap:               0.1
 (Enter /home/szhao/Apps/g16/l103.exe)

 GradGradGradGradGradGradGradGradGradGradGradGradGradGradGradGradGradGrad
 Berny optimization.
 Using GEDIIS/GDIIS optimizer.
 FormGI is forming the generalized inverse of G from B-inverse, IUseBI=4.
 Internal  Forces:  Max     0.000156095 RMS     0.000089549
 Search for a local minimum.
 Step number   4 out of a maximum of   22
 All quantities printed in internal units (Hartrees-Bohrs-Radians)
 RMS Force = .89550D-04 SwitMx=.10000D-02 MixMth= 2
 Mixed Optimization -- En-DIIS/RFO-DIIS
 Update second derivatives using D2CorX and points    1    2    3    4
 DE= -3.54D-05 DEPred=-2.93D-05 R= 1.20D+00
 TightC=F SS=  1.41D+00  RLast= 1.14D-02 DXNew= 1.3506D+00 3.4264D-02
 Trust test= 1.20D+00 RLast= 1.14D-02 DXMaxT set to 8.03D-01
 The second derivative matrix:
                          X1        Y1        Z1        X2        Y2
           X1           0.69301
           Y1           0.00002   0.50000
           Z1          -0.00002  -0.00000   0.50000
           X2          -0.19274  -0.00002   0.00002   0.69248
           Y2           0.00002   0.00000  -0.00000  -0.00002   0.50000
           Z2          -0.00002  -0.00000   0.00000   0.00002  -0.00000
           R1          -0.19295  -0.00002   0.00002   0.19268  -0.00002
           R2          -0.19281  -0.00002   0.00002   0.19254  -0.00002
           A1           0.00004   0.00000  -0.00000  -0.00004   0.00000
           A2          -0.00004  -0.00000   0.00000   0.00004  -0.00000
           A3           0.00003   0.00000  -0.00000  -0.00003   0.00000
           A4          -0.00003  -0.00000   0.00000   0.00003  -0.00000
                          Z2        R1        R2        A1        A2
           Z2           0.50000
           R1           0.00002   0.28656
           R2           0.00002   0.09906   0.28630
           A1          -0.00000  -0.00004  -0.00004   0.00230
           A2           0.00000   0.00004   0.00004  -0.00000   0.00230
           A3          -0.00000  -0.00003  -0.00003   0.00000  -0.00000
           A4           0.00000   0.00003   0.00003  -0.00000   0.00000
                          A3        A4
           A3           0.00230
           A4          -0.00000   0.00230
 ITU=  1  1  1  0
 Use linear search instead of GDIIS.
     Eigenvalues ---    0.00230   0.00230   0.00230   0.18737   0.38549
     Eigenvalues --- 1000.000001000.000001000.000001000.000001000.00000
     Eigenvalues --- 1000.000001000.00000
 RFO step:  Lambda= 0.00000000D+00 EMin= 2.30000000D-03
 Quartic linear search produced a step of -0.01670.
 Iteration  1 RMS(Cart)=  0.00024442 RMS(Int)=  0.00000003
 Iteration  2 RMS(Cart)=  0.00000004 RMS(Int)=  0.00000000
 ITry= 1 IFail=0 DXMaxC= 4.43D-04 DCOld= 1.00D+10 DXMaxT= 8.03D-01 DXLimC= 3.00D+00 Rises=F
 Variable       Old X    -DE/DX   Delta X   Delta X   Delta X     New X
                                 (Linear)    (Quad)   (Total)
    X1       -1.40900   0.00016   0.00000   0.00000   0.00000  -1.40900
    Y1        0.00000   0.00000   0.00000   0.00000   0.00000   0.00000
    Z1        0.00000  -0.00000   0.00000   0.00000   0.00000   0.00000
    X2        1.40900  -0.00015   0.00000   0.00000   0.00000   1.40900
    Y2        0.00000   0.00000   0.00000   0.00000   0.00000   0.00000
    Z2        0.00000  -0.00000   0.00000   0.00000   0.00000   0.00000
    R1        2.05816  -0.00016  -0.00013  -0.00000  -0.00014   2.05802
    R2        2.05815  -0.00015  -0.00013   0.00000  -0.00013   2.05802
    A1        3.14158   0.00000   0.00000   0.00021   0.00022   3.14180
    A2        3.14160  -0.00000  -0.00000  -0.00021  -0.00022   3.14139
    A3        3.14158   0.00000   0.00000   0.00018   0.00018   3.14177
    A4        3.14160  -0.00000  -0.00000  -0.00018  -0.00018   3.14142
         Item               Value     Threshold  Converged?
 Maximum Force            0.000156     0.000450     YES
 RMS     Force            0.000090     0.000300     YES
 Maximum Displacement     0.000443     0.001800     YES
 RMS     Displacement     0.000244     0.001200     YES
 Predicted change in Energy=-3.508980D-08
 Optimization completed.
    -- Stationary point found.
                           ----------------------------
                           !   Optimized Parameters   !
                           ! (Angstroms and Degrees)  !
 --------------------------                            --------------------------
 ! Name  Definition              Value          Derivative Info.                !
 --------------------------------------------------------------------------------
 ! X1    R(1,-1)                -0.7456         -DE/DX =    0.0002              !
 ! Y1    R(1,-2)                 0.0            -DE/DX =    0.0                 !
 ! Z1    R(1,-3)                 0.0            -DE/DX =    0.0                 !
 ! X2    R(2,-1)                 0.7456         -DE/DX =   -0.0002              !
 ! Y2    R(2,-2)                 0.0            -DE/DX =    0.0                 !
 ! Z2    R(2,-3)                 0.0            -DE/DX =    0.0                 !
 ! R1    R(1,3)                  1.0891         -DE/DX =   -0.0002              !
 ! R2    R(2,4)                  1.0891         -DE/DX =   -0.0002              !
 ! A1    L(2,1,3,-2,-1)        179.9995         -DE/DX =    0.0                 !
 ! A2    L(1,2,4,-2,-1)        180.0005         -DE/DX =    0.0                 !
 ! A3    L(2,1,3,-3,-2)        179.9995         -DE/DX =    0.0                 !
 ! A4    L(1,2,4,-3,-2)        180.0005         -DE/DX =    0.0                 !
 --------------------------------------------------------------------------------
 Lowest energy point so far.  Saving SCF results.
 Largest change from initial coordinates is atom    3       0.208 Angstoms.
 GradGradGradGradGradGradGradGradGradGradGradGradGradGradGradGradGradGrad

 Leave Link  103 at Tue Nov 19 13:08:20 2024, MaxMem=  2147483648 cpu:               0.7 elap:               0.1
 (Enter /home/szhao/Apps/g16/l202.exe)
                          Input orientation:                          
 ---------------------------------------------------------------------
 Center     Atomic      Atomic             Coordinates (Angstroms)
 Number     Number       Type             X           Y           Z
 ---------------------------------------------------------------------
      1          6           0       -0.745611    0.000000    0.000000
      2          6           0        0.745611    0.000000    0.000000
      3          1           0       -1.834740   -0.000009    0.000010
      4          1           0        1.834737   -0.000009    0.000010
 ---------------------------------------------------------------------
                    Distance matrix (angstroms):
                    1          2          3          4
     1  C    0.000000
     2  C    1.491222   0.000000
     3  H    1.089129   2.580351   0.000000
     4  H    2.580348   1.089126   3.669478   0.000000
 Symmetry turned off by external request.
 Stoichiometry    C2H2(1+,2)
 Framework group  C*V[C*(HCCH)]
 Deg. of freedom     3
 Full point group                 C*V     NOp   4
 Rotational constants (GHZ):           0.0000000          25.1086651          25.1086651
 Leave Link  202 at Tue Nov 19 13:08:20 2024, MaxMem=  2147483648 cpu:               0.2 elap:               0.1
 (Enter /home/szhao/Apps/g16/l601.exe)
 Copying SCF densities to generalized density rwf, IOpCl= 1 IROHF=0.

 **********************************************************************

            Population analysis using the SCF density.

 **********************************************************************

 Alpha  occ. eigenvalues --  -10.97953 -10.97890  -1.14782  -0.98466  -0.87074
 Alpha  occ. eigenvalues --   -0.67014  -0.64713
 Alpha virt. eigenvalues --   -0.33032  -0.31017  -0.20674  -0.14323  -0.11038
 Alpha virt. eigenvalues --   -0.09924  -0.09556  -0.09312  -0.05180  -0.04825
 Alpha virt. eigenvalues --    0.01966   0.04243   0.10519   0.20921   0.31136
 Alpha virt. eigenvalues --    0.32453   0.36176   0.36785   0.43414   0.45253
 Alpha virt. eigenvalues --    0.49972   0.55102   0.70475   0.71868   0.79167
 Alpha virt. eigenvalues --    0.90930   0.91087   1.11088   1.11752   1.14912
 Alpha virt. eigenvalues --    1.15036   1.35581   1.44898   1.45904   1.61673
 Alpha virt. eigenvalues --    1.95549   1.97363   2.21047   2.38452   2.41191
 Alpha virt. eigenvalues --    2.41855   2.44648   2.50863   2.53943   2.90302
 Alpha virt. eigenvalues --    2.90811   3.30523  23.20374  23.77881
  Beta  occ. eigenvalues --  -10.97715 -10.97667  -1.10497  -0.96788  -0.86442
  Beta  occ. eigenvalues --   -0.62505
  Beta virt. eigenvalues --   -0.42839  -0.29320  -0.25517  -0.18752  -0.15449
  Beta virt. eigenvalues --   -0.11339  -0.10024  -0.09892  -0.09676  -0.04942
  Beta virt. eigenvalues --   -0.04536   0.01334   0.04384   0.11044   0.21821
  Beta virt. eigenvalues --    0.30252   0.32390   0.34869   0.36581   0.43342
  Beta virt. eigenvalues --    0.44544   0.50630   0.56352   0.73715   0.74420
  Beta virt. eigenvalues --    0.76341   0.94423   0.96666   1.12518   1.13564
  Beta virt. eigenvalues --    1.17741   1.19913   1.37357   1.46638   1.47493
  Beta virt. eigenvalues --    1.63707   1.97918   1.98726   2.23871   2.41773
  Beta virt. eigenvalues --    2.42484   2.44880   2.46608   2.54732   2.55584
  Beta virt. eigenvalues --    2.94165   2.98907   3.31987  23.21418  23.79502
          Condensed to atoms (all electrons):
               1          2          3          4
     1  C    4.754014   0.745791   0.333522   0.009743
     2  C    0.745791   4.754014   0.009743   0.333523
     3  H    0.333522   0.009743   0.313601   0.000062
     4  H    0.009743   0.333523   0.000062   0.313602
          Atomic-Atomic Spin Densities.
               1          2          3          4
     1  C    0.426517   0.099864  -0.006152   0.000257
     2  C    0.099864   0.426516   0.000257  -0.006152
     3  H   -0.006152   0.000257  -0.014604   0.000014
     4  H    0.000257  -0.006152   0.000014  -0.014604
 Mulliken charges and spin densities:
               1          2
     1  C    0.156929   0.520485
     2  C    0.156929   0.520484
     3  H    0.343072  -0.020485
     4  H    0.343070  -0.020485
 Sum of Mulliken charges =   1.00000   1.00000
 Mulliken charges and spin densities with hydrogens summed into heavy atoms:
               1          2
     1  C    0.500001   0.500000
     2  C    0.499999   0.500000
 Electronic spatial extent (au):  <R**2>=             63.5459
 Charge=              1.0000 electrons
 Dipole moment (field-independent basis, Debye):
    X=             -0.0000    Y=             -0.0000    Z=              0.0000  Tot=              0.0000
 Quadrupole moment (field-independent basis, Debye-Ang):
   XX=              1.3956   YY=            -11.8699   ZZ=            -10.6162
   XY=             -0.0000   XZ=              0.0000   YZ=             -0.7670
 Traceless Quadrupole moment (field-independent basis, Debye-Ang):
   XX=              8.4258   YY=             -4.8398   ZZ=             -3.5860
   XY=             -0.0000   XZ=              0.0000   YZ=             -0.7670
 Octapole moment (field-independent basis, Debye-Ang**2):
  XXX=             -0.0001  YYY=              0.0000  ZZZ=             -0.0000  XYY=              0.0000
  XXY=             -0.0001  XXZ=              0.0001  XZZ=              0.0000  YZZ=              0.0000
  YYZ=             -0.0000  XYZ=             -0.0000
 Hexadecapole moment (field-independent basis, Debye-Ang**3):
 XXXX=            -16.6891 YYYY=            -12.7708 ZZZZ=            -10.3842 XXXY=             -0.0000
 XXXZ=              0.0000 YYYX=              0.0000 YYYZ=             -0.7300 ZZZX=             -0.0000
 ZZZY=             -0.7300 XXYY=            -12.5395 XXZZ=            -11.6356 YYZZ=             -3.8592
 XXYZ=             -0.5529 YYXZ=             -0.0000 ZZXY=              0.0000
 N-N= 2.121064842047D+01 E-N=-2.158562915328D+02  KE= 7.591067804254D+01
                          Isotropic Fermi Contact Couplings
        Atom                 a.u.       MegaHertz       Gauss      10(-4) cm-1
     1  C(13)              0.08957     100.69095      35.92903      33.58689
     2  C(13)              0.08957     100.69047      35.92886      33.58673
     3  H(1)              -0.01083     -48.40131     -17.27079     -16.14494
     4  H(1)              -0.01083     -48.40114     -17.27073     -16.14488
 --------------------------------------------------------
       Center         ----  Spin Dipole Couplings  ----
                      3XX-RR        3YY-RR        3ZZ-RR
 --------------------------------------------------------
     1   Atom       -0.296217     -0.153133      0.449350
     2   Atom       -0.296216     -0.153134      0.449350
     3   Atom        0.048187     -0.033336     -0.014852
     4   Atom        0.048187     -0.033336     -0.014852
 --------------------------------------------------------
                        XY            XZ            YZ
 --------------------------------------------------------
     1   Atom       -0.000004      0.000008     -0.368558
     2   Atom        0.000004     -0.000008     -0.368559
     3   Atom        0.000001     -0.000001     -0.011307
     4   Atom       -0.000001      0.000001     -0.011307
 --------------------------------------------------------


 ---------------------------------------------------------------------------------
              Anisotropic Spin Dipole Couplings in Principal Axis System
 ---------------------------------------------------------------------------------

       Atom             a.u.   MegaHertz   Gauss  10(-4) cm-1        Axes

              Baa    -0.3279   -44.001   -15.701   -14.677  0.0000  0.9036  0.4285
     1 C(13)  Bbb    -0.2962   -39.749   -14.184   -13.259  1.0000  0.0000 -0.0000
              Bcc     0.6241    83.750    29.884    27.936  0.0000 -0.4285  0.9036
 
              Baa    -0.3279   -44.001   -15.701   -14.677 -0.0000  0.9036  0.4285
     2 C(13)  Bbb    -0.2962   -39.749   -14.184   -13.259  1.0000 -0.0000  0.0000
              Bcc     0.6241    83.750    29.884    27.936 -0.0000 -0.4285  0.9036
 
              Baa    -0.0387   -20.647    -7.367    -6.887 -0.0000  0.9036  0.4285
     3 H(1)   Bbb    -0.0095    -5.063    -1.807    -1.689  0.0000 -0.4285  0.9036
              Bcc     0.0482    25.710     9.174     8.576  1.0000  0.0000 -0.0000
 
              Baa    -0.0387   -20.647    -7.367    -6.887  0.0000  0.9036  0.4285
     4 H(1)   Bbb    -0.0095    -5.063    -1.807    -1.689 -0.0000 -0.4285  0.9036
              Bcc     0.0482    25.711     9.174     8.576  1.0000 -0.0000  0.0000
 

 ---------------------------------------------------------------------------------

 No NMR shielding tensors so no spin-rotation constants.
 Leave Link  601 at Tue Nov 19 13:08:20 2024, MaxMem=  2147483648 cpu:               4.1 elap:               0.2
 (Enter /home/szhao/Apps/g16/l9999.exe)
 1\1\GINC-NODE02\FOpt\UM062X\6-311+G(d,p)\C2H2(1+,2)\SZHAO\19-Nov-2024\
 0\\#p opt UM062X/6-311+G** nosymm int=superfine\\Title Card Required\\
 1,2\C,-0.745611,0.,0.\C,0.745611,0.,0.\H,-1.8347402305,-0.0000090406,0
 .0000100967\H,1.8347373109,-0.0000092295,0.0000102721\\Version=ES64L-G
 16RevA.03\HF=-76.8313289\S2=0.752307\S2-1=0.\S2A=0.750004\RMSD=1.629e-
 09\RMSF=6.332e-05\Dipole=-0.0000029,-0.0000054,0.0000039\Quadrupole=6.
 2643634,-3.5982501,-2.6661132,-0.0000004,0.0000003,-0.5702196\PG=C*V [
 C*(H1C1C1H1)]\\@


 NOT WHAT WE DID SHALL BE THE TEST
 WHEN ACT AND WILL ARE DONE,
 BUT WHAT OUR LORD INFERS WE WOULD-
 HAD WE DIVINER BEEN.
           EMILY DICKINSON  POEMS NO. CLXXV
 Job cpu time:       0 days  0 hours 14 minutes  0.6 seconds.
 Elapsed time:       0 days  0 hours  0 minutes 36.9 seconds.
 File lengths (MBytes):  RWF=     17 Int=      0 D2E=      0 Chk=      2 Scr=      2
 Normal termination of Gaussian 16 at Tue Nov 19 13:08:20 2024.
