Title Card Required                                                     
FOpt      UM062X                                                      6-311+G(d,p)        
Number of atoms                            I                4
Info1-9                                    I   N=           9
          13          13           0           0           0         100
           2          18        -502
Full Title                                 C   N=           2
Title Card Required     
Route                                      C   N=           4
#p opt UM062X/6-311+G** nosymm int=superfine    
Charge                                     I                1
Multiplicity                               I                2
Number of electrons                        I               13
Number of alpha electrons                  I                7
Number of beta electrons                   I                6
Number of basis functions                  I               56
Number of independent functions            I               56
Number of point charges in /Mol/           I                0
Number of translation vectors              I                0
Atomic numbers                             I   N=           4
           6           6           1           1
Nuclear charges                            R   N=           4
  6.00000000E+00  6.00000000E+00  1.00000000E+00  1.00000000E+00
Current cartesian coordinates              R   N=          12
 -1.17416715E+00  0.00000000E+00  0.00000000E+00  1.17416715E+00  0.00000000E+00
  0.00000000E+00 -3.21709149E+00  0.00000000E+00  0.00000000E+00  3.21707070E+00
  0.00000000E+00  0.00000000E+00
Number of symbols in /Mol/                 I                0
Force Field                                I                0
Atom Types                                 C   N=           4
                                                
Int Atom Types                             I   N=           4
           0           0           0           0
MM charges                                 R   N=           4
  0.00000000E+00  0.00000000E+00  0.00000000E+00  0.00000000E+00
Integer atomic weights                     I   N=           4
          12          12           1           1
Real atomic weights                        R   N=           4
  1.20000000E+01  1.20000000E+01  1.00782504E+00  1.00782504E+00
Atom fragment info                         I   N=           4
           0           0           0           0
Atom residue num                           I   N=           4
           0           0           0           0
Nuclear spins                              I   N=           4
           0           0           1           1
Nuclear ZEff                               R   N=           4
 -3.60000000E+00 -3.60000000E+00 -1.00000000E+00 -1.00000000E+00
Nuclear ZNuc                               R   N=           4
  6.00000000E+00  6.00000000E+00  1.00000000E+00  1.00000000E+00
Nuclear QMom                               R   N=           4
  0.00000000E+00  0.00000000E+00  0.00000000E+00  0.00000000E+00
Nuclear GFac                               R   N=           4
  0.00000000E+00  0.00000000E+00  2.79284600E+00  2.79284600E+00
MicOpt                                     I   N=           4
          -2          -2          -1          -1
Number of residues                         I                0
Number of secondary structures             I                0
Redundant internal dimensions              I   N=           4
          12           8           4           0
Redundant internal coordinate indices      I   N=          48
           1          -1           0           0           1          -2
           0           0           1          -3           0           0
           2          -1           0           0           2          -2
           0           0           2          -3           0           0
           1           3           0           0           2           4
           0           0           2           1           3          -4
           1           2           4          -4           2           1
           3          -8           1           2           4          -8
Redundant internal coordinates             R   N=          12
 -1.17416715E+00  0.00000000E+00  0.00000000E+00  1.17416715E+00  0.00000000E+00
  0.00000000E+00  2.04292433E+00  2.04290354E+00  3.14159265E+00  3.14159265E+00
  3.14159265E+00  3.14159265E+00
ZRed-IntVec                                I   N=          12
          -1          -1          -1          -1          -1          -1
           0           0           0           0           0           0
ZRed-FPVec                                 R   N=          12
  0.00000000E+00  0.00000000E+00  0.00000000E+00  0.00000000E+00  0.00000000E+00
  0.00000000E+00  0.00000000E+00  0.00000000E+00  0.00000000E+00  0.00000000E+00
  0.00000000E+00  0.00000000E+00
ZRed-Constraint1                           R   N=          12
 -1.17416715E+00  0.00000000E+00  0.00000000E+00  1.17416715E+00  0.00000000E+00
  0.00000000E+00  2.04292433E+00  2.04290354E+00  3.14159265E+00  3.14159265E+00
  3.14159265E+00  3.14159265E+00
ZRed-Constraint2                           R   N=          12
 -1.17416715E+00  0.00000000E+00  0.00000000E+00  1.17416715E+00  0.00000000E+00
  0.00000000E+00  0.00000000E+00  0.00000000E+00  0.00000000E+00  0.00000000E+00
  0.00000000E+00  0.00000000E+00
Number of contracted shells                I               20
Number of primitive shells                 I               38
Pure/Cartesian d shells                    I                0
Pure/Cartesian f shells                    I                0
Highest angular momentum                   I                2
Largest degree of contraction              I                6
Shell types                                I   N=          20
           0          -1          -1          -1          -1          -2
           0          -1          -1          -1          -1          -2
           0           0           0           1           0           0
           0           1
Number of primitives per shell             I   N=          20
           6           3           1           1           1           1
           6           3           1           1           1           1
           3           1           1           1           3           1
           1           1
Shell to atom map                          I   N=          20
           1           1           1           1           1           1
           2           2           2           2           2           2
           3           3           3           3           4           4
           4           4
Primitive exponents                        R   N=          38
  4.56324000E+03  6.82024000E+02  1.54973000E+02  4.44553000E+01  1.30290000E+01
  1.82773000E+00  2.09642000E+01  4.80331000E+00  1.45933000E+00  4.83456000E-01
  1.45585000E-01  4.38000000E-02  6.26000000E-01  4.56324000E+03  6.82024000E+02
  1.54973000E+02  4.44553000E+01  1.30290000E+01  1.82773000E+00  2.09642000E+01
  4.80331000E+00  1.45933000E+00  4.83456000E-01  1.45585000E-01  4.38000000E-02
  6.26000000E-01  3.38650000E+01  5.09479000E+00  1.15879000E+00  3.25840000E-01
  1.02741000E-01  7.50000000E-01  3.38650000E+01  5.09479000E+00  1.15879000E+00
  3.25840000E-01  1.02741000E-01  7.50000000E-01
Contraction coefficients                   R   N=          38
  1.96665025E-03  1.52306019E-02  7.61269097E-02  2.60801033E-01  6.16462078E-01
  2.21006028E-01  1.14660081E-01  9.19999648E-01 -3.03068213E-03  1.00000000E+00
  1.00000000E+00  1.00000000E+00  1.00000000E+00  1.96665025E-03  1.52306019E-02
  7.61269097E-02  2.60801033E-01  6.16462078E-01  2.21006028E-01  1.14660081E-01
  9.19999648E-01 -3.03068213E-03  1.00000000E+00  1.00000000E+00  1.00000000E+00
  1.00000000E+00  2.54938145E-02  1.90373109E-01  8.52161486E-01  1.00000000E+00
  1.00000000E+00  1.00000000E+00  2.54938145E-02  1.90373109E-01  8.52161486E-01
  1.00000000E+00  1.00000000E+00  1.00000000E+00
P(S=P) Contraction coefficients            R   N=          38
  0.00000000E+00  0.00000000E+00  0.00000000E+00  0.00000000E+00  0.00000000E+00
  0.00000000E+00  4.02486927E-02  2.37593957E-01  8.15853851E-01  1.00000000E+00
  1.00000000E+00  1.00000000E+00  0.00000000E+00  0.00000000E+00  0.00000000E+00
  0.00000000E+00  0.00000000E+00  0.00000000E+00  0.00000000E+00  4.02486927E-02
  2.37593957E-01  8.15853851E-01  1.00000000E+00  1.00000000E+00  1.00000000E+00
  0.00000000E+00  0.00000000E+00  0.00000000E+00  0.00000000E+00  0.00000000E+00
  0.00000000E+00  0.00000000E+00  0.00000000E+00  0.00000000E+00  0.00000000E+00
  0.00000000E+00  0.00000000E+00  0.00000000E+00
Coordinates of each shell                  R   N=          60
 -1.17416715E+00  0.00000000E+00  0.00000000E+00 -1.17416715E+00  0.00000000E+00
  0.00000000E+00 -1.17416715E+00  0.00000000E+00  0.00000000E+00 -1.17416715E+00
  0.00000000E+00  0.00000000E+00 -1.17416715E+00  0.00000000E+00  0.00000000E+00
 -1.17416715E+00  0.00000000E+00  0.00000000E+00  1.17416715E+00  0.00000000E+00
  0.00000000E+00  1.17416715E+00  0.00000000E+00  0.00000000E+00  1.17416715E+00
  0.00000000E+00  0.00000000E+00  1.17416715E+00  0.00000000E+00  0.00000000E+00
  1.17416715E+00  0.00000000E+00  0.00000000E+00  1.17416715E+00  0.00000000E+00
  0.00000000E+00 -3.21709149E+00  0.00000000E+00  0.00000000E+00 -3.21709149E+00
  0.00000000E+00  0.00000000E+00 -3.21709149E+00  0.00000000E+00  0.00000000E+00
 -3.21709149E+00  0.00000000E+00  0.00000000E+00  3.21707070E+00  0.00000000E+00
  0.00000000E+00  3.21707070E+00  0.00000000E+00  0.00000000E+00  3.21707070E+00
  0.00000000E+00  0.00000000E+00  3.21707070E+00  0.00000000E+00  0.00000000E+00
Num ILSW                                   I              100
ILSW                                       I   N=         100
           1           0           0           0           2           0
           0           0           0           0        4336          -1
           7           0           0           0           2           0
           0           0           0           0           1           0
           1           1           0           0           0           0
           0           0      100000           0          -1           0
           0           0           0           0           0           0
           0           0           0           1           0           0
           0 -2000000000           1           0           0           0
           0           0           4          52           0           0
           0           0          55           0           0           0
           0           0           0           4           0           1
           0           0           0           0           0           0
           0           0           0           0           0           0
           0           0           0           0           0           0
           0           0           0           0           0           0
           0           0           0           0
Num RLSW                                   I               52
RLSW                                       R   N=          52
  1.00000000E+00  1.00000000E+00  1.00000000E+00  1.00000000E+00  5.40000000E-01
  0.00000000E+00  0.00000000E+00  1.00000000E+00  0.00000000E+00  0.00000000E+00
  0.00000000E+00  0.00000000E+00  1.00000000E+00  0.00000000E+00  0.00000000E+00
  0.00000000E+00  0.00000000E+00  1.00000000E+00  0.00000000E+00  0.00000000E+00
  0.00000000E+00  0.00000000E+00  1.00000000E+00  0.00000000E+00  0.00000000E+00
  0.00000000E+00  0.00000000E+00  1.00000000E+00  0.00000000E+00  0.00000000E+00
  0.00000000E+00  0.00000000E+00  1.00000000E+00  0.00000000E+00  0.00000000E+00
  0.00000000E+00  0.00000000E+00  0.00000000E+00  1.00000000E+00  1.00000000E+00
  0.00000000E+00  1.00000000E+00  0.00000000E+00  0.00000000E+00  0.00000000E+00
  0.00000000E+00  0.00000000E+00  0.00000000E+00  0.00000000E+00  0.00000000E+00
  0.00000000E+00  0.00000000E+00
MxBond                                     I                2
NBond                                      I   N=           4
           2           2           1           1
IBond                                      I   N=           8
           2           3           1           4           1           0
           2           0
RBond                                      R   N=           8
  3.00000000E+00  1.00000000E+00  3.00000000E+00  1.00000000E+00  1.00000000E+00
  0.00000000E+00  1.00000000E+00  0.00000000E+00
Virial Ratio                               R      2.003556480640518E+00
SCF Energy                                 R     -7.690114790882762E+01
Total Energy                               R     -7.690114790882762E+01
S**2                                       R      7.522105232732965E-01
S**2 after annihilation                    R      7.500035217008190E-01
RMS Force                                  R      1.994080816360407E-06
RMS Density                                R      4.217195308473122E-09
Job Status                                 I                1
Nuclear derivative order                   I                1
External E-field                           R   N=          35
  0.00000000E+00  0.00000000E+00  0.00000000E+00  0.00000000E+00  0.00000000E+00
  0.00000000E+00  0.00000000E+00  0.00000000E+00  0.00000000E+00  0.00000000E+00
  0.00000000E+00  0.00000000E+00  0.00000000E+00  0.00000000E+00  0.00000000E+00
  0.00000000E+00  0.00000000E+00  0.00000000E+00  0.00000000E+00  0.00000000E+00
  0.00000000E+00  0.00000000E+00  0.00000000E+00  0.00000000E+00  0.00000000E+00
  0.00000000E+00  0.00000000E+00  0.00000000E+00  0.00000000E+00  0.00000000E+00
  0.00000000E+00  0.00000000E+00  0.00000000E+00  0.00000000E+00  0.00000000E+00
IOpCl                                      I                1
IROHF                                      I                0
Alpha Orbital Energies                     R   N=          56
 -1.09417859E+01 -1.09395877E+01 -1.22891075E+00 -9.71154061E-01 -8.95957838E-01
 -7.29674965E-01 -7.02511330E-01 -2.73466910E-01 -2.53405626E-01 -1.54776767E-01
 -1.45081047E-01 -1.15589200E-01 -1.03404152E-01 -1.00836671E-01 -6.22804849E-02
 -4.76108835E-02 -4.31810127E-02  2.28223871E-02  4.55528592E-02  1.58334939E-01
  1.86749588E-01  2.92122741E-01  3.03324996E-01  3.77815330E-01  3.84054158E-01
  4.78865101E-01  4.83228783E-01  5.51424179E-01  6.54793614E-01  7.61732321E-01
  7.77300404E-01  8.33512383E-01  8.48852347E-01  8.50599093E-01  1.18642952E+00
  1.19263543E+00  1.23246696E+00  1.23363149E+00  1.40748709E+00  1.52563642E+00
  1.53948353E+00  1.78560664E+00  2.12475915E+00  2.14651312E+00  2.29247394E+00
  2.36164027E+00  2.41313907E+00  2.44340031E+00  2.62474837E+00  2.65353948E+00
  2.65863042E+00  2.97743707E+00  3.01907472E+00  3.43079622E+00  2.32315887E+01
  2.46433650E+01
Beta Orbital Energies                      R   N=          56
 -1.09392866E+01 -1.09373391E+01 -1.18075245E+00 -9.55291752E-01 -8.90425619E-01
 -6.77477020E-01 -4.63150858E-01 -2.37454064E-01 -2.10057737E-01 -1.56299549E-01
 -1.46056299E-01 -1.16714002E-01 -1.06021803E-01 -1.02933843E-01 -5.71293975E-02
 -4.15773428E-02 -3.52518953E-02  2.06266723E-02  4.80272528E-02  1.63760050E-01
  1.95111422E-01  2.76980247E-01  3.02351267E-01  3.73115546E-01  3.84963037E-01
  4.61094753E-01  4.78934782E-01  5.65704745E-01  6.85318071E-01  7.94709170E-01
  8.03064568E-01  8.05746548E-01  8.88608103E-01  9.09447379E-01  1.20221823E+00
  1.21253196E+00  1.26186855E+00  1.28077305E+00  1.42195888E+00  1.54869711E+00
  1.55637045E+00  1.81564922E+00  2.15331447E+00  2.15986418E+00  2.30839659E+00
  2.38101433E+00  2.44725946E+00  2.45232894E+00  2.66526281E+00  2.66528201E+00
  2.73660181E+00  2.99555460E+00  3.10925840E+00  3.44913470E+00  2.32404505E+01
  2.46676824E+01
Alpha MO coefficients                      R   N=        3136
  3.98809976E-01  3.28125987E-01  5.83487375E-04  1.28392607E-16  2.02179378E-16
  7.93756476E-03 -2.19719413E-03 -1.69804334E-18 -2.60769868E-16 -2.36451574E-03
 -1.36007230E-04 -3.88288317E-16 -9.67447620E-17 -4.55891278E-04  1.53553532E-03
  5.90750605E-16  1.24116842E-16 -6.38426520E-04  3.74491577E-17  2.87157397E-05
  1.15574546E-03  9.99005989E-17  3.98668445E-01  3.28009895E-01 -5.83561737E-04
  3.25187725E-16  3.01062249E-16  7.93300129E-03  2.19940511E-03 -5.37628582E-16
 -4.32588606E-16 -2.36042050E-03  1.32015741E-04  5.97923567E-16  3.37932025E-16
 -4.48904065E-04 -1.53734778E-03 -6.52663809E-16 -1.57320777E-16 -6.37489390E-04
 -6.36880489E-17  2.87018930E-05  1.15409822E-03  2.70021844E-17  8.27297363E-05
 -3.56304075E-03  2.60429323E-03 -1.99413844E-03  1.28183296E-16  8.81258605E-17
  8.27851586E-05 -3.56153299E-03  2.60528252E-03  1.99346312E-03 -3.49201107E-17
  2.20078470E-17 -3.99034171E-01 -3.27277343E-01  1.81931392E-04  3.95911090E-16
 -5.49703013E-16 -1.32494814E-02 -5.78037071E-03 -3.91598055E-16  7.44538046E-16
  1.21890818E-02  1.18488223E-02  1.82934788E-16 -5.34927031E-16  2.20179265E-02
  5.63801034E-03  9.78650358E-19  1.86551558E-16  2.73594381E-03  6.38852761E-17
 -3.89846217E-05 -4.80661706E-03  3.52423758E-17  3.99175565E-01  3.27393669E-01
  1.81729241E-04  2.69496386E-16 -2.39366507E-16  1.32524013E-02 -5.77947449E-03
 -3.48765370E-16  1.42678180E-16 -1.21897903E-02  1.18489168E-02  1.28387616E-16
  2.71734501E-17 -2.20180907E-02  5.63747584E-03 -6.91295797E-17  2.94215226E-18
 -2.73619835E-03  1.56742847E-16  3.89947873E-05  4.80707563E-03 -5.42670537E-17
  2.44541921E-04  4.93834921E-03  2.67464585E-03  2.18606158E-03  3.47158152E-17
 -2.97226159E-17 -2.44563302E-04 -4.93976781E-03 -2.67377290E-03  2.18683376E-03
  8.90685164E-17 -8.20148144E-17 -9.24454946E-02 -1.49921717E-01  8.75584602E-02
  6.00841271E-17 -8.36467683E-17  3.98589366E-01  9.70373511E-02 -3.21541731E-16
  3.58982288E-16  1.92073241E-01  1.57472166E-02  4.13246116E-16 -5.91663621E-16
 -5.81313494E-03 -2.07878571E-02 -3.21219857E-16  2.38384336E-16 -1.03704336E-02
 -9.71681856E-17  4.32162699E-03  2.54803401E-02 -9.39596814E-17 -9.24457985E-02
 -1.49922244E-01 -8.75578759E-02 -2.98289250E-16  3.36521989E-16  3.98590870E-01
 -9.70364891E-02  3.84781366E-16 -2.33904224E-16  1.92073900E-01 -1.57468105E-02
 -4.33960220E-16  4.09572504E-16 -5.81366152E-03  2.07880071E-02  2.81357030E-16
 -1.11447324E-16 -1.03705525E-02 -3.66440569E-17  4.32164326E-03  2.54805743E-02
 -2.22743435E-16  3.19073168E-02  2.51059119E-02 -1.52716898E-02 -1.00618002E-03
  4.10980601E-17 -6.60394282E-17  3.19081290E-02  2.51062594E-02 -1.52719882E-02
  1.00620855E-03  1.55947752E-16 -1.28085067E-17  6.59239726E-02  1.09551216E-01
  9.72384974E-02 -7.85646665E-16 -4.87590082E-16 -3.10871934E-01  1.30045451E-01
  7.30973301E-16  4.54699496E-16 -3.02571953E-01  1.42134861E-02 -5.34582867E-16
 -3.31671640E-16  3.34527090E-01  8.62021081E-02  3.11220592E-16 -3.46360389E-16
  3.96481631E-03  1.75674476E-16 -3.06916094E-03 -1.22066131E-02  1.04173379E-16
 -6.59241921E-02 -1.09551518E-01  9.72481422E-02  2.61908997E-16 -4.71362487E-17
  3.10872524E-01  1.30056925E-01 -4.38053617E-16  3.17103201E-16  3.02573513E-01
  1.42167201E-02  1.30881679E-16 -2.79616587E-16 -3.34526828E-01  8.62020194E-02
 -2.73377958E-16  5.38084707E-16 -3.96458192E-03  2.28541324E-16  3.06915433E-03
  1.22061956E-02  1.27932003E-16 -1.24614786E-01 -1.62855105E-01 -2.49680641E-04
 -2.07985179E-02  4.41905325E-17  1.70297647E-16  1.24621938E-01  1.62863829E-01
  2.49838854E-04 -2.07999525E-02 -7.44579341E-17 -1.24192696E-16  1.12331462E-02
  1.81041921E-02  1.91954163E-01 -1.23880984E-16 -5.46547543E-17 -5.32114214E-02
  2.44630978E-01  1.66582557E-16 -4.09916930E-16 -1.04264998E-01  1.00382398E-01
 -2.18984319E-16 -5.26491719E-16 -9.01417923E-03  9.84130622E-03  9.66420729E-17
  2.29658557E-16 -4.91673899E-03 -2.51533468E-16 -3.12083299E-04  7.97310902E-03
 -9.42976962E-19  1.12301686E-02  1.80991807E-02 -1.91950174E-01  4.34842292E-17
  8.61903107E-17 -5.31966632E-02 -2.44623837E-01 -7.58186787E-18 -1.79382893E-16
 -1.04250195E-01 -1.00379790E-01  4.60219017E-17  4.88109819E-16 -9.03746211E-03
 -9.83522685E-03  1.76469766E-17 -2.17545849E-16 -4.91681212E-03 -2.06430509E-16
 -3.11934561E-04  7.97349445E-03  2.16561195E-17 -1.33656873E-01 -1.90726604E-01
  6.35130564E-03 -2.91393865E-02  1.10720864E-16  3.75269577E-16 -1.33652334E-01
 -1.90719528E-01  6.35137021E-03  2.91386620E-02 -1.04462304E-16 -3.69301489E-16
  2.03961629E-17  2.44435689E-18 -1.15702198E-17  8.30445200E-02  1.82300544E-01
  3.32734768E-16 -1.30876238E-15  1.35354258E-01  2.97131761E-01 -1.69235770E-14
 -1.65392228E-14  8.13048113E-02  1.78481116E-01  1.16915035E-14  3.66302559E-15
 -3.07539277E-03 -6.75067973E-03 -1.22075493E-16  3.13739124E-02  2.23374703E-16
 -1.14269578E-16  1.42919633E-02  1.21869568E-17  1.14318127E-17  8.30616735E-17
  8.30445535E-02  1.82300617E-01 -6.74921206E-16 -7.03714061E-16  1.35354372E-01
  2.97132011E-01  2.14177847E-14 -1.26969917E-14  8.13047978E-02  1.78481087E-01
 -1.38495906E-14 -8.95755955E-16 -3.07540362E-03 -6.75070354E-03 -4.11570783E-16
 -3.13738784E-02  1.48397052E-16  4.08466611E-16 -1.42919478E-02  2.02871735E-16
 -3.99100714E-15 -7.23157564E-15 -6.37198675E-16  5.06278646E-03  1.11139095E-02
  4.09006553E-17 -5.72737870E-16  7.09333767E-15  1.31317075E-16  5.06288401E-03
  1.11141236E-02  2.12073031E-17  1.50217243E-16 -2.75961456E-16  1.81853220E-01
 -8.28407414E-02 -2.53616388E-15  2.36817974E-15  2.95514316E-01 -1.34617625E-01
  4.36902869E-14  2.26009870E-14  1.79040018E-01 -8.15588804E-02 -2.04476691E-13
 -5.41285301E-14 -3.68233161E-03  1.67697050E-03 -6.69507518E-16 -1.36459351E-02
 -3.87080800E-17  9.72039606E-16  2.99557707E-02 -6.48323311E-18  1.27418434E-16
 -4.15252425E-17  1.81853282E-01 -8.28407696E-02  2.98462685E-16  1.81947118E-15
  2.95514515E-01 -1.34617716E-01 -3.71702677E-14  2.50827411E-14  1.79039988E-01
 -8.15588665E-02  2.04894588E-13 -4.98103438E-14 -3.68236192E-03  1.67698430E-03
  6.39524094E-16  1.36459304E-02 -2.38414791E-16 -7.87725682E-16 -2.99557604E-02
 -3.49507745E-16  3.23846803E-15  2.48317139E-15 -1.14529505E-16  1.23574788E-02
 -5.62928675E-03  5.59782032E-16 -3.41604938E-15 -7.30969049E-15  2.24925398E-17
  1.23577106E-02 -5.62939234E-03 -1.02296779E-17 -1.90717821E-16 -1.71676794E-16
  8.62406174E-02  1.89317165E-01  4.97894035E-16  1.53764056E-15  1.43693508E-01
  3.15438942E-01  8.28449826E-16 -1.19620147E-14  2.12998206E-01  4.67577450E-01
 -3.49350160E-13 -8.57890265E-14  8.65815311E-02  1.90067699E-01 -1.09510029E-15
 -3.26269816E-02  1.09028795E-16  1.68771338E-15 -1.48627194E-02  2.33670668E-17
  1.58533712E-16 -1.12883996E-16 -8.62405735E-02 -1.89317069E-01 -8.87023098E-16
  1.95254881E-15 -1.43693501E-01 -3.15438925E-01  1.95311894E-15 -1.01754359E-14
 -2.12998088E-01 -4.67577191E-01  3.44919875E-13 -8.98106745E-14 -8.65813919E-02
 -1.90067393E-01  7.23984143E-16 -3.26270741E-02  1.54984831E-16 -1.49315385E-15
 -1.48627615E-02  3.90944939E-16 -6.31979905E-15 -4.88233072E-16 -1.02962320E-15
  1.12049869E-02  2.45974264E-02 -1.32497078E-16  3.21449082E-15  3.85246804E-15
 -7.21274956E-16 -1.12050223E-02 -2.45975043E-02 -1.11518579E-16 -6.76721705E-17
 -9.65154881E-18  1.84737887E-01 -8.41545627E-02 -4.81244445E-17 -7.21214683E-16
  3.01659215E-01 -1.37416332E-01  3.08887700E-14  3.67631873E-14  4.78180723E-01
 -2.17827716E-01  6.94037873E-13  1.75137733E-13  2.38354239E-01 -1.08580038E-01
  6.50435640E-16  1.58613388E-02  3.46603835E-17 -1.39887595E-15 -3.48191067E-02
  1.28763157E-16  1.64958856E-16  1.08477791E-16 -1.84737816E-01  8.41545302E-02
 -9.27779758E-16 -1.15048539E-15 -3.01659190E-01  1.37416320E-01 -2.60496664E-14
  3.88732863E-14 -4.78180528E-01  2.17827627E-01 -6.91246067E-13  1.81599728E-13
 -2.38353864E-01  1.08579867E-01 -7.90603574E-16  1.58613687E-02  5.11645016E-17
  1.25715982E-15 -3.48191724E-02 -6.66739575E-16  8.19098252E-15  8.14227561E-15
  1.11532145E-15  2.59435843E-02 -1.18182168E-02  5.77658021E-16 -7.74676860E-15
 -1.47669609E-14  1.04429060E-15 -2.59436594E-02  1.18182511E-02  4.77539390E-02
  8.26136701E-02  1.93661082E-02  1.37894060E-15 -6.29541972E-16 -2.55372350E-01
  4.09538060E-02  1.63668887E-15 -2.60731422E-15 -9.05909578E-01 -2.34442677E-02
  2.13589855E-15  2.23739602E-15 -8.59653312E+00 -2.53685836E+00 -9.11945206E-15
 -3.35609756E-15 -1.97627152E-02  3.47900351E-17 -3.27048476E-03  2.85404457E-02
 -4.08443799E-16 -4.77519320E-02 -8.26102638E-02  1.93558309E-02 -5.40023760E-16
  6.32694552E-16  2.55362524E-01  4.09385177E-02 -2.50225430E-15  7.99634205E-16
  9.05867076E-01 -2.34647387E-02 -1.01838559E-15 -1.12298626E-15  8.59658018E+00
 -2.53678515E+00  7.13042481E-15  4.81556448E-15  1.97616974E-02 -3.32455476E-16
  3.27034560E-03 -2.85389248E-02 -4.38198692E-16  6.32364891E-02  2.25644422E-01
  4.01238607E-01 -2.06755903E-02 -5.18527232E-17 -2.60412594E-16 -6.32325753E-02
 -2.25626261E-01 -4.01215902E-01 -2.06732461E-02 -5.06625991E-17  5.67634449E-16
  2.29912068E-02  4.01254099E-02  2.91919898E-02  5.15187110E-17  2.01511258E-16
 -1.45764458E-01  6.01386578E-02  2.55275373E-16  8.47608488E-17 -2.88017555E-01
  5.52593642E-02  2.01650419E-16  6.41041756E-16  9.52833758E-01 -5.37416510E-01
  3.59714855E-16 -2.11762496E-16  1.20011809E-02  1.54902361E-16  7.69356754E-04
 -1.94482246E-02  2.19876035E-16  2.29940812E-02  4.01304209E-02 -2.91934201E-02
  2.01518418E-17 -2.48187148E-16 -1.45780375E-01 -6.01420573E-02  3.44361094E-16
 -1.99328101E-16 -2.88081096E-01 -5.52480617E-02  4.52555119E-16 -3.11464058E-16
  9.52304235E-01  5.37580636E-01 -2.55299887E-15  1.95657547E-16  1.20002420E-02
 -2.45864632E-16  7.69173624E-04 -1.94469169E-02 -1.82647026E-16 -2.79504267E-02
  2.56990514E-02 -3.05549200E-01 -7.33105847E-03 -2.92263136E-16 -1.12572031E-16
 -2.79472951E-02  2.57116644E-02 -3.05533669E-01  7.33204989E-03 -1.22292409E-16
 -1.66852284E-16  2.64238898E-04 -2.49301944E-04  1.01400567E-01  2.07640143E-16
 -1.09832315E-16  3.23838937E-02  1.39249767E-01  1.99249787E-16  2.36579667E-16
 -2.76855552E-01  2.32401060E-01 -1.20844088E-15  5.13049498E-16 -2.29120700E-01
 -8.95104413E-01  1.43831609E-15 -1.11467477E-15 -2.69605836E-02  3.65789078E-16
 -2.89519504E-03  4.16604009E-02  3.36974944E-17  2.65962879E-04 -2.46278099E-04
 -1.01401971E-01  2.52716298E-16 -2.29862410E-16  3.23740841E-02 -1.39251955E-01
 -2.34449748E-17 -4.56318047E-16 -2.76903031E-01 -2.32391061E-01  1.15440037E-15
 -1.14711520E-15 -2.29812331E-01  8.95332629E-01 -2.58560476E-15  5.66507656E-15
 -2.69607955E-02  5.80123477E-17 -2.89527691E-03  4.16606256E-02 -1.66939093E-16
  5.86082888E-02  1.97026262E-01  6.28031924E-01 -2.67224869E-02  2.59327317E-18
 -8.78765464E-17  5.86071695E-02  1.97028544E-01  6.28024978E-01  2.67239115E-02
 -8.09363525E-17 -3.46026660E-16 -3.21205489E-17 -8.62601283E-17 -3.44909545E-16
 -2.72977958E-02 -6.15185843E-02  5.23384700E-16 -5.02350767E-16 -3.20873737E-02
 -7.24462571E-02 -1.22492341E-14 -1.21349023E-14 -7.38367226E-02 -1.66454445E-01
 -6.68435715E-14 -1.51056951E-14  2.46399990E-01  5.55425491E-01  1.83465212E-17
 -1.80592327E-02  5.11373444E-17 -8.07620232E-17 -8.02163928E-03  6.61668486E-17
  1.51539303E-16  2.19077191E-16 -2.72975918E-02 -6.15181245E-02 -1.03213339E-15
  3.43147507E-16 -3.20870583E-02 -7.24455462E-02  1.30721435E-14 -1.15748058E-14
 -7.38361505E-02 -1.66453152E-01  6.90671787E-14 -1.95360921E-14  2.46397110E-01
  5.55419009E-01  8.31852226E-17  1.80592160E-02  6.18453510E-17 -2.02972177E-16
  8.02163177E-03 -1.15629825E-16 -2.46928533E-15 -5.86332967E-15 -6.13851783E-17
  3.40377218E-03  7.65974554E-03 -2.76662310E-16  1.53592463E-15  2.61603823E-15
 -1.92443592E-16  3.40368269E-03  7.65954420E-03  2.00648734E-16  3.08805758E-16
  4.10912188E-16 -6.13135978E-02  2.71928239E-02  3.66765356E-16 -2.75426770E-16
 -7.91468055E-02  3.51623254E-02 -3.81268835E-14 -1.92462687E-14 -1.63220477E-01
  7.24152464E-02  2.17292218E-13  5.28894642E-14  5.53695433E-01 -2.45631184E-01
  2.12027530E-16  7.71157148E-03 -3.11499080E-17 -3.53219233E-16 -1.74064692E-02
 -1.15783967E-16 -1.55992723E-16 -2.54932738E-16 -6.13131043E-02  2.71926048E-02
 -5.00953520E-16 -1.23821375E-15 -7.91460658E-02  3.51619973E-02  3.30613918E-14
 -2.14044334E-14 -1.63218928E-01  7.24145580E-02 -2.18410717E-13  5.36361050E-14
  5.53688678E-01 -2.45628192E-01 -2.80245131E-16 -7.71156940E-03 -1.25357415E-17
  5.27988501E-16  1.74064642E-02  5.28858613E-16 -8.91174241E-16 -2.73471492E-15
 -6.67871726E-17  7.19417410E-03 -3.18575118E-03 -2.04561193E-16  1.37831286E-15
  1.04934352E-14  8.04450244E-17  7.19398387E-03 -3.18566696E-03 -3.34944952E-02
 -5.72103622E-02  3.18458083E-02 -2.98486505E-16 -4.42454986E-16  1.57116447E-01
  4.21930629E-02  2.81662044E-16  6.27304179E-16  5.94215210E-01 -2.90436018E-01
 -7.67954364E-17 -7.75437880E-16  2.62733578E+00 -3.14390486E-01 -1.28736235E-16
  2.36105315E-15  3.64388624E-02 -9.08921224E-17  3.98553895E-03 -5.61804237E-02
  9.25478302E-18  3.34940021E-02  5.72095285E-02  3.18446434E-02  4.73328528E-16
  1.48995424E-17 -1.57113181E-01  4.21915872E-02 -2.26170176E-16 -3.96470885E-17
 -5.94219600E-01 -2.90444159E-01 -1.46589022E-16  2.46414869E-16 -2.62732470E+00
 -3.14307059E-01  3.00682182E-16 -1.92096688E-15 -3.64395386E-02 -9.05309575E-18
 -3.98561832E-03  5.61814567E-02  1.83722018E-16 -1.09065050E-01 -3.05611120E-01
 -1.43076229E+00  5.64955030E-03 -1.21285822E-16  3.71329206E-17  1.09064208E-01
  3.05613271E-01  1.43076580E+00  5.65059134E-03 -1.40361907E-16 -9.78847227E-17
 -1.78929892E-16 -3.48147370E-16 -6.76038647E-17  3.69771524E-02  8.12083631E-02
  1.26767924E-15  2.09243764E-16  5.16807469E-02  1.13500353E-01 -6.16977178E-15
 -1.01784379E-14  1.54509118E-01  3.39332587E-01 -2.89965715E-13 -7.19740546E-14
 -9.58140521E-01 -2.10420111E+00 -2.14070764E-16 -4.12683905E-03  6.34175942E-17