Title Card Required                                                     
FOpt      UM062X                                                      6-311+G(d,p)        
Number of atoms                            I                4
Info1-9                                    I   N=           9
          13          13           0           0           0         110
           2          18        -502
Full Title                                 C   N=           2
Title Card Required     
Route                                      C   N=           4
#p opt UM062X/6-311+G** nosymm int=superfine    
Charge                                     I                0
Multiplicity                               I                1
Number of electrons                        I               26
Number of alpha electrons                  I               13
Number of beta electrons                   I               13
Number of basis functions                  I               64
Number of independent functions            I               64
Number of point charges in /Mol/           I                0
Number of translation vectors              I                0
Atomic numbers                             I   N=           4
           8          16           1           1
Nuclear charges                            R   N=           4
  8.00000000E+00  1.60000000E+01  1.00000000E+00  1.00000000E+00
Current cartesian coordinates              R   N=          12
 -2.47618826E+00 -4.37762487E-02 -4.78368006E-02  2.47763012E+00  2.81916774E-02
  3.52606732E-02 -2.49093533E+00 -5.86792658E-01 -1.79725062E+00  2.24680776E+00
 -1.67867292E+00  1.90525701E+00
Number of symbols in /Mol/                 I                0
Force Field                                I                0
Atom Types                                 C   N=           4
                                                
Int Atom Types                             I   N=           4
           0           0           0           0
MM charges                                 R   N=           4
  0.00000000E+00  0.00000000E+00  0.00000000E+00  0.00000000E+00
Integer atomic weights                     I   N=           4
          16          32           1           1
Real atomic weights                        R   N=           4
  1.59949146E+01  3.19720718E+01  1.00782504E+00  1.00782504E+00
Atom fragment info                         I   N=           4
           0           0           0           0
Atom residue num                           I   N=           4
           0           0           0           0
Nuclear spins                              I   N=           4
           0           0           1           1
Nuclear ZEff                               R   N=           4
 -5.60000000E+00 -1.36000000E+01 -1.00000000E+00 -1.00000000E+00
Nuclear ZNuc                               R   N=           4
  8.00000000E+00  1.60000000E+01  1.00000000E+00  1.00000000E+00
Nuclear QMom                               R   N=           4
  0.00000000E+00  0.00000000E+00  0.00000000E+00  0.00000000E+00
Nuclear GFac                               R   N=           4
  0.00000000E+00  0.00000000E+00  2.79284600E+00  2.79284600E+00
MicOpt                                     I   N=           4
          -2          -2          -1          -1
Number of residues                         I                0
Number of secondary structures             I                0
Redundant internal dimensions              I   N=           4
          12           9           2           1
Redundant internal coordinate indices      I   N=          48
           1          -1           0           0           1          -2
           0           0           1          -3           0           0
           2          -1           0           0           2          -2
           0           0           2          -3           0           0
           1           3           0           0           2           4
           0           0           3           4           0           0
           1           3           4           0           2           4
           3           0           1           3           4           2
Redundant internal coordinates             R   N=          12
 -2.47618826E+00 -4.37762487E-02 -4.78368006E-02  2.47763012E+00  2.81916774E-02
  3.52606732E-02  1.83181140E+00  2.54235167E+00  6.11121714E+00  1.00997781E+00
  1.05273606E+00 -1.90211638E+00
ZRed-IntVec                                I   N=          12
          -1          -1          -1          -1          -1          -1
           0           0           0           0           0           0
ZRed-FPVec                                 R   N=          12
  0.00000000E+00  0.00000000E+00  0.00000000E+00  0.00000000E+00  0.00000000E+00
  0.00000000E+00  0.00000000E+00  0.00000000E+00  0.00000000E+00  0.00000000E+00
  0.00000000E+00  0.00000000E+00
ZRed-Constraint1                           R   N=          12
 -2.47639727E+00 -4.37792851E-02 -4.78403066E-02  2.47783913E+00  2.81947138E-02
  3.52641792E-02  1.82962116E+00  2.55199453E+00  4.55641617E+00  1.91843652E+00
  1.45605423E+00 -3.05938174E-02
ZRed-Constraint2                           R   N=          12
 -2.47639727E+00 -4.37792851E-02 -4.78403066E-02  2.47783913E+00  2.81947138E-02
  3.52641792E-02  0.00000000E+00  0.00000000E+00  0.00000000E+00  0.00000000E+00
  0.00000000E+00  0.00000000E+00
Number of contracted shells                I               27
Number of primitive shells                 I               49
Pure/Cartesian d shells                    I                0
Pure/Cartesian f shells                    I                0
Highest angular momentum                   I                2
Largest degree of contraction              I                6
Shell types                                I   N=          27
           0          -1          -1          -1          -1          -2
           0           0           0           0           0           0
          -1           1           1           1           1           1
          -2           0           0           0           1           0
           0           0           1
Number of primitives per shell             I   N=          27
           6           3           1           1           1           1
           6           3           1           1           1           1
           1           4           2           1           1           1
           1           3           1           1           1           3
           1           1           1
Shell to atom map                          I   N=          27
           1           1           1           1           1           1
           2           2           2           2           2           2
           2           2           2           2           2           2
           2           3           3           3           3           4
           4           4           4
Primitive exponents                        R   N=          49
  8.58850000E+03  1.29723000E+03  2.99296000E+02  8.73771000E+01  2.56789000E+01
  3.74004000E+00  4.21175000E+01  9.62837000E+00  2.85332000E+00  9.05661000E-01
  2.55611000E-01  8.45000000E-02  1.29200000E+00  9.34134000E+04  1.39617000E+04
  3.16991000E+03  9.02456000E+02  2.97158000E+02  1.08702000E+02  1.08702000E+02
  4.31553000E+01  1.81079000E+01  5.56009000E+00  2.13183000E+00  4.20403000E-01
  1.36045000E-01  4.05000000E-02  4.95040000E+02  1.17221000E+02  3.77749000E+01
  1.40584000E+01  5.56574000E+00  2.26297000E+00  8.07994000E-01  2.77460000E-01
  7.71410000E-02  6.50000000E-01  3.38650000E+01  5.09479000E+00  1.15879000E+00
  3.25840000E-01  1.02741000E-01  7.50000000E-01  3.38650000E+01  5.09479000E+00
  1.15879000E+00  3.25840000E-01  1.02741000E-01  7.50000000E-01
Contraction coefficients                   R   N=          49
  1.89515008E-03  1.43859006E-02  7.07320031E-02  2.40001011E-01  5.94797026E-01
  2.80802012E-01  1.13889012E-01  9.20811101E-01 -3.27447036E-03  1.00000000E+00
  1.00000000E+00  1.00000000E+00  1.00000000E+00  7.42999957E-04  5.79299966E-03
  2.99539983E-02  1.19027993E-01  3.68431979E-01  5.77298966E-01  1.43186060E-01
  6.24465262E-01  2.83366119E-01  1.00000000E+00  1.00000000E+00  1.00000000E+00
  1.00000000E+00  1.00000000E+00  8.30900251E-03  6.40240194E-02  2.77614084E-01
  7.45076225E-01  6.13711672E-01  4.43817763E-01  1.00000000E+00  1.00000000E+00
  1.00000000E+00  1.00000000E+00  2.54938145E-02  1.90373109E-01  8.52161486E-01
  1.00000000E+00  1.00000000E+00  1.00000000E+00  2.54938145E-02  1.90373109E-01
  8.52161486E-01  1.00000000E+00  1.00000000E+00  1.00000000E+00
P(S=P) Contraction coefficients            R   N=          49
  0.00000000E+00  0.00000000E+00  0.00000000E+00  0.00000000E+00  0.00000000E+00
  0.00000000E+00  3.65113974E-02  2.37152983E-01  8.19701941E-01  1.00000000E+00
  1.00000000E+00  1.00000000E+00  0.00000000E+00  0.00000000E+00  0.00000000E+00
  0.00000000E+00  0.00000000E+00  0.00000000E+00  0.00000000E+00  0.00000000E+00
  0.00000000E+00  0.00000000E+00  0.00000000E+00  0.00000000E+00  0.00000000E+00
  0.00000000E+00  1.00000000E+00  0.00000000E+00  0.00000000E+00  0.00000000E+00
  0.00000000E+00  0.00000000E+00  0.00000000E+00  0.00000000E+00  0.00000000E+00
  0.00000000E+00  0.00000000E+00  0.00000000E+00  0.00000000E+00  0.00000000E+00
  0.00000000E+00  0.00000000E+00  0.00000000E+00  0.00000000E+00  0.00000000E+00
  0.00000000E+00  0.00000000E+00  0.00000000E+00  0.00000000E+00
Coordinates of each shell                  R   N=          81
 -2.47618826E+00 -4.37762487E-02 -4.78368006E-02 -2.47618826E+00 -4.37762487E-02
 -4.78368006E-02 -2.47618826E+00 -4.37762487E-02 -4.78368006E-02 -2.47618826E+00
 -4.37762487E-02 -4.78368006E-02 -2.47618826E+00 -4.37762487E-02 -4.78368006E-02
 -2.47618826E+00 -4.37762487E-02 -4.78368006E-02  2.47763012E+00  2.81916774E-02
  3.52606732E-02  2.47763012E+00  2.81916774E-02  3.52606732E-02  2.47763012E+00
  2.81916774E-02  3.52606732E-02  2.47763012E+00  2.81916774E-02  3.52606732E-02
  2.47763012E+00  2.81916774E-02  3.52606732E-02  2.47763012E+00  2.81916774E-02
  3.52606732E-02  2.47763012E+00  2.81916774E-02  3.52606732E-02  2.47763012E+00
  2.81916774E-02  3.52606732E-02  2.47763012E+00  2.81916774E-02  3.52606732E-02
  2.47763012E+00  2.81916774E-02  3.52606732E-02  2.47763012E+00  2.81916774E-02
  3.52606732E-02  2.47763012E+00  2.81916774E-02  3.52606732E-02  2.47763012E+00
  2.81916774E-02  3.52606732E-02 -2.49093533E+00 -5.86792658E-01 -1.79725062E+00
 -2.49093533E+00 -5.86792658E-01 -1.79725062E+00 -2.49093533E+00 -5.86792658E-01
 -1.79725062E+00 -2.49093533E+00 -5.86792658E-01 -1.79725062E+00  2.24680776E+00
 -1.67867292E+00  1.90525701E+00  2.24680776E+00 -1.67867292E+00  1.90525701E+00
  2.24680776E+00 -1.67867292E+00  1.90525701E+00  2.24680776E+00 -1.67867292E+00
  1.90525701E+00
Num ILSW                                   I              100
ILSW                                       I   N=         100
           1           0           0           1           2           0
           0           0           0           0        4336          -1
           7           0           0           0           2           0
           0           0           0           0           1           0
           1           1           0           0           0           0
           0           0      100000           0          -1           0
           0           0           0           0           0           0
           0           0           0           1           0           0
           0 -2000000000           1           0           0           0
           0           0           4          52           0           0
           0           0          55           0           0           0
           0           0           0           4           0           1
           0           0           0           0           0           0
           0           0           0           0           0           0
           0           0           0           0           0           0
           0           0           0           0           0           0
           0           0           0           0
Num RLSW                                   I               52
RLSW                                       R   N=          52
  1.00000000E+00  1.00000000E+00  1.00000000E+00  1.00000000E+00  5.40000000E-01
  0.00000000E+00  0.00000000E+00  1.00000000E+00  0.00000000E+00  0.00000000E+00
  0.00000000E+00  0.00000000E+00  1.00000000E+00  0.00000000E+00  0.00000000E+00
  0.00000000E+00  0.00000000E+00  1.00000000E+00  0.00000000E+00  0.00000000E+00
  0.00000000E+00  0.00000000E+00  1.00000000E+00  0.00000000E+00  0.00000000E+00
  0.00000000E+00  0.00000000E+00  1.00000000E+00  0.00000000E+00  0.00000000E+00
  0.00000000E+00  0.00000000E+00  1.00000000E+00  0.00000000E+00  0.00000000E+00
  0.00000000E+00  0.00000000E+00  0.00000000E+00  1.00000000E+00  1.00000000E+00
  0.00000000E+00  1.00000000E+00  0.00000000E+00  0.00000000E+00  0.00000000E+00
  0.00000000E+00  0.00000000E+00  0.00000000E+00  0.00000000E+00  0.00000000E+00
  0.00000000E+00  0.00000000E+00
MxBond                                     I                2
NBond                                      I   N=           4
           1           1           2           2
IBond                                      I   N=           8
           3           0           4           0           1           4
           2           3
RBond                                      R   N=           8
  1.00000000E+00  0.00000000E+00  1.00000000E+00  0.00000000E+00  1.00000000E+00
  1.00000000E-01  1.00000000E+00  1.00000000E-01
Virial Ratio                               R      2.002030984836928E+00
SCF Energy                                 R     -4.744479486817625E+02
Total Energy                               R     -4.744479486817625E+02
S**2                                       R      3.659295089164516E-13
S**2 after annihilation                    R      4.867217739957507E-13
RMS Force                                  R      7.973632344064787E-06
RMS Density                                R      3.026737580018998E-09
Job Status                                 I                1
Nuclear derivative order                   I                1
External E-field                           R   N=          35
  0.00000000E+00  0.00000000E+00  0.00000000E+00  0.00000000E+00  0.00000000E+00
  0.00000000E+00  0.00000000E+00  0.00000000E+00  0.00000000E+00  0.00000000E+00
  0.00000000E+00  0.00000000E+00  0.00000000E+00  0.00000000E+00  0.00000000E+00
  0.00000000E+00  0.00000000E+00  0.00000000E+00  0.00000000E+00  0.00000000E+00
  0.00000000E+00  0.00000000E+00  0.00000000E+00  0.00000000E+00  0.00000000E+00
  0.00000000E+00  0.00000000E+00  0.00000000E+00  0.00000000E+00  0.00000000E+00
  0.00000000E+00  0.00000000E+00  0.00000000E+00  0.00000000E+00  0.00000000E+00
IOpCl                                      I                1
IROHF                                      I                0
Alpha Orbital Energies                     R   N=          64
 -8.99756651E+01 -1.96748412E+01 -8.33609285E+00 -6.25828946E+00 -6.25456896E+00
 -6.24904163E+00 -1.08798805E+00 -8.32863284E-01 -5.27749315E-01 -4.92304620E-01
 -3.99216892E-01 -3.85491945E-01 -3.50463612E-01 -1.70962111E-01  1.59487355E-02
  4.05508033E-02  4.72888265E-02  5.64204265E-02  7.40256559E-02  1.48301634E-01
  1.94957091E-01  2.00043313E-01  2.14370470E-01  2.65821581E-01  3.12675031E-01
  3.40372984E-01  3.54900298E-01  4.00840832E-01  5.42303726E-01  6.07084870E-01
  7.15607253E-01  7.24002930E-01  7.98931576E-01  8.07305209E-01  9.74919595E-01
  1.04455618E+00  1.08839372E+00  1.11269417E+00  1.35934998E+00  1.39361096E+00
  1.39894251E+00  1.46885461E+00  1.50069013E+00  1.64883555E+00  1.66692495E+00
  1.75181819E+00  2.06825195E+00  2.09768292E+00  2.49679875E+00  2.55017986E+00
  2.89170294E+00  2.90499074E+00  3.17297300E+00  3.18845324E+00  3.85119932E+00
  5.05081356E+00  5.06311917E+00  5.52419560E+00  7.83778472E+00  1.74102900E+01
  1.74427003E+01  1.74572063E+01  4.98814386E+01  1.89100595E+02
Beta Orbital Energies                      R   N=          64
 -8.99756651E+01 -1.96748412E+01 -8.33609285E+00 -6.25828945E+00 -6.25456895E+00
 -6.24904163E+00 -1.08798808E+00 -8.32863266E-01 -5.27749331E-01 -4.92304613E-01
 -3.99216911E-01 -3.85491992E-01 -3.50463601E-01 -1.70962125E-01  1.59487322E-02
  4.05508012E-02  4.72888252E-02  5.64204254E-02  7.40256564E-02  1.48301633E-01
  1.94957091E-01  2.00043310E-01  2.14370469E-01  2.65821574E-01  3.12675028E-01
  3.40372982E-01  3.54900296E-01  4.00840832E-01  5.42303722E-01  6.07084888E-01
  7.15607283E-01  7.24002942E-01  7.98931604E-01  8.07305227E-01  9.74919608E-01
  1.04455617E+00  1.08839371E+00  1.11269415E+00  1.35934996E+00  1.39361095E+00
  1.39894250E+00  1.46885461E+00  1.50069014E+00  1.64883557E+00  1.66692496E+00
  1.75181825E+00  2.06825194E+00  2.09768293E+00  2.49679875E+00  2.55017986E+00
  2.89170290E+00  2.90499072E+00  3.17297297E+00  3.18845323E+00  3.85119930E+00
  5.05081354E+00  5.06311913E+00  5.52419558E+00  7.83778472E+00  1.74102901E+01
  1.74427003E+01  1.74572063E+01  4.98814387E+01  1.89100595E+02
Alpha MO coefficients                      R   N=        4096
 -4.89135238E-07  2.26841354E-06  5.94390232E-07 -2.14272340E-07  1.71494718E-07
 -1.46581151E-05 -7.48826844E-06  6.95483452E-07 -2.00634153E-07  1.64475454E-05
  2.91556242E-05 -5.40470116E-06 -1.08759615E-05  1.56713346E-04  8.48164324E-05
 -1.22631817E-05 -4.21928202E-05 -9.35431216E-07 -3.53714947E-07  2.36348941E-06
  8.62865410E-06 -4.03817576E-08  4.10787499E-01  6.54411360E-01  1.53497925E-02
 -4.35196774E-03  1.63427452E-03 -9.58503151E-04  1.04481387E-04 -5.30621167E-05
 -1.74533426E-05  1.70112518E-05 -4.69588497E-05 -5.25253123E-05  5.24761590E-05
  1.21755138E-05  1.76557726E-05 -1.78768798E-05 -1.79210003E-06  2.60094005E-06
 -4.00725558E-06 -3.16924081E-05 -1.13157608E-04  1.24587518E-04  1.52071213E-04
  1.30233182E-04 -1.35736134E-04  2.84175990E-05 -8.88457127E-06 -7.28933640E-05
 -3.53214684E-05  7.19531149E-06 -3.57723666E-06 -1.61514355E-05 -9.26489302E-05
 -2.89408654E-06 -2.23977558E-06 -1.27883307E-06  2.12222052E-05 -1.91101252E-04
  2.65661103E-04 -1.80189794E-05 -1.13844483E-04  1.25103865E-04  5.52854493E-01
  4.69689558E-01  4.89213472E-04 -3.70428306E-04 -1.17593730E-03  8.07077701E-03
 -1.36956354E-04  3.82533273E-05  1.24556473E-04 -3.22908126E-03 -1.09028265E-04
 -6.51410849E-05 -2.19501640E-04  2.82167807E-03  4.76300346E-04 -8.65677572E-05
 -2.77606112E-04  1.26764475E-04  7.11855655E-07  6.63536886E-05 -2.63543570E-05
 -9.96122069E-07 -3.81699822E-09  1.31897183E-06 -9.53869397E-06  1.98179340E-05
 -5.70617663E-05  4.87087808E-06 -7.03101678E-04  4.46990524E-04  7.86014687E-06
 -3.50441416E-05  5.34802564E-06 -4.44563144E-08  2.83568607E-07 -5.40493734E-06
 -1.39175224E-06  7.94840758E-08  2.47886219E-05  9.62941825E-06 -5.52541470E-06
  1.28023398E-05 -4.49664111E-05  4.32881089E-05  5.80281244E-05  5.57556621E-05
 -2.96657181E-05  8.79884968E-06 -1.04206337E-05 -2.17439781E-05 -7.29605540E-06
  9.93149678E-06  8.10687876E-05 -9.06039846E-05 -9.14544685E-04  3.57812560E-07
 -1.32337981E-04 -4.21316511E-04  3.74548049E-05 -1.54796218E-04  1.95884646E-04
  4.39641858E-05 -2.36279338E-05  3.18690534E-05 -3.57881567E-07  1.50556886E-05
  6.04205476E-07 -2.10533085E-06 -1.75059841E-06 -1.96425500E-04  5.04347810E-05
  1.70789547E-05  2.25001695E-05  2.53484584E-04  3.27810833E-04 -3.78468419E-05
 -4.15533399E-05  1.89229302E-03  1.09396262E-03 -1.79518069E-04 -6.04339118E-04
 -4.41459275E-05  4.82527348E-06  1.25865607E-05  1.14179356E-04  2.79461932E-06
 -1.19761777E-01 -3.20483937E-01  5.16039776E-01  5.98921168E-01  4.31534048E-02
 -1.55855098E-02  2.05076373E-03 -7.61290878E-04 -2.04833262E-04  1.87557783E-04
 -1.21255481E-03 -1.30354290E-03  1.28278912E-03 -2.79589206E-03 -2.94301944E-03
  2.89709935E-03 -3.16508278E-04 -2.90817135E-04  2.58779365E-04 -3.42357477E-04
 -1.20839762E-03  1.32567288E-03  1.93443112E-03  1.63915651E-03 -1.69464705E-03
  1.04155870E-04 -1.08508046E-05 -1.07480175E-03  3.27880449E-05  2.31496173E-05
 -8.06468186E-05  1.44322753E-05 -1.35549642E-03  9.29334816E-06 -8.06712301E-06
  3.84156080E-05  1.02949134E-04 -1.74163040E-03  3.37730723E-03 -1.84198496E-04
 -1.06889113E-03  1.17489263E-03 -2.05332979E-06 -1.40500635E-05 -7.67169054E-05
 -4.00489789E-06 -1.54942584E-05  1.57956629E-04  2.90253476E-04  2.30530061E-05
  8.76504575E-05 -5.01201362E-04 -6.14579272E-04  1.65417287E-04  4.31261978E-04
  7.80356812E-04  7.67941919E-04 -1.15737971E-04 -2.53175860E-04 -6.80612493E-05
  3.28596000E-05 -5.12688547E-05 -3.51889420E-05  1.15304766E-05 -2.99946461E-04
 -8.23187013E-04  1.54739476E-03  1.17389771E-03  1.27451438E-04 -1.77172707E-05
 -2.98984316E-04 -2.48572978E-03  3.08909166E-04 -4.07361973E-04  3.69146814E-01
 -5.36979757E-02  6.59633798E-02  6.90886556E-01 -1.00464734E-01  1.23399360E-01
  5.36221532E-02 -7.76328036E-03  9.56174338E-03 -7.61496705E-03  9.64096536E-04
 -1.23686182E-03  4.92532233E-03 -5.88636342E-04  7.89561701E-04  1.57030534E-04
  2.97000081E-04 -1.63017385E-04 -2.43239304E-04 -3.11261355E-04 -8.12450003E-05
  9.64985105E-04 -7.69019474E-04  1.77782810E-04  7.18802117E-05  2.14383938E-04
  9.02186323E-05 -1.16806688E-04 -6.24859692E-05  9.06054169E-05 -1.10230115E-04
  1.27423872E-04  1.96092084E-07  1.97025617E-06  2.03797447E-05  1.53055513E-06
  3.94745201E-06 -2.11241830E-05 -6.81698353E-05 -1.58555466E-05 -1.21421240E-05
  2.30610584E-05  1.21303730E-04  3.99052997E-05 -1.11548783E-04  9.96145119E-05
 -9.77650411E-05 -5.94105056E-05 -7.40305987E-05  7.84660765E-06 -9.82699546E-06
  1.03853819E-05  8.93561147E-06  5.21032553E-06  8.03173737E-04  2.17437840E-03
 -3.85622868E-03 -3.87330572E-03  6.85345046E-04  3.00515511E-04  5.32369696E-04
  4.25452266E-04  1.29931893E-03 -1.43627672E-03 -8.50439665E-02 -2.48446865E-01
  2.73989607E-01 -1.58924736E-01 -4.64088954E-01  5.11801821E-01 -1.20647860E-02
 -3.51939402E-02  3.88080608E-02  1.63886043E-03  4.56453779E-03 -5.03118939E-03
 -1.01863855E-03 -2.88444924E-03  3.18163149E-03  1.55526624E-04 -2.79487629E-04
 -6.06031217E-04 -2.11281645E-04  2.62438187E-04 -6.53182503E-07 -8.47810985E-05
 -2.20251627E-04 -1.69467201E-05  6.51741883E-07 -4.77631847E-05  5.48947991E-04
  1.22141833E-04 -1.14947485E-03 -2.60312065E-05 -4.23975301E-04  4.72099355E-04
 -2.42676295E-07 -1.08951894E-06 -8.51205681E-07 -5.64715423E-07 -3.10251480E-07
  1.44838275E-05  3.45881919E-06  1.20727805E-05  1.09134472E-05 -9.69316768E-05
 -2.63307070E-05 -3.82606145E-05  2.92879733E-05  1.39206629E-04 -5.28435778E-06
 -2.68027654E-06 -6.60835257E-05 -1.11495194E-05  3.64588500E-06 -7.76854974E-06
  8.14192666E-07 -4.47297864E-06 -3.74044912E-05 -1.01536710E-04  1.81548549E-04
  1.77256987E-04 -4.40894487E-05  3.04354817E-05  9.43836436E-06  7.38471274E-06
 -1.57723546E-03 -1.43022490E-03 -4.42748620E-03  2.82389414E-01  2.54690524E-01
 -8.26735250E-03  5.26599367E-01  4.74944339E-01 -5.91550638E-04  3.85253833E-02
  3.47440380E-02  6.31859942E-05 -5.19394124E-03 -4.67392599E-03 -4.05239887E-05
  2.99379935E-03  2.71888439E-03  3.50305291E-04 -1.62856325E-04  1.00855588E-05
  2.22471704E-04 -1.71346113E-04 -3.10120870E-05  2.03748847E-04 -2.33049181E-04
  5.34645046E-05  1.65477574E-06  1.92960283E-05 -1.28125035E-06 -1.97550430E-05
 -3.61379382E-06 -4.85369465E-07  6.76023378E-05  6.81958071E-05 -1.18065651E-01
 -1.94384143E-01  2.79690697E-03 -1.41588906E-02 -4.44977300E-02  5.68147164E-01
  2.66268196E-03 -2.29830368E-02 -7.21948582E-02  4.28601127E-01  1.37115897E-02
 -9.93664389E-03 -2.93710508E-02 -2.96933900E-02 -1.06812013E-02  2.01108674E-03
  7.11993031E-03  8.46376671E-03 -2.98120088E-04  6.44084575E-03  4.20341706E-03
  1.06247456E-04  1.60574322E-03  4.54346370E-03 -9.36241401E-03 -1.76235116E-02
  2.92073514E-02  2.44565842E-02  9.40345852E-03 -5.92862393E-03  6.40111628E-05
 -1.70305291E-04  2.64870944E-03  2.73414692E-04 -5.73622539E-05  5.12954520E-03
  5.44965388E-04 -1.30995686E-04 -5.92117526E-03 -6.25866829E-04  1.71594493E-04
 -1.69434484E-02 -1.04300505E-03 -3.46921206E-04 -4.23805234E-03 -1.86835614E-03
  1.00980948E-03 -2.13506948E-03  3.43589073E-04 -7.57875232E-04  3.90345278E-03
  4.37469352E-04  1.09737217E-01  8.31000537E-02  2.01208398E-02 -3.23896189E-04
  7.17413676E-03  2.29150788E-02  3.06043323E-03  3.27964096E-03 -3.31671725E-03
 -5.55806281E-04  5.56564543E-04 -6.61409016E-04  7.85353724E-03  1.30622030E-02
  1.38151098E-02  1.74698073E-03  7.12386180E-03 -4.04406428E-02  2.05802877E-02
  2.65678050E-03  1.04124722E-02 -2.47160314E-02  1.80311360E-02  1.74051028E-04
  2.97118014E-03 -1.43895034E-02 -6.55869775E-03  1.30740066E-03  4.00303749E-03
 -1.41125818E-03 -6.11759117E-04 -4.39809261E-04  1.14467566E-03 -3.03689838E-04
  3.32768094E-02  9.45868998E-02 -1.98762813E-01 -3.66483162E-01  6.63205993E-01
  4.11723982E-01 -8.42401984E-03  3.84341995E-03  7.47874890E-05  2.16161307E-03
  4.21569747E-04  1.16344540E-02 -1.22507236E-02  8.79964730E-04  2.32060392E-02
 -2.44635212E-02 -1.43102151E-03 -3.21082508E-02  3.41384245E-02  3.50379267E-03
 -4.44030333E-02  4.55345821E-02 -7.94933063E-03 -8.60525297E-03  4.40674481E-03
  3.11198908E-03 -4.65594249E-05 -2.42218282E-02 -6.70433353E-04  1.16566763E-03
 -1.04443294E-02 -1.56175195E-02  1.00601607E-02  1.18962936E-03 -1.05276443E-03
 -3.46492695E-03  1.01128021E-01  1.31063502E-01  2.81863291E-03  3.53921268E-03
  1.53896268E-02 -1.69045611E-02 -3.84496038E-02 -6.43003287E-02  4.87404204E-03
  7.21281939E-02  2.39548294E-01  1.94638816E-01  5.86793352E-03  1.03369163E-01
  3.43366126E-01  2.86767417E-01  1.37704998E-02  6.84322572E-02  2.31514716E-01
  5.88548517E-02 -3.37835294E-03  6.64971294E-03  2.60436542E-02 -1.64389227E-02
  1.79585494E-03 -8.80454147E-03  3.20699656E-03  5.18207349E-04 -1.81692106E-03
 -5.18838464E-03  1.11258881E-02  2.03585741E-02 -3.97416445E-02 -2.95583734E-02
 -5.35263696E-03  4.03136620E-03  9.40793014E-05 -4.25907911E-03  5.73786947E-03
  7.56431329E-04 -6.94761192E-03  1.10632834E-02  1.50562721E-03 -1.33555239E-02
 -1.46303111E-02 -2.20969074E-03  1.84332838E-02 -3.50343539E-02 -2.72146900E-03
  3.82640428E-02 -1.25546394E-02  3.54671234E-03  1.49926922E-02 -9.47511502E-04
 -5.62218517E-03 -2.50527103E-03  2.38425916E-03 -2.68773330E-04 -1.64935312E-01
 -2.60018430E-01 -7.87000044E-02 -2.26019095E-03 -9.09590072E-03 -2.91929340E-02
  8.28021374E-03  1.20622808E-02  1.25023036E-02 -1.83081033E-03  1.06369412E-03
 -2.94927239E-04  1.21837243E-03  1.98085681E-03 -1.95918820E-02 -2.93981046E-02
 -1.44555926E-02 -4.51535375E-03 -2.82675460E-02 -4.23701489E-02 -2.09592049E-02
 -1.90430432E-02 -2.94858865E-02 -3.59383129E-02 -6.57763432E-03 -3.37555865E-03
 -7.70447358E-03 -5.89300409E-03 -5.72855296E-03  1.24658009E-03  1.69090064E-03
  1.58630805E-03 -1.43746191E-03 -6.83921902E-04 -1.17740778E-02 -3.36444610E-02
  7.23764242E-02  1.31978199E-01 -2.41479073E-01 -2.93932098E-01 -1.90535795E-02
 -3.40031007E-04  1.48788077E-02 -1.80851420E-02  6.36569551E-03  5.51279560E-02
 -6.05675349E-02  1.24234183E-02  1.07349965E-01 -1.17948279E-01 -1.90750099E-02
 -1.56653044E-01  1.71996508E-01 -3.02454950E-02 -2.72206301E-01  2.99290205E-01
 -9.98172960E-03 -7.19976191E-02  8.29520875E-02  1.78045370E-02 -6.37818549E-03
 -4.17393637E-02 -2.53385304E-02  5.82540804E-03  1.60044139E-02  3.13118837E-02
 -3.23472213E-03 -2.78403295E-03 -1.24112730E-03  4.94613592E-03  1.57026805E-01
  2.83789297E-01  1.30878805E-01  5.03279961E-03  1.75031007E-02 -1.97129174E-02
 -1.63678826E-03 -2.79913402E-03 -3.72624712E-02  2.83434325E-01 -8.83726008E-02
  1.00481729E-02 -5.47593362E-02  4.13943546E-01 -1.28991294E-01  5.95865648E-03
 -5.43207968E-02  3.77738991E-01 -1.13786569E-01 -1.30836539E-02 -1.38911754E-02
  8.60934139E-02 -2.46804008E-02  7.36975750E-03  1.34805260E-03 -1.15277461E-02
  3.32704071E-03  2.94706814E-03 -4.86403376E-04 -1.39753728E-03  3.07416692E-03
  5.24590707E-03 -7.00990142E-03 -2.59623186E-02 -6.00813568E-03 -4.26036863E-03
 -4.70785308E-03 -7.05363142E-03 -7.08352886E-03 -4.35041516E-03 -1.50051820E-02
 -1.37042650E-02 -8.18499689E-03 -2.90939400E-02  1.87356964E-02  1.10238964E-02
  4.32129932E-02  4.25361269E-02  3.03527346E-02  8.05163492E-02  2.00872485E-02
  2.88518079E-02  3.20937885E-02  5.38892907E-03  2.25388697E-03 -5.48051033E-03
 -4.14125495E-03 -7.38279968E-03  1.47492022E-03  6.83483655E-03  6.26297106E-03
 -4.39540856E-03  3.35507815E-02 -8.77716005E-03  1.80779059E-02  3.38983966E-02
  2.66803267E-02  4.61383237E-03  4.34985663E-03 -7.27858241E-04 -1.00131123E-02
 -1.71666355E-02 -2.07920481E-01 -4.30827550E-02  2.64639014E-02  6.12900071E-02
 -3.07157562E-01 -6.27822866E-02  3.89225441E-02  3.56702214E-02 -3.12170647E-01
 -5.44209849E-02  5.16857875E-02 -4.26361516E-03 -6.05736700E-02 -1.09984366E-02
 -6.45822642E-04  3.36291807E-04  1.10194407E-02  9.79267780E-04 -6.04686987E-03
  3.16235587E-03  3.39330214E-03  9.68549287E-03 -2.07576400E-02 -3.92832896E-02
  8.48450575E-02  4.11367704E-02  1.78548493E-02 -4.59789935E-02 -8.38875282E-03
 -4.87181422E-03 -6.13481407E-02 -6.21376472E-03 -3.40423827E-03 -1.18368450E-01
 -1.19125969E-02 -6.69477653E-03  1.62414997E-01  1.76866715E-02  9.86595058E-03
  3.70608773E-01  3.56879380E-02  1.67618262E-02  1.76722226E-01  2.33110358E-02
  2.29251031E-02  1.00739494E-02  5.94690406E-03  5.05399397E-04 -1.55584891E-02
 -7.94190990E-03 -1.85077049E-03  2.29887365E-02 -2.04624109E-02 -2.34327618E-02
 -3.69060234E-03  7.69851413E-03 -3.53283399E-03 -8.06195212E-04 -6.09646363E-03
  1.07799547E-02  1.04149480E-03  6.78551886E-04  2.57041438E-03  4.35141088E-03
  2.06421401E-02 -4.56860153E-02 -6.46606053E-03 -1.41841834E-02  3.03037030E-02