Title Card Required                                                     
FOpt      UM062X                                                      6-311+G(d,p)        
Number of atoms                            I                6
Info1-9                                    I   N=           9
          15          15           0           0           0         110
           2          18        -502
Full Title                                 C   N=           2
Title Card Required     
Route                                      C   N=           5
#p opt UM062X/6-311+G** nosymm int=superfine SCF=NoVarAcc   
Charge                                     I                0
Multiplicity                               I                1
Number of electrons                        I               16
Number of alpha electrons                  I                8
Number of beta electrons                   I                8
Number of basis functions                  I               68
Number of independent functions            I               68
Number of point charges in /Mol/           I                0
Number of translation vectors              I                0
Atomic numbers                             I   N=           6
           6           6           1           1           1           1
Nuclear charges                            R   N=           6
  6.00000000E+00  6.00000000E+00  1.00000000E+00  1.00000000E+00  1.00000000E+00
  1.00000000E+00
Current cartesian coordinates              R   N=          18
 -1.51850738E+01  0.00000000E+00  0.00000000E+00  1.51850738E+01  0.00000000E+00
  0.00000000E+00 -1.65050003E+01 -1.62717009E+00 -9.21905282E-11 -1.65049460E+01
  1.62720137E+00 -5.87499913E-10  1.65050003E+01  1.62717009E+00  7.38645042E-10
  1.65049460E+01 -1.62720137E+00  2.43206422E-10
Number of symbols in /Mol/                 I                0
Force Field                                I                0
Atom Types                                 C   N=           6
                                                            
            
Int Atom Types                             I   N=           6
           0           0           0           0           0           0
MM charges                                 R   N=           6
  0.00000000E+00  0.00000000E+00  0.00000000E+00  0.00000000E+00  0.00000000E+00
  0.00000000E+00
Integer atomic weights                     I   N=           6
          12          12           1           1           1           1
Real atomic weights                        R   N=           6
  1.20000000E+01  1.20000000E+01  1.00782504E+00  1.00782504E+00  1.00782504E+00
  1.00782504E+00
Atom fragment info                         I   N=           6
           0           0           0           0           0           0
Atom residue num                           I   N=           6
           0           0           0           0           0           0
Nuclear spins                              I   N=           6
           0           0           1           1           1           1
Nuclear ZEff                               R   N=           6
 -3.60000000E+00 -3.60000000E+00 -1.00000000E+00 -1.00000000E+00 -1.00000000E+00
 -1.00000000E+00
Nuclear ZNuc                               R   N=           6
  6.00000000E+00  6.00000000E+00  1.00000000E+00  1.00000000E+00  1.00000000E+00
  1.00000000E+00
Nuclear QMom                               R   N=           6
  0.00000000E+00  0.00000000E+00  0.00000000E+00  0.00000000E+00  0.00000000E+00
  0.00000000E+00
Nuclear GFac                               R   N=           6
  0.00000000E+00  0.00000000E+00  2.79284600E+00  2.79284600E+00  2.79284600E+00
  2.79284600E+00
MicOpt                                     I   N=           6
          -2          -2          -1          -1          -1          -1
Number of residues                         I                0
Number of secondary structures             I                0
Redundant internal dimensions              I   N=           4
          20          10           6           4
Redundant internal coordinate indices      I   N=          80
           1          -1           0           0           1          -2
           0           0           1          -3           0           0
           2          -1           0           0           2          -2
           0           0           2          -3           0           0
           1           3           0           0           1           4
           0           0           2           5           0           0
           2           6           0           0           2           1
           3           0           2           1           4           0
           3           1           4           0           1           2
           5           0           1           2           6           0
           5           2           6           0           3           1
           2           5           3           1           2           6
           4           1           2           5           4           1
           2           6
Redundant internal coordinates             R   N=          20
 -1.51850738E+01  0.00000000E+00  0.00000000E+00  1.51850738E+01  0.00000000E+00
  0.00000000E+00  2.09520606E+00  2.09519613E+00  2.09520606E+00  2.09519613E+00
  2.25231676E+00  2.25228722E+00  1.77858132E+00  2.25231676E+00  2.25228722E+00
  1.77858132E+00  3.14159265E+00 -0.00000000E+00  0.00000000E+00  3.14159265E+00
ZRed-IntVec                                I   N=          20
          -1          -1          -1          -1          -1          -1
           0           0           0           0           0           0
           0           0           0           0           0           0
           0           0
ZRed-FPVec                                 R   N=          20
  0.00000000E+00  0.00000000E+00  0.00000000E+00  0.00000000E+00  0.00000000E+00
  0.00000000E+00  0.00000000E+00  0.00000000E+00  0.00000000E+00  0.00000000E+00
  0.00000000E+00  0.00000000E+00  0.00000000E+00  0.00000000E+00  0.00000000E+00
  0.00000000E+00  0.00000000E+00  0.00000000E+00  0.00000000E+00  0.00000000E+00
ZRed-Constraint1                           R   N=          20
 -1.51850738E+01  0.00000000E+00  0.00000000E+00  1.51850738E+01  0.00000000E+00
  0.00000000E+00  2.03694512E+00  2.03669844E+00  2.03694512E+00  2.03669844E+00
  2.00316847E+00  2.00313852E+00  2.27687832E+00  2.00316847E+00  2.00313852E+00
  2.27687832E+00  3.14159265E+00  0.00000000E+00  0.00000000E+00  3.14159265E+00
ZRed-Constraint2                           R   N=          20
 -1.51850738E+01  0.00000000E+00  0.00000000E+00  1.51850738E+01  0.00000000E+00
  0.00000000E+00  0.00000000E+00  0.00000000E+00  0.00000000E+00  0.00000000E+00
  0.00000000E+00  0.00000000E+00  0.00000000E+00  0.00000000E+00  0.00000000E+00
  0.00000000E+00  0.00000000E+00  0.00000000E+00  0.00000000E+00  0.00000000E+00
Number of contracted shells                I               28
Number of primitive shells                 I               50
Pure/Cartesian d shells                    I                0
Pure/Cartesian f shells                    I                0
Highest angular momentum                   I                2
Largest degree of contraction              I                6
Shell types                                I   N=          28
           0          -1          -1          -1          -1          -2
           0          -1          -1          -1          -1          -2
           0           0           0           1           0           0
           0           1           0           0           0           1
           0           0           0           1
Number of primitives per shell             I   N=          28
           6           3           1           1           1           1
           6           3           1           1           1           1
           3           1           1           1           3           1
           1           1           3           1           1           1
           3           1           1           1
Shell to atom map                          I   N=          28
           1           1           1           1           1           1
           2           2           2           2           2           2
           3           3           3           3           4           4
           4           4           5           5           5           5
           6           6           6           6
Primitive exponents                        R   N=          50
  4.56324000E+03  6.82024000E+02  1.54973000E+02  4.44553000E+01  1.30290000E+01
  1.82773000E+00  2.09642000E+01  4.80331000E+00  1.45933000E+00  4.83456000E-01
  1.45585000E-01  4.38000000E-02  6.26000000E-01  4.56324000E+03  6.82024000E+02
  1.54973000E+02  4.44553000E+01  1.30290000E+01  1.82773000E+00  2.09642000E+01
  4.80331000E+00  1.45933000E+00  4.83456000E-01  1.45585000E-01  4.38000000E-02
  6.26000000E-01  3.38650000E+01  5.09479000E+00  1.15879000E+00  3.25840000E-01
  1.02741000E-01  7.50000000E-01  3.38650000E+01  5.09479000E+00  1.15879000E+00
  3.25840000E-01  1.02741000E-01  7.50000000E-01  3.38650000E+01  5.09479000E+00
  1.15879000E+00  3.25840000E-01  1.02741000E-01  7.50000000E-01  3.38650000E+01
  5.09479000E+00  1.15879000E+00  3.25840000E-01  1.02741000E-01  7.50000000E-01
Contraction coefficients                   R   N=          50
  1.96665025E-03  1.52306019E-02  7.61269097E-02  2.60801033E-01  6.16462078E-01
  2.21006028E-01  1.14660081E-01  9.19999648E-01 -3.03068213E-03  1.00000000E+00
  1.00000000E+00  1.00000000E+00  1.00000000E+00  1.96665025E-03  1.52306019E-02
  7.61269097E-02  2.60801033E-01  6.16462078E-01  2.21006028E-01  1.14660081E-01
  9.19999648E-01 -3.03068213E-03  1.00000000E+00  1.00000000E+00  1.00000000E+00
  1.00000000E+00  2.54938145E-02  1.90373109E-01  8.52161486E-01  1.00000000E+00
  1.00000000E+00  1.00000000E+00  2.54938145E-02  1.90373109E-01  8.52161486E-01
  1.00000000E+00  1.00000000E+00  1.00000000E+00  2.54938145E-02  1.90373109E-01
  8.52161486E-01  1.00000000E+00  1.00000000E+00  1.00000000E+00  2.54938145E-02
  1.90373109E-01  8.52161486E-01  1.00000000E+00  1.00000000E+00  1.00000000E+00
P(S=P) Contraction coefficients            R   N=          50
  0.00000000E+00  0.00000000E+00  0.00000000E+00  0.00000000E+00  0.00000000E+00
  0.00000000E+00  4.02486927E-02  2.37593957E-01  8.15853851E-01  1.00000000E+00
  1.00000000E+00  1.00000000E+00  0.00000000E+00  0.00000000E+00  0.00000000E+00
  0.00000000E+00  0.00000000E+00  0.00000000E+00  0.00000000E+00  4.02486927E-02
  2.37593957E-01  8.15853851E-01  1.00000000E+00  1.00000000E+00  1.00000000E+00
  0.00000000E+00  0.00000000E+00  0.00000000E+00  0.00000000E+00  0.00000000E+00
  0.00000000E+00  0.00000000E+00  0.00000000E+00  0.00000000E+00  0.00000000E+00
  0.00000000E+00  0.00000000E+00  0.00000000E+00  0.00000000E+00  0.00000000E+00
  0.00000000E+00  0.00000000E+00  0.00000000E+00  0.00000000E+00  0.00000000E+00
  0.00000000E+00  0.00000000E+00  0.00000000E+00  0.00000000E+00  0.00000000E+00
Coordinates of each shell                  R   N=          84
 -1.51850738E+01  0.00000000E+00  0.00000000E+00 -1.51850738E+01  0.00000000E+00
  0.00000000E+00 -1.51850738E+01  0.00000000E+00  0.00000000E+00 -1.51850738E+01
  0.00000000E+00  0.00000000E+00 -1.51850738E+01  0.00000000E+00  0.00000000E+00
 -1.51850738E+01  0.00000000E+00  0.00000000E+00  1.51850738E+01  0.00000000E+00
  0.00000000E+00  1.51850738E+01  0.00000000E+00  0.00000000E+00  1.51850738E+01
  0.00000000E+00  0.00000000E+00  1.51850738E+01  0.00000000E+00  0.00000000E+00
  1.51850738E+01  0.00000000E+00  0.00000000E+00  1.51850738E+01  0.00000000E+00
  0.00000000E+00 -1.65050003E+01 -1.62717009E+00 -9.21905282E-11 -1.65050003E+01
 -1.62717009E+00 -9.21905282E-11 -1.65050003E+01 -1.62717009E+00 -9.21905282E-11
 -1.65050003E+01 -1.62717009E+00 -9.21905282E-11 -1.65049460E+01  1.62720137E+00
 -5.87499913E-10 -1.65049460E+01  1.62720137E+00 -5.87499913E-10 -1.65049460E+01
  1.62720137E+00 -5.87499913E-10 -1.65049460E+01  1.62720137E+00 -5.87499913E-10
  1.65050003E+01  1.62717009E+00  7.38645042E-10  1.65050003E+01  1.62717009E+00
  7.38645042E-10  1.65050003E+01  1.62717009E+00  7.38645042E-10  1.65050003E+01
  1.62717009E+00  7.38645042E-10  1.65049460E+01 -1.62720137E+00  2.43206422E-10
  1.65049460E+01 -1.62720137E+00  2.43206422E-10  1.65049460E+01 -1.62720137E+00
  2.43206422E-10  1.65049460E+01 -1.62720137E+00  2.43206422E-10
Num ILSW                                   I              100
ILSW                                       I   N=         100
           1           0           0           0           2           0
           0           0           0           0        4336          -1
           7           0           0           0           2           0
           0           0           0           0           1           0
           1           1           0           0           0           0
           0           0      100000           0          -1           0
           0           0           0           0           0           0
           0           0           0           1           0           0
           0 -2000000000           1           0           0           0
           0           0           4          52           0           0
           0           0          55           0           0           0
           0           0           0           6           0           1
           0           0           0           0           0           0
           0           0           0           0           0           0
           0           0           0           0           0           0
           0           0           0           0           0           0
           0           0           0           0
Num RLSW                                   I               52
RLSW                                       R   N=          52
  1.00000000E+00  1.00000000E+00  1.00000000E+00  1.00000000E+00  5.40000000E-01
  0.00000000E+00  0.00000000E+00  1.00000000E+00  0.00000000E+00  0.00000000E+00
  0.00000000E+00  0.00000000E+00  1.00000000E+00  0.00000000E+00  0.00000000E+00
  0.00000000E+00  0.00000000E+00  1.00000000E+00  0.00000000E+00  0.00000000E+00
  0.00000000E+00  0.00000000E+00  1.00000000E+00  0.00000000E+00  0.00000000E+00
  0.00000000E+00  0.00000000E+00  1.00000000E+00  0.00000000E+00  0.00000000E+00
  0.00000000E+00  0.00000000E+00  1.00000000E+00  0.00000000E+00  0.00000000E+00
  0.00000000E+00  0.00000000E+00  0.00000000E+00  1.00000000E+00  1.00000000E+00
  0.00000000E+00  1.00000000E+00  0.00000000E+00  0.00000000E+00  0.00000000E+00
  0.00000000E+00  0.00000000E+00  0.00000000E+00  0.00000000E+00  0.00000000E+00
  0.00000000E+00  0.00000000E+00
MxBond                                     I                3
NBond                                      I   N=           6
           3           3           1           1           1           1
IBond                                      I   N=          18
           2           3           4           1           5           6
           1           0           0           1           0           0
           2           0           0           2           0           0
RBond                                      R   N=          18
  1.00000000E-01  1.00000000E+00  1.00000000E+00  1.00000000E-01  1.00000000E+00
  1.00000000E+00  1.00000000E+00  0.00000000E+00  0.00000000E+00  1.00000000E+00
  0.00000000E+00  0.00000000E+00  1.00000000E+00  0.00000000E+00  0.00000000E+00
  1.00000000E+00  0.00000000E+00  0.00000000E+00
Virial Ratio                               R      2.003522306216167E+00
SCF Energy                                 R     -7.823770236322794E+01
Total Energy                               R     -7.823770236322794E+01
S**2                                       R     -1.776356839400250E-14
S**2 after annihilation                    R      1.278976924368171E-13
RMS Force                                  R      1.521352916427778E-04
RMS Density                                R      1.729404855348066E-09
Job Status                                 I                1
Nuclear derivative order                   I                1
External E-field                           R   N=          35
  0.00000000E+00  0.00000000E+00  0.00000000E+00  0.00000000E+00  0.00000000E+00
  0.00000000E+00  0.00000000E+00  0.00000000E+00  0.00000000E+00  0.00000000E+00
  0.00000000E+00  0.00000000E+00  0.00000000E+00  0.00000000E+00  0.00000000E+00
  0.00000000E+00  0.00000000E+00  0.00000000E+00  0.00000000E+00  0.00000000E+00
  0.00000000E+00  0.00000000E+00  0.00000000E+00  0.00000000E+00  0.00000000E+00
  0.00000000E+00  0.00000000E+00  0.00000000E+00  0.00000000E+00  0.00000000E+00
  0.00000000E+00  0.00000000E+00  0.00000000E+00  0.00000000E+00  0.00000000E+00
IOpCl                                      I                1
IROHF                                      I                0
Alpha Orbital Energies                     R   N=          68
 -1.06084419E+01 -1.06084419E+01 -7.57677712E-01 -7.57677712E-01 -4.76505109E-01
 -4.76505109E-01 -3.14706572E-01 -3.14706571E-01 -8.28701368E-02 -8.28701366E-02
  2.34242309E-02  2.34242499E-02  6.57323346E-02  6.57323401E-02  8.51805286E-02
  8.51805329E-02  9.15852766E-02  9.15854454E-02  1.75933048E-01  1.75933050E-01
  1.94701269E-01  1.94701284E-01  4.40922595E-01  4.40922599E-01  4.84692582E-01
  4.84692630E-01  5.87325650E-01  5.87325652E-01  6.22960469E-01  6.22960469E-01
  6.34750131E-01  6.34750148E-01  7.29676858E-01  7.29676899E-01  1.09131883E+00
  1.09131883E+00  1.10356809E+00  1.10356809E+00  1.19208417E+00  1.19208417E+00
  1.55299325E+00  1.55299325E+00  1.56689261E+00  1.56689261E+00  1.62884598E+00
  1.62884598E+00  1.86570222E+00  1.86570222E+00  1.87840607E+00  1.87840607E+00
  2.13476437E+00  2.13476437E+00  2.36573532E+00  2.36573533E+00  2.45240508E+00
  2.45240508E+00  2.50113765E+00  2.50113765E+00  2.55677876E+00  2.55677878E+00
  2.75026136E+00  2.75026136E+00  3.06687391E+00  3.06687393E+00  3.59136715E+00
  3.59136715E+00  2.37693567E+01  2.37693567E+01
Beta Orbital Energies                      R   N=          68
 -1.06084419E+01 -1.06084419E+01 -7.57677712E-01 -7.57677712E-01 -4.76505109E-01
 -4.76505109E-01 -3.14706572E-01 -3.14706571E-01 -8.28701368E-02 -8.28701366E-02
  2.34242309E-02  2.34242499E-02  6.57323346E-02  6.57323401E-02  8.51805286E-02
  8.51805329E-02  9.15852766E-02  9.15854454E-02  1.75933048E-01  1.75933050E-01
  1.94701269E-01  1.94701284E-01  4.40922595E-01  4.40922599E-01  4.84692582E-01
  4.84692630E-01  5.87325650E-01  5.87325652E-01  6.22960469E-01  6.22960469E-01
  6.34750131E-01  6.34750148E-01  7.29676858E-01  7.29676899E-01  1.09131883E+00
  1.09131883E+00  1.10356809E+00  1.10356809E+00  1.19208417E+00  1.19208417E+00
  1.55299325E+00  1.55299325E+00  1.56689261E+00  1.56689261E+00  1.62884598E+00
  1.62884598E+00  1.86570222E+00  1.86570222E+00  1.87840607E+00  1.87840607E+00
  2.13476437E+00  2.13476437E+00  2.36573532E+00  2.36573533E+00  2.45240508E+00
  2.45240508E+00  2.50113765E+00  2.50113765E+00  2.55677876E+00  2.55677878E+00
  2.75026136E+00  2.75026136E+00  3.06687391E+00  3.06687393E+00  3.59136715E+00
  3.59136715E+00  2.37693567E+01  2.37693567E+01
Alpha MO coefficients                      R   N=        4624
  4.12100157E-01  3.39146608E-01 -1.55488778E-03  1.99830632E-08 -3.32172080E-13
  8.00354707E-03 -1.22557640E-03  6.52906083E-08 -3.39112569E-13 -2.79958707E-03
 -3.72135569E-05 -1.40780550E-09 -2.00335666E-16 -5.14745783E-04  6.09375334E-04
 -1.57302216E-08  1.52909357E-13 -7.24956932E-04  2.85106442E-13 -2.76467028E-13
 -2.62000435E-04 -1.71462096E-08 -3.85182800E-01 -3.16994395E-01 -1.45332637E-03
  1.86778181E-08 -4.52967850E-13 -7.48077529E-03 -1.14552480E-03  6.10259952E-08
 -4.54188719E-13  2.61672501E-03 -3.47828656E-05 -1.31583811E-09 -5.51049296E-15
  4.81123876E-04  5.69572465E-04 -1.47027607E-08  2.09543211E-13  6.77604549E-04
 -3.85771599E-13 -2.57799083E-13  2.44887218E-04  1.60262690E-08  2.52048525E-04
 -2.00059455E-03  1.69215598E-03 -8.10366322E-04 -1.04643941E-03 -5.35308178E-14
  2.52038126E-04 -2.00067411E-03  1.69220351E-03 -8.10365714E-04  1.04649752E-03
 -3.45471905E-13 -2.35585344E-04  1.86992070E-03 -1.58162858E-03 -7.57435209E-04
 -9.78088595E-04 -4.05611089E-13 -2.35575624E-04  1.86999506E-03 -1.58167299E-03
 -7.57434641E-04  9.78142909E-04 -1.32806383E-13  3.85182800E-01  3.16994395E-01
 -1.45332636E-03  1.86778194E-08 -3.09962748E-13  7.48077524E-03 -1.14552483E-03
  6.10259912E-08 -3.18006026E-13 -2.61672489E-03 -3.47827768E-05 -1.31585033E-09
  3.58865442E-16 -4.81123773E-04  5.69572282E-04 -1.47027687E-08  1.41777516E-13
 -6.77604545E-04  2.67252591E-13 -2.58662162E-13 -2.44887220E-04 -1.60262639E-08
  4.12100157E-01  3.39146608E-01  1.55488777E-03 -1.99830636E-08  4.83768579E-13
  8.00354703E-03  1.22557643E-03 -6.52906149E-08  4.86253547E-13 -2.79958695E-03
  3.72134740E-05  1.40779350E-09  6.11713503E-15 -5.14745688E-04 -6.09375163E-04
  1.57302217E-08 -2.23967788E-13 -7.24956928E-04  4.12786732E-13  2.76077459E-13
 -2.62000437E-04 -1.71462177E-08  2.35585327E-04 -1.86992062E-03  1.58162841E-03
 -7.57435215E-04 -9.78088595E-04 -5.05613881E-14  2.35575607E-04 -1.86999499E-03
  1.58167283E-03 -7.57434646E-04  9.78142908E-04 -3.22505682E-13  2.52048510E-04
 -2.00059448E-03  1.69215583E-03  8.10366327E-04  1.04643941E-03  4.32962254E-13
  2.52038111E-04 -2.00067404E-03  1.69220336E-03  8.10365719E-04 -1.04649752E-03
  1.42612759E-13 -7.41063743E-02 -1.19268002E-01 -4.81096782E-02  1.27292591E-06
 -1.20123819E-11  3.25469516E-01 -7.17649988E-02  1.70976110E-06 -1.78519860E-11
  2.22421084E-01 -3.19070220E-02  6.88708764E-07 -7.53886520E-12  4.29655756E-03
 -2.15010835E-03  2.72289836E-08 -1.72491716E-13 -5.16038398E-03  2.29338849E-12
 -1.28967661E-12 -8.64172928E-05 -1.19078246E-07  7.40983223E-02  1.19255043E-01
 -4.81044509E-02  1.27278759E-06 -1.74959151E-11 -3.25434152E-01 -7.17572012E-02
  1.70957531E-06 -2.54707629E-11 -2.22396917E-01 -3.19035551E-02  6.88633900E-07
 -1.16701755E-11 -4.29609071E-03 -2.14987473E-03  2.72260046E-08 -3.99346089E-13
  5.15982328E-03 -3.35189425E-12 -1.28166981E-12  8.64079031E-05  1.19065303E-07
  8.08189919E-02  9.78431412E-02  5.87769197E-03  6.70207123E-03  1.18059845E-02
 -9.95282441E-14  8.08200754E-02  9.78441884E-02  5.87777605E-03  6.70180154E-03
 -1.18062558E-02  3.46626800E-12 -8.08102105E-02 -9.78325101E-02 -5.87705333E-03
  6.70134302E-03  1.18047017E-02  4.27101398E-12 -8.08112939E-02 -9.78335572E-02
 -5.87713740E-03  6.70107336E-03 -1.18049730E-02  7.56169835E-13 -7.40983223E-02
 -1.19255043E-01 -4.81044509E-02  1.27278760E-06 -1.20112885E-11  3.25434152E-01
 -7.17572012E-02  1.70957533E-06 -1.78502809E-11  2.22396917E-01 -3.19035552E-02
  6.88633931E-07 -7.53749912E-12  4.29609067E-03 -2.14987467E-03  2.72260220E-08
 -1.72262220E-13 -5.15982328E-03  2.29298253E-12 -1.29013256E-12 -8.64079030E-05
 -1.19065308E-07 -7.41063743E-02 -1.19268002E-01  4.81096782E-02 -1.27292590E-06
  1.74967398E-11  3.25469516E-01  7.17649988E-02 -1.70976108E-06  2.54750480E-11
  2.22421084E-01  3.19070220E-02 -6.88708728E-07  1.16695915E-11  4.29655751E-03
  2.15010829E-03 -2.72289593E-08  4.00640006E-13 -5.16038398E-03  3.35209531E-12
  1.28182388E-12 -8.64172927E-05 -1.19078241E-07  8.08102105E-02  9.78325100E-02
  5.87705339E-03  6.70134302E-03  1.18047017E-02 -9.98267667E-14  8.08112939E-02
  9.78335572E-02  5.87713746E-03  6.70107336E-03 -1.18049730E-02  3.46532634E-12
  8.08189919E-02  9.78431412E-02  5.87769203E-03 -6.70207123E-03 -1.18059845E-02
 -4.27175471E-12  8.08200754E-02  9.78441884E-02  5.87777611E-03 -6.70180154E-03
  1.18062558E-02 -7.55738144E-13  2.13217549E-07  3.56567555E-07  1.98329497E-06
  1.48148475E-01 -2.25951134E-11 -1.00627370E-06  3.13450305E-06  2.20894346E-01
 -3.35135752E-11 -1.91255040E-06  1.93545216E-06  1.20252962E-01 -1.87692493E-11
 -2.50130017E-07  1.38399731E-08 -1.16445144E-03  7.84177322E-13 -2.74761651E-08
  4.98680318E-12 -8.00158638E-12 -9.86244596E-07 -3.27816321E-02 -2.07957807E-07
 -3.47771596E-07  1.93437019E-06  1.44493886E-01  2.19772957E-11  9.81450509E-07
  3.05717976E-06  2.15445231E-01  3.26811612E-11  1.86537081E-06  1.88770759E-06
  1.17286511E-01  1.82391242E-11  2.43959701E-07  1.34985620E-08 -1.13572626E-03
 -7.34217833E-13  2.67983713E-08  4.84649248E-12  1.13061280E-11  9.61915484E-07
  3.19729610E-02 -1.05139510E-01 -1.61737130E-01 -8.16386894E-02 -8.31608843E-03
 -3.24895323E-03 -1.45359121E-12  1.05139261E-01  1.61736551E-01  8.16386945E-02
  8.31597827E-03 -3.24911635E-03  2.63090085E-12  1.02545884E-01  1.57747330E-01
  7.96247918E-02 -8.11094365E-03 -3.16880668E-03 -3.47093684E-12 -1.02545642E-01
 -1.57746766E-01 -7.96247968E-02  8.11083621E-03 -3.16896578E-03  2.43190102E-12
 -2.07957809E-07 -3.47771596E-07 -1.93437022E-06 -1.44493886E-01  2.20379527E-11
  9.81450519E-07 -3.05717981E-06 -2.15445231E-01  3.26870075E-11  1.86537080E-06
 -1.88770761E-06 -1.17286511E-01  1.83064721E-11  2.43959698E-07 -1.34985574E-08
  1.13572626E-03 -7.65568051E-13  2.67983710E-08 -4.86397589E-12  7.80428154E-12
  9.61915498E-07  3.19729610E-02 -2.13217548E-07 -3.56567556E-07  1.98329494E-06
  1.48148475E-01  2.25329958E-11  1.00627370E-06  3.13450300E-06  2.20894346E-01
  3.35074606E-11  1.91255041E-06  1.93545213E-06  1.20252962E-01  1.87022692E-11
  2.50130011E-07  1.38399675E-08 -1.16445144E-03 -7.54588214E-13  2.74761650E-08
  4.96903533E-12  1.15918418E-11  9.86244580E-07  3.27816321E-02  1.02545884E-01
  1.57747330E-01  7.96247918E-02  8.11094365E-03  3.16880668E-03  1.41754289E-12
 -1.02545642E-01 -1.57746766E-01 -7.96247967E-02 -8.11083621E-03  3.16896578E-03
 -2.56633604E-12  1.05139510E-01  1.61737130E-01  8.16386894E-02 -8.31608843E-03
 -3.24895323E-03 -3.55865564E-12 -1.05139261E-01 -1.61736551E-01 -8.16386945E-02
  8.31597827E-03 -3.24911635E-03  2.49325116E-12 -3.90090614E-02 -6.47918075E-02
  1.62026333E-01 -2.41506097E-06  3.93575916E-11  1.88562102E-01  2.33600284E-01
 -3.33501568E-06  5.64638595E-11  2.95146486E-01  2.12979577E-01 -2.97382467E-06
  5.16807876E-11  4.23773769E-02  3.72901087E-02 -5.06164743E-07  8.89062273E-12
  1.76253342E-02 -1.12047819E-11  2.12188789E-12 -1.65926516E-02  4.92834284E-07
 -3.90117559E-02 -6.47962829E-02 -1.62037525E-01  2.41522775E-06 -5.69913815E-11
  1.88575127E-01 -2.33616420E-01  3.33524599E-06 -8.17889571E-11  2.95166873E-01
 -2.12994288E-01  2.97403006E-06 -7.38055186E-11  4.23803041E-02 -3.72926844E-02
  5.06199712E-07 -1.30875483E-11  1.76265516E-02 -1.62256431E-11 -2.12556094E-12
 -1.65937977E-02  4.92868322E-07 -4.88312966E-02 -9.02941653E-02 -6.06325222E-02
  7.26865799E-03 -9.88362475E-03  3.18794038E-12 -4.88311362E-02 -9.02938124E-02
 -6.06321474E-02  7.26897205E-03  9.88343815E-03  1.54634586E-13 -4.88346696E-02
 -9.03004023E-02 -6.06367104E-02 -7.26916007E-03  9.88430746E-03 -9.25995870E-13
 -4.88345092E-02 -9.03000494E-02 -6.06363355E-02 -7.26947415E-03 -9.88412084E-03
 -3.93235736E-12 -3.90117559E-02 -6.47962829E-02  1.62037525E-01 -2.41522780E-06
  3.93594610E-11  1.88575126E-01  2.33616419E-01 -3.33524602E-06  5.64674812E-11
  2.95166882E-01  2.12994294E-01 -2.97403013E-06  5.16831456E-11  4.23803118E-02
  3.72926683E-02 -5.06199818E-07  8.89194727E-12  1.76265519E-02 -1.12054990E-11
  2.12218973E-12 -1.65937978E-02  4.92868307E-07  3.90090614E-02  6.47918075E-02
  1.62026333E-01 -2.41506094E-06  5.69873580E-11 -1.88562101E-01  2.33600283E-01
 -3.33501560E-06  8.17831155E-11 -2.95146495E-01  2.12979582E-01 -2.97382468E-06
  7.38011316E-11 -4.23773846E-02  3.72900925E-02 -5.06164857E-07  1.30868188E-11
 -1.76253344E-02  1.62244944E-11  2.12542617E-12  1.65926516E-02 -4.92834261E-07
 -4.88346701E-02 -9.03003993E-02 -6.06367216E-02  7.26915988E-03 -9.88430745E-03
  3.18775941E-12 -4.88345097E-02 -9.03000464E-02 -6.06363468E-02  7.26947396E-03
  9.88412084E-03  1.54579474E-13  4.88312971E-02  9.02941623E-02  6.06325335E-02
  7.26865780E-03 -9.88362475E-03  9.26132607E-13  4.88311367E-02  9.02938094E-02
  6.06321587E-02  7.26897186E-03  9.88343815E-03  3.93182480E-12 -3.00939163E-13
 -5.01584662E-13 -4.01970464E-11  2.46531555E-11  1.62096397E-01  8.41342508E-13
 -6.43558219E-11  3.95395461E-11  2.56293461E-01  1.21047455E-11 -7.94855569E-11
  4.67052666E-11  3.02456507E-01  1.86842640E-11 -5.29105216E-11  3.21682227E-11
  1.80520037E-01 -7.54769076E-12 -1.72449322E-02  2.98479717E-07  4.23882659E-12
 -2.86083354E-12  4.56108382E-13  6.89728795E-13 -5.79512927E-11 -2.45282910E-11
  1.62102741E-01 -1.39942554E-12 -9.21894938E-11 -3.98605233E-11  2.56303491E-01
 -8.01195024E-12 -1.10598977E-10 -4.55591448E-11  3.02468344E-01 -5.51957739E-12
 -6.60951989E-11 -3.01988133E-11  1.80527102E-01  1.05867721E-11  1.72456071E-02
 -2.98491396E-07 -6.18643219E-12 -3.00183132E-12 -7.89199915E-13 -2.23422973E-12
 -9.52895076E-12 -4.25328598E-12  2.17758149E-12  1.63111138E-02 -1.18203389E-12
 -9.23249052E-13 -2.09943798E-11 -4.60139009E-12  3.25074751E-12  1.63111802E-02
  1.11901888E-12  2.28151932E-12  7.00329139E-12 -6.23956108E-12 -2.96454041E-12
  1.63117521E-02  8.97652827E-13  1.86823804E-12  3.21183929E-12 -5.68303830E-12
 -2.53200661E-12  1.63118185E-02 -3.01018736E-13 -5.01613764E-13 -4.01987237E-11
  2.46543297E-11  1.62102742E-01  8.41653691E-13 -6.43583969E-11  3.95411138E-11
  2.56303491E-01  1.21071637E-11 -7.94899210E-11  4.67066448E-11  3.02468346E-01
  1.86883385E-11 -5.29131516E-11  3.21683154E-11  1.80527098E-01 -7.54830179E-12
 -1.72456072E-02  2.98491400E-07  4.23918133E-12 -2.86159866E-12 -4.55874238E-13
 -6.89601622E-13  5.79487182E-11  2.45273597E-11 -1.62096398E-01  1.39848347E-12
  9.21862866E-11  3.98585103E-11 -2.56293461E-01  8.00977376E-12  1.10593525E-10