Title Card Required                                                     
FOpt      UM062X                                                      6-311+G(d,p)        
Number of atoms                            I                4
Info1-9                                    I   N=           9
          15          14           0           0           0         110
           2          18        -502
Full Title                                 C   N=           2
Title Card Required     
Route                                      C   N=           8
#p opt UM062X/6-311+G** nosymm int=superfine SCF=(MaxCycle=2
00,NoVarAcc,noincfock) guess=read   
Charge                                     I                0
Multiplicity                               I                1
Number of electrons                        I               26
Number of alpha electrons                  I               13
Number of beta electrons                   I               13
Number of basis functions                  I               64
Number of independent functions            I               64
Number of point charges in /Mol/           I                0
Number of translation vectors              I                0
Atomic numbers                             I   N=           4
           8          16           1           1
Nuclear charges                            R   N=           4
  8.00000000E+00  1.60000000E+01  1.00000000E+00  1.00000000E+00
Current cartesian coordinates              R   N=          12
 -3.28057589E+00  6.23609621E-04  8.59825387E-04  3.28057400E+00 -5.72587016E-04
 -8.08802781E-04 -3.21847006E+00  6.52230623E-02  1.83210457E+00  2.83271937E+00
 -1.26024441E+00 -2.16708161E+00
Number of symbols in /Mol/                 I                0
Force Field                                I                0
Atom Types                                 C   N=           4
                                                
Int Atom Types                             I   N=           4
           0           0           0           0
MM charges                                 R   N=           4
  0.00000000E+00  0.00000000E+00  0.00000000E+00  0.00000000E+00
Integer atomic weights                     I   N=           4
          16          32           1           1
Real atomic weights                        R   N=           4
  1.59949146E+01  3.19720718E+01  1.00782504E+00  1.00782504E+00
Atom fragment info                         I   N=           4
           0           0           0           0
Atom residue num                           I   N=           4
           0           0           0           0
Nuclear spins                              I   N=           4
           0           0           1           1
Nuclear ZEff                               R   N=           4
 -5.60000000E+00 -1.36000000E+01 -1.00000000E+00 -1.00000000E+00
Nuclear ZNuc                               R   N=           4
  8.00000000E+00  1.60000000E+01  1.00000000E+00  1.00000000E+00
Nuclear QMom                               R   N=           4
  0.00000000E+00  0.00000000E+00  0.00000000E+00  0.00000000E+00
Nuclear GFac                               R   N=           4
  0.00000000E+00  0.00000000E+00  2.79284600E+00  2.79284600E+00
MicOpt                                     I   N=           4
          -2          -2          -1          -1
Number of residues                         I                0
Number of secondary structures             I                0
Redundant internal dimensions              I   N=           4
          12          10           2           0
Redundant internal coordinate indices      I   N=          48
           1          -1           0           0           1          -2
           0           0           1          -3           0           0
           2          -1           0           0           2          -2
           0           0           2          -3           0           0
           1           3           0           0           1           4
           0           0           2           3           0           0
           2           4           0           0           3           1
           4           0           3           2           4           0
Redundant internal coordinates             R   N=          12
 -3.28057589E+00  6.23609621E-04  8.59825387E-04  3.28057400E+00 -5.72587016E-04
 -8.08802781E-04  1.83343599E+00  6.60773314E+00  6.75288636E+00  2.54560106E+00
  1.87872289E+00  1.63732789E+00
ZRed-IntVec                                I   N=          12
          -1          -1          -1          -1          -1          -1
           0           0           0           0           0           0
ZRed-FPVec                                 R   N=          12
  0.00000000E+00  0.00000000E+00  0.00000000E+00  0.00000000E+00  0.00000000E+00
  0.00000000E+00  0.00000000E+00  0.00000000E+00  0.00000000E+00  0.00000000E+00
  0.00000000E+00  0.00000000E+00
ZRed-Constraint1                           R   N=          12
 -3.28057589E+00  6.23609621E-04  8.59825387E-04  3.28057400E+00 -5.72587016E-04
 -8.08802781E-04  1.84883666E+00  6.73652192E+00  6.60689979E+00  2.61906615E+00
  1.69627147E+00  1.61142304E+00
ZRed-Constraint2                           R   N=          12
 -3.28057589E+00  6.23609621E-04  8.59825387E-04  3.28057400E+00 -5.72587016E-04
 -8.08802781E-04  0.00000000E+00  0.00000000E+00  0.00000000E+00  0.00000000E+00
  0.00000000E+00  0.00000000E+00
Number of contracted shells                I               27
Number of primitive shells                 I               49
Pure/Cartesian d shells                    I                0
Pure/Cartesian f shells                    I                0
Highest angular momentum                   I                2
Largest degree of contraction              I                6
Shell types                                I   N=          27
           0          -1          -1          -1          -1          -2
           0           0           0           0           0           0
          -1           1           1           1           1           1
          -2           0           0           0           1           0
           0           0           1
Number of primitives per shell             I   N=          27
           6           3           1           1           1           1
           6           3           1           1           1           1
           1           4           2           1           1           1
           1           3           1           1           1           3
           1           1           1
Shell to atom map                          I   N=          27
           1           1           1           1           1           1
           2           2           2           2           2           2
           2           2           2           2           2           2
           2           3           3           3           3           4
           4           4           4
Primitive exponents                        R   N=          49
  8.58850000E+03  1.29723000E+03  2.99296000E+02  8.73771000E+01  2.56789000E+01
  3.74004000E+00  4.21175000E+01  9.62837000E+00  2.85332000E+00  9.05661000E-01
  2.55611000E-01  8.45000000E-02  1.29200000E+00  9.34134000E+04  1.39617000E+04
  3.16991000E+03  9.02456000E+02  2.97158000E+02  1.08702000E+02  1.08702000E+02
  4.31553000E+01  1.81079000E+01  5.56009000E+00  2.13183000E+00  4.20403000E-01
  1.36045000E-01  4.05000000E-02  4.95040000E+02  1.17221000E+02  3.77749000E+01
  1.40584000E+01  5.56574000E+00  2.26297000E+00  8.07994000E-01  2.77460000E-01
  7.71410000E-02  6.50000000E-01  3.38650000E+01  5.09479000E+00  1.15879000E+00
  3.25840000E-01  1.02741000E-01  7.50000000E-01  3.38650000E+01  5.09479000E+00
  1.15879000E+00  3.25840000E-01  1.02741000E-01  7.50000000E-01
Contraction coefficients                   R   N=          49
  1.89515008E-03  1.43859006E-02  7.07320031E-02  2.40001011E-01  5.94797026E-01
  2.80802012E-01  1.13889012E-01  9.20811101E-01 -3.27447036E-03  1.00000000E+00
  1.00000000E+00  1.00000000E+00  1.00000000E+00  7.42999957E-04  5.79299966E-03
  2.99539983E-02  1.19027993E-01  3.68431979E-01  5.77298966E-01  1.43186060E-01
  6.24465262E-01  2.83366119E-01  1.00000000E+00  1.00000000E+00  1.00000000E+00
  1.00000000E+00  1.00000000E+00  8.30900251E-03  6.40240194E-02  2.77614084E-01
  7.45076225E-01  6.13711672E-01  4.43817763E-01  1.00000000E+00  1.00000000E+00
  1.00000000E+00  1.00000000E+00  2.54938145E-02  1.90373109E-01  8.52161486E-01
  1.00000000E+00  1.00000000E+00  1.00000000E+00  2.54938145E-02  1.90373109E-01
  8.52161486E-01  1.00000000E+00  1.00000000E+00  1.00000000E+00
P(S=P) Contraction coefficients            R   N=          49
  0.00000000E+00  0.00000000E+00  0.00000000E+00  0.00000000E+00  0.00000000E+00
  0.00000000E+00  3.65113974E-02  2.37152983E-01  8.19701941E-01  1.00000000E+00
  1.00000000E+00  1.00000000E+00  0.00000000E+00  0.00000000E+00  0.00000000E+00
  0.00000000E+00  0.00000000E+00  0.00000000E+00  0.00000000E+00  0.00000000E+00
  0.00000000E+00  0.00000000E+00  0.00000000E+00  0.00000000E+00  0.00000000E+00
  0.00000000E+00  1.00000000E+00  0.00000000E+00  0.00000000E+00  0.00000000E+00
  0.00000000E+00  0.00000000E+00  0.00000000E+00  0.00000000E+00  0.00000000E+00
  0.00000000E+00  0.00000000E+00  0.00000000E+00  0.00000000E+00  0.00000000E+00
  0.00000000E+00  0.00000000E+00  0.00000000E+00  0.00000000E+00  0.00000000E+00
  0.00000000E+00  0.00000000E+00  0.00000000E+00  0.00000000E+00
Coordinates of each shell                  R   N=          81
 -3.28057589E+00  6.23609621E-04  8.59825387E-04 -3.28057589E+00  6.23609621E-04
  8.59825387E-04 -3.28057589E+00  6.23609621E-04  8.59825387E-04 -3.28057589E+00
  6.23609621E-04  8.59825387E-04 -3.28057589E+00  6.23609621E-04  8.59825387E-04
 -3.28057589E+00  6.23609621E-04  8.59825387E-04  3.28057400E+00 -5.72587016E-04
 -8.08802781E-04  3.28057400E+00 -5.72587016E-04 -8.08802781E-04  3.28057400E+00
 -5.72587016E-04 -8.08802781E-04  3.28057400E+00 -5.72587016E-04 -8.08802781E-04
  3.28057400E+00 -5.72587016E-04 -8.08802781E-04  3.28057400E+00 -5.72587016E-04
 -8.08802781E-04  3.28057400E+00 -5.72587016E-04 -8.08802781E-04  3.28057400E+00
 -5.72587016E-04 -8.08802781E-04  3.28057400E+00 -5.72587016E-04 -8.08802781E-04
  3.28057400E+00 -5.72587016E-04 -8.08802781E-04  3.28057400E+00 -5.72587016E-04
 -8.08802781E-04  3.28057400E+00 -5.72587016E-04 -8.08802781E-04  3.28057400E+00
 -5.72587016E-04 -8.08802781E-04 -3.21847006E+00  6.52230623E-02  1.83210457E+00
 -3.21847006E+00  6.52230623E-02  1.83210457E+00 -3.21847006E+00  6.52230623E-02
  1.83210457E+00 -3.21847006E+00  6.52230623E-02  1.83210457E+00  2.83271937E+00
 -1.26024441E+00 -2.16708161E+00  2.83271937E+00 -1.26024441E+00 -2.16708161E+00
  2.83271937E+00 -1.26024441E+00 -2.16708161E+00  2.83271937E+00 -1.26024441E+00
 -2.16708161E+00
Num ILSW                                   I              100
ILSW                                       I   N=         100
           1           0           0           1           2           0
           0           0           0           0        4336          -1
           7           0           0           0           2           0
           0           0           0           0           1           0
           1           1           0           0           0           0
           0           0      100000           0          -1           0
           0           0           0           0           0           0
           0           0           0           1           0           0
           0 -2000000000           1           0           0           0
           0           0           4          52           0           0
           0           0          55           0           0           0
           0           0           0           4           0           1
           0           0           0           0           0           0
           0           0           0           0           0           0
           0           0           0           0           0           0
           0           0           0           0           0           0
           0           0           0           0
Num RLSW                                   I               52
RLSW                                       R   N=          52
  1.00000000E+00  1.00000000E+00  1.00000000E+00  1.00000000E+00  5.40000000E-01
  0.00000000E+00  0.00000000E+00  1.00000000E+00  0.00000000E+00  0.00000000E+00
  0.00000000E+00  0.00000000E+00  1.00000000E+00  0.00000000E+00  0.00000000E+00
  0.00000000E+00  0.00000000E+00  1.00000000E+00  0.00000000E+00  0.00000000E+00
  0.00000000E+00  0.00000000E+00  1.00000000E+00  0.00000000E+00  0.00000000E+00
  0.00000000E+00  0.00000000E+00  1.00000000E+00  0.00000000E+00  0.00000000E+00
  0.00000000E+00  0.00000000E+00  1.00000000E+00  0.00000000E+00  0.00000000E+00
  0.00000000E+00  0.00000000E+00  0.00000000E+00  1.00000000E+00  1.00000000E+00
 -9.83696509E-01  1.00000000E+00  0.00000000E+00  0.00000000E+00  0.00000000E+00
  0.00000000E+00  0.00000000E+00  0.00000000E+00  0.00000000E+00  0.00000000E+00
  0.00000000E+00  0.00000000E+00
MxBond                                     I                3
NBond                                      I   N=           4
           3           3           2           2
IBond                                      I   N=          12
           2           3           4           1           3           4
           1           2           0           1           2           0
RBond                                      R   N=          12
  1.00000000E-01  1.00000000E+00  1.00000000E-01  1.00000000E-01  1.00000000E-01
  1.00000000E+00  1.00000000E+00  1.00000000E-01  0.00000000E+00  1.00000000E-01
  1.00000000E+00  0.00000000E+00
Virial Ratio                               R      2.001699257295956E+00
SCF Energy                                 R     -4.743756073356960E+02
Total Energy                               R     -4.743756073356960E+02
S**2                                       R     -5.329070518200751E-15
S**2 after annihilation                    R      1.712407993181787E-12
RMS Force                                  R      4.356670310029053E-06
RMS Density                                R      9.872637427476441E-10
Job Status                                 I                1
Nuclear derivative order                   I                1
External E-field                           R   N=          35
  0.00000000E+00  0.00000000E+00  0.00000000E+00  0.00000000E+00  0.00000000E+00
  0.00000000E+00  0.00000000E+00  0.00000000E+00  0.00000000E+00  0.00000000E+00
  0.00000000E+00  0.00000000E+00  0.00000000E+00  0.00000000E+00  0.00000000E+00
  0.00000000E+00  0.00000000E+00  0.00000000E+00  0.00000000E+00  0.00000000E+00
  0.00000000E+00  0.00000000E+00  0.00000000E+00  0.00000000E+00  0.00000000E+00
  0.00000000E+00  0.00000000E+00  0.00000000E+00  0.00000000E+00  0.00000000E+00
  0.00000000E+00  0.00000000E+00  0.00000000E+00  0.00000000E+00  0.00000000E+00
IOpCl                                      I                1
IROHF                                      I                0
Alpha Orbital Energies                     R   N=          64
 -8.99785112E+01 -1.96725250E+01 -8.34009683E+00 -6.26220652E+00 -6.25855049E+00
 -6.25287292E+00 -1.08442515E+00 -8.38596501E-01 -5.25245761E-01 -4.97204100E-01
 -3.97547520E-01 -3.57668298E-01 -3.40689458E-01 -2.24848685E-01  1.58376175E-02
  3.89998348E-02  4.67204893E-02  5.42128982E-02  6.85671000E-02  1.34387628E-01
  1.92677009E-01  1.98490576E-01  2.11756720E-01  2.51845891E-01  3.08176030E-01
  3.39499612E-01  3.44414495E-01  3.91215055E-01  5.35276059E-01  5.89210729E-01
  6.98976319E-01  7.14506062E-01  7.85256775E-01  7.96825137E-01  9.68546316E-01
  1.03937164E+00  1.08017151E+00  1.09662335E+00  1.36981405E+00  1.39300555E+00
  1.39858745E+00  1.45793067E+00  1.46294061E+00  1.64047315E+00  1.66141839E+00
  1.67865448E+00  2.05812051E+00  2.08836226E+00  2.47746147E+00  2.52810209E+00
  2.88058090E+00  2.88686625E+00  3.16497715E+00  3.18775816E+00  3.84310494E+00
  5.03389624E+00  5.04349123E+00  5.51155619E+00  7.81315808E+00  1.74056583E+01
  1.74198072E+01  1.74525642E+01  4.98694706E+01  1.89072989E+02
Beta Orbital Energies                      R   N=          64
 -8.99785112E+01 -1.96725250E+01 -8.34009683E+00 -6.26220652E+00 -6.25855049E+00
 -6.25287292E+00 -1.08442515E+00 -8.38596501E-01 -5.25245761E-01 -4.97204100E-01
 -3.97547520E-01 -3.57668298E-01 -3.40689458E-01 -2.24848685E-01  1.58376176E-02
  3.89998346E-02  4.67204895E-02  5.42128981E-02  6.85670999E-02  1.34387628E-01
  1.92677008E-01  1.98490576E-01  2.11756720E-01  2.51845891E-01  3.08176030E-01
  3.39499612E-01  3.44414495E-01  3.91215055E-01  5.35276059E-01  5.89210729E-01
  6.98976319E-01  7.14506062E-01  7.85256776E-01  7.96825137E-01  9.68546316E-01
  1.03937164E+00  1.08017151E+00  1.09662335E+00  1.36981405E+00  1.39300555E+00
  1.39858745E+00  1.45793067E+00  1.46294061E+00  1.64047315E+00  1.66141839E+00
  1.67865448E+00  2.05812051E+00  2.08836226E+00  2.47746147E+00  2.52810209E+00
  2.88058090E+00  2.88686625E+00  3.16497715E+00  3.18775816E+00  3.84310494E+00
  5.03389624E+00  5.04349123E+00  5.51155619E+00  7.81315808E+00  1.74056583E+01
  1.74198072E+01  1.74525642E+01  4.98694706E+01  1.89072989E+02
Alpha MO coefficients                      R   N=        4096
  2.16647347E-07 -9.60194794E-07  3.56595519E-07 -2.30570976E-07 -3.08359681E-07
  7.38447785E-06 -6.82019305E-07  7.54783898E-07  1.33150013E-06 -3.18120091E-05
 -1.04208427E-05 -1.84714279E-06 -6.62079420E-06  1.62045560E-04  4.20180842E-05
  4.57236332E-06  8.42546055E-05  1.87377739E-07  1.35228112E-06  3.30846097E-08
  1.34403309E-06 -1.70589814E-08  4.10786225E-01  6.54412276E-01  1.53467046E-02
 -4.34111106E-03  1.60033823E-03 -8.92960045E-04  1.34659488E-04 -2.37033999E-05
 -1.09265113E-05 -1.81520529E-05 -3.03635994E-05 -3.80166329E-05 -6.41322821E-05
  7.95697565E-06  1.25565271E-05  2.12621897E-05  2.42621196E-06  3.53135687E-06
  6.25258511E-06 -4.16135080E-05 -8.88001976E-05 -1.52649664E-04  7.56800391E-05
  9.06919784E-05  1.54175115E-04  5.17835851E-05  2.21222514E-05  6.68697630E-05
 -1.34594670E-05  1.24736837E-05 -2.45947944E-07  1.36436379E-05 -1.72289492E-04
 -5.07918663E-06 -2.73285414E-07  1.07696997E-06  2.65650104E-05 -2.16885472E-04
  2.70060096E-04 -3.14832668E-05 -8.59907666E-05 -1.48166930E-04  5.52843833E-01
  4.69702470E-01  2.11705414E-04  4.02959273E-05  1.24001671E-03  8.02390436E-03
 -2.45021021E-05 -2.54588132E-06 -1.20455079E-04 -3.02696499E-03 -1.11869283E-04
  3.77889563E-06  1.71670754E-04  2.38351194E-03  3.20741039E-04  1.47811790E-05
  3.67792889E-04  1.41552738E-04  1.01984391E-05  8.03234454E-06 -1.84358772E-05
 -5.17688023E-07  4.73857549E-08 -7.26510178E-07  6.26307662E-06 -1.52318711E-05
  4.74935769E-05 -4.62552201E-05 -4.24199926E-04  2.97939468E-04 -1.59232944E-06
  1.97055851E-05 -6.68215554E-07 -1.91689250E-07 -2.55486313E-07  1.45639282E-05
 -3.90501789E-07 -4.43865889E-07 -4.79055485E-05  3.24074650E-07  3.62956372E-08
  6.00432143E-05  1.58106560E-06  3.07314530E-06  1.90616553E-05  6.93791075E-05
  1.05083262E-04  7.46619884E-06 -3.00393365E-06 -9.81036320E-06 -2.30284992E-05
 -1.79720933E-06  5.81078549E-05  1.09508830E-05 -1.05902997E-03  1.72490822E-05
  1.53394850E-05  4.43457082E-04  7.34033787E-06 -1.02699119E-05  2.35975902E-04
  3.93952022E-06  2.19954605E-06  1.95798539E-06 -9.44440430E-07 -4.42208651E-06
  2.64406339E-05 -1.78075971E-06 -5.30494323E-06  4.81277112E-05 -2.60054063E-05
  8.68656429E-06  2.30821442E-05 -2.69625148E-04 -2.57762131E-05 -2.07011465E-05
 -4.87435820E-05  2.00565968E-03  4.82819425E-04  5.87284194E-05  1.11048460E-03
  7.83602390E-06  1.73431120E-05  9.71803098E-07  1.98628258E-05  2.95419371E-07
 -1.19758334E-01 -3.20470301E-01  5.15945148E-01  5.99061459E-01  4.28072449E-02
 -1.48145787E-02  2.42087711E-03 -3.67024548E-04 -1.26867980E-04 -2.08658624E-04
 -7.88325927E-04 -9.45283913E-04 -1.58728470E-03 -1.81664366E-03 -2.13745122E-03
 -3.59052089E-03 -1.64069752E-04 -1.91330078E-04 -3.11971659E-04 -4.47487880E-04
 -9.58793493E-04 -1.64802366E-03  9.75159972E-04  1.14583562E-03  1.94549793E-03
  4.63012548E-04  1.60606708E-04  9.88874871E-04  3.18607600E-04  6.78960164E-05
 -6.29961021E-06  1.15343746E-04 -2.26704527E-03 -6.91348861E-05 -2.04324364E-06
  3.36262877E-05  1.57832633E-04 -2.05259690E-03  3.43817668E-03 -3.04113731E-04
 -8.17819934E-04 -1.40928768E-03  2.65208789E-06  1.31173041E-05  1.71278009E-05
  1.17967330E-06 -1.35944440E-06 -1.26880230E-04 -9.88396805E-05 -5.14112147E-06
  6.28112037E-06  2.97303309E-04  2.49028585E-04  1.73495312E-05  1.08306695E-04
  1.39771573E-04  2.02670503E-04 -1.21147242E-05  1.22493166E-04  1.24289590E-05
  2.76693205E-06  1.84525021E-06  2.37871823E-05  5.83141936E-07 -1.45325690E-04
 -3.99301023E-04  7.54061877E-04  5.58284296E-04  9.63464998E-05 -3.63211834E-05
 -1.20008154E-04 -2.44973012E-03  2.79004772E-04  4.05872046E-04  3.69949087E-01
 -4.63128487E-02 -6.69743810E-02  6.92421121E-01 -8.66719033E-02 -1.25332531E-01
  5.36874996E-02 -6.71183134E-03 -9.70584880E-03 -7.50441560E-03  9.03205174E-04
  1.30431361E-03  4.67309942E-03 -5.02849700E-04 -7.26008173E-04  1.64210001E-04
 -4.02789124E-04  1.05471951E-04 -1.89017679E-04 -2.39968527E-04 -2.94244776E-05
 -1.08127463E-04 -3.15207240E-04 -1.49474538E-06  1.53866784E-07  3.87281976E-05
  1.59444737E-05 -3.57734639E-06  6.29649133E-05  6.28482934E-05 -2.99747327E-05
 -4.94390793E-05  5.58477672E-07  2.29399200E-06  4.39331329E-06 -3.74986598E-06
 -7.48135722E-06 -2.08483048E-05 -2.95918631E-05  1.61613468E-05  3.47005356E-05
  4.66979508E-05  8.36400487E-05 -3.93556185E-05 -5.40597032E-05  1.11709975E-04
  3.95969729E-05  4.58296123E-05  1.06479079E-04  1.56628157E-06  8.51714789E-07
 -5.47661042E-07  4.70112470E-06 -2.04090399E-06 -7.73518863E-04 -2.09290756E-03
  3.70322149E-03  3.75503550E-03 -6.83570580E-04 -3.28478514E-04 -4.88386353E-04
 -4.06251238E-04 -9.87915778E-04 -1.70843263E-03  8.12967947E-02  1.85590336E-01
  3.20845038E-01  1.51900341E-01  3.46715208E-01  5.99395900E-01  1.15512990E-02
  2.63465513E-02  4.55466372E-02 -1.53611284E-03 -3.42085154E-03 -5.91567786E-03
  9.88333308E-04  2.16604313E-03  3.74309967E-03 -3.94510818E-04 -2.75386433E-04
 -5.40119559E-04  8.18064203E-05 -1.59684432E-04  8.06068381E-06 -3.01394240E-05
 -5.84660294E-05 -1.99341315E-05  2.99563172E-06  1.57490142E-05 -5.56342309E-04
 -9.94122690E-05  1.14622623E-03  9.55820790E-05  3.22025950E-04  5.55800533E-04
  6.74169059E-08  4.43445374E-07  3.00486552E-07 -5.45192922E-06  3.59619012E-06
 -4.02218678E-06 -1.63970745E-06  2.35670301E-05 -1.66328527E-05  2.79032087E-06
 -8.27837393E-07 -5.64294837E-05  3.55563588E-05  1.85458266E-05  5.04465112E-06
  6.29204108E-05 -2.64162857E-05  5.45285262E-07 -7.50705813E-09 -1.55998772E-06
  3.27290603E-07 -3.97980687E-06 -1.17995092E-05 -3.20555919E-05  5.76109534E-05
  5.46562899E-05 -8.55968247E-06  2.16659282E-06 -5.42914451E-06 -3.98421954E-05
 -1.84822927E-03  1.07891636E-03  6.42818212E-03  3.28413304E-01 -1.91597237E-01
  1.19865607E-02  6.12477216E-01 -3.57320796E-01  8.78867720E-04  4.48482493E-02
 -2.61635940E-02 -1.21599440E-04 -6.02885393E-03  3.51568501E-03  7.71275596E-05
  3.48683070E-03 -2.03300588E-03  3.19169510E-04  7.34920558E-05 -2.01779601E-04
  1.83385375E-04 -1.38748145E-04 -6.91430781E-06  2.47874978E-06 -2.22277917E-05
  1.03870741E-05  7.09820832E-06 -5.01140283E-06 -9.17606416E-07 -2.96536192E-06
  4.70095342E-06  1.33960580E-06  8.15663080E-05 -4.84070176E-05 -1.18709716E-01
 -1.95650058E-01  1.87497928E-03  1.55256308E-03  4.73179541E-02  5.75065067E-01
  3.33029010E-03  2.49323420E-03  7.57882753E-02  4.18638950E-01  3.19843668E-03
  6.94199080E-04  2.82102150E-02 -1.88752606E-02 -4.66541497E-03 -2.50201385E-04
 -5.87180717E-03  9.65724092E-03  5.37196591E-04  7.72645958E-04  5.14741776E-03
  1.79574821E-04  3.02856525E-04  8.64143273E-04 -1.84191799E-03 -3.10605955E-03
  4.17764838E-03  6.36580511E-03  7.42328027E-03 -4.28802633E-03  8.15609812E-05
  1.21407227E-04  7.40363059E-04 -1.31039029E-05 -1.80738169E-05  1.32833673E-03
 -2.61921532E-05 -3.56635993E-05 -1.20719217E-03  8.86034362E-05  1.34573766E-04
 -5.65739667E-03 -1.39751531E-05 -9.98783921E-05 -3.10417110E-03 -1.36346348E-03
 -2.08237033E-03 -4.02063490E-04  9.37200016E-05  3.16801943E-04  1.06504978E-03
  6.94870340E-05  1.10541557E-01  8.96699976E-02  1.64948521E-02 -9.87544637E-04
 -9.10032945E-04 -2.61662617E-02  6.86715139E-04 -4.65614392E-05 -4.35665373E-03
 -3.16740297E-05 -2.74764888E-05 -5.07702055E-05  1.62631865E-03  2.71552452E-03
  4.43163369E-03 -4.43070587E-05 -1.45962839E-03 -8.66009630E-03  6.86899615E-03
 -8.52680672E-05 -2.23309908E-03 -3.65197317E-03  6.82752173E-03  9.44811038E-05
 -7.06717945E-04 -8.65202422E-03 -1.47387887E-03 -3.02879347E-04 -4.87376633E-03
 -3.94501542E-04  1.93937239E-04 -1.20133552E-05  3.08669257E-04  9.95734854E-06
  3.34228468E-02  9.49709004E-02 -1.99284666E-01 -3.69030704E-01  6.69623449E-01
  4.07111595E-01 -1.04982572E-02  4.68824794E-06 -3.58668927E-04 -1.25714127E-03
  2.23910563E-03  8.54665137E-03  1.44771761E-02  4.56591081E-03  1.70755216E-02
  2.89369844E-02 -6.84898156E-03 -2.37697344E-02 -4.03994994E-02 -4.90941389E-03
 -3.20583241E-02 -5.37285665E-02 -1.06512734E-03 -5.29763402E-03 -7.30555035E-03
  1.06197082E-02  3.32292138E-03  2.07774159E-02  5.14293993E-03  1.66232372E-03
 -2.09820001E-03 -2.81502145E-03  1.01774441E-02  8.83114022E-04  2.45362501E-05
  5.13921508E-04  1.01073336E-01  1.33763415E-01  2.29296349E-03  5.06675130E-03
  1.16551455E-02  2.01025273E-02  3.93353870E-02  6.58706571E-02  8.03157115E-03
  9.36218300E-03  2.51330349E-01 -2.01011616E-01  1.15550076E-02  1.34944364E-02
  3.62002467E-01 -2.86478500E-01  6.49227260E-03  9.33691095E-03  2.42437519E-01
 -6.03515705E-02  1.38879776E-03  1.28030823E-03  2.54228318E-02  1.90586624E-02
  1.81642665E-03  1.06268646E-03 -1.63602326E-03  2.50786084E-05  7.55153219E-04
  2.15272020E-03 -4.58490502E-03 -8.58991482E-03  1.66904361E-02  1.48163971E-02
  1.09653260E-03 -1.54848308E-03 -4.86140415E-04 -6.19069951E-04 -1.60748327E-03
 -1.44282423E-03 -3.42134330E-03 -3.09456644E-03 -2.80688638E-03 -6.64328177E-03
  4.21609274E-03  4.01261558E-03  9.51129309E-03  9.00182769E-03  7.11887550E-03
  1.71747498E-02  5.52296276E-03  1.39368402E-03  6.36687366E-03 -1.15691994E-03
 -1.51546661E-03 -1.59486215E-03  1.36852565E-04 -4.90875294E-04  1.65973100E-01
  2.59457266E-01  8.16228002E-02 -5.77232874E-04 -1.07227944E-03 -2.98353687E-02
 -7.12766320E-03 -1.04898221E-02 -7.75213486E-03  2.18701500E-04 -5.72600043E-04
 -8.47083972E-04 -1.82550210E-03 -3.05885494E-03  3.26158770E-03  1.92051517E-03
 -1.41519117E-02  9.28016888E-03  5.24403618E-03  2.89265578E-03 -2.03750589E-02
  1.40121774E-02  4.24242032E-03  2.37263086E-03 -1.40578092E-02  6.72879825E-03
  3.89188008E-03  1.26291673E-03  1.37338806E-03 -1.18132204E-03  2.39791175E-04
  4.56256358E-05  2.26849566E-04  1.10843622E-04  1.21890086E-02  3.48230137E-02
 -7.48433585E-02 -1.36868790E-01  2.51638524E-01  2.98137008E-01  2.47389305E-02
 -4.90160091E-03 -1.19027974E-02 -2.08779771E-02 -1.48109471E-02 -4.08223367E-02
 -7.05411562E-02 -2.88453860E-02 -7.94886627E-02 -1.37349143E-01  4.21097135E-02
  1.15779237E-01  1.99966332E-01  7.40235421E-02  2.02435118E-01  3.50211051E-01
  2.03606657E-02  5.35485450E-02  9.38890341E-02 -3.16764968E-02 -1.39552654E-02
 -3.60121226E-02  1.44567292E-02 -8.28972389E-03 -9.20188076E-03 -1.49346326E-02
 -6.99621133E-03  9.04949541E-04  3.66795164E-04  1.67980207E-03 -1.57457523E-01
 -2.84943288E-01 -1.32711200E-01 -6.29318288E-03 -1.29997387E-02 -2.25826148E-02
 -1.74256189E-04 -2.92929827E-04 -6.47667939E-03  3.04319684E-01 -1.07575744E-02
  9.76599999E-04 -9.54943299E-03  4.46163130E-01 -1.57714952E-02  1.12140019E-03
 -8.60264744E-03  4.02283611E-01 -1.43414886E-02 -2.67633320E-03 -2.44757022E-03
  8.76670158E-02 -3.61494852E-03 -8.29426822E-04 -3.64076899E-04  1.44145972E-02
 -4.57350400E-04  1.23309795E-03 -8.97839627E-05 -2.57999936E-04  5.67936755E-04
  9.76014124E-04 -1.59483916E-03 -3.47155203E-03 -1.76047109E-03  3.18881395E-04
  2.18013487E-04  1.84101816E-03 -1.47441517E-04 -4.19364009E-03  3.69294713E-03
 -2.81765494E-04 -8.05708758E-03  7.13447777E-03  3.61839073E-04  1.16907283E-02
 -1.04750264E-02  9.87367108E-04  2.44493636E-02 -2.07621544E-02  7.68225037E-04
  1.47788574E-02 -8.99348430E-03  1.19769364E-03  2.35275468E-04  1.85926850E-04
  7.42934817E-05 -1.15611158E-03 -7.21310574E-05  9.16246087E-05  1.66021841E-03
 -7.55546382E-04  3.59622778E-02 -1.32480905E-03  2.15768635E-03  3.62343084E-03
  3.83669731E-03  4.77596707E-04  1.17256319E-03 -2.79796592E-04  5.53204197E-05
  9.38203787E-05 -7.13780134E-03 -1.97887321E-02  3.48901894E-03 -2.94285349E-04
 -1.08083993E-02 -2.87967951E-02  5.00782404E-03 -3.93714019E-04 -9.81431085E-03
 -2.72417992E-02  4.50705388E-03 -2.71076445E-03 -2.79870030E-03 -4.81865096E-03
 -1.52044983E-03  3.50869175E-04 -5.25171282E-04 -9.35713283E-04 -7.44620434E-05
  1.85780993E-04  1.45939194E-04  4.14281498E-04 -8.67761698E-04 -1.78014195E-03
  4.31097828E-03  9.55209352E-04 -4.84997661E-03 -1.80930413E-03 -5.20524285E-02
  3.01246014E-02 -4.31899015E-03 -8.89225410E-02  5.22760993E-02 -8.34208490E-03
 -1.71279168E-01  1.00700948E-01  1.19139798E-02  2.52380465E-01 -1.48337838E-01
  2.53287005E-02  5.19767652E-01 -3.05436493E-01  1.57393098E-02  2.87104219E-01
 -1.67351181E-01  1.27109800E-02  3.12835707E-04 -7.75912431E-03  7.14585619E-03
 -1.89457069E-03  1.56482490E-03  1.90434134E-03  3.13027584E-03 -1.20668889E-03
 -2.17796942E-03 -2.75526671E-04 -1.72995655E-04 -1.70951476E-04  2.79955936E-03