Title Card Required                                                     
Force     UM062X                                                      6-311+G(d,p)        
Number of atoms                            I                6
Info1-9                                    I   N=           9
          15          15           0           0           0         100
           5          18        -502
Full Title                                 C   N=           2
Title Card Required     
Route                                      C   N=           4
#p UM062X/6-311+G** force int=superfine         
Charge                                     I                0
Multiplicity                               I                1
Number of electrons                        I               16
Number of alpha electrons                  I                8
Number of beta electrons                   I                8
Number of basis functions                  I               68
Number of independent functions            I               68
Number of point charges in /Mol/           I                0
Number of translation vectors              I                0
Atomic numbers                             I   N=           6
           6           6           1           1           1           1
Nuclear charges                            R   N=           6
  6.00000000E+00  6.00000000E+00  1.00000000E+00  1.00000000E+00  1.00000000E+00
  1.00000000E+00
Current cartesian coordinates              R   N=          18
  2.80407989E-21  1.51570208E+00  0.00000000E+00 -1.85624644E-16 -1.51570208E+00
  0.00000000E+00 -1.78590268E+00  2.50325973E+00  0.00000000E+00  1.78582331E+00
  2.50354318E+00  0.00000000E+00  1.78590268E+00 -2.50325973E+00  0.00000000E+00
 -1.78582331E+00 -2.50354318E+00  0.00000000E+00
Number of symbols in /Mol/                 I                0
Force Field                                I                0
Atom Types                                 C   N=           6
                                                            
            
Int Atom Types                             I   N=           6
           0           0           0           0           0           0
MM charges                                 R   N=           6
  0.00000000E+00  0.00000000E+00  0.00000000E+00  0.00000000E+00  0.00000000E+00
  0.00000000E+00
Integer atomic weights                     I   N=           6
          12          12           1           1           1           1
Real atomic weights                        R   N=           6
  1.20000000E+01  1.20000000E+01  1.00782504E+00  1.00782504E+00  1.00782504E+00
  1.00782504E+00
Atom fragment info                         I   N=           6
           0           0           0           0           0           0
Atom residue num                           I   N=           6
           0           0           0           0           0           0
Nuclear spins                              I   N=           6
           0           0           1           1           1           1
Nuclear ZEff                               R   N=           6
 -3.60000000E+00 -3.60000000E+00 -1.00000000E+00 -1.00000000E+00 -1.00000000E+00
 -1.00000000E+00
Nuclear ZNuc                               R   N=           6
  6.00000000E+00  6.00000000E+00  1.00000000E+00  1.00000000E+00  1.00000000E+00
  1.00000000E+00
Nuclear QMom                               R   N=           6
  0.00000000E+00  0.00000000E+00  0.00000000E+00  0.00000000E+00  0.00000000E+00
  0.00000000E+00
Nuclear GFac                               R   N=           6
  0.00000000E+00  0.00000000E+00  2.79284600E+00  2.79284600E+00  2.79284600E+00
  2.79284600E+00
MicOpt                                     I   N=           6
          -1          -1          -1          -1          -1          -1
Number of residues                         I                0
Number of secondary structures             I                0
SymInf integers                            I   N=          26
           2           4           1           1           1          -1
          -1           1           1           1          -1          -1
          -1          -1           0           0           0           0
           0           0           0           0           0           0
           0           0
RotTr to input orientation                 R   N=          12
  6.23955267E-17  1.00000000E+00  0.00000000E+00 -1.00000000E+00  6.23961434E-17
  0.00000000E+00  0.00000000E+00  0.00000000E+00  1.00000000E+00  2.77555756E-17
  0.00000000E+00  0.00000000E+00
Number of contracted shells                I               28
Number of primitive shells                 I               50
Pure/Cartesian d shells                    I                0
Pure/Cartesian f shells                    I                0
Highest angular momentum                   I                2
Largest degree of contraction              I                6
Shell types                                I   N=          28
           0          -1          -1          -1          -1          -2
           0          -1          -1          -1          -1          -2
           0           0           0           1           0           0
           0           1           0           0           0           1
           0           0           0           1
Number of primitives per shell             I   N=          28
           6           3           1           1           1           1
           6           3           1           1           1           1
           3           1           1           1           3           1
           1           1           3           1           1           1
           3           1           1           1
Shell to atom map                          I   N=          28
           1           1           1           1           1           1
           2           2           2           2           2           2
           3           3           3           3           4           4
           4           4           5           5           5           5
           6           6           6           6
Primitive exponents                        R   N=          50
  4.56324000E+03  6.82024000E+02  1.54973000E+02  4.44553000E+01  1.30290000E+01
  1.82773000E+00  2.09642000E+01  4.80331000E+00  1.45933000E+00  4.83456000E-01
  1.45585000E-01  4.38000000E-02  6.26000000E-01  4.56324000E+03  6.82024000E+02
  1.54973000E+02  4.44553000E+01  1.30290000E+01  1.82773000E+00  2.09642000E+01
  4.80331000E+00  1.45933000E+00  4.83456000E-01  1.45585000E-01  4.38000000E-02
  6.26000000E-01  3.38650000E+01  5.09479000E+00  1.15879000E+00  3.25840000E-01
  1.02741000E-01  7.50000000E-01  3.38650000E+01  5.09479000E+00  1.15879000E+00
  3.25840000E-01  1.02741000E-01  7.50000000E-01  3.38650000E+01  5.09479000E+00
  1.15879000E+00  3.25840000E-01  1.02741000E-01  7.50000000E-01  3.38650000E+01
  5.09479000E+00  1.15879000E+00  3.25840000E-01  1.02741000E-01  7.50000000E-01
Contraction coefficients                   R   N=          50
  1.96665025E-03  1.52306019E-02  7.61269097E-02  2.60801033E-01  6.16462078E-01
  2.21006028E-01  1.14660081E-01  9.19999648E-01 -3.03068213E-03  1.00000000E+00
  1.00000000E+00  1.00000000E+00  1.00000000E+00  1.96665025E-03  1.52306019E-02
  7.61269097E-02  2.60801033E-01  6.16462078E-01  2.21006028E-01  1.14660081E-01
  9.19999648E-01 -3.03068213E-03  1.00000000E+00  1.00000000E+00  1.00000000E+00
  1.00000000E+00  2.54938145E-02  1.90373109E-01  8.52161486E-01  1.00000000E+00
  1.00000000E+00  1.00000000E+00  2.54938145E-02  1.90373109E-01  8.52161486E-01
  1.00000000E+00  1.00000000E+00  1.00000000E+00  2.54938145E-02  1.90373109E-01
  8.52161486E-01  1.00000000E+00  1.00000000E+00  1.00000000E+00  2.54938145E-02
  1.90373109E-01  8.52161486E-01  1.00000000E+00  1.00000000E+00  1.00000000E+00
P(S=P) Contraction coefficients            R   N=          50
  0.00000000E+00  0.00000000E+00  0.00000000E+00  0.00000000E+00  0.00000000E+00
  0.00000000E+00  4.02486927E-02  2.37593957E-01  8.15853851E-01  1.00000000E+00
  1.00000000E+00  1.00000000E+00  0.00000000E+00  0.00000000E+00  0.00000000E+00
  0.00000000E+00  0.00000000E+00  0.00000000E+00  0.00000000E+00  4.02486927E-02
  2.37593957E-01  8.15853851E-01  1.00000000E+00  1.00000000E+00  1.00000000E+00
  0.00000000E+00  0.00000000E+00  0.00000000E+00  0.00000000E+00  0.00000000E+00
  0.00000000E+00  0.00000000E+00  0.00000000E+00  0.00000000E+00  0.00000000E+00
  0.00000000E+00  0.00000000E+00  0.00000000E+00  0.00000000E+00  0.00000000E+00
  0.00000000E+00  0.00000000E+00  0.00000000E+00  0.00000000E+00  0.00000000E+00
  0.00000000E+00  0.00000000E+00  0.00000000E+00  0.00000000E+00  0.00000000E+00
Coordinates of each shell                  R   N=          84
  1.86938659E-21  1.51570208E+00  0.00000000E+00  1.86938659E-21  1.51570208E+00
  0.00000000E+00  1.86938659E-21  1.51570208E+00  0.00000000E+00  1.86938659E-21
  1.51570208E+00  0.00000000E+00  1.86938659E-21  1.51570208E+00  0.00000000E+00
  1.86938659E-21  1.51570208E+00  0.00000000E+00 -1.85623709E-16 -1.51570208E+00
  0.00000000E+00 -1.85623709E-16 -1.51570208E+00  0.00000000E+00 -1.85623709E-16
 -1.51570208E+00  0.00000000E+00 -1.85623709E-16 -1.51570208E+00  0.00000000E+00
 -1.85623709E-16 -1.51570208E+00  0.00000000E+00 -1.85623709E-16 -1.51570208E+00
  0.00000000E+00 -1.78590268E+00  2.50325973E+00  0.00000000E+00 -1.78590268E+00
  2.50325973E+00  0.00000000E+00 -1.78590268E+00  2.50325973E+00  0.00000000E+00
 -1.78590268E+00  2.50325973E+00  0.00000000E+00  1.78582331E+00  2.50354318E+00
  0.00000000E+00  1.78582331E+00  2.50354318E+00  0.00000000E+00  1.78582331E+00
  2.50354318E+00  0.00000000E+00  1.78582331E+00  2.50354318E+00  0.00000000E+00
  1.78590268E+00 -2.50325973E+00  0.00000000E+00  1.78590268E+00 -2.50325973E+00
  0.00000000E+00  1.78590268E+00 -2.50325973E+00  0.00000000E+00  1.78590268E+00
 -2.50325973E+00  0.00000000E+00 -1.78582331E+00 -2.50354318E+00  0.00000000E+00
 -1.78582331E+00 -2.50354318E+00  0.00000000E+00 -1.78582331E+00 -2.50354318E+00
  0.00000000E+00 -1.78582331E+00 -2.50354318E+00  0.00000000E+00
Num ILSW                                   I              100
ILSW                                       I   N=         100
           1           0           0           0           2           0
           0           0           0           0        4336          -1
           7           0           0           0           2           0
           0           0           0           0           1           0
           1           0           0           0           0           0
           0           0      100000           0          -1           0
           0           0           0           0           0           0
           0           0           0           1           0           0
           0 -2000000000           1           0           0           0
           0           0           4          52           0           0
           0           0          55           0           0           0
           0           0           0           6           0           1
           0           0           0           0           0           0
           0           0           0           0           0           0
           0           0           0           0           0           0
           0           0           0           0           0           0
           0           0           0           0
Num RLSW                                   I               52
RLSW                                       R   N=          52
  1.00000000E+00  1.00000000E+00  1.00000000E+00  1.00000000E+00  5.40000000E-01
  0.00000000E+00  0.00000000E+00  1.00000000E+00  0.00000000E+00  0.00000000E+00
  0.00000000E+00  0.00000000E+00  1.00000000E+00  0.00000000E+00  0.00000000E+00
  0.00000000E+00  0.00000000E+00  1.00000000E+00  0.00000000E+00  0.00000000E+00
  0.00000000E+00  0.00000000E+00  1.00000000E+00  0.00000000E+00  0.00000000E+00
  0.00000000E+00  0.00000000E+00  1.00000000E+00  0.00000000E+00  0.00000000E+00
  0.00000000E+00  0.00000000E+00  1.00000000E+00  0.00000000E+00  0.00000000E+00
  0.00000000E+00  0.00000000E+00  0.00000000E+00  1.00000000E+00  1.00000000E+00
  0.00000000E+00  1.00000000E+00  0.00000000E+00  0.00000000E+00  0.00000000E+00
  0.00000000E+00  0.00000000E+00  0.00000000E+00  0.00000000E+00  0.00000000E+00
  0.00000000E+00  0.00000000E+00
MxBond                                     I                3
NBond                                      I   N=           6
           3           3           1           1           1           1
IBond                                      I   N=          18
           2           3           4           1           5           6
           1           0           0           1           0           0
           2           0           0           2           0           0
RBond                                      R   N=          18
  1.00000000E+00  1.00000000E+00  1.00000000E+00  1.00000000E+00  1.00000000E+00
  1.00000000E+00  1.00000000E+00  0.00000000E+00  0.00000000E+00  1.00000000E+00
  0.00000000E+00  0.00000000E+00  1.00000000E+00  0.00000000E+00  0.00000000E+00
  1.00000000E+00  0.00000000E+00  0.00000000E+00
Virial Ratio                               R      2.010725627470643E+00
SCF Energy                                 R     -7.850807561928012E+01
Total Energy                               R     -7.850807561928012E+01
S**2                                       R      8.881784197001252E-15
S**2 after annihilation                    R     -1.030286966852151E-13
RMS Force                                  R      5.494654577675394E-02
RMS Density                                R      5.118748270723330E-09
Job Status                                 I                1
Nuclear derivative order                   I                1
External E-field                           R   N=          35
  0.00000000E+00  0.00000000E+00  0.00000000E+00  0.00000000E+00  0.00000000E+00
  0.00000000E+00  0.00000000E+00  0.00000000E+00  0.00000000E+00  0.00000000E+00
  0.00000000E+00  0.00000000E+00  0.00000000E+00  0.00000000E+00  0.00000000E+00
  0.00000000E+00  0.00000000E+00  0.00000000E+00  0.00000000E+00  0.00000000E+00
  0.00000000E+00  0.00000000E+00  0.00000000E+00  0.00000000E+00  0.00000000E+00
  0.00000000E+00  0.00000000E+00  0.00000000E+00  0.00000000E+00  0.00000000E+00
  0.00000000E+00  0.00000000E+00  0.00000000E+00  0.00000000E+00  0.00000000E+00
IOpCl                                      I                1
IROHF                                      I                0
Alpha Orbital Energies                     R   N=          68
 -1.05770376E+01 -1.05766873E+01 -8.10798820E-01 -6.87580331E-01 -5.31892283E-01
 -4.59262310E-01 -4.42425344E-01 -2.95794675E-01 -1.67169644E-02  3.37534749E-02
  3.71145117E-02  5.34267923E-02  7.77816804E-02  8.39512702E-02  9.73172015E-02
  1.20388497E-01  1.58348465E-01  1.68995229E-01  2.07317803E-01  2.08066133E-01
  2.63070869E-01  2.96681995E-01  4.17105320E-01  4.45064885E-01  4.94418950E-01
  5.86015948E-01  5.97190242E-01  6.24648076E-01  6.80875726E-01  6.85394041E-01
  7.24564037E-01  7.36885721E-01  7.82276857E-01  8.47938701E-01  1.07057996E+00
  1.09872007E+00  1.13359572E+00  1.44165183E+00  1.44183950E+00  1.44935324E+00
  1.50384700E+00  1.56470806E+00  1.59214502E+00  1.59677429E+00  1.75507437E+00
  1.90210741E+00  1.94175471E+00  1.96368565E+00  1.98654124E+00  2.08028439E+00
  2.11189465E+00  2.14949751E+00  2.40259992E+00  2.49626835E+00  2.53443672E+00
  2.58061425E+00  2.64075041E+00  2.65277411E+00  2.75924457E+00  2.78207749E+00
  2.87438964E+00  2.90947737E+00  3.01960886E+00  3.73485557E+00  3.81469861E+00
  4.06500396E+00  2.38264025E+01  2.38927856E+01
Beta Orbital Energies                      R   N=          68
 -1.05770376E+01 -1.05766873E+01 -8.10798820E-01 -6.87580331E-01 -5.31892283E-01
 -4.59262310E-01 -4.42425344E-01 -2.95794675E-01 -1.67169644E-02  3.37534749E-02
  3.71145117E-02  5.34267923E-02  7.77816804E-02  8.39512702E-02  9.73172015E-02
  1.20388497E-01  1.58348465E-01  1.68995229E-01  2.07317803E-01  2.08066133E-01
  2.63070869E-01  2.96681995E-01  4.17105320E-01  4.45064885E-01  4.94418950E-01
  5.86015948E-01  5.97190242E-01  6.24648076E-01  6.80875726E-01  6.85394041E-01
  7.24564037E-01  7.36885721E-01  7.82276857E-01  8.47938701E-01  1.07057996E+00
  1.09872007E+00  1.13359572E+00  1.44165183E+00  1.44183950E+00  1.44935324E+00
  1.50384700E+00  1.56470806E+00  1.59214502E+00  1.59677429E+00  1.75507437E+00
  1.90210741E+00  1.94175471E+00  1.96368565E+00  1.98654124E+00  2.08028439E+00
  2.11189465E+00  2.14949751E+00  2.40259992E+00  2.49626835E+00  2.53443672E+00
  2.58061425E+00  2.64075041E+00  2.65277411E+00  2.75924457E+00  2.78207749E+00
  2.87438964E+00  2.90947737E+00  3.01960886E+00  3.73485557E+00  3.81469861E+00
  4.06500396E+00  2.38264025E+01  2.38927856E+01
Alpha MO coefficients                      R   N=        4624
  3.98945800E-01  3.28008583E-01  8.79241925E-08 -3.30561906E-04  0.00000000E+00
  8.52714239E-03 -5.31106903E-07  1.54656345E-03  0.00000000E+00 -2.09039263E-03
  3.66153875E-08  1.35642627E-04  0.00000000E+00 -6.07390617E-04  8.59544616E-08
 -5.88855509E-04  0.00000000E+00 -7.82374922E-04  0.00000000E+00  0.00000000E+00
  9.51311911E-04  3.46098430E-08  3.98945800E-01  3.28008583E-01 -8.79241925E-08
  3.30561906E-04  0.00000000E+00  8.52714239E-03  5.31106903E-07 -1.54656345E-03
  0.00000000E+00 -2.09039263E-03 -3.66153875E-08 -1.35642627E-04  0.00000000E+00
 -6.07390617E-04 -8.59544616E-08  5.88855509E-04  0.00000000E+00 -7.82374922E-04
  0.00000000E+00  0.00000000E+00  9.51311911E-04  3.46098430E-08  1.39185237E-04
 -2.44991240E-03  1.57165186E-03 -1.30746338E-03  7.49619333E-04  0.00000000E+00
  1.39286045E-04 -2.44939979E-03  1.57133066E-03  1.30712127E-03  7.49662706E-04
  0.00000000E+00  1.39185237E-04 -2.44991240E-03  1.57165186E-03  1.30746338E-03
 -7.49619333E-04  0.00000000E+00  1.39286045E-04 -2.44939979E-03  1.57133066E-03
 -1.30712127E-03 -7.49662706E-04  0.00000000E+00  3.98969961E-01  3.28110900E-01
  6.17859298E-08  8.21944403E-05  0.00000000E+00  8.03734553E-03 -4.36805888E-07
  1.02744853E-03  0.00000000E+00 -3.86052579E-03  4.71965027E-08  9.09019373E-04
  0.00000000E+00  2.45726441E-03  8.24402313E-08 -1.32530516E-03  0.00000000E+00
 -8.94923871E-04  0.00000000E+00  0.00000000E+00  4.56478647E-04 -4.61836383E-08
 -3.98969961E-01 -3.28110900E-01  6.17859298E-08  8.21944403E-05  0.00000000E+00
 -8.03734553E-03 -4.36805888E-07  1.02744853E-03  0.00000000E+00  3.86052579E-03
  4.71965027E-08  9.09019373E-04  0.00000000E+00 -2.45726441E-03  8.24402313E-08
 -1.32530516E-03  0.00000000E+00  8.94923871E-04  0.00000000E+00  0.00000000E+00
 -4.56478647E-04  4.61836383E-08  1.78596982E-04 -1.94414708E-03  1.47015579E-03
 -1.14647199E-03  5.59038195E-04  0.00000000E+00  1.78664925E-04 -1.94363978E-03
  1.46977649E-03  1.14616650E-03  5.59035529E-04  0.00000000E+00 -1.78596982E-04
  1.94414708E-03 -1.47015579E-03 -1.14647199E-03  5.59038195E-04  0.00000000E+00
 -1.78664925E-04  1.94363978E-03 -1.46977649E-03  1.14616650E-03  5.59035529E-04
  0.00000000E+00 -8.07493687E-02 -1.29949986E-01 -4.09627827E-06 -1.62858067E-02
  0.00000000E+00  3.44108384E-01 -3.65003498E-06 -2.98682573E-02  0.00000000E+00
  2.17319978E-01  5.33588260E-08 -8.03122420E-03  0.00000000E+00  1.67905898E-03
  6.06353780E-07  5.99291673E-03  0.00000000E+00 -9.86296676E-03  0.00000000E+00
  0.00000000E+00 -3.90997184E-03  5.90215560E-07 -8.07493687E-02 -1.29949986E-01
  4.09627827E-06  1.62858067E-02  0.00000000E+00  3.44108384E-01  3.65003498E-06
  2.98682573E-02  0.00000000E+00  2.17319978E-01 -5.33588260E-08  8.03122420E-03
  0.00000000E+00  1.67905898E-03 -6.06353780E-07 -5.99291673E-03  0.00000000E+00
 -9.86296676E-03  0.00000000E+00  0.00000000E+00 -3.90997184E-03  5.90215560E-07
  6.34500430E-02  7.14075600E-02  1.79388997E-03  9.46820031E-03 -5.40893456E-03
  0.00000000E+00  6.34431311E-02  7.14008683E-02  1.79228601E-03 -9.46630118E-03
 -5.40939136E-03  0.00000000E+00  6.34500430E-02  7.14075600E-02  1.79388997E-03
 -9.46820031E-03  5.40893456E-03  0.00000000E+00  6.34431311E-02  7.14008683E-02
  1.79228601E-03  9.46630118E-03  5.40939136E-03  0.00000000E+00 -7.03193387E-02
 -1.13729290E-01 -7.62133104E-06  6.36686003E-02  0.00000000E+00  3.05790106E-01
 -9.01752008E-06  9.29189887E-02  0.00000000E+00  2.23948527E-01 -3.64840507E-06
  4.40118627E-02  0.00000000E+00 -4.29909037E-02  5.18611563E-08  1.63537074E-02
  0.00000000E+00 -5.74371175E-03  0.00000000E+00  0.00000000E+00  9.55131908E-03
  1.07816918E-06  7.03193387E-02  1.13729290E-01 -7.62133104E-06  6.36686003E-02
  0.00000000E+00 -3.05790106E-01 -9.01752008E-06  9.29189887E-02  0.00000000E+00
 -2.23948527E-01 -3.64840507E-06  4.40118627E-02  0.00000000E+00  4.29909037E-02
  5.18611563E-08  1.63537074E-02  0.00000000E+00  5.74371175E-03  0.00000000E+00
  0.00000000E+00 -9.55131908E-03 -1.07816918E-06  8.85991168E-02  1.08348212E-01
  1.47650816E-02  1.25783476E-02 -3.69519238E-03  0.00000000E+00  8.85933327E-02
  1.08343748E-01  1.47642953E-02 -1.25771861E-02 -3.69661699E-03  0.00000000E+00
 -8.85991168E-02 -1.08348212E-01 -1.47650816E-02  1.25783476E-02 -3.69519238E-03
  0.00000000E+00 -8.85933327E-02 -1.08343748E-01 -1.47642953E-02 -1.25771861E-02
 -3.69661699E-03  0.00000000E+00 -1.78042094E-06 -2.95520235E-06  1.46878692E-01
  6.20209709E-06  0.00000000E+00  8.48264147E-06  2.08894943E-01  8.29391057E-06
  0.00000000E+00  9.57724812E-06  1.25060166E-01  5.08243445E-06  0.00000000E+00
 -1.31140828E-05  5.12773738E-03  4.81522925E-06  0.00000000E+00  1.27250101E-07
  0.00000000E+00  0.00000000E+00 -2.35765691E-06  3.68274078E-03  1.78042094E-06
  2.95520235E-06  1.46878692E-01  6.20209709E-06  0.00000000E+00 -8.48264147E-06
  2.08894943E-01  8.29391057E-06  0.00000000E+00 -9.57724812E-06  1.25060166E-01
  5.08243445E-06  0.00000000E+00  1.31140828E-05  5.12773738E-03  4.81522925E-06
  0.00000000E+00 -1.27250101E-07  0.00000000E+00  0.00000000E+00  2.35765691E-06
 -3.68274078E-03 -1.01984118E-01 -1.38739580E-01 -3.72722332E-02 -9.11619819E-03
  8.05343664E-03  0.00000000E+00  1.01984159E-01  1.38745008E-01  3.72747547E-02
 -9.11608986E-03 -8.05554247E-03  0.00000000E+00  1.01984118E-01  1.38739580E-01
  3.72722332E-02 -9.11619819E-03  8.05343664E-03  0.00000000E+00 -1.01984159E-01
 -1.38745008E-01 -3.72747547E-02 -9.11608986E-03 -8.05554247E-03  0.00000000E+00
  2.96172752E-06  4.87147543E-06  1.47548576E-01  9.04589185E-05  0.00000000E+00
 -1.57106382E-05  2.07130355E-01  1.35432561E-04  0.00000000E+00 -2.56102422E-06
  1.43041184E-01  8.37557526E-05  0.00000000E+00  3.20007607E-06  1.53859421E-02
  3.34692443E-06  0.00000000E+00  4.82546700E-07  0.00000000E+00  0.00000000E+00
  4.56509414E-06  2.57223438E-02  2.96172752E-06  4.87147543E-06 -1.47548576E-01
 -9.04589185E-05  0.00000000E+00 -1.57106382E-05 -2.07130355E-01 -1.35432561E-04
  0.00000000E+00 -2.56102422E-06 -1.43041184E-01 -8.37557526E-05  0.00000000E+00
  3.20007607E-06 -1.53859421E-02 -3.34692443E-06  0.00000000E+00  4.82546700E-07
  0.00000000E+00  0.00000000E+00  4.56509414E-06  2.57223438E-02 -1.14800639E-01
 -1.65434296E-01 -6.40253523E-02 -7.34556804E-03  7.88275297E-03  0.00000000E+00
  1.14864512E-01  1.65532195E-01  6.40631426E-02 -7.35351693E-03 -7.87997160E-03
  0.00000000E+00 -1.14800639E-01 -1.65434296E-01 -6.40253523E-02  7.34556804E-03
 -7.88275297E-03  0.00000000E+00  1.14864512E-01  1.65532195E-01  6.40631426E-02
  7.35351693E-03  7.87997160E-03  0.00000000E+00  1.01446626E-02  1.68998590E-02
 -7.87406768E-05  1.82950542E-01  0.00000000E+00 -5.25539318E-02 -1.11096821E-04
  2.73866765E-01  0.00000000E+00 -3.81992925E-02 -7.77884885E-05  1.74753986E-01
  0.00000000E+00  3.36952266E-03 -6.20952846E-06  6.02762042E-03  0.00000000E+00
  7.56924432E-04  0.00000000E+00  0.00000000E+00  1.51596961E-02 -1.28923635E-05
  1.01446626E-02  1.68998590E-02  7.87406768E-05 -1.82950542E-01  0.00000000E+00
 -5.25539318E-02  1.11096821E-04 -2.73866765E-01  0.00000000E+00 -3.81992925E-02
  7.77884885E-05 -1.74753986E-01  0.00000000E+00  3.36952266E-03  6.20952846E-06
 -6.02762042E-03  0.00000000E+00  7.56924432E-04  0.00000000E+00  0.00000000E+00
  1.51596961E-02 -1.28923635E-05  6.82187373E-02  1.00880863E-01  4.27565251E-02
  9.80271076E-03  4.72584647E-03  0.00000000E+00  6.81105770E-02  1.00726011E-01
  4.26874096E-02 -9.79734726E-03  4.73068987E-03  0.00000000E+00  6.82187373E-02
  1.00880863E-01  4.27565251E-02 -9.80271076E-03 -4.72584647E-03  0.00000000E+00
  6.81105770E-02  1.00726011E-01  4.26874096E-02  9.79734726E-03 -4.73068987E-03
  0.00000000E+00  0.00000000E+00  0.00000000E+00  0.00000000E+00  0.00000000E+00
  1.71721295E-01  0.00000000E+00  0.00000000E+00  0.00000000E+00  2.74126617E-01
  0.00000000E+00  0.00000000E+00  0.00000000E+00  2.73439215E-01  0.00000000E+00
  0.00000000E+00  0.00000000E+00  4.18108468E-02  0.00000000E+00 -3.08633546E-07
 -1.60711199E-02  0.00000000E+00  0.00000000E+00  0.00000000E+00  0.00000000E+00
  0.00000000E+00  0.00000000E+00  1.71721295E-01  0.00000000E+00  0.00000000E+00
  0.00000000E+00  2.74126617E-01  0.00000000E+00  0.00000000E+00  0.00000000E+00
  2.73439215E-01  0.00000000E+00  0.00000000E+00  0.00000000E+00  4.18108468E-02
  0.00000000E+00  3.08633546E-07  1.60711199E-02  0.00000000E+00  0.00000000E+00
  0.00000000E+00  0.00000000E+00  0.00000000E+00  0.00000000E+00  0.00000000E+00
  1.33778899E-02  0.00000000E+00  0.00000000E+00  0.00000000E+00  0.00000000E+00
  0.00000000E+00  1.33775918E-02  0.00000000E+00  0.00000000E+00  0.00000000E+00
  0.00000000E+00  0.00000000E+00  1.33778899E-02  0.00000000E+00  0.00000000E+00
  0.00000000E+00  0.00000000E+00  0.00000000E+00  1.33775918E-02  0.00000000E+00
  0.00000000E+00  0.00000000E+00  0.00000000E+00  1.73905268E-01  0.00000000E+00
  0.00000000E+00  0.00000000E+00  2.69884241E-01  0.00000000E+00  0.00000000E+00
  0.00000000E+00  3.97746770E-01  0.00000000E+00  0.00000000E+00  0.00000000E+00
  4.93057513E-01  0.00000000E+00 -3.35649215E-07  2.33917561E-02  0.00000000E+00
  0.00000000E+00  0.00000000E+00  0.00000000E+00  0.00000000E+00  0.00000000E+00
 -1.73905268E-01  0.00000000E+00  0.00000000E+00  0.00000000E+00 -2.69884241E-01
  0.00000000E+00  0.00000000E+00  0.00000000E+00 -3.97746770E-01  0.00000000E+00
  0.00000000E+00  0.00000000E+00 -4.93057513E-01  0.00000000E+00 -3.35649215E-07
  2.33917561E-02  0.00000000E+00  0.00000000E+00  0.00000000E+00  0.00000000E+00
  0.00000000E+00  0.00000000E+00  0.00000000E+00  1.97786521E-02  0.00000000E+00
  0.00000000E+00  0.00000000E+00  0.00000000E+00  0.00000000E+00  1.97795816E-02
  0.00000000E+00  0.00000000E+00  0.00000000E+00  0.00000000E+00  0.00000000E+00
 -1.97786521E-02  0.00000000E+00  0.00000000E+00  0.00000000E+00  0.00000000E+00
  0.00000000E+00 -1.97795816E-02  1.95108298E-02  3.31411209E-02 -9.41868016E-07
 -3.74527350E-02  0.00000000E+00 -9.06695525E-02 -2.06529828E-06 -5.63428201E-02
  0.00000000E+00 -3.38445292E-01  3.72738326E-05 -1.30795406E-01  0.00000000E+00
  1.19004276E+00  1.45616098E-04  5.86704443E-01  0.00000000E+00  1.36240882E-02
  0.00000000E+00  0.00000000E+00 -7.83347073E-03 -1.41814409E-06  1.95108298E-02
  3.31411209E-02  9.41868016E-07  3.74527350E-02  0.00000000E+00 -9.06695525E-02
  2.06529828E-06  5.63428201E-02  0.00000000E+00 -3.38445292E-01 -3.72738326E-05
  1.30795406E-01  0.00000000E+00  1.19004276E+00 -1.45616098E-04 -5.86704443E-01
  0.00000000E+00  1.36240882E-02  0.00000000E+00  0.00000000E+00 -7.83347073E-03
 -1.41814409E-06 -1.99441588E-02  8.43606667E-02 -3.60846407E-01 -1.67377351E-03
  1.10625246E-03  0.00000000E+00 -1.99466026E-02  8.43562190E-02 -3.60993937E-01
  1.67568480E-03  1.10891259E-03  0.00000000E+00 -1.99441588E-02  8.43606667E-02
 -3.60846407E-01  1.67377351E-03 -1.10625246E-03  0.00000000E+00 -1.99466026E-02
  8.43562190E-02 -3.60993937E-01 -1.67568480E-03 -1.10891259E-03  0.00000000E+00
 -2.42692545E-02 -4.16125782E-02  4.70727053E-06  7.40378820E-04  0.00000000E+00
  1.35703229E-01  7.69084007E-06 -6.70507394E-03  0.00000000E+00  1.31963514E-01
  1.95150271E-05  1.16134320E-01  0.00000000E+00  5.54562501E+00 -7.97602879E-06
 -2.65106519E+00  0.00000000E+00  1.97906892E-03  0.00000000E+00  0.00000000E+00
  1.45031806E-02  8.11835151E-08  2.42692545E-02  4.16125782E-02  4.70727053E-06
  7.40378820E-04  0.00000000E+00 -1.35703229E-01  7.69084007E-06 -6.70507394E-03
  0.00000000E+00 -1.31963514E-01  1.95150271E-05  1.16134320E-01  0.00000000E+00
 -5.54562501E+00 -7.97602879E-06 -2.65106519E+00  0.00000000E+00 -1.97906892E-03
  0.00000000E+00  0.00000000E+00 -1.45031806E-02 -8.11835151E-08  7.61345629E-03
 -5.51874666E-02  1.50315274E-01  1.86805689E-03 -1.05749955E-02  0.00000000E+00
  7.61047219E-03 -5.52130876E-02  1.50325929E-01 -1.86765494E-03 -1.05769714E-02
  0.00000000E+00 -7.61345629E-03  5.51874666E-02 -1.50315274E-01  1.86805689E-03
 -1.05749955E-02  0.00000000E+00 -7.61047219E-03  5.52130876E-02 -1.50325929E-01
 -1.86765494E-03 -1.05769714E-02  0.00000000E+00 -2.20365818E-07 -6.51768846E-07
 -5.34865055E-02 -2.54079683E-06  0.00000000E+00  4.98685397E-06 -9.27801547E-02
 -1.99221469E-06  0.00000000E+00 -9.83487924E-06 -1.64929455E-01 -2.71029633E-05
  0.00000000E+00 -7.95773773E-04  8.54491642E-01  2.30431928E-04  0.00000000E+00
 -1.48305175E-06  0.00000000E+00  0.00000000E+00  4.32294281E-06 -1.19676880E-02
  2.20365818E-07  6.51768846E-07 -5.34865055E-02 -2.54079683E-06  0.00000000E+00
 -4.98685397E-06 -9.27801547E-02 -1.99221469E-06  0.00000000E+00  9.83487924E-06
 -1.64929455E-01 -2.71029633E-05  0.00000000E+00  7.95773773E-04  8.54491642E-01
  2.30431928E-04  0.00000000E+00  1.48305175E-06  0.00000000E+00  0.00000000E+00