 Entering Gaussian System, Link 0=g16
 Initial command:
 /home/szhao/Apps/g16/l1.exe "/home/szhao/tmp/Gau-48085.inp" -scrdir="/home/szhao/tmp/"
 Default is to use a total of  16 processors:
                               16 via shared-memory
                                1 via Linda
 Entering Link 1 = /home/szhao/Apps/g16/l1.exe PID=     48086.
  
 Copyright (c) 1988,1990,1992,1993,1995,1998,2003,2009,2016,
            Gaussian, Inc.  All Rights Reserved.
  
 This is part of the Gaussian(R) 16 program.  It is based on
 the Gaussian(R) 09 system (copyright 2009, Gaussian, Inc.),
 the Gaussian(R) 03 system (copyright 2003, Gaussian, Inc.),
 the Gaussian(R) 98 system (copyright 1998, Gaussian, Inc.),
 the Gaussian(R) 94 system (copyright 1995, Gaussian, Inc.),
 the Gaussian 92(TM) system (copyright 1992, Gaussian, Inc.),
 the Gaussian 90(TM) system (copyright 1990, Gaussian, Inc.),
 the Gaussian 88(TM) system (copyright 1988, Gaussian, Inc.),
 the Gaussian 86(TM) system (copyright 1986, Carnegie Mellon
 University), and the Gaussian 82(TM) system (copyright 1983,
 Carnegie Mellon University). Gaussian is a federally registered
 trademark of Gaussian, Inc.
  
 This software contains proprietary and confidential information,
 including trade secrets, belonging to Gaussian, Inc.
  
 This software is provided under written license and may be
 used, copied, transmitted, or stored only in accord with that
 written license.
  
 The following legend is applicable only to US Government
 contracts under FAR:
  
                    RESTRICTED RIGHTS LEGEND
  
 Use, reproduction and disclosure by the US Government is
 subject to restrictions as set forth in subparagraphs (a)
 and (c) of the Commercial Computer Software - Restricted
 Rights clause in FAR 52.227-19.
  
 Gaussian, Inc.
 340 Quinnipiac St., Bldg. 40, Wallingford CT 06492
  
  
 ---------------------------------------------------------------
 Warning -- This program may not be used in any manner that
 competes with the business of Gaussian, Inc. or will provide
 assistance to any competitor of Gaussian, Inc.  The licensee
 of this program is prohibited from giving any competitor of
 Gaussian, Inc. access to this program.  By using this program,
 the user acknowledges that Gaussian, Inc. is engaged in the
 business of creating and licensing software in the field of
 computational chemistry and represents and warrants to the
 licensee that it is not a competitor of Gaussian, Inc. and that
 it will not use this program in any manner prohibited above.
 ---------------------------------------------------------------
  

 Cite this work as:
 Gaussian 16, Revision A.03,
 M. J. Frisch, G. W. Trucks, H. B. Schlegel, G. E. Scuseria, 
 M. A. Robb, J. R. Cheeseman, G. Scalmani, V. Barone, 
 G. A. Petersson, H. Nakatsuji, X. Li, M. Caricato, A. V. Marenich, 
 J. Bloino, B. G. Janesko, R. Gomperts, B. Mennucci, H. P. Hratchian, 
 J. V. Ortiz, A. F. Izmaylov, J. L. Sonnenberg, D. Williams-Young, 
 F. Ding, F. Lipparini, F. Egidi, J. Goings, B. Peng, A. Petrone, 
 T. Henderson, D. Ranasinghe, V. G. Zakrzewski, J. Gao, N. Rega, 
 G. Zheng, W. Liang, M. Hada, M. Ehara, K. Toyota, R. Fukuda, 
 J. Hasegawa, M. Ishida, T. Nakajima, Y. Honda, O. Kitao, H. Nakai, 
 T. Vreven, K. Throssell, J. A. Montgomery, Jr., J. E. Peralta, 
 F. Ogliaro, M. J. Bearpark, J. J. Heyd, E. N. Brothers, K. N. Kudin, 
 V. N. Staroverov, T. A. Keith, R. Kobayashi, J. Normand, 
 K. Raghavachari, A. P. Rendell, J. C. Burant, S. S. Iyengar, 
 J. Tomasi, M. Cossi, J. M. Millam, M. Klene, C. Adamo, R. Cammi, 
 J. W. Ochterski, R. L. Martin, K. Morokuma, O. Farkas, 
 J. B. Foresman, and D. J. Fox, Gaussian, Inc., Wallingford CT, 2016.
 
 ******************************************
 Gaussian 16:  ES64L-G16RevA.03 25-Dec-2016
                21-Apr-2025 
 ******************************************
 %chk=opt.chk
 %mem=4GB
 %nprocshared=8
 Will use up to    8 processors via shared memory.
 --------------------------------------------
 #p opt UM062X/6-311+G** nosymm int=superfine
 --------------------------------------------
 1/18=20,19=15,26=5,38=1/1,3;
 2/9=110,12=2,15=1,17=6,18=5,40=1/2;
 3/5=4,6=6,7=111,11=2,25=1,30=1,71=1,74=-55,75=-7,116=2/1,2,3;
 4//1;
 5/5=2,38=5/2;
 6/7=2,8=2,9=2,10=2,28=1/1;
 7/30=1/1,2,3,16;
 1/18=20,19=15,26=5/3(2);
 2/9=110,15=1/2;
 99//99;
 2/9=110,15=1/2;
 3/5=4,6=6,7=111,11=2,25=1,30=1,71=1,74=-55,75=-7,116=2/1,2,3;
 4/5=5,16=3,69=1/1;
 5/5=2,38=5/2;
 7/30=1/1,2,3,16;
 1/18=20,19=15,26=5/3(-5);
 2/9=110,15=1/2;
 6/7=2,8=2,9=2,10=2,19=2,28=1/1;
 99/9=1/99;
 Leave Link    1 at Mon Apr 21 21:29:49 2025, MaxMem=   536870912 cpu:               2.4 elap:               0.3
 (Enter /home/szhao/Apps/g16/l101.exe)
 -------------------
 Title Card Required
 -------------------
 Symbolic Z-matrix:
 Charge =  0 Multiplicity = 1
 O                    -1   -1.41194   0.        0. 
 O                    -1    1.41194   0.        0. 
 H                    0    -1.60172  -0.94528   0. 
 H                    0     1.60172   0.4601    0.82575 
 
 Add virtual bond connecting atoms O2         and O1         Dist= 5.34D+00.
 ITRead=  2  2  0  0
 MicOpt= -2 -2 -1 -1
 NAtoms=      4 NQM=        2 NQMF=       2 NMMI=      0 NMMIF=      0
                NMic=       0 NMicF=      0.
                    Isotopes and Nuclear Properties:
 (Nuclear quadrupole moments (NQMom) in fm**2, nuclear magnetic moments (NMagM)
  in nuclear magnetons)

  Atom         1           2           3           4
 IAtWgt=          16          16           1           1
 AtmWgt=  15.9949146  15.9949146   1.0078250   1.0078250
 NucSpn=           0           0           1           1
 AtZEff=  -0.0000000  -0.0000000  -0.0000000  -0.0000000
 NQMom=    0.0000000   0.0000000   0.0000000   0.0000000
 NMagM=    0.0000000   0.0000000   2.7928460   2.7928460
 AtZNuc=   8.0000000   8.0000000   1.0000000   1.0000000
 Leave Link  101 at Mon Apr 21 21:29:50 2025, MaxMem=   536870912 cpu:               4.1 elap:               0.5
 (Enter /home/szhao/Apps/g16/l103.exe)

 GradGradGradGradGradGradGradGradGradGradGradGradGradGradGradGradGradGrad
 Berny optimization.
 Initialization pass.
                           ----------------------------
                           !    Initial Parameters    !
                           ! (Angstroms and Degrees)  !
 --------------------------                            --------------------------
 ! Name  Definition              Value          Derivative Info.                !
 --------------------------------------------------------------------------------
 ! X1    R(1,-1)                -1.4119         Frozen                          !
 ! Y1    R(1,-2)                 0.0            Frozen                          !
 ! Z1    R(1,-3)                 0.0            Frozen                          !
 ! X2    R(2,-1)                 1.4119         Frozen                          !
 ! Y2    R(2,-2)                 0.0            Frozen                          !
 ! Z2    R(2,-3)                 0.0            Frozen                          !
 ! R1    R(1,3)                  0.9641         estimate D2E/DX2                !
 ! R2    R(2,4)                  0.9641         estimate D2E/DX2                !
 ! A1    A(2,1,3)              101.3523         estimate D2E/DX2                !
 ! A2    A(1,2,4)              101.3523         estimate D2E/DX2                !
 ! D1    D(3,1,2,4)           -119.1259         estimate D2E/DX2                !
 --------------------------------------------------------------------------------
 Trust Radius=3.00D-01 FncErr=1.00D-07 GrdErr=1.00D-07 EigMax=2.50D+02 EigMin=1.00D-04
 Number of steps in this run=     21 maximum allowed number of steps=    100.
 GradGradGradGradGradGradGradGradGradGradGradGradGradGradGradGradGradGrad

 Leave Link  103 at Mon Apr 21 21:29:51 2025, MaxMem=   536870912 cpu:               0.3 elap:               0.3
 (Enter /home/szhao/Apps/g16/l202.exe)
                          Input orientation:                          
 ---------------------------------------------------------------------
 Center     Atomic      Atomic             Coordinates (Angstroms)
 Number     Number       Type             X           Y           Z
 ---------------------------------------------------------------------
      1          8           0       -1.411938    0.000000    0.000000
      2          8           0        1.411938    0.000000    0.000000
      3          1           0       -1.601722   -0.945282    0.000000
      4          1           0        1.601722    0.460097    0.825754
 ---------------------------------------------------------------------
                    Distance matrix (angstroms):
                    1          2          3          4
     1  O    0.000000
     2  O    2.823876   0.000000
     3  H    0.964145   3.158434   0.000000
     4  H    3.158434   0.964145   3.594303   0.000000
 Symmetry turned off by external request.
 Stoichiometry    H2O2
 Framework group  C2[X(H2O2)]
 Deg. of freedom     4
 Full point group                 C2      NOp   2
 Rotational constants (GHZ):         302.3600760           7.2735063           7.1905309
 Leave Link  202 at Mon Apr 21 21:29:51 2025, MaxMem=   536870912 cpu:               0.1 elap:               0.2
 (Enter /home/szhao/Apps/g16/l301.exe)
 Standard basis: 6-311+G(d,p) (5D, 7F)
 Ernie: Thresh=  0.10000D-02 Tol=  0.10000D-05 Strict=F.
    56 basis functions,    88 primitive gaussians,    58 cartesian basis functions
     9 alpha electrons        9 beta electrons
       nuclear repulsion energy        23.6028458842 Hartrees.
 IExCor= 4336 DFT=T Ex+Corr=M062X ExCW=0 ScaHFX=  0.540000
 ScaDFX=  1.000000  1.000000  1.000000  1.000000 ScalE2=  1.000000  1.000000
 IRadAn=      7 IRanWt=     -1 IRanGd=            0 ICorTp=0 IEmpDi=  4
 NAtoms=    4 NActive=    4 NUniq=    4 SFac= 1.00D+00 NAtFMM=   60 NAOKFM=F Big=F
 Integral buffers will be    131072 words long.
 Raffenetti 2 integral format.
 Two-electron integral symmetry is turned off.
 Leave Link  301 at Mon Apr 21 21:29:52 2025, MaxMem=   536870912 cpu:               0.6 elap:               0.1
 (Enter /home/szhao/Apps/g16/l302.exe)
 NPDir=0 NMtPBC=     1 NCelOv=     1 NCel=       1 NClECP=     1 NCelD=      1
         NCelK=      1 NCelE2=     1 NClLst=     1 CellRange=     0.0.
 One-electron integrals computed using PRISM.
 NBasis=    56 RedAO= T EigKep=  5.70D-03  NBF=    56
 NBsUse=    56 1.00D-06 EigRej= -1.00D+00 NBFU=    56
 Precomputing XC quadrature grid using
 IXCGrd= 4 IRadAn=           7 IRanWt=          -1 IRanGd=           0 AccXCQ= 0.00D+00.
 Generated NRdTot=       0 NPtTot=           0 NUsed=           0 NTot=          32
 NSgBfM=    58    58    58    58    58 MxSgAt=     4 MxSgA2=     4.
 Leave Link  302 at Mon Apr 21 21:29:52 2025, MaxMem=   536870912 cpu:               2.1 elap:               0.4
 (Enter /home/szhao/Apps/g16/l303.exe)
 DipDrv:  MaxL=1.
 Leave Link  303 at Mon Apr 21 21:29:53 2025, MaxMem=   536870912 cpu:               0.7 elap:               0.2
 (Enter /home/szhao/Apps/g16/l401.exe)
 ExpMin= 8.45D-02 ExpMax= 8.59D+03 ExpMxC= 1.30D+03 IAcc=3 IRadAn=         7 AccDes= 0.00D+00
 Harris functional with IExCor= 1009 and IRadAn=       7 diagonalized for initial guess.
 HarFok:  IExCor= 1009 AccDes= 0.00D+00 IRadAn=         7 IDoV= 1 UseB2=F ITyADJ=14
 ICtDFT=  3500011 ScaDFX=  1.000000  1.000000  1.000000  1.000000
 FoFCou: FMM=F IPFlag=           0 FMFlag=      100000 FMFlg1=           0
         NFxFlg=           0 DoJE=T BraDBF=F KetDBF=T FulRan=T
         wScrn=  0.000000 ICntrl=       500 IOpCl=  0 I1Cent=   200000004 NGrid=           0
         NMat0=    1 NMatS0=      1 NMatT0=    0 NMatD0=    1 NMtDS0=    0 NMtDT0=    0
 Symmetry not used in FoFCou.
 Harris En= -151.335326578943    
 JPrj=0 DoOrth=F DoCkMO=F.
 Initial guess <Sx>= 0.0000 <Sy>= 0.0000 <Sz>= 0.0000 <S**2>=-0.0000 S=-0.0000
 Leave Link  401 at Mon Apr 21 21:29:54 2025, MaxMem=   536870912 cpu:               3.7 elap:               0.6
 (Enter /home/szhao/Apps/g16/l502.exe)
 Keep R1 and R2 ints in memory in canonical form, NReq=9624198.
 FoFCou: FMM=F IPFlag=           0 FMFlag=           0 FMFlg1=           0
         NFxFlg=           0 DoJE=F BraDBF=F KetDBF=F FulRan=T
         wScrn=  0.000000 ICntrl=       600 IOpCl=  0 I1Cent=           0 NGrid=           0
         NMat0=    1 NMatS0=   1596 NMatT0=    0 NMatD0=    1 NMtDS0=    0 NMtDT0=    0
 Symmetry not used in FoFCou.
 Two-electron integral symmetry not used.
 UHF open shell SCF:
 Using DIIS extrapolation, IDIIS=  1040.
 NGot=   536870912 LenX=   534314338 LenY=   534310533
 Requested convergence on RMS density matrix=1.00D-08 within 128 cycles.
 Requested convergence on MAX density matrix=1.00D-06.
 Requested convergence on             energy=1.00D-06.
 No special actions if energy rises.
 Integral accuracy reduced to 1.0D-05 until final iterations.

 Cycle   1  Pass 0  IDiag  1:
 E= -151.319711835456    
 DIIS: error= 2.97D-02 at cycle   1 NSaved=   1.
 NSaved= 1 IEnMin= 1 EnMin= -151.319711835456     IErMin= 1 ErrMin= 2.97D-02
 ErrMax= 2.97D-02  0.00D+00 EMaxC= 1.00D-01 BMatC= 2.19D-01 BMatP= 2.19D-01
 IDIUse=3 WtCom= 7.03D-01 WtEn= 2.97D-01
 Coeff-Com:  0.100D+01
 Coeff-En:   0.100D+01
 Coeff:      0.100D+01
 Gap=     0.198 Goal=   None    Shift=    0.000
 Gap=     0.198 Goal=   None    Shift=    0.000
 GapD=    0.198 DampG=1.000 DampE=0.500 DampFc=0.5000 IDamp=-1.
 Damping current iteration by 5.00D-01
 RMSDP=3.12D-03 MaxDP=3.35D-02              OVMax= 8.96D-02

 Cycle   2  Pass 0  IDiag  1:
 E= -151.333425100461     Delta-E=       -0.013713265005 Rises=F Damp=T
 DIIS: error= 9.32D-03 at cycle   2 NSaved=   2.
 NSaved= 2 IEnMin= 2 EnMin= -151.333425100461     IErMin= 2 ErrMin= 9.32D-03
 ErrMax= 9.32D-03  0.00D+00 EMaxC= 1.00D-01 BMatC= 2.32D-02 BMatP= 2.19D-01
 IDIUse=3 WtCom= 9.07D-01 WtEn= 9.32D-02
 Coeff-Com: -0.142D+00 0.114D+01
 Coeff-En:   0.000D+00 0.100D+01
 Coeff:     -0.129D+00 0.113D+01
 Gap=     0.142 Goal=   None    Shift=    0.000
 Gap=     0.142 Goal=   None    Shift=    0.000
 RMSDP=6.75D-04 MaxDP=1.37D-02 DE=-1.37D-02 OVMax= 3.76D-02

 Cycle   3  Pass 0  IDiag  1:
 E= -151.347165094617     Delta-E=       -0.013739994156 Rises=F Damp=F
 DIIS: error= 3.39D-03 at cycle   3 NSaved=   3.
 NSaved= 3 IEnMin= 3 EnMin= -151.347165094617     IErMin= 3 ErrMin= 3.39D-03
 ErrMax= 3.39D-03  0.00D+00 EMaxC= 1.00D-01 BMatC= 2.40D-03 BMatP= 2.32D-02
 IDIUse=3 WtCom= 9.66D-01 WtEn= 3.39D-02
 Coeff-Com: -0.115D+00 0.235D+00 0.880D+00
 Coeff-En:   0.000D+00 0.000D+00 0.100D+01
 Coeff:     -0.111D+00 0.227D+00 0.884D+00
 Gap=     0.142 Goal=   None    Shift=    0.000
 Gap=     0.142 Goal=   None    Shift=    0.000
 RMSDP=2.14D-04 MaxDP=2.58D-03 DE=-1.37D-02 OVMax= 8.07D-03

 Cycle   4  Pass 0  IDiag  1:
 E= -151.347608831813     Delta-E=       -0.000443737196 Rises=F Damp=F
 DIIS: error= 3.36D-04 at cycle   4 NSaved=   4.
 NSaved= 4 IEnMin= 4 EnMin= -151.347608831813     IErMin= 4 ErrMin= 3.36D-04
 ErrMax= 3.36D-04  0.00D+00 EMaxC= 1.00D-01 BMatC= 1.88D-05 BMatP= 2.40D-03
 IDIUse=3 WtCom= 9.97D-01 WtEn= 3.36D-03
 Coeff-Com: -0.162D-02-0.147D-02 0.688D-01 0.934D+00
 Coeff-En:   0.000D+00 0.000D+00 0.000D+00 0.100D+01
 Coeff:     -0.161D-02-0.147D-02 0.686D-01 0.934D+00
 Gap=     0.142 Goal=   None    Shift=    0.000
 Gap=     0.142 Goal=   None    Shift=    0.000
 RMSDP=3.53D-05 MaxDP=3.93D-04 DE=-4.44D-04 OVMax= 1.34D-03

 Cycle   5  Pass 0  IDiag  1:
 E= -151.347615386400     Delta-E=       -0.000006554587 Rises=F Damp=F
 DIIS: error= 9.60D-05 at cycle   5 NSaved=   5.
 NSaved= 5 IEnMin= 5 EnMin= -151.347615386400     IErMin= 5 ErrMin= 9.60D-05
 ErrMax= 9.60D-05  0.00D+00 EMaxC= 1.00D-01 BMatC= 1.78D-06 BMatP= 1.88D-05
 IDIUse=1 WtCom= 1.00D+00 WtEn= 0.00D+00
 Coeff-Com:  0.673D-02-0.136D-01-0.428D-01 0.180D-01 0.103D+01
 Coeff:      0.673D-02-0.136D-01-0.428D-01 0.180D-01 0.103D+01
 Gap=     0.143 Goal=   None    Shift=    0.000
 Gap=     0.143 Goal=   None    Shift=    0.000
 RMSDP=2.81D-05 MaxDP=4.06D-04 DE=-6.55D-06 OVMax= 1.68D-03

 Cycle   6  Pass 0  IDiag  1:
 E= -151.347612667001     Delta-E=        0.000002719398 Rises=F Damp=F
 DIIS: error= 3.81D-04 at cycle   6 NSaved=   6.
 NSaved= 6 IEnMin= 5 EnMin= -151.347615386400     IErMin= 5 ErrMin= 9.60D-05
 ErrMax= 3.81D-04  0.00D+00 EMaxC= 1.00D-01 BMatC= 2.02D-05 BMatP= 1.78D-06
 IDIUse=1 WtCom= 1.00D+00 WtEn= 0.00D+00
 Coeff-Com:  0.640D-02-0.125D-01-0.463D-01-0.722D-01 0.950D+00 0.174D+00
 Coeff:      0.640D-02-0.125D-01-0.463D-01-0.722D-01 0.950D+00 0.174D+00
 Gap=     0.143 Goal=   None    Shift=    0.000
 Gap=     0.143 Goal=   None    Shift=    0.000
 RMSDP=1.88D-05 MaxDP=3.12D-04 DE= 2.72D-06 OVMax= 1.49D-03

 Cycle   7  Pass 0  IDiag  1:
 E= -151.347617438391     Delta-E=       -0.000004771390 Rises=F Damp=F
 DIIS: error= 7.30D-05 at cycle   7 NSaved=   7.
 NSaved= 7 IEnMin= 7 EnMin= -151.347617438391     IErMin= 7 ErrMin= 7.30D-05
 ErrMax= 7.30D-05  0.00D+00 EMaxC= 1.00D-01 BMatC= 2.85D-07 BMatP= 1.78D-06
 IDIUse=1 WtCom= 1.00D+00 WtEn= 0.00D+00
 Coeff-Com: -0.351D-02 0.690D-02 0.233D-01 0.260D-01-0.596D+00-0.183D-01
 Coeff-Com:  0.156D+01
 Coeff:     -0.351D-02 0.690D-02 0.233D-01 0.260D-01-0.596D+00-0.183D-01
 Coeff:      0.156D+01
 Gap=     0.143 Goal=   None    Shift=    0.000
 Gap=     0.143 Goal=   None    Shift=    0.000
 RMSDP=1.92D-05 MaxDP=1.63D-04 DE=-4.77D-06 OVMax= 1.46D-03

 Cycle   8  Pass 0  IDiag  1:
 E= -151.347618515900     Delta-E=       -0.000001077508 Rises=F Damp=F
 DIIS: error= 5.39D-05 at cycle   8 NSaved=   8.
 NSaved= 8 IEnMin= 8 EnMin= -151.347618515900     IErMin= 8 ErrMin= 5.39D-05
 ErrMax= 5.39D-05  0.00D+00 EMaxC= 1.00D-01 BMatC= 1.24D-07 BMatP= 2.85D-07
 IDIUse=1 WtCom= 1.00D+00 WtEn= 0.00D+00
 Coeff-Com:  0.310D-03-0.558D-03-0.159D-02 0.201D-02 0.564D-01-0.376D-01
 Coeff-Com: -0.843D+00 0.182D+01
 Coeff:      0.310D-03-0.558D-03-0.159D-02 0.201D-02 0.564D-01-0.376D-01
 Coeff:     -0.843D+00 0.182D+01
 Gap=     0.143 Goal=   None    Shift=    0.000
 Gap=     0.143 Goal=   None    Shift=    0.000
 RMSDP=2.20D-05 MaxDP=1.96D-04 DE=-1.08D-06 OVMax= 1.76D-03

 Cycle   9  Pass 0  IDiag  1:
 E= -151.347619438822     Delta-E=       -0.000000922922 Rises=F Damp=F
 DIIS: error= 3.84D-05 at cycle   9 NSaved=   9.
 NSaved= 9 IEnMin= 9 EnMin= -151.347619438822     IErMin= 9 ErrMin= 3.84D-05
 ErrMax= 3.84D-05  0.00D+00 EMaxC= 1.00D-01 BMatC= 7.50D-08 BMatP= 1.24D-07
 IDIUse=1 WtCom= 1.00D+00 WtEn= 0.00D+00
 Coeff-Com:  0.318D-02-0.621D-02-0.207D-01-0.240D-01 0.577D+00 0.494D-01
 Coeff-Com: -0.936D+00-0.952D+00 0.231D+01
 Coeff:      0.318D-02-0.621D-02-0.207D-01-0.240D-01 0.577D+00 0.494D-01
 Coeff:     -0.936D+00-0.952D+00 0.231D+01
 Gap=     0.143 Goal=   None    Shift=    0.000
 Gap=     0.143 Goal=   None    Shift=    0.000
 RMSDP=3.13D-05 MaxDP=2.82D-04 DE=-9.23D-07 OVMax= 2.52D-03

 Cycle  10  Pass 0  IDiag  1:
 E= -151.347620334786     Delta-E=       -0.000000895964 Rises=F Damp=F
 DIIS: error= 2.03D-05 at cycle  10 NSaved=  10.
 NSaved=10 IEnMin=10 EnMin= -151.347620334786     IErMin=10 ErrMin= 2.03D-05
 ErrMax= 2.03D-05  0.00D+00 EMaxC= 1.00D-01 BMatC= 2.35D-08 BMatP= 7.50D-08
 IDIUse=1 WtCom= 1.00D+00 WtEn= 0.00D+00
 Coeff-Com: -0.979D-03 0.184D-02 0.582D-02 0.248D-02-0.188D+00 0.541D-02
 Coeff-Com:  0.681D+00-0.823D+00-0.844D+00 0.216D+01
 Coeff:     -0.979D-03 0.184D-02 0.582D-02 0.248D-02-0.188D+00 0.541D-02
 Coeff:      0.681D+00-0.823D+00-0.844D+00 0.216D+01
 Gap=     0.143 Goal=   None    Shift=    0.000
 Gap=     0.143 Goal=   None    Shift=    0.000
 RMSDP=3.69D-05 MaxDP=3.32D-04 DE=-8.96D-07 OVMax= 2.97D-03

 Cycle  11  Pass 0  IDiag  1:
 E= -151.347620736640     Delta-E=       -0.000000401854 Rises=F Damp=F
 DIIS: error= 1.17D-06 at cycle  11 NSaved=  11.
 NSaved=11 IEnMin=11 EnMin= -151.347620736640     IErMin=11 ErrMin= 1.17D-06
 ErrMax= 1.17D-06  0.00D+00 EMaxC= 1.00D-01 BMatC= 3.42D-10 BMatP= 2.35D-08
 IDIUse=1 WtCom= 1.00D+00 WtEn= 0.00D+00
 Coeff-Com: -0.324D-04 0.855D-04 0.114D-03 0.237D-02-0.721D-02-0.194D-02
 Coeff-Com: -0.107D-01 0.105D+00-0.646D-01-0.146D+00 0.112D+01
 Coeff:     -0.324D-04 0.855D-04 0.114D-03 0.237D-02-0.721D-02-0.194D-02
 Coeff:     -0.107D-01 0.105D+00-0.646D-01-0.146D+00 0.112D+01
 Gap=     0.143 Goal=   None    Shift=    0.000
 Gap=     0.143 Goal=   None    Shift=    0.000
 RMSDP=2.27D-06 MaxDP=2.03D-05 DE=-4.02D-07 OVMax= 1.81D-04

 Initial convergence to 1.0D-05 achieved.  Increase integral accuracy.
 Cycle  12  Pass 1  IDiag  1:
 E= -151.347620728516     Delta-E=        0.000000008124 Rises=F Damp=F
 DIIS: error= 1.97D-06 at cycle   1 NSaved=   1.
 NSaved= 1 IEnMin= 1 EnMin= -151.347620728516     IErMin= 1 ErrMin= 1.97D-06
 ErrMax= 1.97D-06  0.00D+00 EMaxC= 1.00D-01 BMatC= 9.61D-10 BMatP= 9.61D-10
 IDIUse=1 WtCom= 1.00D+00 WtEn= 0.00D+00
 Coeff-Com:  0.100D+01
 Coeff:      0.100D+01
 Gap=     0.143 Goal=   None    Shift=    0.000
 Gap=     0.143 Goal=   None    Shift=    0.000
 RMSDP=2.27D-06 MaxDP=2.03D-05 DE= 8.12D-09 OVMax= 1.37D-05

 Cycle  13  Pass 1  IDiag  1:
 E= -151.347620729009     Delta-E=       -0.000000000493 Rises=F Damp=F
 DIIS: error= 5.35D-07 at cycle   2 NSaved=   2.
 NSaved= 2 IEnMin= 2 EnMin= -151.347620729009     IErMin= 2 ErrMin= 5.35D-07
 ErrMax= 5.35D-07  0.00D+00 EMaxC= 1.00D-01 BMatC= 1.20D-10 BMatP= 9.61D-10
 IDIUse=1 WtCom= 1.00D+00 WtEn= 0.00D+00
 Coeff-Com: -0.419D-02 0.100D+01
 Coeff:     -0.419D-02 0.100D+01
 Gap=     0.143 Goal=   None    Shift=    0.000
 Gap=     0.143 Goal=   None    Shift=    0.000
 RMSDP=2.21D-07 MaxDP=2.64D-06 DE=-4.93D-10 OVMax= 1.23D-05

 Cycle  14  Pass 1  IDiag  1:
 E= -151.347620728776     Delta-E=        0.000000000232 Rises=F Damp=F
 DIIS: error= 2.90D-06 at cycle   3 NSaved=   3.
 NSaved= 3 IEnMin= 2 EnMin= -151.347620729009     IErMin= 2 ErrMin= 5.35D-07
 ErrMax= 2.90D-06  0.00D+00 EMaxC= 1.00D-01 BMatC= 1.19D-09 BMatP= 1.20D-10
 IDIUse=1 WtCom= 1.00D+00 WtEn= 0.00D+00
 Coeff-Com: -0.759D-01 0.859D+00 0.217D+00
 Coeff:     -0.759D-01 0.859D+00 0.217D+00
 Gap=     0.143 Goal=   None    Shift=    0.000
 Gap=     0.143 Goal=   None    Shift=    0.000
 RMSDP=1.83D-07 MaxDP=3.03D-06 DE= 2.32D-10 OVMax= 1.48D-05

 Cycle  15  Pass 1  IDiag  1:
 E= -151.347620729010     Delta-E=       -0.000000000233 Rises=F Damp=F
 DIIS: error= 1.07D-06 at cycle   4 NSaved=   4.
 NSaved= 4 IEnMin= 4 EnMin= -151.347620729010     IErMin= 2 ErrMin= 5.35D-07
 ErrMax= 1.07D-06  0.00D+00 EMaxC= 1.00D-01 BMatC= 1.80D-10 BMatP= 1.20D-10
 IDIUse=1 WtCom= 1.00D+00 WtEn= 0.00D+00
 Coeff-Com: -0.543D-01 0.410D+00 0.229D+00 0.416D+00
 Coeff:     -0.543D-01 0.410D+00 0.229D+00 0.416D+00
 Gap=     0.143 Goal=   None    Shift=    0.000
 Gap=     0.143 Goal=   None    Shift=    0.000
 RMSDP=5.20D-08 MaxDP=8.38D-07 DE=-2.33D-10 OVMax= 3.66D-06

 Cycle  16  Pass 1  IDiag  1:
 E= -151.347620729051     Delta-E=       -0.000000000041 Rises=F Damp=F
 DIIS: error= 1.29D-07 at cycle   5 NSaved=   5.
 NSaved= 5 IEnMin= 5 EnMin= -151.347620729051     IErMin= 5 ErrMin= 1.29D-07
 ErrMax= 1.29D-07  0.00D+00 EMaxC= 1.00D-01 BMatC= 1.82D-12 BMatP= 1.20D-10
 IDIUse=1 WtCom= 1.00D+00 WtEn= 0.00D+00
 Coeff-Com:  0.949D-03-0.536D-01 0.123D-01-0.588D-02 0.105D+01
 Coeff:      0.949D-03-0.536D-01 0.123D-01-0.588D-02 0.105D+01
 Gap=     0.143 Goal=   None    Shift=    0.000
 Gap=     0.143 Goal=   None    Shift=    0.000
 RMSDP=2.66D-08 MaxDP=2.72D-07 DE=-4.10D-11 OVMax= 1.94D-06

 Cycle  17  Pass 1  IDiag  1:
 E= -151.347620729054     Delta-E=       -0.000000000003 Rises=F Damp=F
 DIIS: error= 9.82D-08 at cycle   6 NSaved=   6.
 NSaved= 6 IEnMin= 6 EnMin= -151.347620729054     IErMin= 6 ErrMin= 9.82D-08
 ErrMax= 9.82D-08  0.00D+00 EMaxC= 1.00D-01 BMatC= 7.07D-13 BMatP= 1.82D-12
 IDIUse=1 WtCom= 1.00D+00 WtEn= 0.00D+00
 Coeff-Com:  0.743D-02-0.362D-01-0.276D-01-0.567D-01-0.489D+00 0.160D+01
 Coeff:      0.743D-02-0.362D-01-0.276D-01-0.567D-01-0.489D+00 0.160D+01
 Gap=     0.143 Goal=   None    Shift=    0.000
 Gap=     0.143 Goal=   None    Shift=    0.000
 RMSDP=3.60D-08 MaxDP=3.75D-07 DE=-3.35D-12 OVMax= 2.76D-06

 Cycle  18  Pass 1  IDiag  1:
 E= -151.347620729058     Delta-E=       -0.000000000003 Rises=F Damp=F
 DIIS: error= 6.88D-08 at cycle   7 NSaved=   7.
 NSaved= 7 IEnMin= 7 EnMin= -151.347620729058     IErMin= 7 ErrMin= 6.88D-08
 ErrMax= 6.88D-08  0.00D+00 EMaxC= 1.00D-01 BMatC= 4.06D-13 BMatP= 7.07D-13
 IDIUse=1 WtCom= 1.00D+00 WtEn= 0.00D+00
 Coeff-Com: -0.583D-02 0.770D-01 0.793D-02 0.585D-01-0.653D+00-0.930D+00
 Coeff-Com:  0.245D+01
 Coeff:     -0.583D-02 0.770D-01 0.793D-02 0.585D-01-0.653D+00-0.930D+00
 Coeff:      0.245D+01
 Gap=     0.143 Goal=   None    Shift=    0.000
 Gap=     0.143 Goal=   None    Shift=    0.000
 RMSDP=6.97D-08 MaxDP=7.16D-07 DE=-3.35D-12 OVMax= 5.35D-06

 Cycle  19  Pass 1  IDiag  1:
 E= -151.347620729062     Delta-E=       -0.000000000005 Rises=F Damp=F
 DIIS: error= 3.44D-08 at cycle   8 NSaved=   8.
 NSaved= 8 IEnMin= 8 EnMin= -151.347620729062     IErMin= 8 ErrMin= 3.44D-08
 ErrMax= 3.44D-08  0.00D+00 EMaxC= 1.00D-01 BMatC= 1.31D-13 BMatP= 4.06D-13
 IDIUse=1 WtCom= 1.00D+00 WtEn= 0.00D+00
 Coeff-Com: -0.854D-03-0.830D-02-0.291D-02-0.680D-02 0.345D+00-0.263D+00
 Coeff-Com: -0.991D+00 0.193D+01
 Coeff:     -0.854D-03-0.830D-02-0.291D-02-0.680D-02 0.345D+00-0.263D+00
 Coeff:     -0.991D+00 0.193D+01
 Gap=     0.143 Goal=   None    Shift=    0.000
 Gap=     0.143 Goal=   None    Shift=    0.000
 RMSDP=5.66D-08 MaxDP=5.70D-07 DE=-4.72D-12 OVMax= 4.34D-06

 Cycle  20  Pass 1  IDiag  1:
 E= -151.347620729064     Delta-E=       -0.000000000002 Rises=F Damp=F
 DIIS: error= 9.42D-09 at cycle   9 NSaved=   9.
 NSaved= 9 IEnMin= 9 EnMin= -151.347620729064     IErMin= 9 ErrMin= 9.42D-09
 ErrMax= 9.42D-09  0.00D+00 EMaxC= 1.00D-01 BMatC= 1.26D-14 BMatP= 1.31D-13
 IDIUse=1 WtCom= 1.00D+00 WtEn= 0.00D+00
 Coeff-Com:  0.110D-02-0.107D-01-0.869D-04-0.677D-02 0.284D-01 0.298D+00
 Coeff-Com: -0.280D+00-0.463D+00 0.143D+01
 Coeff:      0.110D-02-0.107D-01-0.869D-04-0.677D-02 0.284D-01 0.298D+00
 Coeff:     -0.280D+00-0.463D+00 0.143D+01
 Gap=     0.143 Goal=   None    Shift=    0.000
 Gap=     0.143 Goal=   None    Shift=    0.000
 RMSDP=1.21D-08 MaxDP=1.16D-07 DE=-1.53D-12 OVMax= 8.85D-07

 Cycle  21  Pass 1  IDiag  1:
 E= -151.347620729064     Delta-E=       -0.000000000000 Rises=F Damp=F
 DIIS: error= 4.21D-09 at cycle  10 NSaved=  10.
 NSaved=10 IEnMin=10 EnMin= -151.347620729064     IErMin=10 ErrMin= 4.21D-09
 ErrMax= 4.21D-09  0.00D+00 EMaxC= 1.00D-01 BMatC= 1.75D-15 BMatP= 1.26D-14
 IDIUse=1 WtCom= 1.00D+00 WtEn= 0.00D+00
 Coeff-Com:  0.142D-03 0.592D-03 0.888D-03 0.844D-03-0.457D-01 0.269D-01
 Coeff-Com:  0.126D+00-0.217D+00-0.499D-01 0.116D+01
 Coeff:      0.142D-03 0.592D-03 0.888D-03 0.844D-03-0.457D-01 0.269D-01
 Coeff:      0.126D+00-0.217D+00-0.499D-01 0.116D+01
 Gap=     0.143 Goal=   None    Shift=    0.000
 Gap=     0.143 Goal=   None    Shift=    0.000
 RMSDP=2.24D-09 MaxDP=2.16D-08 DE=-5.68D-14 OVMax= 1.31D-07

 SCF Done:  E(UM062X) =  -151.347620729     A.U. after   21 cycles
            NFock= 21  Conv=0.22D-08     -V/T= 2.0035
 <Sx>= 0.0000 <Sy>= 0.0000 <Sz>= 0.0000 <S**2>=-0.0000 S=-0.0000
 <L.S>=  0.00000000000    
 KE= 1.508205285442D+02 PE=-4.055767773334D+02 EE= 7.980578217597D+01
 Annihilation of the first spin contaminant:
 S**2 before annihilation    -0.0000,   after     0.0000
 Leave Link  502 at Mon Apr 21 21:30:02 2025, MaxMem=   536870912 cpu:              65.1 elap:               8.5
 (Enter /home/szhao/Apps/g16/l601.exe)
 Copying SCF densities to generalized density rwf, IOpCl= 1 IROHF=0.

 **********************************************************************

            Population analysis using the SCF density.

 **********************************************************************

 Alpha  occ. eigenvalues --  -19.72068 -19.72066  -1.13017  -1.12255  -0.56394
 Alpha  occ. eigenvalues --   -0.56221  -0.43771  -0.43404  -0.38081
 Alpha virt. eigenvalues --   -0.23829   0.05935   0.08116   0.15323   0.15859
 Alpha virt. eigenvalues --    0.18764   0.19379   0.20222   0.21572   0.26121
 Alpha virt. eigenvalues --    0.31527   0.50499   0.51952   0.97344   0.99312
 Alpha virt. eigenvalues --    1.01375   1.05052   1.05989   1.09892   1.27338
 Alpha virt. eigenvalues --    1.36871   1.36914   1.37045   1.37476   1.43593
 Alpha virt. eigenvalues --    2.03023   2.03332   2.43493   2.47120   2.83255
 Alpha virt. eigenvalues --    2.84735   2.84779   2.85296   3.12755   3.13888
 Alpha virt. eigenvalues --    3.15633   3.15731   3.80500   3.81609   4.92127
 Alpha virt. eigenvalues --    4.99289   5.00765   5.05397   5.46682   5.50849
 Alpha virt. eigenvalues --   49.81760  49.82681
  Beta  occ. eigenvalues --  -19.72068 -19.72066  -1.13017  -1.12255  -0.56394
  Beta  occ. eigenvalues --   -0.56221  -0.43771  -0.43404  -0.38081
  Beta virt. eigenvalues --   -0.23829   0.05935   0.08116   0.15323   0.15859
  Beta virt. eigenvalues --    0.18764   0.19379   0.20222   0.21572   0.26121
  Beta virt. eigenvalues --    0.31527   0.50499   0.51952   0.97344   0.99312
  Beta virt. eigenvalues --    1.01375   1.05052   1.05989   1.09892   1.27338
  Beta virt. eigenvalues --    1.36871   1.36914   1.37045   1.37476   1.43593
  Beta virt. eigenvalues --    2.03023   2.03332   2.43493   2.47120   2.83255
  Beta virt. eigenvalues --    2.84735   2.84779   2.85296   3.12755   3.13888
  Beta virt. eigenvalues --    3.15633   3.15731   3.80500   3.81609   4.92127
  Beta virt. eigenvalues --    4.99289   5.00765   5.05397   5.46682   5.50849
  Beta virt. eigenvalues --   49.81760  49.82681
          Condensed to atoms (all electrons):
               1          2          3          4
     1  O    7.916971   0.072695   0.269038   0.000888
     2  O    0.072695   7.916970   0.000888   0.269039
     3  H    0.269038   0.000888   0.470442   0.000039
     4  H    0.000888   0.269039   0.000039   0.470442
          Atomic-Atomic Spin Densities.
               1          2          3          4
     1  O   -0.000000   0.000000  -0.000000  -0.000000
     2  O    0.000000   0.000000   0.000000   0.000000
     3  H   -0.000000   0.000000   0.000000  -0.000000
     4  H   -0.000000   0.000000  -0.000000  -0.000000
 Mulliken charges and spin densities:
               1          2
     1  O   -0.259592  -0.000000
     2  O   -0.259592   0.000000
     3  H    0.259592   0.000000
     4  H    0.259592  -0.000000
 Sum of Mulliken charges =  -0.00000   0.00000
 Mulliken charges and spin densities with hydrogens summed into heavy atoms:
               1          2
     1  O    0.000000  -0.000000
     2  O   -0.000000   0.000000
 Electronic spatial extent (au):  <R**2>=            161.8153
 Charge=             -0.0000 electrons
 Dipole moment (field-independent basis, Debye):
    X=              0.0000    Y=             -0.9232    Z=              1.5712  Tot=              1.8223
 Quadrupole moment (field-independent basis, Debye-Ang):
   XX=             -8.7118   YY=            -10.6664   ZZ=            -11.8314
   XY=              4.4926   XZ=              2.6397   YZ=              1.0455
 Traceless Quadrupole moment (field-independent basis, Debye-Ang):
   XX=              1.6914   YY=             -0.2632   ZZ=             -1.4282
   XY=              4.4926   XZ=              2.6397   YZ=              1.0455
 Octapole moment (field-independent basis, Debye-Ang**2):
  XXX=              0.0000  YYY=             -0.8870  ZZZ=              0.0909  XYY=             -2.9174
  XXY=             -2.1640  XXZ=              3.6830  XZZ=              2.9174  YZZ=              0.8309
  YYZ=              0.0045  XYZ=              1.6255
 Hexadecapole moment (field-independent basis, Debye-Ang**3):
 XXXX=           -136.7196 YYYY=            -11.3770 ZZZZ=            -11.8267 XXXY=              9.1608
 XXXZ=              5.3826 YYYX=              0.6558 YYYZ=             -0.0207 ZZZX=              0.4224
 ZZZY=              0.4242 XXYY=            -23.8168 XXZZ=            -26.5600 YYZZ=             -4.0508
 XXYZ=              2.4617 YYXZ=              0.0907 ZZXY=              0.2175
 N-N= 2.360284588418D+01 E-N=-4.055767773718D+02  KE= 1.508205285442D+02
                          Isotropic Fermi Contact Couplings
        Atom                 a.u.       MegaHertz       Gauss      10(-4) cm-1
     1  O(17)              0.00000      -0.00000      -0.00000      -0.00000
     2  O(17)             -0.00000       0.00000       0.00000       0.00000
     3  H(1)               0.00000       0.00000       0.00000       0.00000
     4  H(1)              -0.00000      -0.00000      -0.00000      -0.00000
 --------------------------------------------------------
       Center         ----  Spin Dipole Couplings  ----
                      3XX-RR        3YY-RR        3ZZ-RR
 --------------------------------------------------------
     1   Atom       -0.000000      0.000000      0.000000
     2   Atom        0.000000     -0.000000     -0.000000
     3   Atom        0.000000     -0.000000      0.000000
     4   Atom       -0.000000     -0.000000      0.000000
 --------------------------------------------------------
                        XY            XZ            YZ
 --------------------------------------------------------
     1   Atom        0.000000     -0.000000      0.000000
     2   Atom       -0.000000     -0.000000      0.000000
     3   Atom       -0.000000     -0.000000      0.000000
     4   Atom        0.000000      0.000000      0.000000
 --------------------------------------------------------


 ---------------------------------------------------------------------------------
              Anisotropic Spin Dipole Couplings in Principal Axis System
 ---------------------------------------------------------------------------------

       Atom             a.u.   MegaHertz   Gauss  10(-4) cm-1        Axes

              Baa    -0.0000     0.000     0.000     0.000  0.9822 -0.1864  0.0238
     1 O(17)  Bbb     0.0000    -0.000    -0.000    -0.000 -0.0627 -0.2059  0.9766
              Bcc     0.0000    -0.000    -0.000    -0.000  0.1771  0.9607  0.2139
 
              Baa    -0.0000     0.000     0.000     0.000  0.1377  0.9170  0.3745
     2 O(17)  Bbb    -0.0000     0.000     0.000     0.000  0.1257 -0.3912  0.9117
              Bcc     0.0000    -0.000    -0.000    -0.000  0.9825 -0.0784 -0.1691
 
              Baa    -0.0000    -0.000    -0.000    -0.000  0.1484  0.9889 -0.0009
     3 H(1)   Bbb     0.0000     0.000     0.000     0.000  0.9886 -0.1484  0.0256
              Bcc     0.0000     0.000     0.000     0.000 -0.0252  0.0047  0.9997
 
              Baa    -0.0000    -0.000    -0.000    -0.000 -0.0170  0.8751 -0.4837
     4 H(1)   Bbb    -0.0000    -0.000    -0.000    -0.000  0.9888 -0.0569 -0.1377
              Bcc     0.0000     0.000     0.000     0.000  0.1480  0.4806  0.8644
 

 ---------------------------------------------------------------------------------

 No NMR shielding tensors so no spin-rotation constants.
 Leave Link  601 at Mon Apr 21 21:30:03 2025, MaxMem=   536870912 cpu:               4.4 elap:               0.7
 (Enter /home/szhao/Apps/g16/l701.exe)
 ... and contract with generalized density number  0.
 Compute integral first derivatives.
 Leave Link  701 at Mon Apr 21 21:30:04 2025, MaxMem=   536870912 cpu:               1.3 elap:               0.3
 (Enter /home/szhao/Apps/g16/l702.exe)
 L702 exits ... SP integral derivatives will be done elsewhere.
 Leave Link  702 at Mon Apr 21 21:30:04 2025, MaxMem=   536870912 cpu:               0.6 elap:               0.2
 (Enter /home/szhao/Apps/g16/l703.exe)
 Integral derivatives from FoFJK, PRISM(SPDF).
 Compute integral first derivatives, UseDBF=F ICtDFT=           0.
 Calling FoFJK, ICntrl=      2127 FMM=F ISym2X=0 I1Cent= 0 IOpClX= 1 NMat=1 NMatS=1 NMatT=0.
 FoFJK:  IHMeth= 1 ICntrl=    2127 DoSepK=F KAlg= 0 I1Cent=           0 FoldK=F
 IRaf=         0 NMat=       1 IRICut=       1 DoRegI=T DoRafI=F ISym2E= 0 IDoP0=0 IntGTp=1.
 FoFCou: FMM=F IPFlag=           0 FMFlag=      100000 FMFlg1=         800
         NFxFlg=           0 DoJE=F BraDBF=F KetDBF=F FulRan=T
         wScrn=  0.000000 ICntrl=      2127 IOpCl=  1 I1Cent=           0 NGrid=           0
         NMat0=    1 NMatS0=      1 NMatT0=    0 NMatD0=    1 NMtDS0=    0 NMtDT0=    0
 Symmetry not used in FoFCou.
 Leave Link  703 at Mon Apr 21 21:30:05 2025, MaxMem=   536870912 cpu:               8.5 elap:               1.1
 (Enter /home/szhao/Apps/g16/l716.exe)
 Dipole        = 9.47541750D-07-3.63197902D-01 6.18138563D-01
 -------------------------------------------------------------------
 Center     Atomic                   Forces (Hartrees/Bohr)
 Number     Number              X              Y              Z
 -------------------------------------------------------------------
      1        8          -0.000000000   -0.000000000   -0.000000000
      2        8          -0.000000000   -0.000000000   -0.000000000
      3        1           0.005438570   -0.010876641   -0.000402096
      4        1          -0.005438055    0.005643620    0.009303427
 -------------------------------------------------------------------
 Cartesian Forces:  Max     0.010876641 RMS     0.004966703
 Leave Link  716 at Mon Apr 21 21:30:06 2025, MaxMem=   536870912 cpu:               0.9 elap:               0.2
 (Enter /home/szhao/Apps/g16/l103.exe)

 GradGradGradGradGradGradGradGradGradGradGradGradGradGradGradGradGradGrad
 Berny optimization.
 FormGI is forming the generalized inverse of G from B-inverse, IUseBI=4.
 Internal  Forces:  Max     0.014693498 RMS     0.009817017
 Search for a local minimum.
 Step number   1 out of a maximum of   21
 All quantities printed in internal units (Hartrees-Bohrs-Radians)
 RMS Force = .10538D-01 SwitMx=.10000D-02 MixMth= 1
 Mixed Optimization -- RFO/linear search
 Second derivative matrix not updated -- first step.
 The second derivative matrix:
                          X1        Y1        Z1        X2        Y2
           X1           0.50000
           Y1           0.00000   0.50000
           Z1           0.00000   0.00000   0.50000
           X2           0.00000   0.00000   0.00000   0.50000
           Y2           0.00000   0.00000   0.00000   0.00000   0.50000
           Z2           0.00000   0.00000   0.00000   0.00000   0.00000
           R1           0.00000   0.00000   0.00000   0.00000   0.00000
           R2           0.00000   0.00000   0.00000   0.00000   0.00000
           A1           0.00000   0.00000   0.00000   0.00000   0.00000
           A2           0.00000   0.00000   0.00000   0.00000   0.00000
           D1           0.00000   0.00000   0.00000   0.00000   0.00000
                          Z2        R1        R2        A1        A2
           Z2           0.50000
           R1           0.00000   0.54591
           R2           0.00000   0.00000   0.54591
           A1           0.00000   0.00000   0.00000   0.16000
           A2           0.00000   0.00000   0.00000   0.00000   0.16000
           D1           0.00000   0.00000   0.00000   0.00000   0.00000
                          D1
           D1           0.00230
 ITU=  0
     Eigenvalues ---    0.00230   0.16000   0.16000   0.54591   0.54591
     Eigenvalues --- 1000.000001000.000001000.000001000.000001000.00000
     Eigenvalues --- 1000.00000
 RFO step:  Lambda=-2.71654114D-03 EMin= 2.30000000D-03
 Linear search not attempted -- first point.
 Iteration  1 RMS(Cart)=  0.08594455 RMS(Int)=  0.00488335
 Iteration  2 RMS(Cart)=  0.00506925 RMS(Int)=  0.00000824
 Iteration  3 RMS(Cart)=  0.00001106 RMS(Int)=  0.00000000
 Iteration  4 RMS(Cart)=  0.00000000 RMS(Int)=  0.00000000
 ITry= 1 IFail=0 DXMaxC= 1.59D-01 DCOld= 1.00D+10 DXMaxT= 3.00D-01 DXLimC= 3.00D+00 Rises=F
 Variable       Old X    -DE/DX   Delta X   Delta X   Delta X     New X
                                 (Linear)    (Quad)   (Total)
    X1       -2.66818   0.00544   0.00000   0.00000   0.00000  -2.66818
    Y1        0.00000  -0.01469   0.00000   0.00000   0.00000   0.00000
    Z1        0.00000  -0.00264   0.00000   0.00000   0.00000   0.00000
    X2        2.66818  -0.00544   0.00000   0.00000   0.00000   2.66818
    Y2        0.00000   0.00946   0.00000   0.00000   0.00000   0.00000
    Z2        0.00000   0.01155   0.00000   0.00000   0.00000   0.00000
    R1        1.82197   0.00959   0.00000   0.01749   0.01749   1.83946
    R2        1.82197   0.00959   0.00000   0.01748   0.01748   1.83945
    A1        1.76893  -0.01362   0.00000  -0.08368  -0.08368   1.68525
    A2        1.76893  -0.01361   0.00000  -0.08367  -0.08367   1.68527
    D1       -2.07914  -0.00072   0.00000  -0.14312  -0.14312  -2.22226
         Item               Value     Threshold  Converged?
 Maximum Force            0.013616     0.000450     NO 
 RMS     Force            0.010538     0.000300     NO 
 Maximum Displacement     0.159428     0.001800     NO 
 RMS     Displacement     0.086630     0.001200     NO 
 Predicted change in Energy=-1.405944D-03
 Lowest energy point so far.  Saving SCF results.
 GradGradGradGradGradGradGradGradGradGradGradGradGradGradGradGradGradGrad

 Leave Link  103 at Mon Apr 21 21:30:06 2025, MaxMem=   536870912 cpu:               1.3 elap:               0.3
 (Enter /home/szhao/Apps/g16/l202.exe)
                          Input orientation:                          
 ---------------------------------------------------------------------
 Center     Atomic      Atomic             Coordinates (Angstroms)
 Number     Number       Type             X           Y           Z
 ---------------------------------------------------------------------
      1          8           0       -1.411938    0.000000    0.000000
      2          8           0        1.411938    0.000000    0.000000
      3          1           0       -1.523107   -0.963342   -0.084366
      4          1           0        1.523118    0.517032    0.817201
 ---------------------------------------------------------------------
                    Distance matrix (angstroms):
                    1          2          3          4
     1  O    0.000000
     2  O    2.823876   0.000000
     3  H    0.973399   3.090249   0.000000
     4  H    3.090258   0.973396   3.504828   0.000000
 Symmetry turned off by external request.
 Stoichiometry    H2O2
 Framework group  C1[X(H2O2)]
 Deg. of freedom     6
 Full point group                 C1      NOp   1
 Rotational constants (GHZ):         287.5824684           7.3344778           7.2234272
 Leave Link  202 at Mon Apr 21 21:30:07 2025, MaxMem=   536870912 cpu:               0.1 elap:               0.1
 (Enter /home/szhao/Apps/g16/l301.exe)
 Standard basis: 6-311+G(d,p) (5D, 7F)
 Ernie: Thresh=  0.10000D-02 Tol=  0.10000D-05 Strict=F.
    56 basis functions,    88 primitive gaussians,    58 cartesian basis functions
     9 alpha electrons        9 beta electrons
       nuclear repulsion energy        23.5822808300 Hartrees.
 IExCor= 4336 DFT=T Ex+Corr=M062X ExCW=0 ScaHFX=  0.540000
 ScaDFX=  1.000000  1.000000  1.000000  1.000000 ScalE2=  1.000000  1.000000
 IRadAn=      7 IRanWt=     -1 IRanGd=            0 ICorTp=0 IEmpDi=  4
 NAtoms=    4 NActive=    4 NUniq=    4 SFac= 1.00D+00 NAtFMM=   60 NAOKFM=F Big=F
 Integral buffers will be    131072 words long.
 Raffenetti 2 integral format.
 Two-electron integral symmetry is turned off.
 Leave Link  301 at Mon Apr 21 21:30:07 2025, MaxMem=   536870912 cpu:               0.6 elap:               0.2
 (Enter /home/szhao/Apps/g16/l302.exe)
 NPDir=0 NMtPBC=     1 NCelOv=     1 NCel=       1 NClECP=     1 NCelD=      1
         NCelK=      1 NCelE2=     1 NClLst=     1 CellRange=     0.0.
 One-electron integrals computed using PRISM.
 NBasis=    56 RedAO= T EigKep=  5.82D-03  NBF=    56
 NBsUse=    56 1.00D-06 EigRej= -1.00D+00 NBFU=    56
 Precomputing XC quadrature grid using
 IXCGrd= 4 IRadAn=           7 IRanWt=          -1 IRanGd=           0 AccXCQ= 0.00D+00.
 Generated NRdTot=       0 NPtTot=           0 NUsed=           0 NTot=          32
 NSgBfM=    58    58    58    58    58 MxSgAt=     4 MxSgA2=     4.
 Leave Link  302 at Mon Apr 21 21:30:07 2025, MaxMem=   536870912 cpu:               1.8 elap:               0.3
 (Enter /home/szhao/Apps/g16/l303.exe)
 DipDrv:  MaxL=1.
 Leave Link  303 at Mon Apr 21 21:30:07 2025, MaxMem=   536870912 cpu:               0.7 elap:               0.1
 (Enter /home/szhao/Apps/g16/l401.exe)
 Initial guess from the checkpoint file:  "opt.chk"
 B after Tr=     0.000001    0.005444   -0.008940
         Rot=    0.999961   -0.007897    0.001973   -0.003298 Ang=  -1.01 deg.
 Guess basis will be translated and rotated to current coordinates.
 JPrj=2 DoOrth=T DoCkMO=T.
 Initial guess <Sx>= 0.0000 <Sy>= 0.0000 <Sz>= 0.0000 <S**2>=-0.0000 S=-0.0000
 Generating alternative initial guess.
 ExpMin= 8.45D-02 ExpMax= 8.59D+03 ExpMxC= 1.30D+03 IAcc=3 IRadAn=         5 AccDes= 0.00D+00
 Harris functional with IExCor= 1009 and IRadAn=       5 diagonalized for initial guess.
 HarFok:  IExCor= 1009 AccDes= 0.00D+00 IRadAn=         5 IDoV= 1 UseB2=F ITyADJ=14
 ICtDFT=  3500011 ScaDFX=  1.000000  1.000000  1.000000  1.000000
 FoFCou: FMM=F IPFlag=           0 FMFlag=      100000 FMFlg1=           0
         NFxFlg=           0 DoJE=T BraDBF=F KetDBF=T FulRan=T
         wScrn=  0.000000 ICntrl=       500 IOpCl=  0 I1Cent=   200000004 NGrid=           0
         NMat0=    1 NMatS0=      1 NMatT0=    0 NMatD0=    1 NMtDS0=    0 NMtDT0=    0
 Symmetry not used in FoFCou.
 Harris En= -151.337544919442    
 Leave Link  401 at Mon Apr 21 21:30:08 2025, MaxMem=   536870912 cpu:               3.3 elap:               0.5
 (Enter /home/szhao/Apps/g16/l502.exe)
 Keep R1 and R2 ints in memory in canonical form, NReq=9624198.
 FoFCou: FMM=F IPFlag=           0 FMFlag=           0 FMFlg1=           0
         NFxFlg=           0 DoJE=F BraDBF=F KetDBF=F FulRan=T
         wScrn=  0.000000 ICntrl=       600 IOpCl=  0 I1Cent=           0 NGrid=           0
         NMat0=    1 NMatS0=   1596 NMatT0=    0 NMatD0=    1 NMtDS0=    0 NMtDT0=    0
 Symmetry not used in FoFCou.
 Two-electron integral symmetry not used.
 UHF open shell SCF:
 Using DIIS extrapolation, IDIIS=  1040.
 NGot=   536870912 LenX=   534314338 LenY=   534310533
 Requested convergence on RMS density matrix=1.00D-08 within 128 cycles.
 Requested convergence on MAX density matrix=1.00D-06.
 Requested convergence on             energy=1.00D-06.
 No special actions if energy rises.
 Integral accuracy reduced to 1.0D-05 until final iterations.

 Cycle   1  Pass 0  IDiag  1:
 E= -151.346674040848    
 DIIS: error= 5.61D-03 at cycle   1 NSaved=   1.
 NSaved= 1 IEnMin= 1 EnMin= -151.346674040848     IErMin= 1 ErrMin= 5.61D-03
 ErrMax= 5.61D-03  0.00D+00 EMaxC= 1.00D-01 BMatC= 8.44D-03 BMatP= 8.44D-03
 IDIUse=3 WtCom= 9.44D-01 WtEn= 5.61D-02
 Coeff-Com:  0.100D+01
 Coeff-En:   0.100D+01
 Coeff:      0.100D+01
 Gap=     0.614 Goal=   None    Shift=    0.000
 Gap=     0.614 Goal=   None    Shift=    0.000
 GapD=    0.614 DampG=2.000 DampE=1.000 DampFc=2.0000 IDamp=-1.
 RMSDP=8.26D-04 MaxDP=6.68D-03              OVMax= 2.20D-02

 Cycle   2  Pass 0  IDiag  1:
 E= -151.349682555234     Delta-E=       -0.003008514385 Rises=F Damp=F
 DIIS: error= 1.19D-03 at cycle   2 NSaved=   2.
 NSaved= 2 IEnMin= 2 EnMin= -151.349682555234     IErMin= 2 ErrMin= 1.19D-03
 ErrMax= 1.19D-03  0.00D+00 EMaxC= 1.00D-01 BMatC= 3.22D-04 BMatP= 8.44D-03
 IDIUse=3 WtCom= 9.88D-01 WtEn= 1.19D-02
 Coeff-Com: -0.143D+00 0.114D+01
 Coeff-En:   0.000D+00 0.100D+01
 Coeff:     -0.142D+00 0.114D+01
 Gap=     0.144 Goal=   None    Shift=    0.000
 Gap=     0.144 Goal=   None    Shift=    0.000
 RMSDP=2.57D-04 MaxDP=2.08D-03 DE=-3.01D-03 OVMax= 1.24D-02

 Cycle   3  Pass 0  IDiag  1:
 E= -151.349924997225     Delta-E=       -0.000242441991 Rises=F Damp=F
 DIIS: error= 4.39D-04 at cycle   3 NSaved=   3.
 NSaved= 3 IEnMin= 3 EnMin= -151.349924997225     IErMin= 3 ErrMin= 4.39D-04
 ErrMax= 4.39D-04  0.00D+00 EMaxC= 1.00D-01 BMatC= 4.95D-05 BMatP= 3.22D-04
 IDIUse=3 WtCom= 9.96D-01 WtEn= 4.39D-03
 Coeff-Com: -0.408D-01 0.200D+00 0.841D+00
 Coeff-En:   0.000D+00 0.000D+00 0.100D+01
 Coeff:     -0.407D-01 0.199D+00 0.842D+00
 Gap=     0.144 Goal=   None    Shift=    0.000
 Gap=     0.144 Goal=   None    Shift=    0.000
 RMSDP=7.89D-05 MaxDP=6.48D-04 DE=-2.42D-04 OVMax= 4.43D-03

 Cycle   4  Pass 0  IDiag  1:
 E= -151.349957797111     Delta-E=       -0.000032799886 Rises=F Damp=F
 DIIS: error= 2.68D-04 at cycle   4 NSaved=   4.
 NSaved= 4 IEnMin= 4 EnMin= -151.349957797111     IErMin= 4 ErrMin= 2.68D-04
 ErrMax= 2.68D-04  0.00D+00 EMaxC= 1.00D-01 BMatC= 2.02D-05 BMatP= 4.95D-05
 IDIUse=3 WtCom= 9.97D-01 WtEn= 2.68D-03
 Coeff-Com:  0.219D-01-0.225D+00 0.319D+00 0.884D+00
 Coeff-En:   0.000D+00 0.000D+00 0.000D+00 0.100D+01
 Coeff:      0.218D-01-0.224D+00 0.318D+00 0.884D+00
 Gap=     0.144 Goal=   None    Shift=    0.000
 Gap=     0.144 Goal=   None    Shift=    0.000
 RMSDP=6.25D-05 MaxDP=4.13D-04 DE=-3.28D-05 OVMax= 3.50D-03

 Cycle   5  Pass 0  IDiag  1:
 E= -151.349972286232     Delta-E=       -0.000014489121 Rises=F Damp=F
 DIIS: error= 2.67D-04 at cycle   5 NSaved=   5.
 NSaved= 5 IEnMin= 5 EnMin= -151.349972286232     IErMin= 5 ErrMin= 2.67D-04
 ErrMax= 2.67D-04  0.00D+00 EMaxC= 1.00D-01 BMatC= 1.10D-05 BMatP= 2.02D-05
 IDIUse=3 WtCom= 9.97D-01 WtEn= 2.67D-03
 Coeff-Com:  0.177D-01-0.171D+00 0.164D+00 0.609D+00 0.380D+00
 Coeff-En:   0.000D+00 0.000D+00 0.000D+00 0.000D+00 0.100D+01
 Coeff:      0.177D-01-0.171D+00 0.163D+00 0.608D+00 0.382D+00
 Gap=     0.144 Goal=   None    Shift=    0.000
 Gap=     0.144 Goal=   None    Shift=    0.000
 RMSDP=3.20D-05 MaxDP=4.98D-04 DE=-1.45D-05 OVMax= 2.32D-03

 Cycle   6  Pass 0  IDiag  1:
 E= -151.349972313884     Delta-E=       -0.000000027653 Rises=F Damp=F
 DIIS: error= 3.87D-04 at cycle   6 NSaved=   6.
 NSaved= 6 IEnMin= 6 EnMin= -151.349972313884     IErMin= 5 ErrMin= 2.67D-04
 ErrMax= 3.87D-04  0.00D+00 EMaxC= 1.00D-01 BMatC= 2.03D-05 BMatP= 1.10D-05
 IDIUse=3 WtCom= 9.97D-01 WtEn= 2.67D-03
 Coeff-Com:  0.310D-02-0.134D-01-0.138D+00-0.797D-01 0.720D+00 0.508D+00
 Coeff-En:   0.000D+00 0.000D+00 0.000D+00 0.000D+00 0.499D+00 0.501D+00
 Coeff:      0.309D-02-0.133D-01-0.138D+00-0.795D-01 0.720D+00 0.508D+00
 Gap=     0.145 Goal=   None    Shift=    0.000
 Gap=     0.145 Goal=   None    Shift=    0.000
 RMSDP=3.73D-05 MaxDP=3.37D-04 DE=-2.77D-08 OVMax= 2.24D-03

 Cycle   7  Pass 0  IDiag  1:
 E= -151.349980585643     Delta-E=       -0.000008271759 Rises=F Damp=F
 DIIS: error= 1.24D-04 at cycle   7 NSaved=   7.
 NSaved= 7 IEnMin= 7 EnMin= -151.349980585643     IErMin= 7 ErrMin= 1.24D-04
 ErrMax= 1.24D-04  0.00D+00 EMaxC= 1.00D-01 BMatC= 6.27D-07 BMatP= 1.10D-05
 IDIUse=3 WtCom= 9.99D-01 WtEn= 1.24D-03
 Coeff-Com: -0.277D-02 0.255D-01 0.147D-01-0.540D-01-0.208D+00-0.103D+00
 Coeff-Com:  0.133D+01
 Coeff-En:   0.000D+00 0.000D+00 0.000D+00 0.000D+00 0.000D+00 0.000D+00
 Coeff-En:   0.100D+01
 Coeff:     -0.276D-02 0.255D-01 0.147D-01-0.539D-01-0.207D+00-0.103D+00
 Coeff:      0.133D+01
 Gap=     0.145 Goal=   None    Shift=    0.000
 Gap=     0.145 Goal=   None    Shift=    0.000
 RMSDP=3.01D-05 MaxDP=2.68D-04 DE=-8.27D-06 OVMax= 2.39D-03

 Cycle   8  Pass 0  IDiag  1:
 E= -151.349983563184     Delta-E=       -0.000002977540 Rises=F Damp=F
 DIIS: error= 1.03D-04 at cycle   8 NSaved=   8.
 NSaved= 8 IEnMin= 8 EnMin= -151.349983563184     IErMin= 8 ErrMin= 1.03D-04
 ErrMax= 1.03D-04  0.00D+00 EMaxC= 1.00D-01 BMatC= 4.40D-07 BMatP= 6.27D-07
 IDIUse=3 WtCom= 9.99D-01 WtEn= 1.03D-03
 Coeff-Com:  0.469D-02-0.554D-01 0.826D-01 0.187D+00-0.188D+00-0.216D+00
 Coeff-Com: -0.244D+01 0.363D+01
 Coeff-En:   0.000D+00 0.000D+00 0.000D+00 0.000D+00 0.000D+00 0.000D+00
 Coeff-En:   0.000D+00 0.100D+01
 Coeff:      0.469D-02-0.553D-01 0.826D-01 0.187D+00-0.188D+00-0.216D+00
 Coeff:     -0.244D+01 0.362D+01
 Gap=     0.145 Goal=   None    Shift=    0.000
 Gap=     0.145 Goal=   None    Shift=    0.000
 RMSDP=8.67D-05 MaxDP=7.85D-04 DE=-2.98D-06 OVMax= 6.96D-03

 Cycle   9  Pass 0  IDiag  1:
 E= -151.349989524000     Delta-E=       -0.000005960816 Rises=F Damp=F
 DIIS: error= 5.17D-05 at cycle   9 NSaved=   9.
 NSaved= 9 IEnMin= 9 EnMin= -151.349989524000     IErMin= 9 ErrMin= 5.17D-05
 ErrMax= 5.17D-05  0.00D+00 EMaxC= 1.00D-01 BMatC= 1.38D-07 BMatP= 4.40D-07
 IDIUse=1 WtCom= 1.00D+00 WtEn= 0.00D+00
 Coeff-Com:  0.315D-02-0.298D-01 0.909D-02 0.887D-01 0.136D+00 0.617D-01
 Coeff-Com: -0.804D+00-0.198D+00 0.173D+01
 Coeff:      0.315D-02-0.298D-01 0.909D-02 0.887D-01 0.136D+00 0.617D-01
 Coeff:     -0.804D+00-0.198D+00 0.173D+01
 Gap=     0.145 Goal=   None    Shift=    0.000
 Gap=     0.145 Goal=   None    Shift=    0.000
 RMSDP=7.06D-05 MaxDP=6.42D-04 DE=-5.96D-06 OVMax= 5.67D-03

 Cycle  10  Pass 0  IDiag  1:
 E= -151.349991512409     Delta-E=       -0.000001988409 Rises=F Damp=F
 DIIS: error= 1.13D-05 at cycle  10 NSaved=  10.
 NSaved=10 IEnMin=10 EnMin= -151.349991512409     IErMin=10 ErrMin= 1.13D-05
 ErrMax= 1.13D-05  0.00D+00 EMaxC= 1.00D-01 BMatC= 8.69D-09 BMatP= 1.38D-07
 IDIUse=1 WtCom= 1.00D+00 WtEn= 0.00D+00
 Coeff-Com: -0.817D-03 0.953D-02-0.116D-01-0.327D-01-0.595D-02 0.126D-01
 Coeff-Com:  0.486D+00-0.578D+00-0.133D+00 0.125D+01
 Coeff:     -0.817D-03 0.953D-02-0.116D-01-0.327D-01-0.595D-02 0.126D-01
 Coeff:      0.486D+00-0.578D+00-0.133D+00 0.125D+01
 Gap=     0.144 Goal=   None    Shift=    0.000
 Gap=     0.144 Goal=   None    Shift=    0.000
 RMSDP=1.71D-05 MaxDP=1.54D-04 DE=-1.99D-06 OVMax= 1.37D-03

 Cycle  11  Pass 0  IDiag  1:
 E= -151.349991599528     Delta-E=       -0.000000087120 Rises=F Damp=F
 DIIS: error= 7.11D-07 at cycle  11 NSaved=  11.
 NSaved=11 IEnMin=11 EnMin= -151.349991599528     IErMin=11 ErrMin= 7.11D-07
 ErrMax= 7.11D-07  0.00D+00 EMaxC= 1.00D-01 BMatC= 1.21D-10 BMatP= 8.69D-09
 IDIUse=1 WtCom= 1.00D+00 WtEn= 0.00D+00
 Coeff-Com: -0.167D-04 0.115D-03 0.544D-03-0.192D-03-0.226D-02-0.191D-02
 Coeff-Com: -0.152D-01 0.533D-01-0.565D-01-0.717D-01 0.109D+01
 Coeff:     -0.167D-04 0.115D-03 0.544D-03-0.192D-03-0.226D-02-0.191D-02
 Coeff:     -0.152D-01 0.533D-01-0.565D-01-0.717D-01 0.109D+01
 Gap=     0.144 Goal=   None    Shift=    0.000
 Gap=     0.144 Goal=   None    Shift=    0.000
 RMSDP=8.75D-07 MaxDP=7.68D-06 DE=-8.71D-08 OVMax= 6.86D-05

 Initial convergence to 1.0D-05 achieved.  Increase integral accuracy.
 Cycle  12  Pass 1  IDiag  1:
 E= -151.349992836696     Delta-E=       -0.000001237167 Rises=F Damp=F
 DIIS: error= 1.57D-06 at cycle   1 NSaved=   1.
 NSaved= 1 IEnMin= 1 EnMin= -151.349992836696     IErMin= 1 ErrMin= 1.57D-06
 ErrMax= 1.57D-06  0.00D+00 EMaxC= 1.00D-01 BMatC= 8.04D-10 BMatP= 8.04D-10
 IDIUse=1 WtCom= 1.00D+00 WtEn= 0.00D+00
 Coeff-Com:  0.100D+01
 Coeff:      0.100D+01
 Gap=     0.144 Goal=   None    Shift=    0.000
 Gap=     0.144 Goal=   None    Shift=    0.000
 RMSDP=8.75D-07 MaxDP=7.68D-06 DE=-1.24D-06 OVMax= 1.30D-05

 Cycle  13  Pass 1  IDiag  1:
 E= -151.349992837047     Delta-E=       -0.000000000352 Rises=F Damp=F
 DIIS: error= 1.37D-06 at cycle   2 NSaved=   2.
 NSaved= 2 IEnMin= 2 EnMin= -151.349992837047     IErMin= 2 ErrMin= 1.37D-06
 ErrMax= 1.37D-06  0.00D+00 EMaxC= 1.00D-01 BMatC= 3.00D-10 BMatP= 8.04D-10
 IDIUse=1 WtCom= 1.00D+00 WtEn= 0.00D+00
 Coeff-Com:  0.241D+00 0.759D+00
 Coeff:      0.241D+00 0.759D+00
 Gap=     0.144 Goal=   None    Shift=    0.000
 Gap=     0.144 Goal=   None    Shift=    0.000
 RMSDP=3.23D-07 MaxDP=5.17D-06 DE=-3.52D-10 OVMax= 2.46D-05

 Cycle  14  Pass 1  IDiag  1:
 E= -151.349992836249     Delta-E=        0.000000000799 Rises=F Damp=F
 DIIS: error= 5.55D-06 at cycle   3 NSaved=   3.
 NSaved= 3 IEnMin= 2 EnMin= -151.349992837047     IErMin= 2 ErrMin= 1.37D-06
 ErrMax= 5.55D-06  0.00D+00 EMaxC= 1.00D-01 BMatC= 3.88D-09 BMatP= 3.00D-10
 IDIUse=1 WtCom= 1.00D+00 WtEn= 0.00D+00
 Coeff-Com: -0.693D-01 0.848D+00 0.221D+00
 Coeff:     -0.693D-01 0.848D+00 0.221D+00
 Gap=     0.144 Goal=   None    Shift=    0.000
 Gap=     0.144 Goal=   None    Shift=    0.000
 RMSDP=2.57D-07 MaxDP=4.22D-06 DE= 7.99D-10 OVMax= 2.04D-05

 Cycle  15  Pass 1  IDiag  1:
 E= -151.349992837123     Delta-E=       -0.000000000875 Rises=F Damp=F
 DIIS: error= 3.38D-07 at cycle   4 NSaved=   4.
 NSaved= 4 IEnMin= 4 EnMin= -151.349992837123     IErMin= 4 ErrMin= 3.38D-07
 ErrMax= 3.38D-07  0.00D+00 EMaxC= 1.00D-01 BMatC= 3.81D-11 BMatP= 3.00D-10
 IDIUse=1 WtCom= 1.00D+00 WtEn= 0.00D+00
 Coeff-Com: -0.581D-01 0.404D+00 0.125D+00 0.529D+00
 Coeff:     -0.581D-01 0.404D+00 0.125D+00 0.529D+00
 Gap=     0.144 Goal=   None    Shift=    0.000
 Gap=     0.144 Goal=   None    Shift=    0.000
 RMSDP=3.26D-08 MaxDP=4.20D-07 DE=-8.75D-10 OVMax= 1.38D-06

 Cycle  16  Pass 1  IDiag  1:
 E= -151.349992837132     Delta-E=       -0.000000000009 Rises=F Damp=F
 DIIS: error= 1.61D-07 at cycle   5 NSaved=   5.
 NSaved= 5 IEnMin= 5 EnMin= -151.349992837132     IErMin= 5 ErrMin= 1.61D-07
 ErrMax= 1.61D-07  0.00D+00 EMaxC= 1.00D-01 BMatC= 2.13D-12 BMatP= 3.81D-11
 IDIUse=1 WtCom= 1.00D+00 WtEn= 0.00D+00
 Coeff-Com:  0.295D-02-0.627D-01-0.326D-01-0.272D-01 0.112D+01
 Coeff:      0.295D-02-0.627D-01-0.326D-01-0.272D-01 0.112D+01
 Gap=     0.144 Goal=   None    Shift=    0.000
 Gap=     0.144 Goal=   None    Shift=    0.000
 RMSDP=3.28D-08 MaxDP=3.08D-07 DE=-8.87D-12 OVMax= 2.35D-06

 Cycle  17  Pass 1  IDiag  1:
 E= -151.349992837137     Delta-E=       -0.000000000005 Rises=F Damp=F
 DIIS: error= 1.40D-07 at cycle   6 NSaved=   6.
 NSaved= 6 IEnMin= 6 EnMin= -151.349992837137     IErMin= 6 ErrMin= 1.40D-07
 ErrMax= 1.40D-07  0.00D+00 EMaxC= 1.00D-01 BMatC= 8.85D-13 BMatP= 2.13D-12
 IDIUse=1 WtCom= 1.00D+00 WtEn= 0.00D+00
 Coeff-Com:  0.592D-02-0.163D-01 0.741D-02-0.540D-01-0.752D+00 0.181D+01
 Coeff:      0.592D-02-0.163D-01 0.741D-02-0.540D-01-0.752D+00 0.181D+01
 Gap=     0.144 Goal=   None    Shift=    0.000
 Gap=     0.144 Goal=   None    Shift=    0.000
 RMSDP=4.84D-08 MaxDP=4.68D-07 DE=-5.06D-12 OVMax= 3.58D-06

 Cycle  18  Pass 1  IDiag  1:
 E= -151.349992837143     Delta-E=       -0.000000000006 Rises=F Damp=F
 DIIS: error= 1.09D-07 at cycle   7 NSaved=   7.
 NSaved= 7 IEnMin= 7 EnMin= -151.349992837143     IErMin= 7 ErrMin= 1.09D-07
 ErrMax= 1.09D-07  0.00D+00 EMaxC= 1.00D-01 BMatC= 5.52D-13 BMatP= 8.85D-13
 IDIUse=1 WtCom= 1.00D+00 WtEn= 0.00D+00
 Coeff-Com: -0.833D-02 0.789D-01 0.271D-01 0.775D-01-0.626D+00-0.184D+01
 Coeff-Com:  0.329D+01
 Coeff:     -0.833D-02 0.789D-01 0.271D-01 0.775D-01-0.626D+00-0.184D+01
 Coeff:      0.329D+01
 Gap=     0.144 Goal=   None    Shift=    0.000
 Gap=     0.144 Goal=   None    Shift=    0.000
 RMSDP=1.26D-07 MaxDP=1.23D-06 DE=-5.54D-12 OVMax= 9.39D-06

 Cycle  19  Pass 1  IDiag  1:
 E= -151.349992837151     Delta-E=       -0.000000000009 Rises=F Damp=F
 DIIS: error= 3.43D-08 at cycle   8 NSaved=   8.
 NSaved= 8 IEnMin= 8 EnMin= -151.349992837151     IErMin= 8 ErrMin= 3.43D-08
 ErrMax= 3.43D-08  0.00D+00 EMaxC= 1.00D-01 BMatC= 1.13D-13 BMatP= 5.52D-13
 IDIUse=1 WtCom= 1.00D+00 WtEn= 0.00D+00
 Coeff-Com: -0.120D-02-0.978D-02-0.773D-02-0.660D-02 0.565D+00-0.393D+00
 Coeff-Com: -0.713D+00 0.157D+01
 Coeff:     -0.120D-02-0.978D-02-0.773D-02-0.660D-02 0.565D+00-0.393D+00
 Coeff:     -0.713D+00 0.157D+01
 Gap=     0.144 Goal=   None    Shift=    0.000
 Gap=     0.144 Goal=   None    Shift=    0.000
 RMSDP=4.96D-08 MaxDP=4.93D-07 DE=-8.55D-12 OVMax= 3.76D-06

 Cycle  20  Pass 1  IDiag  1:
 E= -151.349992837152     Delta-E=       -0.000000000001 Rises=F Damp=F
 DIIS: error= 1.05D-08 at cycle   9 NSaved=   9.
 NSaved= 9 IEnMin= 9 EnMin= -151.349992837152     IErMin= 9 ErrMin= 1.05D-08
 ErrMax= 1.05D-08  0.00D+00 EMaxC= 1.00D-01 BMatC= 1.02D-14 BMatP= 1.13D-13
 IDIUse=1 WtCom= 1.00D+00 WtEn= 0.00D+00
 Coeff-Com:  0.896D-03-0.693D-02-0.203D-02-0.387D-02-0.201D-01 0.169D+00
 Coeff-Com: -0.143D+00-0.299D+00 0.131D+01
 Coeff:      0.896D-03-0.693D-02-0.203D-02-0.387D-02-0.201D-01 0.169D+00
 Coeff:     -0.143D+00-0.299D+00 0.131D+01
 Gap=     0.144 Goal=   None    Shift=    0.000
 Gap=     0.144 Goal=   None    Shift=    0.000
 RMSDP=1.13D-08 MaxDP=1.07D-07 DE=-1.08D-12 OVMax= 8.82D-07

 Cycle  21  Pass 1  IDiag  1:
 E= -151.349992837152     Delta-E=       -0.000000000000 Rises=F Damp=F
 DIIS: error= 6.21D-09 at cycle  10 NSaved=  10.
 NSaved=10 IEnMin=10 EnMin= -151.349992837152     IErMin=10 ErrMin= 6.21D-09
 ErrMax= 6.21D-09  0.00D+00 EMaxC= 1.00D-01 BMatC= 3.48D-15 BMatP= 1.02D-14
 IDIUse=1 WtCom= 1.00D+00 WtEn= 0.00D+00
 Coeff-Com:  0.196D-04 0.137D-02 0.462D-03 0.290D-02-0.570D-01 0.405D-01
 Coeff-Com:  0.952D-01-0.236D+00-0.799D-01 0.123D+01
 Coeff:      0.196D-04 0.137D-02 0.462D-03 0.290D-02-0.570D-01 0.405D-01
 Coeff:      0.952D-01-0.236D+00-0.799D-01 0.123D+01
 Gap=     0.144 Goal=   None    Shift=    0.000
 Gap=     0.144 Goal=   None    Shift=    0.000
 RMSDP=2.73D-09 MaxDP=3.20D-08 DE=-8.53D-14 OVMax= 1.93D-07

 SCF Done:  E(UM062X) =  -151.349992837     A.U. after   21 cycles
            NFock= 21  Conv=0.27D-08     -V/T= 2.0038
 <Sx>= 0.0000 <Sy>= 0.0000 <Sz>= 0.0000 <S**2>=-0.0000 S=-0.0000
 <L.S>=  0.00000000000    
 KE= 1.507833277525D+02 PE=-4.055009750227D+02 EE= 7.978537360299D+01
 Annihilation of the first spin contaminant:
 S**2 before annihilation    -0.0000,   after     0.0000
 Leave Link  502 at Mon Apr 21 21:30:16 2025, MaxMem=   536870912 cpu:              63.7 elap:               8.3
 (Enter /home/szhao/Apps/g16/l701.exe)
 ... and contract with generalized density number  0.
 Compute integral first derivatives.
 Leave Link  701 at Mon Apr 21 21:30:17 2025, MaxMem=   536870912 cpu:               1.3 elap:               0.2
 (Enter /home/szhao/Apps/g16/l702.exe)
 L702 exits ... SP integral derivatives will be done elsewhere.
 Leave Link  702 at Mon Apr 21 21:30:17 2025, MaxMem=   536870912 cpu:               0.8 elap:               0.2
 (Enter /home/szhao/Apps/g16/l703.exe)
 Integral derivatives from FoFJK, PRISM(SPDF).
 Compute integral first derivatives, UseDBF=F ICtDFT=           0.
 Calling FoFJK, ICntrl=      2127 FMM=F ISym2X=0 I1Cent= 0 IOpClX= 1 NMat=1 NMatS=1 NMatT=0.
 FoFJK:  IHMeth= 1 ICntrl=    2127 DoSepK=F KAlg= 0 I1Cent=           0 FoldK=F
 IRaf=         0 NMat=       1 IRICut=       1 DoRegI=T DoRafI=F ISym2E= 0 IDoP0=0 IntGTp=1.
 FoFCou: FMM=F IPFlag=           0 FMFlag=      100000 FMFlg1=         800
         NFxFlg=           0 DoJE=F BraDBF=F KetDBF=F FulRan=T
         wScrn=  0.000000 ICntrl=      2127 IOpCl=  1 I1Cent=           0 NGrid=           0
         NMat0=    1 NMatS0=      1 NMatT0=    0 NMatD0=    1 NMtDS0=    0 NMtDT0=    0
 Symmetry not used in FoFCou.
 Leave Link  703 at Mon Apr 21 21:30:19 2025, MaxMem=   536870912 cpu:               8.5 elap:               1.2
 (Enter /home/szhao/Apps/g16/l716.exe)
 Dipole        = 3.59576265D-06-3.34739888D-01 5.49637576D-01
 -------------------------------------------------------------------
 Center     Atomic                   Forces (Hartrees/Bohr)
 Number     Number              X              Y              Z
 -------------------------------------------------------------------
      1        8          -0.000000000   -0.000000000   -0.000000000
      2        8          -0.000000000   -0.000000000   -0.000000000
      3        1           0.006036176   -0.000825845   -0.000594511
      4        1          -0.006039257    0.000902291    0.000469204
 -------------------------------------------------------------------
 Cartesian Forces:  Max     0.006039257 RMS     0.002499630
 Leave Link  716 at Mon Apr 21 21:30:19 2025, MaxMem=   536870912 cpu:               0.5 elap:               0.1
 (Enter /home/szhao/Apps/g16/l103.exe)

 GradGradGradGradGradGradGradGradGradGradGradGradGradGradGradGradGradGrad
 Berny optimization.
 Using GEDIIS/GDIIS optimizer.
 FormGI is forming the generalized inverse of G from B-inverse, IUseBI=4.
 Internal  Forces:  Max     0.011220887 RMS     0.005812470
 Search for a local minimum.
 Step number   2 out of a maximum of   21
 All quantities printed in internal units (Hartrees-Bohrs-Radians)
 RMS Force = .71081D-02 SwitMx=.10000D-02 MixMth= 1
 Mixed Optimization -- RFO/linear search
 Update second derivatives using D2CorX and points    1    2
 DE= -2.37D-03 DEPred=-1.41D-03 R= 1.69D+00
 TightC=F SS=  1.41D+00  RLast= 1.87D-01 DXNew= 5.0454D-01 5.6202D-01
 Trust test= 1.69D+00 RLast= 1.87D-01 DXMaxT set to 5.05D-01
 The second derivative matrix:
                          X1        Y1        Z1        X2        Y2
           X1           0.50051
           Y1           0.00910   0.66200
           Z1           0.00007   0.00129   0.50001
           X2          -0.00051  -0.00916  -0.00007   0.50052
           Y2          -0.00456  -0.08107  -0.00064   0.00458   0.54057
           Z2          -0.00780  -0.13877  -0.00110   0.00785   0.06944
           R1          -0.00806  -0.14341  -0.00114   0.00811   0.07177
           R2          -0.00805  -0.14331  -0.00114   0.00810   0.07172
           A1           0.00206   0.03658   0.00029  -0.00207  -0.01831
           A2           0.00205   0.03646   0.00029  -0.00206  -0.01824
           D1          -0.00019  -0.00343  -0.00003   0.00019   0.00171
                          Z2        R1        R2        A1        A2
           Z2           0.61887
           R1           0.12284   0.63810
           R2           0.12276   0.09211   0.63795
           A1          -0.03134   0.01637   0.01638   0.09988
           A2          -0.03123   0.01648   0.01649  -0.06014   0.09984
           D1           0.00293   0.00423   0.00423  -0.00245  -0.00245
                          D1
           D1           0.00233
 ITU=  1  0
 Use linear search instead of GDIIS.
     Eigenvalues ---    0.00190   0.03854   0.16000   0.54591   0.73174
     Eigenvalues --- 1000.000001000.000001000.000001000.000001000.00000
     Eigenvalues --- 1000.00000
 RFO step:  Lambda=-1.98749459D-03 EMin= 1.89708346D-03
 Quartic linear search produced a step of  2.00000.
 Iteration  1 RMS(Cart)=  0.15612666 RMS(Int)=  0.03102567
 Iteration  2 RMS(Cart)=  0.05327371 RMS(Int)=  0.00171919
 Iteration  3 RMS(Cart)=  0.00187810 RMS(Int)=  0.00000113
 Iteration  4 RMS(Cart)=  0.00000193 RMS(Int)=  0.00000000
 Iteration  5 RMS(Cart)=  0.00000000 RMS(Int)=  0.00000000
 ITry= 1 IFail=0 DXMaxC= 4.70D-01 DCOld= 1.00D+10 DXMaxT= 5.05D-01 DXLimC= 3.00D+00 Rises=F
 Variable       Old X    -DE/DX   Delta X   Delta X   Delta X     New X
                                 (Linear)    (Quad)   (Total)
    X1       -2.66818   0.00604   0.00000   0.00000   0.00000  -2.66818
    Y1        0.00000  -0.00406   0.00000   0.00000   0.00000   0.00000
    Z1        0.00000  -0.00256   0.00000   0.00000   0.00000   0.00000
    X2        2.66818  -0.00604   0.00000   0.00000   0.00000   2.66818
    Y2        0.00000   0.00414   0.00000   0.00000   0.00000   0.00000
    Z2        0.00000   0.00244   0.00000   0.00000   0.00000   0.00000
    R1        1.83946   0.00018   0.03497  -0.02318   0.01180   1.85125
    R2        1.83945   0.00018   0.03496  -0.02315   0.01182   1.85127
    A1        1.68525  -0.01121  -0.16736  -0.08772  -0.25508   1.43018
    A2        1.68527  -0.01122  -0.16733  -0.08786  -0.25519   1.43007
    D1       -2.22226  -0.00094  -0.28624   0.21087  -0.07537  -2.29762
         Item               Value     Threshold  Converged?
 Maximum Force            0.011221     0.000450     NO 
 RMS     Force            0.007108     0.000300     NO 
 Maximum Displacement     0.469758     0.001800     NO 
 RMS     Displacement     0.202589     0.001200     NO 
 Predicted change in Energy=-3.405705D-03
 Lowest energy point so far.  Saving SCF results.
 GradGradGradGradGradGradGradGradGradGradGradGradGradGradGradGradGradGrad

 Leave Link  103 at Mon Apr 21 21:30:19 2025, MaxMem=   536870912 cpu:               0.4 elap:               0.1
 (Enter /home/szhao/Apps/g16/l202.exe)
                          Input orientation:                          
 ---------------------------------------------------------------------
 Center     Atomic      Atomic             Coordinates (Angstroms)
 Number     Number       Type             X           Y           Z
 ---------------------------------------------------------------------
      1          8           0       -1.411938    0.000000    0.000000
      2          8           0        1.411938    0.000000    0.000000
      3          1           0       -1.274636   -0.961065   -0.131145
      4          1           0        1.274533    0.540622    0.805332
 ---------------------------------------------------------------------
                    Distance matrix (angstroms):
                    1          2          3          4
     1  O    0.000000
     2  O    2.823876   0.000000
     3  H    0.979641   2.856313   0.000000
     4  H    2.856214   0.979649   3.103274   0.000000
 Symmetry turned off by external request.
 Stoichiometry    H2O2
 Framework group  C1[X(H2O2)]
 Deg. of freedom     6
 Full point group                 C1      NOp   1
 Rotational constants (GHZ):         280.9691165           7.4952497           7.3641698
 Leave Link  202 at Mon Apr 21 21:30:20 2025, MaxMem=   536870912 cpu:               0.2 elap:               0.2
 (Enter /home/szhao/Apps/g16/l301.exe)
 Standard basis: 6-311+G(d,p) (5D, 7F)
 Ernie: Thresh=  0.10000D-02 Tol=  0.10000D-05 Strict=F.
    56 basis functions,    88 primitive gaussians,    58 cartesian basis functions
     9 alpha electrons        9 beta electrons
       nuclear repulsion energy        23.7708007820 Hartrees.
 IExCor= 4336 DFT=T Ex+Corr=M062X ExCW=0 ScaHFX=  0.540000
 ScaDFX=  1.000000  1.000000  1.000000  1.000000 ScalE2=  1.000000  1.000000
 IRadAn=      7 IRanWt=     -1 IRanGd=            0 ICorTp=0 IEmpDi=  4
 NAtoms=    4 NActive=    4 NUniq=    4 SFac= 1.00D+00 NAtFMM=   60 NAOKFM=F Big=F
 Integral buffers will be    131072 words long.
 Raffenetti 2 integral format.
 Two-electron integral symmetry is turned off.
 Leave Link  301 at Mon Apr 21 21:30:20 2025, MaxMem=   536870912 cpu:               0.5 elap:               0.1
 (Enter /home/szhao/Apps/g16/l302.exe)
 NPDir=0 NMtPBC=     1 NCelOv=     1 NCel=       1 NClECP=     1 NCelD=      1
         NCelK=      1 NCelE2=     1 NClLst=     1 CellRange=     0.0.
 One-electron integrals computed using PRISM.
 NBasis=    56 RedAO= T EigKep=  5.79D-03  NBF=    56
 NBsUse=    56 1.00D-06 EigRej= -1.00D+00 NBFU=    56
 Precomputing XC quadrature grid using
 IXCGrd= 4 IRadAn=           7 IRanWt=          -1 IRanGd=           0 AccXCQ= 0.00D+00.
 Generated NRdTot=       0 NPtTot=           0 NUsed=           0 NTot=          32
 NSgBfM=    58    58    58    58    58 MxSgAt=     4 MxSgA2=     4.
 Leave Link  302 at Mon Apr 21 21:30:20 2025, MaxMem=   536870912 cpu:               1.8 elap:               0.3
 (Enter /home/szhao/Apps/g16/l303.exe)
 DipDrv:  MaxL=1.
 Leave Link  303 at Mon Apr 21 21:30:20 2025, MaxMem=   536870912 cpu:               0.6 elap:               0.1
 (Enter /home/szhao/Apps/g16/l401.exe)
 Initial guess from the checkpoint file:  "opt.chk"
 B after Tr=    -0.000012    0.003527   -0.005657
         Rot=    0.999965   -0.005291    0.003419   -0.005547 Ang=  -0.96 deg.
 Guess basis will be translated and rotated to current coordinates.
 JPrj=2 DoOrth=T DoCkMO=T.
 Initial guess <Sx>= 0.0000 <Sy>= 0.0000 <Sz>= 0.0000 <S**2>= 0.0000 S= 0.0000
 Generating alternative initial guess.
 ExpMin= 8.45D-02 ExpMax= 8.59D+03 ExpMxC= 1.30D+03 IAcc=3 IRadAn=         5 AccDes= 0.00D+00
 Harris functional with IExCor= 1009 and IRadAn=       5 diagonalized for initial guess.
 HarFok:  IExCor= 1009 AccDes= 0.00D+00 IRadAn=         5 IDoV= 1 UseB2=F ITyADJ=14
 ICtDFT=  3500011 ScaDFX=  1.000000  1.000000  1.000000  1.000000
 FoFCou: FMM=F IPFlag=           0 FMFlag=      100000 FMFlg1=           0
         NFxFlg=           0 DoJE=T BraDBF=F KetDBF=T FulRan=T
         wScrn=  0.000000 ICntrl=       500 IOpCl=  0 I1Cent=   200000004 NGrid=           0
         NMat0=    1 NMatS0=      1 NMatT0=    0 NMatD0=    1 NMtDS0=    0 NMtDT0=    0
 Symmetry not used in FoFCou.
 Harris En= -151.338828950585    
 Leave Link  401 at Mon Apr 21 21:30:21 2025, MaxMem=   536870912 cpu:               3.8 elap:               0.6
 (Enter /home/szhao/Apps/g16/l502.exe)
 Keep R1 and R2 ints in memory in canonical form, NReq=9624198.
 FoFCou: FMM=F IPFlag=           0 FMFlag=           0 FMFlg1=           0
         NFxFlg=           0 DoJE=F BraDBF=F KetDBF=F FulRan=T
         wScrn=  0.000000 ICntrl=       600 IOpCl=  0 I1Cent=           0 NGrid=           0
         NMat0=    1 NMatS0=   1596 NMatT0=    0 NMatD0=    1 NMtDS0=    0 NMtDT0=    0
 Symmetry not used in FoFCou.
 Two-electron integral symmetry not used.
 UHF open shell SCF:
 Using DIIS extrapolation, IDIIS=  1040.
 NGot=   536870912 LenX=   534314338 LenY=   534310533
 Requested convergence on RMS density matrix=1.00D-08 within 128 cycles.
 Requested convergence on MAX density matrix=1.00D-06.
 Requested convergence on             energy=1.00D-06.
 No special actions if energy rises.
 Integral accuracy reduced to 1.0D-05 until final iterations.

 Cycle   1  Pass 0  IDiag  1:
 E= -151.335170774165    
 DIIS: error= 1.41D-02 at cycle   1 NSaved=   1.
 NSaved= 1 IEnMin= 1 EnMin= -151.335170774165     IErMin= 1 ErrMin= 1.41D-02
 ErrMax= 1.41D-02  0.00D+00 EMaxC= 1.00D-01 BMatC= 3.72D-02 BMatP= 3.72D-02
 IDIUse=3 WtCom= 8.59D-01 WtEn= 1.41D-01
 Coeff-Com:  0.100D+01
 Coeff-En:   0.100D+01
 Coeff:      0.100D+01
 Recover alternate guess density for next cycle.
 RMSDP=3.04D-03 MaxDP=2.64D-02              OVMax= 0.00D+00

 Cycle   2  Pass 0  IDiag  1:
 E= -151.327541421344     Delta-E=        0.007629352821 Rises=F Damp=F
 Switch densities from cycles 1 and 2 for lowest energy.
 DIIS: error= 3.84D-02 at cycle   2 NSaved=   2.
 NSaved= 2 IEnMin= 1 EnMin= -151.335170774165     IErMin= 1 ErrMin= 1.41D-02
 ErrMax= 3.84D-02  0.00D+00 EMaxC= 1.00D+00 BMatC= 2.08D-01 BMatP= 3.72D-02
 IDIUse=1 WtCom= 1.00D+00 WtEn= 0.00D+00
 Coeff-Com:  0.863D+00 0.137D+00
 Coeff:      0.863D+00 0.137D+00
 Gap=     0.196 Goal=   None    Shift=    0.000
 Gap=     0.196 Goal=   None    Shift=    0.000
 RMSDP=1.90D-03 MaxDP=1.92D-02 DE= 7.63D-03 OVMax= 7.07D-02

 Cycle   3  Pass 0  IDiag  1:
 E= -151.351116409773     Delta-E=       -0.023574988429 Rises=F Damp=F
 DIIS: error= 3.91D-03 at cycle   3 NSaved=   3.
 NSaved= 3 IEnMin= 3 EnMin= -151.351116409773     IErMin= 3 ErrMin= 3.91D-03
 ErrMax= 3.91D-03  0.00D+00 EMaxC= 1.00D+00 BMatC= 4.78D-03 BMatP= 3.72D-02
 IDIUse=1 WtCom= 1.00D+00 WtEn= 0.00D+00
 Coeff-Com: -0.742D-01 0.107D+00 0.967D+00
 Coeff:     -0.742D-01 0.107D+00 0.967D+00
 Gap=     0.146 Goal=   None    Shift=    0.000
 Gap=     0.146 Goal=   None    Shift=    0.000
 RMSDP=6.28D-04 MaxDP=5.43D-03 DE=-2.36D-02 OVMax= 3.66D-02

 Cycle   4  Pass 0  IDiag  1:
 E= -151.353024327966     Delta-E=       -0.001907918192 Rises=F Damp=F
 DIIS: error= 2.19D-03 at cycle   4 NSaved=   4.
 NSaved= 4 IEnMin= 4 EnMin= -151.353024327966     IErMin= 4 ErrMin= 2.19D-03
 ErrMax= 2.19D-03  0.00D+00 EMaxC= 1.00D+00 BMatC= 5.48D-04 BMatP= 4.78D-03
 IDIUse=1 WtCom= 1.00D+00 WtEn= 0.00D+00
 Coeff-Com: -0.459D-01-0.618D-02 0.210D+00 0.842D+00
 Coeff:     -0.459D-01-0.618D-02 0.210D+00 0.842D+00
 Gap=     0.147 Goal=   None    Shift=    0.000
 Gap=     0.147 Goal=   None    Shift=    0.000
 RMSDP=1.77D-04 MaxDP=1.41D-03 DE=-1.91D-03 OVMax= 1.12D-02

 Cycle   5  Pass 0  IDiag  1:
 E= -151.353261990273     Delta-E=       -0.000237662307 Rises=F Damp=F
 DIIS: error= 6.36D-04 at cycle   5 NSaved=   5.
 NSaved= 5 IEnMin= 5 EnMin= -151.353261990273     IErMin= 5 ErrMin= 6.36D-04
 ErrMax= 6.36D-04  0.00D+00 EMaxC= 1.00D+00 BMatC= 4.60D-05 BMatP= 5.48D-04
 IDIUse=1 WtCom= 1.00D+00 WtEn= 0.00D+00
 Coeff-Com:  0.143D-01-0.147D-02-0.160D+00-0.275D+00 0.142D+01
 Coeff:      0.143D-01-0.147D-02-0.160D+00-0.275D+00 0.142D+01
 Gap=     0.147 Goal=   None    Shift=    0.000
 Gap=     0.147 Goal=   None    Shift=    0.000
 RMSDP=1.61D-04 MaxDP=1.29D-03 DE=-2.38D-04 OVMax= 1.14D-02

 Cycle   6  Pass 0  IDiag  1:
 E= -151.353331192332     Delta-E=       -0.000069202059 Rises=F Damp=F
 DIIS: error= 7.14D-04 at cycle   6 NSaved=   6.
 NSaved= 6 IEnMin= 6 EnMin= -151.353331192332     IErMin= 5 ErrMin= 6.36D-04
 ErrMax= 7.14D-04  0.00D+00 EMaxC= 1.00D+00 BMatC= 5.89D-05 BMatP= 4.60D-05
 IDIUse=1 WtCom= 1.00D+00 WtEn= 0.00D+00
 Coeff-Com:  0.127D-01-0.755D-03-0.131D+00-0.248D+00 0.108D+01 0.284D+00
 Coeff:      0.127D-01-0.755D-03-0.131D+00-0.248D+00 0.108D+01 0.284D+00
 Gap=     0.147 Goal=   None    Shift=    0.000
 Gap=     0.147 Goal=   None    Shift=    0.000
 RMSDP=5.47D-05 MaxDP=8.86D-04 DE=-6.92D-05 OVMax= 4.20D-03

 Cycle   7  Pass 0  IDiag  1:
 E= -151.353339179472     Delta-E=       -0.000007987140 Rises=F Damp=F
 DIIS: error= 5.82D-04 at cycle   7 NSaved=   7.
 NSaved= 7 IEnMin= 7 EnMin= -151.353339179472     IErMin= 7 ErrMin= 5.82D-04
 ErrMax= 5.82D-04  0.00D+00 EMaxC= 1.00D+00 BMatC= 3.92D-05 BMatP= 4.60D-05
 IDIUse=1 WtCom= 1.00D+00 WtEn= 0.00D+00
 Coeff-Com:  0.267D-02 0.761D-03-0.118D-01-0.632D-01-0.271D-01 0.491D+00
 Coeff-Com:  0.608D+00
 Coeff:      0.267D-02 0.761D-03-0.118D-01-0.632D-01-0.271D-01 0.491D+00
 Coeff:      0.608D+00
 Gap=     0.147 Goal=   None    Shift=    0.000
 Gap=     0.147 Goal=   None    Shift=    0.000
 RMSDP=5.08D-05 MaxDP=4.51D-04 DE=-7.99D-06 OVMax= 2.95D-03

 Cycle   8  Pass 0  IDiag  1:
 E= -151.353354903620     Delta-E=       -0.000015724148 Rises=F Damp=F
 DIIS: error= 1.87D-04 at cycle   8 NSaved=   8.
 NSaved= 8 IEnMin= 8 EnMin= -151.353354903620     IErMin= 8 ErrMin= 1.87D-04
 ErrMax= 1.87D-04  0.00D+00 EMaxC= 1.00D+00 BMatC= 1.29D-06 BMatP= 3.92D-05
 IDIUse=1 WtCom= 1.00D+00 WtEn= 0.00D+00
 Coeff-Com: -0.200D-02-0.180D-03 0.170D-01 0.423D-01-0.903D-01-0.182D+00
 Coeff-Com: -0.189D+00 0.140D+01
 Coeff:     -0.200D-02-0.180D-03 0.170D-01 0.423D-01-0.903D-01-0.182D+00
 Coeff:     -0.189D+00 0.140D+01
 Gap=     0.147 Goal=   None    Shift=    0.000
 Gap=     0.147 Goal=   None    Shift=    0.000
 RMSDP=4.52D-05 MaxDP=3.93D-04 DE=-1.57D-05 OVMax= 3.55D-03

 Cycle   9  Pass 0  IDiag  1:
 E= -151.353361292420     Delta-E=       -0.000006388800 Rises=F Damp=F
 DIIS: error= 1.57D-04 at cycle   9 NSaved=   9.
 NSaved= 9 IEnMin= 9 EnMin= -151.353361292420     IErMin= 9 ErrMin= 1.57D-04
 ErrMax= 1.57D-04  0.00D+00 EMaxC= 1.00D+00 BMatC= 9.06D-07 BMatP= 1.29D-06
 IDIUse=1 WtCom= 1.00D+00 WtEn= 0.00D+00
 Coeff-Com:  0.425D-02 0.674D-04-0.464D-01-0.854D-01 0.298D+00 0.181D+00
 Coeff-Com:  0.110D+00-0.458D+01 0.511D+01
 Coeff:      0.425D-02 0.674D-04-0.464D-01-0.854D-01 0.298D+00 0.181D+00
 Coeff:      0.110D+00-0.458D+01 0.511D+01
 Gap=     0.147 Goal=   None    Shift=    0.000
 Gap=     0.147 Goal=   None    Shift=    0.000
 RMSDP=1.67D-04 MaxDP=1.50D-03 DE=-6.39D-06 OVMax= 1.34D-02

 Cycle  10  Pass 0  IDiag  1:
 E= -151.353376023657     Delta-E=       -0.000014731237 Rises=F Damp=F
 DIIS: error= 5.21D-05 at cycle  10 NSaved=  10.
 NSaved=10 IEnMin=10 EnMin= -151.353376023657     IErMin=10 ErrMin= 5.21D-05
 ErrMax= 5.21D-05  0.00D+00 EMaxC= 1.00D+00 BMatC= 1.29D-07 BMatP= 9.06D-07
 IDIUse=1 WtCom= 1.00D+00 WtEn= 0.00D+00
 Coeff-Com:  0.138D-03 0.134D-03-0.624D-03-0.464D-02 0.244D-01 0.354D-01
 Coeff-Com:  0.381D-01-0.933D-01-0.498D+00 0.150D+01
 Coeff:      0.138D-03 0.134D-03-0.624D-03-0.464D-02 0.244D-01 0.354D-01
 Coeff:      0.381D-01-0.933D-01-0.498D+00 0.150D+01
 Gap=     0.147 Goal=   None    Shift=    0.000
 Gap=     0.147 Goal=   None    Shift=    0.000
 RMSDP=7.90D-05 MaxDP=7.12D-04 DE=-1.47D-05 OVMax= 6.33D-03

 Cycle  11  Pass 0  IDiag  1:
 E= -151.353377955029     Delta-E=       -0.000001931372 Rises=F Damp=F
 DIIS: error= 5.19D-06 at cycle  11 NSaved=  11.
 NSaved=11 IEnMin=11 EnMin= -151.353377955029     IErMin=11 ErrMin= 5.19D-06
 ErrMax= 5.19D-06  0.00D+00 EMaxC= 1.00D+00 BMatC= 5.63D-09 BMatP= 1.29D-07
 IDIUse=1 WtCom= 1.00D+00 WtEn= 0.00D+00
 Coeff-Com: -0.405D-03 0.165D-04 0.424D-02 0.693D-02-0.271D-01-0.182D-01
[...]
 Coeff-Com: -0.276D+00-0.109D+01 0.193D+01-0.115D+01 0.676D+00 0.578D+00
 Coeff-Com: -0.114D+01 0.289D+00 0.210D+01-0.356D+01 0.263D+01
 Coeff:     -0.276D+00-0.109D+01 0.193D+01-0.115D+01 0.676D+00 0.578D+00
 Coeff:     -0.114D+01 0.289D+00 0.210D+01-0.356D+01 0.263D+01
 Gap=     0.147 Goal=   None    Shift=    0.000
 Gap=     0.147 Goal=   None    Shift=    0.000
 RMSDP=1.45D-07 MaxDP=1.43D-06 DE= 1.11D-11 OVMax= 1.09D-05

 Cycle  21  Pass 1  IDiag  1:
 E= -151.354083125018     Delta-E=        0.000000000009 Rises=F Damp=F
 DIIS: error= 8.68D-09 at cycle  21 NSaved=  12.
 NSaved=12 IEnMin= 3 EnMin= -151.354083126703     IErMin=12 ErrMin= 8.68D-09
 ErrMax= 8.68D-09  0.00D+00 EMaxC= 1.00D-01 BMatC= 1.20D-14 BMatP= 9.54D-13
 IDIUse=1 WtCom= 1.00D+00 WtEn= 0.00D+00
 Coeff-Com:  0.110D+00 0.441D+00-0.781D+00 0.463D+00-0.269D+00-0.249D+00
 Coeff-Com:  0.483D+00-0.164D+00-0.926D+00 0.147D+01-0.102D+01 0.144D+01
 Coeff:      0.110D+00 0.441D+00-0.781D+00 0.463D+00-0.269D+00-0.249D+00
 Coeff:      0.483D+00-0.164D+00-0.926D+00 0.147D+01-0.102D+01 0.144D+01
 Gap=     0.147 Goal=   None    Shift=    0.000
 Gap=     0.147 Goal=   None    Shift=    0.000
 RMSDP=8.26D-09 MaxDP=8.75D-08 DE= 8.98D-12 OVMax= 5.96D-07

 SCF Done:  E(UM062X) =  -151.354083125     A.U. after   21 cycles
            NFock= 21  Conv=0.83D-08     -V/T= 2.0038
 <Sx>= 0.0000 <Sy>= 0.0000 <Sz>= 0.0000 <S**2>= 0.0000 S= 0.0000
 <L.S>=  0.00000000000    
 KE= 1.507821842017D+02 PE=-4.059795148934D+02 EE= 7.998039841585D+01
 Annihilation of the first spin contaminant:
 S**2 before annihilation     0.0000,   after    -0.0000
 Leave Link  502 at Mon Apr 21 21:31:33 2025, MaxMem=   536870912 cpu:             101.8 elap:              13.2
 (Enter /home/szhao/Apps/g16/l701.exe)
 ... and contract with generalized density number  0.
 Compute integral first derivatives.
 Leave Link  701 at Mon Apr 21 21:31:33 2025, MaxMem=   536870912 cpu:               1.4 elap:               0.3
 (Enter /home/szhao/Apps/g16/l702.exe)
 L702 exits ... SP integral derivatives will be done elsewhere.
 Leave Link  702 at Mon Apr 21 21:31:34 2025, MaxMem=   536870912 cpu:               0.4 elap:               0.1
 (Enter /home/szhao/Apps/g16/l703.exe)
 Integral derivatives from FoFJK, PRISM(SPDF).
 Compute integral first derivatives, UseDBF=F ICtDFT=           0.
 Calling FoFJK, ICntrl=      2127 FMM=F ISym2X=0 I1Cent= 0 IOpClX= 1 NMat=1 NMatS=1 NMatT=0.
 FoFJK:  IHMeth= 1 ICntrl=    2127 DoSepK=F KAlg= 0 I1Cent=           0 FoldK=F
 IRaf=         0 NMat=       1 IRICut=       1 DoRegI=T DoRafI=F ISym2E= 0 IDoP0=0 IntGTp=1.
 FoFCou: FMM=F IPFlag=           0 FMFlag=      100000 FMFlg1=         800
         NFxFlg=           0 DoJE=F BraDBF=F KetDBF=F FulRan=T
         wScrn=  0.000000 ICntrl=      2127 IOpCl=  1 I1Cent=           0 NGrid=           0
         NMat0=    1 NMatS0=      1 NMatT0=    0 NMatD0=    1 NMtDS0=    0 NMtDT0=    0
 Symmetry not used in FoFCou.
 Leave Link  703 at Mon Apr 21 21:31:35 2025, MaxMem=   536870912 cpu:               9.0 elap:               1.3
 (Enter /home/szhao/Apps/g16/l716.exe)
 Dipole        =-2.55907751D-07-2.44498522D-04 3.30132079D-04
 -------------------------------------------------------------------
 Center     Atomic                   Forces (Hartrees/Bohr)
 Number     Number              X              Y              Z
 -------------------------------------------------------------------
      1        8          -0.000000000   -0.000000000   -0.000000000
      2        8          -0.000000000   -0.000000000   -0.000000000
      3        1           0.000000150   -0.000002419    0.000001325
      4        1          -0.000000045    0.000002818   -0.000002121
 -------------------------------------------------------------------
 Cartesian Forces:  Max     0.000002818 RMS     0.000001293
 Leave Link  716 at Mon Apr 21 21:31:35 2025, MaxMem=   536870912 cpu:               0.5 elap:               0.1
 (Enter /home/szhao/Apps/g16/l103.exe)

 GradGradGradGradGradGradGradGradGradGradGradGradGradGradGradGradGradGrad
 Berny optimization.
 Using GEDIIS/GDIIS optimizer.
 FormGI is forming the generalized inverse of G from B-inverse, IUseBI=4.
 Internal  Forces:  Max     0.000001164 RMS     0.000000707
 Search for a local minimum.
 Step number   7 out of a maximum of   21
 All quantities printed in internal units (Hartrees-Bohrs-Radians)
 RMS Force = .78059D-06 SwitMx=.10000D-02 MixMth= 2
 Mixed Optimization -- En-DIIS/RFO-DIIS
 Swapping is turned off.
 Update second derivatives using D2CorX and points    4    5    6    7
 DE= -8.02D-08 DEPred=-8.46D-08 R= 9.47D-01
 Trust test= 9.47D-01 RLast= 9.68D-03 DXMaxT set to 1.43D+00
 The second derivative matrix:
                          X1        Y1        Z1        X2        Y2
           X1           0.51079
           Y1          -0.01637   0.58903
           Z1          -0.01469   0.03600   0.52538
           X2          -0.01091   0.01676   0.01499   0.51103
           Y2           0.01772  -0.06646  -0.03389  -0.01809   0.55421
           Z2           0.01100  -0.07000  -0.02613  -0.01128   0.05081
           R1           0.01905  -0.16260  -0.04641  -0.01937   0.10941
           R2           0.01911  -0.16275  -0.04629  -0.01942   0.10938
           A1          -0.01388   0.00666   0.01419   0.01392  -0.01299
           A2          -0.01374   0.00613   0.01432   0.01380  -0.01288
           D1           0.00097  -0.00213  -0.00337  -0.00105   0.00302
                          Z2        R1        R2        A1        A2
           Z2           0.55551
           R1           0.13120   0.61259
           R2           0.13138   0.06674   0.61270
           A1          -0.00240   0.00102   0.00101   0.10189
           A2          -0.00186   0.00126   0.00125  -0.05819   0.10175
           D1           0.00136  -0.00330  -0.00328   0.00002   0.00004
                          D1
           D1           0.00158
 ITU=  0  1  1  1  1  1  0
     Eigenvalues ---    0.00155   0.04362   0.16001   0.54591   0.67943
     Eigenvalues --- 1000.000001000.000001000.000001000.000001000.00000
     Eigenvalues --- 1000.00000
 En-DIIS/RFO-DIIS/Sim-DIIS IScMMF=       -3 using points:     7    6    5
 RFO step:  Lambda=-1.62891587D-11.
 NNeg= 0 NGDIIS= 3 SimSw=  2.50D-01 Rises=F DC= -8.02D-08 SmlDif=  1.00D-05
 NRisDI= 0 DoIntr=F SqrtH=F CThrHd= 10.0 CDAdj=  3.0
 RMS Error=  0.1523563292D-03 NUsed= 3 OKEnD=F EnDIS=F
 InvSVX:  RCond= 4.46D-08 Info=           0 Equed=N FErr=  1.15D-13 BErr=  1.04D-16
 DIIS inversion failure, remove point   3.
 InvSVX:  RCond= 1.05D-04 Info=           0 Equed=N FErr=  9.36D-16 BErr=  6.02D-17
 RFO-DIIS uses    2 points instead of    3
 DidBck=F Rises=F RFO-DIIS coefs:    0.94783    0.05217    0.00000
 Iteration  1 RMS(Cart)=  0.00019502 RMS(Int)=  0.00000002
 Iteration  2 RMS(Cart)=  0.00000002 RMS(Int)=  0.00000000
 ITry= 1 IFail=0 DXMaxC= 3.68D-04 DCOld= 1.00D+10 DXMaxT= 1.43D+00 DXLimC= 3.00D+00 Rises=F
 Variable       Old X    -DE/DX   Delta X   Delta X   Delta X     New X
                                 (Linear)    (Quad)   (Total)
    X1       -2.66818   0.00000   0.00000   0.00000   0.00000  -2.66818
    Y1        0.00000  -0.00000   0.00000   0.00000   0.00000   0.00000
    Z1        0.00000  -0.00000   0.00000   0.00000   0.00000   0.00000
    X2        2.66818  -0.00000   0.00000   0.00000   0.00000   2.66818
    Y2        0.00000   0.00000   0.00000   0.00000   0.00000   0.00000
    Z2        0.00000   0.00000   0.00000   0.00000   0.00000   0.00000
    R1        1.84065   0.00000  -0.00001   0.00001  -0.00000   1.84065
    R2        1.84065   0.00000  -0.00001   0.00001  -0.00000   1.84065
    A1        1.38822   0.00000   0.00001  -0.00000   0.00000   1.38823
    A2        1.38822   0.00000   0.00001  -0.00000   0.00001   1.38823
    D1       -3.14104  -0.00000  -0.00050  -0.00000  -0.00051  -3.14154
         Item               Value     Threshold  Converged?
 Maximum Force            0.000001     0.000450     YES
 RMS     Force            0.000001     0.000300     YES
 Maximum Displacement     0.000368     0.001800     YES
 RMS     Displacement     0.000195     0.001200     YES
 Predicted change in Energy=-2.006305D-10
 Optimization completed.
    -- Stationary point found.
                           ----------------------------
                           !   Optimized Parameters   !
                           ! (Angstroms and Degrees)  !
 --------------------------                            --------------------------
 ! Name  Definition              Value          Derivative Info.                !
 --------------------------------------------------------------------------------
 ! X1    R(1,-1)                -1.4119         -DE/DX =    0.0                 !
 ! Y1    R(1,-2)                 0.0            -DE/DX =    0.0                 !
 ! Z1    R(1,-3)                 0.0            -DE/DX =    0.0                 !
 ! X2    R(2,-1)                 1.4119         -DE/DX =    0.0                 !
 ! Y2    R(2,-2)                 0.0            -DE/DX =    0.0                 !
 ! Z2    R(2,-3)                 0.0            -DE/DX =    0.0                 !
 ! R1    R(1,3)                  0.974          -DE/DX =    0.0                 !
 ! R2    R(2,4)                  0.974          -DE/DX =    0.0                 !
 ! A1    A(2,1,3)               79.5392         -DE/DX =    0.0                 !
 ! A2    A(1,2,4)               79.5392         -DE/DX =    0.0                 !
 ! D1    D(3,1,2,4)           -179.9683         -DE/DX =    0.0                 !
 --------------------------------------------------------------------------------
 Lowest energy point so far.  Saving SCF results.
 Largest change from initial coordinates is atom    3       0.544 Angstoms.
 GradGradGradGradGradGradGradGradGradGradGradGradGradGradGradGradGradGrad

 Leave Link  103 at Mon Apr 21 21:31:36 2025, MaxMem=   536870912 cpu:               0.8 elap:               0.2
 (Enter /home/szhao/Apps/g16/l202.exe)
                          Input orientation:                          
 ---------------------------------------------------------------------
 Center     Atomic      Atomic             Coordinates (Angstroms)
 Number     Number       Type             X           Y           Z
 ---------------------------------------------------------------------
      1          8           0       -1.411938    0.000000    0.000000
      2          8           0        1.411938    0.000000    0.000000
      3          1           0       -1.235091   -0.769837   -0.569919
      4          1           0        1.235090    0.769521    0.570346
 ---------------------------------------------------------------------
                    Distance matrix (angstroms):
                    1          2          3          4
     1  O    0.000000
     2  O    2.823876   0.000000
     3  H    0.974029   2.814999   0.000000
     4  H    2.814998   0.974029   3.125960   0.000000
 Symmetry turned off by external request.
 Stoichiometry    H2O2
 Framework group  C1[X(H2O2)]
 Deg. of freedom     6
 Full point group                 C1      NOp   1
 Rotational constants (GHZ):         286.8357674           7.5501773           7.3565364
 Leave Link  202 at Mon Apr 21 21:31:36 2025, MaxMem=   536870912 cpu:               0.5 elap:               0.1
 (Enter /home/szhao/Apps/g16/l601.exe)
 Copying SCF densities to generalized density rwf, IOpCl= 1 IROHF=0.

 **********************************************************************

            Population analysis using the SCF density.

 **********************************************************************

 Alpha  occ. eigenvalues --  -19.72738 -19.72736  -1.13361  -1.12395  -0.57142
 Alpha  occ. eigenvalues --   -0.56356  -0.44560  -0.43733  -0.38965
 Alpha virt. eigenvalues --   -0.24254   0.05397   0.08618   0.14718   0.15246
 Alpha virt. eigenvalues --    0.17676   0.19146   0.20928   0.21768   0.23997
 Alpha virt. eigenvalues --    0.31911   0.48707   0.52835   0.95361   0.99089
 Alpha virt. eigenvalues --    1.02226   1.02868   1.05687   1.11319   1.26647
 Alpha virt. eigenvalues --    1.30265   1.36642   1.37114   1.39887   1.44927
 Alpha virt. eigenvalues --    2.01472   2.02194   2.43910   2.46475   2.82744
 Alpha virt. eigenvalues --    2.83973   2.84148   2.84766   3.11268   3.12218
 Alpha virt. eigenvalues --    3.14046   3.14267   3.77192   3.82901   4.91319
 Alpha virt. eigenvalues --    4.97852   5.00833   5.05616   5.44338   5.46831
 Alpha virt. eigenvalues --   49.80332  49.81778
  Beta  occ. eigenvalues --  -19.72738 -19.72736  -1.13361  -1.12395  -0.57142
  Beta  occ. eigenvalues --   -0.56356  -0.44560  -0.43733  -0.38965
  Beta virt. eigenvalues --   -0.24254   0.05397   0.08618   0.14718   0.15246
  Beta virt. eigenvalues --    0.17676   0.19146   0.20928   0.21768   0.23997
  Beta virt. eigenvalues --    0.31911   0.48707   0.52835   0.95361   0.99089
  Beta virt. eigenvalues --    1.02226   1.02868   1.05687   1.11319   1.26647
  Beta virt. eigenvalues --    1.30265   1.36642   1.37114   1.39887   1.44927
  Beta virt. eigenvalues --    2.01472   2.02194   2.43910   2.46475   2.82744
  Beta virt. eigenvalues --    2.83973   2.84148   2.84766   3.11268   3.12218
  Beta virt. eigenvalues --    3.14046   3.14267   3.77192   3.82901   4.91319
  Beta virt. eigenvalues --    4.97852   5.00833   5.05616   5.44338   5.46831
  Beta virt. eigenvalues --   49.80332  49.81778
          Condensed to atoms (all electrons):
               1          2          3          4
     1  O    7.921374   0.074700   0.273208   0.000912
     2  O    0.074700   7.921374   0.000912   0.273208
     3  H    0.273208   0.000912   0.456031  -0.000344
     4  H    0.000912   0.273208  -0.000344   0.456031
          Atomic-Atomic Spin Densities.
               1          2          3          4
     1  O   -0.000000  -0.000000   0.000000   0.000000
     2  O   -0.000000   0.000000   0.000000   0.000000
     3  H    0.000000   0.000000  -0.000000   0.000000
     4  H    0.000000   0.000000   0.000000  -0.000000
 Mulliken charges and spin densities:
               1          2
     1  O   -0.270193  -0.000000
     2  O   -0.270193   0.000000
     3  H    0.270193  -0.000000
     4  H    0.270193   0.000000
 Sum of Mulliken charges =   0.00000   0.00000
 Mulliken charges and spin densities with hydrogens summed into heavy atoms:
               1          2
     1  O   -0.000000  -0.000000
     2  O    0.000000   0.000000
 Electronic spatial extent (au):  <R**2>=            157.3041
 Charge=              0.0000 electrons
 Dipole moment (field-independent basis, Debye):
    X=             -0.0000    Y=             -0.0006    Z=              0.0008  Tot=              0.0010
 Quadrupole moment (field-independent basis, Debye-Ang):
   XX=            -12.5451   YY=            -10.4367   ZZ=            -11.9217
   XY=              3.9378   XZ=              2.9169   YZ=              2.4373
 Traceless Quadrupole moment (field-independent basis, Debye-Ang):
   XX=             -0.9106   YY=              1.1978   ZZ=             -0.2872
   XY=              3.9378   XZ=              2.9169   YZ=              2.4373
 Octapole moment (field-independent basis, Debye-Ang**2):
  XXX=             -0.0000  YYY=             -0.0008  ZZZ=              0.0004  XYY=             -0.0017
  XXY=             -0.0010  XXZ=              0.0013  XZZ=              0.0017  YZZ=              0.0007
  YYZ=             -0.0002  XYZ=              0.0005
 Hexadecapole moment (field-independent basis, Debye-Ang**3):
 XXXX=           -147.9141 YYYY=            -11.8066 ZZZZ=            -12.4020 XXXY=              4.4901
 XXXZ=              3.3259 YYYX=              0.2995 YYYZ=              0.7863 ZZZX=             -0.5291
 ZZZY=              0.1909 XXYY=            -24.9287 XXZZ=            -27.2700 YYZZ=             -3.4437
 XXYZ=              3.8430 YYXZ=              1.1832 ZZXY=              0.5836
 N-N= 2.386284915082D+01 E-N=-4.059795148799D+02  KE= 1.507821842017D+02
                          Isotropic Fermi Contact Couplings
        Atom                 a.u.       MegaHertz       Gauss      10(-4) cm-1
     1  O(17)              0.00000      -0.00000      -0.00000      -0.00000
     2  O(17)              0.00000      -0.00000      -0.00000      -0.00000
     3  H(1)              -0.00000      -0.00000      -0.00000      -0.00000
     4  H(1)              -0.00000      -0.00000      -0.00000      -0.00000
 --------------------------------------------------------
       Center         ----  Spin Dipole Couplings  ----
                      3XX-RR        3YY-RR        3ZZ-RR
 --------------------------------------------------------
     1   Atom       -0.000000     -0.000000      0.000000
     2   Atom       -0.000000     -0.000000      0.000000
     3   Atom        0.000000     -0.000000      0.000000
     4   Atom        0.000000     -0.000000      0.000000
 --------------------------------------------------------
                        XY            XZ            YZ
 --------------------------------------------------------
     1   Atom       -0.000000      0.000000      0.000000
     2   Atom       -0.000000      0.000000      0.000000
     3   Atom       -0.000000      0.000000     -0.000000
     4   Atom       -0.000000      0.000000     -0.000000
 --------------------------------------------------------


 ---------------------------------------------------------------------------------
              Anisotropic Spin Dipole Couplings in Principal Axis System
 ---------------------------------------------------------------------------------

       Atom             a.u.   MegaHertz   Gauss  10(-4) cm-1        Axes

              Baa    -0.0000     0.000     0.000     0.000  0.7268  0.3853 -0.5685
     1 O(17)  Bbb     0.0000    -0.000    -0.000    -0.000 -0.1587  0.8996  0.4069
              Bcc     0.0000    -0.000    -0.000    -0.000  0.6682 -0.2055  0.7150
 
              Baa    -0.0000     0.000     0.000     0.000  0.7215  0.3373 -0.6048
     2 O(17)  Bbb    -0.0000     0.000     0.000     0.000 -0.1577  0.9305  0.3307
              Bcc     0.0000    -0.000    -0.000    -0.000  0.6742 -0.1432  0.7245
 
              Baa    -0.0000    -0.000    -0.000    -0.000  0.5644  0.8076 -0.1710
     3 H(1)   Bbb    -0.0000    -0.000    -0.000    -0.000 -0.4088  0.4535  0.7920
              Bcc     0.0000     0.000     0.000     0.000  0.7171 -0.3771  0.5861
 
              Baa    -0.0000    -0.000    -0.000    -0.000  0.5697  0.8033 -0.1737
     4 H(1)   Bbb     0.0000     0.000     0.000     0.000 -0.2880  0.3931  0.8732
              Bcc     0.0000     0.000     0.000     0.000  0.7697 -0.4475  0.4553
 

 ---------------------------------------------------------------------------------

 No NMR shielding tensors so no spin-rotation constants.
 Leave Link  601 at Mon Apr 21 21:31:37 2025, MaxMem=   536870912 cpu:               2.3 elap:               0.4
 (Enter /home/szhao/Apps/g16/l9999.exe)
 1\1\GINC-NODE03\FOpt\UM062X\6-311+G(d,p)\H2O2\SZHAO\21-Apr-2025\0\\#p 
 opt UM062X/6-311+G** nosymm int=superfine\\Title Card Required\\0,1\O,
 -1.4119378,0.,0.\O,1.4119378,0.,0.\H,-1.2350912063,-0.7698369034,-0.56
 99194441\H,1.2350904525,0.7695212503,0.5703456428\\Version=ES64L-G16Re
 vA.03\HF=-151.3540831\S2=0.\S2-1=0.\S2A=0.\RMSD=8.257e-09\RMSF=1.293e-
 06\Dipole=-0.0000003,-0.0002445,0.0003301\Quadrupole=-0.6770193,0.8905
 182,-0.2134989,2.9276706,2.1686378,1.8120504\PG=C01 [X(H2O2)]\\@


 MY DESCRIPTION OF EXPERIENCE IS NOT WHAT HAPPENS
 TO A MAN.  EXPERIENCE IS WHAT A MAN DOES WITH WHAT
 HAPPENS TO HIM.
                         - CHUCK KNOX, SEATTLE SEAHAWKS, 1985
 Job cpu time:       0 days  0 hours 10 minutes 58.1 seconds.
 Elapsed time:       0 days  0 hours  1 minutes 31.5 seconds.
 File lengths (MBytes):  RWF=     17 Int=      0 D2E=      0 Chk=      2 Scr=      2
 Normal termination of Gaussian 16 at Mon Apr 21 21:31:37 2025.
