Title Card Required                                                     
FOpt      UM062X                                                      6-311+G(d,p)        
Number of atoms                            I                4
Info1-9                                    I   N=           9
          13          13           0           0           0         110
           2          18        -502
Full Title                                 C   N=           2
Title Card Required     
Route                                      C   N=           4
#p opt UM062X/6-311+G** nosymm int=superfine    
Charge                                     I                0
Multiplicity                               I                1
Number of electrons                        I               14
Number of alpha electrons                  I                7
Number of beta electrons                   I                7
Number of basis functions                  I               56
Number of independent functions            I               56
Number of point charges in /Mol/           I                0
Number of translation vectors              I                0
Atomic numbers                             I   N=           4
           6           6           1           1
Nuclear charges                            R   N=           4
  6.00000000E+00  6.00000000E+00  1.00000000E+00  1.00000000E+00
Current cartesian coordinates              R   N=          12
 -3.98283402E+00  0.00000000E+00  0.00000000E+00  3.98283402E+00  0.00000000E+00
  0.00000000E+00 -3.61037747E+00 -1.22855989E+00  1.67991244E+00  3.61063169E+00
  1.22961200E+00 -1.67919931E+00
Number of symbols in /Mol/                 I                0
Force Field                                I                0
Atom Types                                 C   N=           4
                                                
Int Atom Types                             I   N=           4
           0           0           0           0
MM charges                                 R   N=           4
  0.00000000E+00  0.00000000E+00  0.00000000E+00  0.00000000E+00
Integer atomic weights                     I   N=           4
          12          12           1           1
Real atomic weights                        R   N=           4
  1.20000000E+01  1.20000000E+01  1.00782504E+00  1.00782504E+00
Atom fragment info                         I   N=           4
           0           0           0           0
Atom residue num                           I   N=           4
           0           0           0           0
Nuclear spins                              I   N=           4
           0           0           1           1
Nuclear ZEff                               R   N=           4
 -3.60000000E+00 -3.60000000E+00 -1.00000000E+00 -1.00000000E+00
Nuclear ZNuc                               R   N=           4
  6.00000000E+00  6.00000000E+00  1.00000000E+00  1.00000000E+00
Nuclear QMom                               R   N=           4
  0.00000000E+00  0.00000000E+00  0.00000000E+00  0.00000000E+00
Nuclear GFac                               R   N=           4
  0.00000000E+00  0.00000000E+00  2.79284600E+00  2.79284600E+00
MicOpt                                     I   N=           4
          -2          -2          -1          -1
Number of residues                         I                0
Number of secondary structures             I                0
Redundant internal dimensions              I   N=           4
          11           8           2           1
Redundant internal coordinate indices      I   N=          44
           1          -1           0           0           1          -2
           0           0           1          -3           0           0
           2          -1           0           0           2          -2
           0           0           2          -3           0           0
           1           3           0           0           2           4
           0           0           2           1           3           0
           1           2           4           0           3           1
           2           4
Redundant internal coordinates             R   N=          11
 -3.98283402E+00  0.00000000E+00  0.00000000E+00  3.98283402E+00  0.00000000E+00
  0.00000000E+00  2.11428217E+00  2.11428252E+00  1.39371004E+00  1.39383222E+00
 -3.14098235E+00
ZRed-IntVec                                I   N=          11
          -1          -1          -1          -1          -1          -1
           0           0           0           0           0
ZRed-FPVec                                 R   N=          11
  0.00000000E+00  0.00000000E+00  0.00000000E+00  0.00000000E+00  0.00000000E+00
  0.00000000E+00  0.00000000E+00  0.00000000E+00  0.00000000E+00  0.00000000E+00
  0.00000000E+00
ZRed-Constraint1                           R   N=          11
 -3.98283402E+00  0.00000000E+00  0.00000000E+00  3.98283402E+00  0.00000000E+00
  0.00000000E+00  2.11079913E+00  2.11070705E+00  1.67217611E+00  1.67276462E+00
 -1.65242814E+00
ZRed-Constraint2                           R   N=          11
 -3.98283402E+00  0.00000000E+00  0.00000000E+00  3.98283402E+00  0.00000000E+00
  0.00000000E+00  0.00000000E+00  0.00000000E+00  0.00000000E+00  0.00000000E+00
  0.00000000E+00
Number of contracted shells                I               20
Number of primitive shells                 I               38
Pure/Cartesian d shells                    I                0
Pure/Cartesian f shells                    I                0
Highest angular momentum                   I                2
Largest degree of contraction              I                6
Shell types                                I   N=          20
           0          -1          -1          -1          -1          -2
           0          -1          -1          -1          -1          -2
           0           0           0           1           0           0
           0           1
Number of primitives per shell             I   N=          20
           6           3           1           1           1           1
           6           3           1           1           1           1
           3           1           1           1           3           1
           1           1
Shell to atom map                          I   N=          20
           1           1           1           1           1           1
           2           2           2           2           2           2
           3           3           3           3           4           4
           4           4
Primitive exponents                        R   N=          38
  4.56324000E+03  6.82024000E+02  1.54973000E+02  4.44553000E+01  1.30290000E+01
  1.82773000E+00  2.09642000E+01  4.80331000E+00  1.45933000E+00  4.83456000E-01
  1.45585000E-01  4.38000000E-02  6.26000000E-01  4.56324000E+03  6.82024000E+02
  1.54973000E+02  4.44553000E+01  1.30290000E+01  1.82773000E+00  2.09642000E+01
  4.80331000E+00  1.45933000E+00  4.83456000E-01  1.45585000E-01  4.38000000E-02
  6.26000000E-01  3.38650000E+01  5.09479000E+00  1.15879000E+00  3.25840000E-01
  1.02741000E-01  7.50000000E-01  3.38650000E+01  5.09479000E+00  1.15879000E+00
  3.25840000E-01  1.02741000E-01  7.50000000E-01
Contraction coefficients                   R   N=          38
  1.96665025E-03  1.52306019E-02  7.61269097E-02  2.60801033E-01  6.16462078E-01
  2.21006028E-01  1.14660081E-01  9.19999648E-01 -3.03068213E-03  1.00000000E+00
  1.00000000E+00  1.00000000E+00  1.00000000E+00  1.96665025E-03  1.52306019E-02
  7.61269097E-02  2.60801033E-01  6.16462078E-01  2.21006028E-01  1.14660081E-01
  9.19999648E-01 -3.03068213E-03  1.00000000E+00  1.00000000E+00  1.00000000E+00
  1.00000000E+00  2.54938145E-02  1.90373109E-01  8.52161486E-01  1.00000000E+00
  1.00000000E+00  1.00000000E+00  2.54938145E-02  1.90373109E-01  8.52161486E-01
  1.00000000E+00  1.00000000E+00  1.00000000E+00
P(S=P) Contraction coefficients            R   N=          38
  0.00000000E+00  0.00000000E+00  0.00000000E+00  0.00000000E+00  0.00000000E+00
  0.00000000E+00  4.02486927E-02  2.37593957E-01  8.15853851E-01  1.00000000E+00
  1.00000000E+00  1.00000000E+00  0.00000000E+00  0.00000000E+00  0.00000000E+00
  0.00000000E+00  0.00000000E+00  0.00000000E+00  0.00000000E+00  4.02486927E-02
  2.37593957E-01  8.15853851E-01  1.00000000E+00  1.00000000E+00  1.00000000E+00
  0.00000000E+00  0.00000000E+00  0.00000000E+00  0.00000000E+00  0.00000000E+00
  0.00000000E+00  0.00000000E+00  0.00000000E+00  0.00000000E+00  0.00000000E+00
  0.00000000E+00  0.00000000E+00  0.00000000E+00
Coordinates of each shell                  R   N=          60
 -3.98283402E+00  0.00000000E+00  0.00000000E+00 -3.98283402E+00  0.00000000E+00
  0.00000000E+00 -3.98283402E+00  0.00000000E+00  0.00000000E+00 -3.98283402E+00
  0.00000000E+00  0.00000000E+00 -3.98283402E+00  0.00000000E+00  0.00000000E+00
 -3.98283402E+00  0.00000000E+00  0.00000000E+00  3.98283402E+00  0.00000000E+00
  0.00000000E+00  3.98283402E+00  0.00000000E+00  0.00000000E+00  3.98283402E+00
  0.00000000E+00  0.00000000E+00  3.98283402E+00  0.00000000E+00  0.00000000E+00
  3.98283402E+00  0.00000000E+00  0.00000000E+00  3.98283402E+00  0.00000000E+00
  0.00000000E+00 -3.61037747E+00 -1.22855989E+00  1.67991244E+00 -3.61037747E+00
 -1.22855989E+00  1.67991244E+00 -3.61037747E+00 -1.22855989E+00  1.67991244E+00
 -3.61037747E+00 -1.22855989E+00  1.67991244E+00  3.61063169E+00  1.22961200E+00
 -1.67919931E+00  3.61063169E+00  1.22961200E+00 -1.67919931E+00  3.61063169E+00
  1.22961200E+00 -1.67919931E+00  3.61063169E+00  1.22961200E+00 -1.67919931E+00
Num ILSW                                   I              100
ILSW                                       I   N=         100
           1           0           0           1           2           0
           0           0           0           0        4336          -1
           7           0           0           0           2           0
           0           0           0           0           1           0
           1           1           0           0           0           0
           0           0      100000           0          -1           0
           0           0           0           0           0           0
           0           0           0           1           0           0
           0 -2000000000           1           0           0           0
           0           0           4          52           0           0
           0           0          55           0           0           0
           0           0           0           4           0           1
           0           0           0           0           0           0
           0           0           0           0           0           0
           0           0           0           0           0           0
           0           0           0           0           0           0
           0           0           0           0
Num RLSW                                   I               52
RLSW                                       R   N=          52
  1.00000000E+00  1.00000000E+00  1.00000000E+00  1.00000000E+00  5.40000000E-01
  0.00000000E+00  0.00000000E+00  1.00000000E+00  0.00000000E+00  0.00000000E+00
  0.00000000E+00  0.00000000E+00  1.00000000E+00  0.00000000E+00  0.00000000E+00
  0.00000000E+00  0.00000000E+00  1.00000000E+00  0.00000000E+00  0.00000000E+00
  0.00000000E+00  0.00000000E+00  1.00000000E+00  0.00000000E+00  0.00000000E+00
  0.00000000E+00  0.00000000E+00  1.00000000E+00  0.00000000E+00  0.00000000E+00
  0.00000000E+00  0.00000000E+00  1.00000000E+00  0.00000000E+00  0.00000000E+00
  0.00000000E+00  0.00000000E+00  0.00000000E+00  1.00000000E+00  1.00000000E+00
  0.00000000E+00  1.00000000E+00  0.00000000E+00  0.00000000E+00  0.00000000E+00
  0.00000000E+00  0.00000000E+00  0.00000000E+00  0.00000000E+00  0.00000000E+00
  0.00000000E+00  0.00000000E+00
MxBond                                     I                2
NBond                                      I   N=           4
           2           2           1           1
IBond                                      I   N=           8
           2           3           1           4           1           0
           2           0
RBond                                      R   N=           8
  1.00000000E-01  1.00000000E+00  1.00000000E-01  1.00000000E+00  1.00000000E+00
  0.00000000E+00  1.00000000E+00  0.00000000E+00
Virial Ratio                               R      2.004462100262266E+00
SCF Energy                                 R     -7.685706254573240E+01
Total Energy                               R     -7.685706254573240E+01
S**2                                       R      5.403339997656076E-10
S**2 after annihilation                    R     -7.993605779460764E-14
RMS Force                                  R      9.116635663862153E-07
RMS Density                                R      2.443643589741927E-09
Job Status                                 I                1
Nuclear derivative order                   I                1
External E-field                           R   N=          35
  0.00000000E+00  0.00000000E+00  0.00000000E+00  0.00000000E+00  0.00000000E+00
  0.00000000E+00  0.00000000E+00  0.00000000E+00  0.00000000E+00  0.00000000E+00
  0.00000000E+00  0.00000000E+00  0.00000000E+00  0.00000000E+00  0.00000000E+00
  0.00000000E+00  0.00000000E+00  0.00000000E+00  0.00000000E+00  0.00000000E+00
  0.00000000E+00  0.00000000E+00  0.00000000E+00  0.00000000E+00  0.00000000E+00
  0.00000000E+00  0.00000000E+00  0.00000000E+00  0.00000000E+00  0.00000000E+00
  0.00000000E+00  0.00000000E+00  0.00000000E+00  0.00000000E+00  0.00000000E+00
IOpCl                                      I                1
IROHF                                      I                0
Alpha Orbital Energies                     R   N=          56
 -1.06761902E+01 -1.06761803E+01 -7.30060005E-01 -7.27482141E-01 -3.91784712E-01
 -3.90772346E-01 -2.28037075E-01 -1.39792749E-01 -1.03054338E-01 -9.83729438E-02
  3.08457934E-02  4.39490760E-02  7.20148859E-02  7.23133799E-02  9.11604734E-02
  9.52048102E-02  1.05107661E-01  1.36997024E-01  1.79877629E-01  1.90169371E-01
  4.53524915E-01  4.59531979E-01  5.67307127E-01  5.69407240E-01  5.75183220E-01
  6.01514358E-01  6.17921664E-01  6.28167301E-01  6.78485159E-01  6.95220570E-01
  1.12385728E+00  1.12438541E+00  1.13506529E+00  1.13765727E+00  1.32927136E+00
  1.33002889E+00  1.34187819E+00  1.35172663E+00  1.57802479E+00  1.58172385E+00
  1.84727439E+00  1.84822932E+00  1.85295968E+00  1.86510221E+00  2.38608539E+00
  2.39895049E+00  2.48012641E+00  2.50064625E+00  2.69650812E+00  2.69702090E+00
  2.70443304E+00  2.73385625E+00  3.16851322E+00  3.17537334E+00  2.35029004E+01
  2.35043866E+01
Beta Orbital Energies                      R   N=          56
 -1.06761902E+01 -1.06761803E+01 -7.30060005E-01 -7.27482141E-01 -3.91784712E-01
 -3.90772346E-01 -2.28037075E-01 -1.39792749E-01 -1.03054338E-01 -9.83729438E-02
  3.08457933E-02  4.39490761E-02  7.20148859E-02  7.23133799E-02  9.11604733E-02
  9.52048102E-02  1.05107661E-01  1.36997024E-01  1.79877629E-01  1.90169371E-01
  4.53524915E-01  4.59531979E-01  5.67307127E-01  5.69407240E-01  5.75183220E-01
  6.01514358E-01  6.17921664E-01  6.28167301E-01  6.78485159E-01  6.95220570E-01
  1.12385728E+00  1.12438541E+00  1.13506529E+00  1.13765727E+00  1.32927136E+00
  1.33002889E+00  1.34187819E+00  1.35172663E+00  1.57802479E+00  1.58172385E+00
  1.84727439E+00  1.84822932E+00  1.85295968E+00  1.86510221E+00  2.38608539E+00
  2.39895049E+00  2.48012641E+00  2.50064625E+00  2.69650812E+00  2.69702090E+00
  2.70443304E+00  2.73385625E+00  3.16851322E+00  3.17537334E+00  2.35029004E+01
  2.35043866E+01
Alpha MO coefficients                      R   N=        3136
  4.15409904E-01  3.42232167E-01  4.29112084E-04 -7.33916819E-04  1.00361549E-03
  6.94694938E-03  1.11651700E-04 -6.04421891E-04  8.26417358E-04 -2.87120061E-03
  3.61662911E-05 -3.98115579E-05  5.44622587E-05  3.35457168E-04 -7.62447633E-05
  2.83819956E-04 -3.88078504E-04  3.68476340E-04  1.97841255E-04 -6.17999081E-04
 -2.45159853E-04 -1.44643185E-04  3.81511076E-01  3.14304997E-01 -3.94902598E-04
  6.74419992E-04 -9.21117198E-04  6.37805335E-03 -1.03662885E-04  5.56231941E-04
 -7.59526908E-04 -2.62465944E-03 -3.63846924E-05  3.68471056E-05 -5.03619613E-05
  2.84028247E-04  8.62579772E-05 -2.63740531E-04  3.60212792E-04  3.38445598E-04
  1.81761712E-04 -5.68523732E-04 -2.26141399E-04 -1.33063088E-04  2.40937173E-04
 -2.04275717E-03  1.56886026E-03  2.52813744E-04 -8.32971670E-04  1.13900064E-03
  2.21626915E-04 -1.87986929E-03  1.44456043E-03 -2.31681573E-04  7.66577513E-04
 -1.04687052E-03 -3.81511553E-01 -3.14303948E-01 -3.83110708E-04  6.76130362E-04
 -9.24593812E-04 -6.40362605E-03 -8.79143277E-05  5.47420063E-04 -7.48470970E-04
  2.78116512E-03  4.21734209E-06  3.34223238E-05 -4.57304468E-05 -5.91280524E-04
 -1.21683002E-04 -2.26665118E-04  3.09970520E-04 -3.31229800E-04 -1.78498937E-04
  5.59180615E-04  2.18057670E-04  1.30502977E-04  4.15410343E-01  3.42231202E-01
 -4.18031502E-04  7.36638449E-04 -1.00609057E-03  6.97043303E-03 -9.69478018E-05
  5.97281841E-04 -8.15583084E-04 -3.01493213E-03  1.13334034E-06  3.67276355E-05
 -5.01884842E-05  6.17631690E-04 -1.14824051E-04 -2.50195130E-04  3.41663659E-04
  3.60714651E-04  1.94437006E-04 -6.09909550E-04 -2.38502012E-04 -1.42339962E-04
 -2.17106982E-04  1.83099510E-03 -1.39707547E-03 -2.36258191E-04  7.54100565E-04
 -1.03114964E-03  2.36786962E-04 -1.99787182E-03  1.52525192E-03 -2.56702080E-04
  8.22817230E-04 -1.12367712E-03 -7.69188206E-02 -1.24466785E-01  1.05382823E-02
 -3.14209746E-02  4.29645008E-02  3.55016089E-01  1.60258111E-02 -4.74231656E-02
  6.48458078E-02  2.46239381E-01  7.28641206E-03 -1.86482652E-02  2.55005402E-02
 -4.74357314E-04  4.45346454E-04 -2.43028564E-04  3.32498991E-04  5.34661731E-03
  2.90684534E-03 -6.69136812E-03 -5.00437705E-03 -2.12592179E-03 -7.69072634E-02
 -1.24448074E-01 -1.05307846E-02  3.14432633E-02 -4.29396235E-02  3.54962466E-01
 -1.60144771E-02  4.74568508E-02 -6.48083422E-02  2.46202688E-01 -7.28272023E-03
  1.86622409E-02 -2.54854274E-02 -4.73248423E-04 -4.45805778E-04  2.43485264E-04
 -3.32109852E-04  5.33917353E-03  2.90300570E-03 -6.69343848E-03 -5.00826435E-03
 -2.12633426E-03  1.01951414E-01  1.27893538E-01  1.50423267E-02 -3.04489303E-03
  9.15254982E-03 -1.25148249E-02  1.01936134E-01  1.27874183E-01  1.50400093E-02
  3.04247110E-03 -9.15887094E-03  1.25077088E-02  7.70397373E-02  1.24694391E-01
 -7.71936728E-03  3.20917276E-02 -4.38812505E-02 -3.56293953E-01 -1.16921123E-02
  4.84443256E-02 -6.62414486E-02 -2.45660320E-01 -1.51742650E-03  1.87837158E-02
 -2.56852038E-02  5.51220757E-03  2.87255550E-03  3.11653138E-04 -4.26045409E-04
 -5.74135943E-03 -2.76502692E-03  6.68750236E-03  5.69060637E-03  2.02224334E-03
 -7.70511511E-02 -1.24712852E-01 -7.71445227E-03  3.21239195E-02 -4.38687815E-02
  3.56346457E-01 -1.16846953E-02  4.84928950E-02 -6.62226928E-02  2.45696778E-01
 -1.51492752E-03  1.88030506E-02 -2.56770023E-02 -5.51218851E-03  2.87255376E-03
  3.11924008E-04 -4.26080257E-04  5.73554582E-03  2.76202239E-03 -6.69152611E-03
 -5.69606412E-03 -2.02310901E-03 -1.02587584E-01 -1.29847622E-01 -1.63483812E-02
  3.36246981E-03 -9.18842134E-03  1.25639146E-02  1.02602917E-01  1.29867220E-01
  1.63508981E-02  3.36092689E-03 -9.19757867E-03  1.25605995E-02 -4.28118648E-02
 -7.07043509E-02 -3.02957969E-02  8.95329377E-02 -1.22425639E-01  2.09117119E-01
 -4.35291418E-02  1.28997823E-01 -1.76388905E-01  2.92088165E-01 -3.17474273E-02
  8.55828810E-02 -1.17023598E-01  4.22007262E-02 -1.59419733E-03  5.83327564E-03
 -7.97503544E-03 -1.00787796E-02 -6.25898410E-03  2.11476415E-02  4.00552318E-03
  4.57686783E-03  4.27930299E-02  7.06732476E-02 -3.02655407E-02  8.95689782E-02
 -1.22319443E-01 -2.09025232E-01 -4.34854484E-02  1.29049636E-01 -1.76235876E-01
 -2.91958504E-01 -3.17185644E-02  8.56171238E-02 -1.16923404E-01 -4.21818869E-02
 -1.59315876E-03  5.83528544E-03 -7.97050938E-03  1.00528946E-02  6.25041335E-03
 -2.11473270E-02 -4.01773164E-03 -4.57585096E-03 -9.44786947E-02 -1.71548638E-01
 -1.10479025E-01  1.28964885E-03 -4.16641463E-03  5.69682335E-03  9.44364946E-02
  1.71471768E-01  1.10428736E-01  1.28793215E-03 -4.16789779E-03  5.69187907E-03
 -4.22687881E-02 -6.97938645E-02 -2.57354144E-02  9.07032107E-02 -1.24025979E-01
  2.05846261E-01 -3.72408219E-02  1.30593635E-01 -1.78571217E-01  2.91915405E-01
 -2.30337876E-02  8.61948019E-02 -1.17860631E-01  4.23596667E-02  1.97826769E-05
  4.65255309E-03 -6.36295203E-03 -1.03195497E-02 -5.68974531E-03  2.11252656E-02
  4.43685487E-03  4.16031449E-03 -4.22879307E-02 -6.98254742E-02  2.57308723E-02
 -9.08202157E-02  1.24026794E-01  2.05939654E-01  3.72342371E-02 -1.30762035E-01
  1.78572321E-01  2.92046359E-01  2.30312524E-02 -8.63057235E-02  1.17861524E-01
  4.23790427E-02 -1.99930361E-05 -4.65993658E-03  6.36286783E-03 -1.03025114E-02
 -5.68644227E-03  2.11435913E-02  4.45256735E-03  4.16317205E-03 -9.55136040E-02
 -1.75319775E-01 -1.11604740E-01  2.03632589E-03 -4.37586795E-03  5.98321215E-03
 -9.55552794E-02 -1.75395726E-01 -1.11655428E-01 -2.03577737E-03  4.38128528E-03
 -5.98341956E-03 -3.24044792E-03 -5.52393245E-03 -1.79226053E-01 -1.83351667E-02
  2.50418624E-02  1.96489843E-02 -2.72989253E-01 -2.85519280E-02  3.89966212E-02
  1.55733310E-02 -3.05237749E-01 -2.52305547E-02  3.44556996E-02 -1.93962668E-02
 -8.71922899E-02 -1.06044943E-02  1.44815606E-02  4.15275091E-03 -1.18142571E-02
 -1.55090868E-03 -6.20988265E-03  8.63941600E-03 -3.24066519E-03 -5.52428559E-03
  1.79230668E-01  1.83351209E-02 -2.50133030E-02  1.96498317E-02  2.72996242E-01
  2.85518748E-02 -3.89535728E-02  1.55761801E-02  3.05243941E-01  2.52272558E-02
 -3.44088257E-02 -1.94083563E-02  8.72024926E-02  1.05984640E-02 -1.44711175E-02
  4.14925029E-03 -1.18101501E-02 -1.54961470E-03 -6.20842524E-03  8.64768409E-03
  1.02828616E-03  8.11295264E-03  4.88893733E-03 -1.70412329E-02 -9.67800193E-04
  1.32084609E-03  1.02778706E-03  8.11144536E-03  4.89523137E-03  1.70411702E-02
  9.67281939E-04 -1.31881086E-03 -3.89477512E-03 -6.51377250E-03  1.90029495E-01
  2.06573423E-02 -2.81982021E-02  2.27829621E-02  2.91954895E-01  3.11198763E-02
 -4.24799722E-02  1.42238507E-02  3.15700411E-01  3.94313906E-02 -5.38353704E-02
 -8.59391358E-03  1.06710633E-01  1.19538211E-02 -1.63253760E-02 -2.44708530E-03
  1.23523170E-02  3.39909437E-03  2.08198765E-03 -9.03283278E-03  3.89488431E-03
  6.51393118E-03  1.90032658E-01  2.06563509E-02 -2.81716343E-02 -2.27831120E-02
  2.91959341E-01  3.11187690E-02 -4.24390176E-02 -1.42261533E-02  3.15707118E-01
  3.94297555E-02 -5.37898090E-02  8.59257428E-03  1.06713190E-01  1.19594441E-02
 -1.63053804E-02  2.44202800E-03 -1.23475580E-02 -3.39871017E-03 -2.08146923E-03
  9.04139989E-03  1.61206915E-03  5.68685553E-03  5.56421879E-03  1.69745650E-02
  2.39918752E-03 -3.27642266E-03 -1.61102083E-03 -5.68593799E-03 -5.56124780E-03
  1.69753930E-02  2.39958615E-03 -3.27355280E-03  6.61190634E-07  1.17858811E-06
 -2.58496873E-05  1.38961006E-01  1.01628877E-01 -4.49765971E-06 -4.08855770E-05
  2.19268193E-01  1.60360702E-01 -2.49043782E-06 -4.56065710E-05  2.41948952E-01
  1.76953533E-01  1.16335945E-05 -1.87629651E-05  1.16175115E-01  8.49717010E-02
  1.16247610E-02  1.86684059E-03  4.26897059E-03  6.71108498E-03  2.55534878E-03
 -3.80255563E-07 -7.01032823E-07 -2.23739790E-05  1.38885743E-01  1.01707464E-01
  2.60528322E-06 -3.54979149E-05  2.19149122E-01  1.60485199E-01  1.72032449E-06
 -3.98022337E-05  2.41820319E-01  1.77086774E-01  7.53486720E-06 -2.01594898E-05
  1.16119970E-01  8.50304746E-02 -1.16288547E-02 -1.86722236E-03 -4.25163530E-03
 -6.71333162E-03 -2.55287679E-03 -1.31703961E-06 -1.32470257E-06 -7.61302787E-06
 -2.08513914E-06  1.34508960E-02  9.83784219E-03 -8.97457320E-07 -1.01844239E-07
 -6.10174662E-06 -2.49106197E-06  1.34440275E-02  9.84494144E-03  3.12834808E-07
  5.85477064E-07 -1.59485428E-05  1.43117031E-01  1.04670745E-01 -2.27601709E-06
 -2.56828977E-05  2.25945002E-01  1.65248118E-01 -1.03886156E-06 -2.89978566E-05
  2.49702569E-01  1.82624332E-01  4.55994315E-06 -1.35411393E-05  1.18885391E-01
  8.69480967E-02  1.19794299E-02  1.31461159E-03  4.39865641E-03  6.91541042E-03
  1.79958442E-03 -6.20864726E-07 -9.73109815E-07  9.60883441E-06 -1.43066947E-01
 -1.04762000E-01  2.96125202E-06  1.59017799E-05 -2.25865543E-01 -1.65392365E-01
  4.45177425E-06  1.88219730E-05 -2.49616077E-01 -1.82783178E-01 -2.96050711E-06
  1.00285156E-05 -1.18842272E-01 -8.70271375E-02  1.19848390E-02  1.31559574E-03
  4.38281143E-03  6.91917595E-03  1.79715958E-03  1.01884896E-06  8.14734211E-07
 -7.28091603E-07 -2.09593040E-06  1.36426970E-02  9.97750471E-03 -6.51777321E-07
 -2.23467009E-08  4.09564703E-07  7.25988269E-07 -1.36378299E-02 -9.98657119E-03
  2.59934875E-02  4.25216903E-02 -1.39182518E-02  1.33678148E-02 -1.83014243E-02
 -1.07797585E-01 -3.15160217E-02  3.82851499E-02 -5.23780408E-02 -4.94405894E-01
 -4.91681604E-03  2.67923394E-02 -3.67063662E-02  1.02649158E+00 -6.18602087E-02
 -2.34639317E-01  3.20929241E-01 -7.28430209E-03 -5.00788420E-03  1.01866283E-02
  6.13520375E-03  3.66312442E-03  2.59947083E-02  4.25236634E-02  1.39152725E-02
 -1.34005789E-02  1.82803938E-02 -1.07802110E-01  3.15080303E-02 -3.83459904E-02
  5.23417743E-02 -4.94431022E-01  4.91156114E-03 -2.68790803E-02  3.66449772E-02
  1.02653038E+00  6.19112689E-02  2.34918621E-01 -3.20738562E-01 -7.27287068E-03
 -5.00384225E-03  1.01921204E-02  6.14342930E-03  3.66373138E-03 -1.28252121E-02
  1.04083485E-01 -2.93642683E-01 -1.29279785E-03  6.13661465E-05 -8.42403183E-05
 -1.28252049E-02  1.04088357E-01 -2.93651522E-01  1.29294656E-03 -6.17833612E-05
  8.41565242E-05  1.40546925E-02  2.29546398E-02  3.15319234E-02  3.23485707E-02
 -4.42160642E-02 -5.21639332E-02  2.93456393E-02  5.76848804E-02 -7.88578316E-02
 -3.24208019E-01  1.02763537E-01  8.57664368E-02 -1.17223674E-01  1.07102137E+00
  4.38566525E-04 -4.10513025E-01  5.61275868E-01 -8.37073489E-03 -1.03254829E-03
  1.53753105E-02  4.72052603E-03  7.54265563E-04 -1.40527052E-02 -2.29514554E-02
  3.15372794E-02  3.23576662E-02 -4.42067646E-02  5.21566971E-02  2.93559454E-02
  5.77097006E-02 -7.88329389E-02  3.24166138E-01  1.02778085E-01  8.57859900E-02
 -1.17207641E-01 -1.07098362E+00  3.78584856E-04 -4.10825068E-01  5.61081321E-01
  8.35618726E-03  1.02819387E-03 -1.53813938E-02 -4.72960270E-03 -7.53756784E-04
 -2.12072535E-02  1.23897562E-01 -4.82340367E-01  1.71253866E-03 -1.13928004E-03
  1.55764934E-03  2.12090781E-02 -1.23893207E-01  4.82350539E-01  1.71259975E-03
 -1.14047684E-03  1.55732025E-03 -7.17793966E-07 -1.13867517E-06  1.55026224E-05
 -8.39468209E-02 -6.13996232E-02  2.40739327E-06  1.86594982E-05 -9.03147948E-02
 -6.60571309E-02  2.38164674E-05  5.52511591E-05 -3.20265718E-01 -2.34251499E-01
 -8.30681000E-05 -1.70136017E-04  6.11298962E-01  4.47138249E-01 -6.88263871E-03
  4.46545414E-04 -2.52602389E-03 -3.97262435E-03  6.09107334E-04 -1.34144081E-05
 -2.15784091E-05  1.86947990E-05 -8.39296478E-02 -6.14241935E-02  5.16291865E-05
  1.28568276E-05 -9.02875078E-02 -6.60950310E-02  2.91012399E-04  9.56214556E-05
 -3.20214127E-01 -2.34328124E-01 -2.46937090E-04 -3.00879193E-04  6.11331697E-01
  4.47104983E-01  6.88257169E-03 -4.48036091E-04  2.52330948E-03  3.97496775E-03
 -6.09146984E-04 -1.98807972E-06  6.11932819E-06 -1.23139438E-05  6.50917621E-07
  5.36006318E-06  3.93632407E-06 -1.52871703E-05  8.58625125E-06 -1.80830282E-04
 -2.03384389E-06  7.31154702E-06  7.17226063E-07 -1.84133050E-02 -2.97425949E-02
 -4.46291350E-02  1.87952054E-02 -2.57187571E-02  7.19958160E-02 -3.82887960E-02
  8.27304195E-03 -1.13328818E-02  3.89430519E-01 -1.97514317E-01  8.30395675E-02
 -1.13612110E-01 -2.56716388E-01  6.47505905E-01 -3.22157760E-01  4.40635186E-01
 -2.06584781E-03 -2.97329601E-03  6.52353751E-03 -5.73251647E-04  2.17455881E-03
  1.84120927E-02  2.97406215E-02 -4.46298632E-02  1.87701929E-02 -2.57370011E-02
 -7.19904777E-02 -3.82930980E-02  8.23722994E-03 -1.13595953E-02 -3.89409013E-01
 -1.97509827E-01  8.29469309E-02 -1.13674108E-01  2.56669127E-01  6.47467489E-01
 -3.22114150E-01  4.40665361E-01  2.06250551E-03  2.97130279E-03 -6.52464815E-03
  5.70540955E-04 -2.17574786E-03 -1.95080030E-02  2.05309416E-03 -2.39636759E-01
  2.46851239E-03 -3.11052921E-03  4.25326820E-03  1.95070025E-02 -2.04953934E-03
  2.39638981E-01  2.46775861E-03 -3.11288371E-03  4.25123054E-03 -1.34607382E-02
 -2.12416141E-02  1.40929756E-02  2.90403116E-02 -3.96541206E-02  4.40578665E-02
  2.33247963E-02  2.07610280E-02 -2.83350458E-02  3.62859478E-01  3.16164836E-02
  1.33444984E-01 -1.82232178E-01 -1.02338798E-01  2.61478927E-02 -6.41411239E-01
  8.76497650E-01 -5.97417424E-03 -4.38793614E-03  1.20647828E-02  2.67925767E-03
  3.21041088E-03 -1.34616151E-02 -2.12430695E-02 -1.40875535E-02 -2.90109671E-02
  3.96766774E-02  4.40616822E-02 -2.33183768E-02 -2.07248911E-02  2.83597856E-02
  3.62872315E-01 -3.15951168E-02 -1.33331372E-01  1.82333462E-01 -1.02452346E-01
 -2.60995676E-02  6.41388376E-01 -8.76485358E-01 -5.96603649E-03 -4.38584909E-03
  1.20677394E-02  2.68425990E-03  3.20955485E-03 -2.77984032E-02  4.19849802E-02
 -4.75632389E-01 -2.47790104E-03 -3.53712400E-03  4.83634082E-03 -2.77971048E-02
  4.19848094E-02 -4.75565875E-01  2.47785846E-03  3.54036466E-03 -4.83498450E-03
 -2.80952967E-06 -4.59505437E-06 -5.21802676E-06 -7.76615764E-02 -5.68065896E-02
  1.28528563E-05 -1.35841187E-06 -7.30761699E-02 -5.34534991E-02  5.54734843E-05
 -3.48013333E-05 -3.45577026E-01 -2.52765366E-01  1.71912024E-04  2.21626403E-04
  8.16714339E-01  5.97621138E-01 -6.24409939E-03 -2.90996403E-03 -2.28952907E-03
 -3.60458739E-03 -3.97444885E-03  2.51059776E-06  3.99376695E-06 -1.31154223E-05
  7.76378945E-02  5.68383797E-02 -1.02595922E-05 -1.03295883E-05  7.30548284E-02