 Entering Gaussian System, Link 0=g16
 Initial command:
 /home/szhao/Apps/g16/l1.exe "/home/szhao/tmp/Gau-119648.inp" -scrdir="/home/szhao/tmp/"
 Default is to use a total of  16 processors:
                               16 via shared-memory
                                1 via Linda
 Entering Link 1 = /home/szhao/Apps/g16/l1.exe PID=    119649.
  
 Copyright (c) 1988,1990,1992,1993,1995,1998,2003,2009,2016,
            Gaussian, Inc.  All Rights Reserved.
  
 This is part of the Gaussian(R) 16 program.  It is based on
 the Gaussian(R) 09 system (copyright 2009, Gaussian, Inc.),
 the Gaussian(R) 03 system (copyright 2003, Gaussian, Inc.),
 the Gaussian(R) 98 system (copyright 1998, Gaussian, Inc.),
 the Gaussian(R) 94 system (copyright 1995, Gaussian, Inc.),
 the Gaussian 92(TM) system (copyright 1992, Gaussian, Inc.),
 the Gaussian 90(TM) system (copyright 1990, Gaussian, Inc.),
 the Gaussian 88(TM) system (copyright 1988, Gaussian, Inc.),
 the Gaussian 86(TM) system (copyright 1986, Carnegie Mellon
 University), and the Gaussian 82(TM) system (copyright 1983,
 Carnegie Mellon University). Gaussian is a federally registered
 trademark of Gaussian, Inc.
  
 This software contains proprietary and confidential information,
 including trade secrets, belonging to Gaussian, Inc.
  
 This software is provided under written license and may be
 used, copied, transmitted, or stored only in accord with that
 written license.
  
 The following legend is applicable only to US Government
 contracts under FAR:
  
                    RESTRICTED RIGHTS LEGEND
  
 Use, reproduction and disclosure by the US Government is
 subject to restrictions as set forth in subparagraphs (a)
 and (c) of the Commercial Computer Software - Restricted
 Rights clause in FAR 52.227-19.
  
 Gaussian, Inc.
 340 Quinnipiac St., Bldg. 40, Wallingford CT 06492
  
  
 ---------------------------------------------------------------
 Warning -- This program may not be used in any manner that
 competes with the business of Gaussian, Inc. or will provide
 assistance to any competitor of Gaussian, Inc.  The licensee
 of this program is prohibited from giving any competitor of
 Gaussian, Inc. access to this program.  By using this program,
 the user acknowledges that Gaussian, Inc. is engaged in the
 business of creating and licensing software in the field of
 computational chemistry and represents and warrants to the
 licensee that it is not a competitor of Gaussian, Inc. and that
 it will not use this program in any manner prohibited above.
 ---------------------------------------------------------------
  

 Cite this work as:
 Gaussian 16, Revision A.03,
 M. J. Frisch, G. W. Trucks, H. B. Schlegel, G. E. Scuseria, 
 M. A. Robb, J. R. Cheeseman, G. Scalmani, V. Barone, 
 G. A. Petersson, H. Nakatsuji, X. Li, M. Caricato, A. V. Marenich, 
 J. Bloino, B. G. Janesko, R. Gomperts, B. Mennucci, H. P. Hratchian, 
 J. V. Ortiz, A. F. Izmaylov, J. L. Sonnenberg, D. Williams-Young, 
 F. Ding, F. Lipparini, F. Egidi, J. Goings, B. Peng, A. Petrone, 
 T. Henderson, D. Ranasinghe, V. G. Zakrzewski, J. Gao, N. Rega, 
 G. Zheng, W. Liang, M. Hada, M. Ehara, K. Toyota, R. Fukuda, 
 J. Hasegawa, M. Ishida, T. Nakajima, Y. Honda, O. Kitao, H. Nakai, 
 T. Vreven, K. Throssell, J. A. Montgomery, Jr., J. E. Peralta, 
 F. Ogliaro, M. J. Bearpark, J. J. Heyd, E. N. Brothers, K. N. Kudin, 
 V. N. Staroverov, T. A. Keith, R. Kobayashi, J. Normand, 
 K. Raghavachari, A. P. Rendell, J. C. Burant, S. S. Iyengar, 
 J. Tomasi, M. Cossi, J. M. Millam, M. Klene, C. Adamo, R. Cammi, 
 J. W. Ochterski, R. L. Martin, K. Morokuma, O. Farkas, 
 J. B. Foresman, and D. J. Fox, Gaussian, Inc., Wallingford CT, 2016.
 
 ******************************************
 Gaussian 16:  ES64L-G16RevA.03 25-Dec-2016
                 3-Dec-2024 
 ******************************************
 %chk=opt.chk
 %mem=16GB
 %nprocshared=24
 Will use up to   24 processors via shared memory.
 ---------------------------------------------------------
 #p opt UM062X/6-311+G** nosymm int=superfine SCF=NoVarAcc
 ---------------------------------------------------------
 1/18=20,19=15,26=5,38=1/1,3;
 2/9=110,12=2,15=1,17=6,18=5,40=1/2;
 3/5=4,6=6,7=111,11=2,25=1,30=1,71=1,74=-55,75=-7,116=2/1,2,3;
 4//1;
 5/5=2,38=1/2;
 6/7=2,8=2,9=2,10=2,28=1/1;
 7/30=1/1,2,3,16;
 1/18=20,19=15,26=5/3(2);
 2/9=110,15=1/2;
 99//99;
 2/9=110,15=1/2;
 3/5=4,6=6,7=111,11=2,25=1,30=1,71=1,74=-55,75=-7,116=2/1,2,3;
 4/5=5,16=3,69=1/1;
 5/5=2,38=1/2;
 7/30=1/1,2,3,16;
 1/18=20,19=15,26=5/3(-5);
 2/9=110,15=1/2;
 6/7=2,8=2,9=2,10=2,19=2,28=1/1;
 99/9=1/99;
 Leave Link    1 at Tue Dec  3 17:42:59 2024, MaxMem=  2147483648 cpu:               0.6 elap:               0.0
 (Enter /home/szhao/Apps/g16/l101.exe)
 -------------------
 Title Card Required
 -------------------
 Symbolic Z-matrix:
 Charge =  1 Multiplicity = 2
 C                    -1   -2.88216   0.        0. 
 C                    -1    2.88216   0.        0. 
 H                    0    -3.98315   0.        0. 
 H                    0     3.98313   0.        0. 
 
 Add virtual bond connecting atoms C2         and C1         Dist= 1.09D+01.
 ITRead=  2  2  0  0
 MicOpt= -2 -2 -1 -1
 NAtoms=      4 NQM=        2 NQMF=       2 NMMI=      0 NMMIF=      0
                NMic=       0 NMicF=      0.
                    Isotopes and Nuclear Properties:
 (Nuclear quadrupole moments (NQMom) in fm**2, nuclear magnetic moments (NMagM)
  in nuclear magnetons)

  Atom         1           2           3           4
 IAtWgt=          12          12           1           1
 AtmWgt=  12.0000000  12.0000000   1.0078250   1.0078250
 NucSpn=           0           0           1           1
 AtZEff=  -0.0000000  -0.0000000  -0.0000000  -0.0000000
 NQMom=    0.0000000   0.0000000   0.0000000   0.0000000
 NMagM=    0.0000000   0.0000000   2.7928460   2.7928460
 AtZNuc=   6.0000000   6.0000000   1.0000000   1.0000000
 Leave Link  101 at Tue Dec  3 17:42:59 2024, MaxMem=  2147483648 cpu:              11.0 elap:               0.5
 (Enter /home/szhao/Apps/g16/l103.exe)

 GradGradGradGradGradGradGradGradGradGradGradGradGradGradGradGradGradGrad
 Berny optimization.
 Initialization pass.
                           ----------------------------
                           !    Initial Parameters    !
                           ! (Angstroms and Degrees)  !
 --------------------------                            --------------------------
 ! Name  Definition              Value          Derivative Info.                !
 --------------------------------------------------------------------------------
 ! X1    R(1,-1)                -2.8822         Frozen                          !
 ! Y1    R(1,-2)                 0.0            Frozen                          !
 ! Z1    R(1,-3)                 0.0            Frozen                          !
 ! X2    R(2,-1)                 2.8822         Frozen                          !
 ! Y2    R(2,-2)                 0.0            Frozen                          !
 ! Z2    R(2,-3)                 0.0            Frozen                          !
 ! R1    R(1,3)                  1.101          estimate D2E/DX2                !
 ! R2    R(2,4)                  1.101          estimate D2E/DX2                !
 ! A1    L(2,1,3,-2,-1)        180.0            estimate D2E/DX2                !
 ! A2    L(1,2,4,-2,-1)        180.0            estimate D2E/DX2                !
 ! A3    L(2,1,3,-3,-2)        180.0            estimate D2E/DX2                !
 ! A4    L(1,2,4,-3,-2)        180.0            estimate D2E/DX2                !
 --------------------------------------------------------------------------------
 Trust Radius=3.00D-01 FncErr=1.00D-07 GrdErr=1.00D-07 EigMax=2.50D+02 EigMin=1.00D-04
 Number of steps in this run=     22 maximum allowed number of steps=    100.
 GradGradGradGradGradGradGradGradGradGradGradGradGradGradGradGradGradGrad

 Leave Link  103 at Tue Dec  3 17:42:59 2024, MaxMem=  2147483648 cpu:               0.1 elap:               0.0
 (Enter /home/szhao/Apps/g16/l202.exe)
                          Input orientation:                          
 ---------------------------------------------------------------------
 Center     Atomic      Atomic             Coordinates (Angstroms)
 Number     Number       Type             X           Y           Z
 ---------------------------------------------------------------------
      1          6           0       -2.882160    0.000000    0.000000
      2          6           0        2.882160    0.000000    0.000000
      3          1           0       -3.983153    0.000000    0.000000
      4          1           0        3.983131    0.000000    0.000000
 ---------------------------------------------------------------------
                    Distance matrix (angstroms):
                    1          2          3          4
     1  C    0.000000
     2  C    5.764320   0.000000
     3  H    1.100993   6.865313   0.000000
     4  H    6.865291   1.100971   7.966284   0.000000
 Symmetry turned off by external request.
 Stoichiometry    C2H2(1+,2)
 Framework group  C*V[C*(HCCH)]
 Deg. of freedom     3
 Full point group                 C*V     NOp   4
 Rotational constants (GHZ):           0.0000000           2.1845400           2.1845400
 Leave Link  202 at Tue Dec  3 17:42:59 2024, MaxMem=  2147483648 cpu:               0.2 elap:               0.0
 (Enter /home/szhao/Apps/g16/l301.exe)
 Standard basis: 6-311+G(d,p) (5D, 7F)
 Ernie: Thresh=  0.10000D-02 Tol=  0.10000D-05 Strict=F.
    56 basis functions,    88 primitive gaussians,    58 cartesian basis functions
     7 alpha electrons        6 beta electrons
       nuclear repulsion energy        10.0639588748 Hartrees.
 IExCor= 4336 DFT=T Ex+Corr=M062X ExCW=0 ScaHFX=  0.540000
 ScaDFX=  1.000000  1.000000  1.000000  1.000000 ScalE2=  1.000000  1.000000
 IRadAn=      7 IRanWt=     -1 IRanGd=            0 ICorTp=0 IEmpDi=  4
 NAtoms=    4 NActive=    4 NUniq=    4 SFac= 1.00D+00 NAtFMM=   60 NAOKFM=F Big=F
 Integral buffers will be    131072 words long.
 Raffenetti 2 integral format.
 Two-electron integral symmetry is turned off.
 Leave Link  301 at Tue Dec  3 17:42:59 2024, MaxMem=  2147483648 cpu:               0.8 elap:               0.1
 (Enter /home/szhao/Apps/g16/l302.exe)
 NPDir=0 NMtPBC=     1 NCelOv=     1 NCel=       1 NClECP=     1 NCelD=      1
         NCelK=      1 NCelE2=     1 NClLst=     1 CellRange=     0.0.
 One-electron integrals computed using PRISM.
 NBasis=    56 RedAO= T EigKep=  1.87D-02  NBF=    56
 NBsUse=    56 1.00D-06 EigRej= -1.00D+00 NBFU=    56
 Precomputing XC quadrature grid using
 IXCGrd= 4 IRadAn=           7 IRanWt=          -1 IRanGd=           0 AccXCQ= 0.00D+00.
 Generated NRdTot=       0 NPtTot=           0 NUsed=           0 NTot=          32
 NSgBfM=    55    55    55    55    55 MxSgAt=     4 MxSgA2=     4.
 Leave Link  302 at Tue Dec  3 17:43:00 2024, MaxMem=  2147483648 cpu:               2.7 elap:               0.1
 (Enter /home/szhao/Apps/g16/l303.exe)
 DipDrv:  MaxL=1.
 Leave Link  303 at Tue Dec  3 17:43:00 2024, MaxMem=  2147483648 cpu:               0.4 elap:               0.0
 (Enter /home/szhao/Apps/g16/l401.exe)
 ExpMin= 4.38D-02 ExpMax= 4.56D+03 ExpMxC= 6.82D+02 IAcc=3 IRadAn=         7 AccDes= 0.00D+00
 Harris functional with IExCor= 1009 and IRadAn=       7 diagonalized for initial guess.
 HarFok:  IExCor= 1009 AccDes= 0.00D+00 IRadAn=         7 IDoV= 1 UseB2=F ITyADJ=14
 ICtDFT=  3500011 ScaDFX=  1.000000  1.000000  1.000000  1.000000
 FoFCou: FMM=F IPFlag=           0 FMFlag=      100000 FMFlg1=           0
         NFxFlg=           0 DoJE=T BraDBF=F KetDBF=T FulRan=T
         wScrn=  0.000000 ICntrl=       500 IOpCl=  0 I1Cent=   200000004 NGrid=           0
         NMat0=    1 NMatS0=      1 NMatT0=    0 NMatD0=    1 NMtDS0=    0 NMtDT0=    0
 Symmetry not used in FoFCou.
 Harris En= -76.6174011630752    
 JPrj=0 DoOrth=F DoCkMO=F.
 Initial guess <Sx>= 0.0000 <Sy>= 0.0000 <Sz>= 0.5000 <S**2>= 0.7500 S= 0.5000
 Leave Link  401 at Tue Dec  3 17:43:00 2024, MaxMem=  2147483648 cpu:               3.6 elap:               0.2
 (Enter /home/szhao/Apps/g16/l502.exe)
 Keep R1 and R2 ints in memory in canonical form, NReq=23774294.
 FoFCou: FMM=F IPFlag=           0 FMFlag=           0 FMFlg1=           0
         NFxFlg=           0 DoJE=F BraDBF=F KetDBF=F FulRan=T
         wScrn=  0.000000 ICntrl=       600 IOpCl=  0 I1Cent=           0 NGrid=           0
         NMat0=    1 NMatS0=   1596 NMatT0=    0 NMatD0=    1 NMtDS0=    0 NMtDT0=    0
 Symmetry not used in FoFCou.
 Two-electron integral symmetry not used.
 UHF open shell SCF:
 Using DIIS extrapolation, IDIIS=  1040.
 NGot=  2147483648 LenX=  2144926146 LenY=  2144922341
 Requested convergence on RMS density matrix=1.00D-08 within 128 cycles.
 Requested convergence on MAX density matrix=1.00D-06.
 Requested convergence on             energy=1.00D-06.
 No special actions if energy rises.

 Cycle   1  Pass 1  IDiag  1:
 E= -76.5622434930246    
 DIIS: error= 1.81D-02 at cycle   1 NSaved=   1.
 NSaved= 1 IEnMin= 1 EnMin= -76.5622434930246     IErMin= 1 ErrMin= 1.81D-02
 ErrMax= 1.81D-02  0.00D+00 EMaxC= 1.00D-01 BMatC= 8.45D-02 BMatP= 8.45D-02
 IDIUse=3 WtCom= 8.19D-01 WtEn= 1.81D-01
 Coeff-Com:  0.100D+01
 Coeff-En:   0.100D+01
 Coeff:      0.100D+01
 Gap=     0.133 Goal=   None    Shift=    0.000
 Gap=     0.314 Goal=   None    Shift=    0.000
 GapD=    0.133 DampG=1.000 DampE=0.500 DampFc=0.5000 IDamp=-1.
 Damping current iteration by 5.00D-01
 RMSDP=3.37D-03 MaxDP=8.32D-02              OVMax= 7.83D-02

 Cycle   2  Pass 1  IDiag  1:
 E= -76.5731861055748     Delta-E=       -0.010942612550 Rises=F Damp=T
 DIIS: error= 7.96D-03 at cycle   2 NSaved=   2.
 NSaved= 2 IEnMin= 2 EnMin= -76.5731861055748     IErMin= 2 ErrMin= 7.96D-03
 ErrMax= 7.96D-03  0.00D+00 EMaxC= 1.00D-01 BMatC= 1.53D-02 BMatP= 8.45D-02
 IDIUse=3 WtCom= 9.20D-01 WtEn= 7.96D-02
 Coeff-Com: -0.580D+00 0.158D+01
 Coeff-En:   0.000D+00 0.100D+01
 Coeff:     -0.534D+00 0.153D+01
 Gap=     0.049 Goal=   None    Shift=    0.000
 Gap=     0.317 Goal=   None    Shift=    0.000
 RMSDP=1.02D-03 MaxDP=2.33D-02 DE=-1.09D-02 OVMax= 6.88D-02

 Cycle   3  Pass 1  IDiag  1:
 E= -76.5820420958331     Delta-E=       -0.008855990258 Rises=F Damp=F
 DIIS: error= 5.02D-03 at cycle   3 NSaved=   3.
 NSaved= 3 IEnMin= 3 EnMin= -76.5820420958331     IErMin= 3 ErrMin= 5.02D-03
 ErrMax= 5.02D-03  0.00D+00 EMaxC= 1.00D-01 BMatC= 1.62D-03 BMatP= 1.53D-02
 IDIUse=3 WtCom= 9.50D-01 WtEn= 5.02D-02
 Coeff-Com: -0.206D+00 0.490D+00 0.716D+00
 Coeff-En:   0.000D+00 0.000D+00 0.100D+01
 Coeff:     -0.195D+00 0.465D+00 0.730D+00
 Gap=     0.047 Goal=   None    Shift=    0.000
 Gap=     0.335 Goal=   None    Shift=    0.000
 RMSDP=1.62D-03 MaxDP=3.04D-02 DE=-8.86D-03 OVMax= 1.83D-01

 Cycle   4  Pass 1  IDiag  1:
 E= -76.5774653562416     Delta-E=        0.004576739591 Rises=F Damp=F
 DIIS: error= 1.32D-02 at cycle   4 NSaved=   4.
 NSaved= 4 IEnMin= 3 EnMin= -76.5820420958331     IErMin= 3 ErrMin= 5.02D-03
 ErrMax= 1.32D-02  0.00D+00 EMaxC= 1.00D-01 BMatC= 1.07D-02 BMatP= 1.62D-03
 IDIUse=2 WtCom= 0.00D+00 WtEn= 1.00D+00
 Coeff-En:   0.000D+00 0.000D+00 0.782D+00 0.218D+00
 Coeff:      0.000D+00 0.000D+00 0.782D+00 0.218D+00
 Gap=     0.047 Goal=   None    Shift=    0.000
 Gap=     0.299 Goal=   None    Shift=    0.000
 RMSDP=8.36D-04 MaxDP=1.54D-02 DE= 4.58D-03 OVMax= 9.43D-02

 Cycle   5  Pass 1  IDiag  1:
 E= -76.5823308546789     Delta-E=       -0.004865498437 Rises=F Damp=F
 DIIS: error= 4.11D-03 at cycle   5 NSaved=   5.
 NSaved= 5 IEnMin= 5 EnMin= -76.5823308546789     IErMin= 5 ErrMin= 4.11D-03
 ErrMax= 4.11D-03  0.00D+00 EMaxC= 1.00D-01 BMatC= 9.97D-04 BMatP= 1.62D-03
 IDIUse=3 WtCom= 9.59D-01 WtEn= 4.11D-02
 Coeff-Com:  0.505D-01-0.107D+00 0.106D+00-0.347D+00 0.130D+01
 Coeff-En:   0.000D+00 0.000D+00 0.426D+00 0.000D+00 0.574D+00
 Coeff:      0.484D-01-0.102D+00 0.119D+00-0.333D+00 0.127D+01
 Gap=     0.049 Goal=   None    Shift=    0.000
 Gap=     0.308 Goal=   None    Shift=    0.000
 RMSDP=3.50D-04 MaxDP=6.67D-03 DE=-4.87D-03 OVMax= 3.93D-02

 Cycle   6  Pass 1  IDiag  1:
 E= -76.5828214902350     Delta-E=       -0.000490635556 Rises=F Damp=F
 DIIS: error= 9.04D-05 at cycle   6 NSaved=   6.
 NSaved= 6 IEnMin= 6 EnMin= -76.5828214902350     IErMin= 6 ErrMin= 9.04D-05
 ErrMax= 9.04D-05  0.00D+00 EMaxC= 1.00D-01 BMatC= 6.42D-07 BMatP= 9.97D-04
 IDIUse=1 WtCom= 1.00D+00 WtEn= 0.00D+00
 Coeff-Com: -0.878D-03 0.275D-02-0.321D-01 0.344D-02-0.728D-01 0.110D+01
 Coeff:     -0.878D-03 0.275D-02-0.321D-01 0.344D-02-0.728D-01 0.110D+01
 Gap=     0.049 Goal=   None    Shift=    0.000
 Gap=     0.307 Goal=   None    Shift=    0.000
 RMSDP=1.45D-05 MaxDP=2.67D-04 DE=-4.91D-04 OVMax= 1.41D-03

 Cycle   7  Pass 1  IDiag  1:
 E= -76.5828217937946     Delta-E=       -0.000000303560 Rises=F Damp=F
 DIIS: error= 4.40D-05 at cycle   7 NSaved=   7.
 NSaved= 7 IEnMin= 7 EnMin= -76.5828217937946     IErMin= 7 ErrMin= 4.40D-05
 ErrMax= 4.40D-05  0.00D+00 EMaxC= 1.00D-01 BMatC= 1.33D-07 BMatP= 6.42D-07
 IDIUse=1 WtCom= 1.00D+00 WtEn= 0.00D+00
 Coeff-Com: -0.310D-04 0.385D-04-0.129D-02 0.595D-02-0.375D-02-0.201D+00
 Coeff-Com:  0.120D+01
 Coeff:     -0.310D-04 0.385D-04-0.129D-02 0.595D-02-0.375D-02-0.201D+00
 Coeff:      0.120D+01
 Gap=     0.049 Goal=   None    Shift=    0.000
 Gap=     0.308 Goal=   None    Shift=    0.000
 RMSDP=3.67D-06 MaxDP=8.16D-05 DE=-3.04D-07 OVMax= 3.38D-04

 Cycle   8  Pass 1  IDiag  1:
 E= -76.5828218554950     Delta-E=       -0.000000061700 Rises=F Damp=F
 DIIS: error= 5.80D-06 at cycle   8 NSaved=   8.
 NSaved= 8 IEnMin= 8 EnMin= -76.5828218554950     IErMin= 8 ErrMin= 5.80D-06
 ErrMax= 5.80D-06  0.00D+00 EMaxC= 1.00D-01 BMatC= 2.81D-09 BMatP= 1.33D-07
 IDIUse=1 WtCom= 1.00D+00 WtEn= 0.00D+00
 Coeff-Com: -0.113D-03 0.243D-03-0.288D-03 0.598D-03-0.409D-02 0.437D-01
 Coeff-Com: -0.249D+00 0.121D+01
 Coeff:     -0.113D-03 0.243D-03-0.288D-03 0.598D-03-0.409D-02 0.437D-01
 Coeff:     -0.249D+00 0.121D+01
 Gap=     0.049 Goal=   None    Shift=    0.000
 Gap=     0.308 Goal=   None    Shift=    0.000
 RMSDP=3.73D-07 MaxDP=8.77D-06 DE=-6.17D-08 OVMax= 1.96D-05

 Cycle   9  Pass 1  IDiag  1:
 E= -76.5828218564848     Delta-E=       -0.000000000990 Rises=F Damp=F
 DIIS: error= 2.91D-06 at cycle   9 NSaved=   9.
 NSaved= 9 IEnMin= 9 EnMin= -76.5828218564848     IErMin= 9 ErrMin= 2.91D-06
 ErrMax= 2.91D-06  0.00D+00 EMaxC= 1.00D-01 BMatC= 5.58D-10 BMatP= 2.81D-09
 IDIUse=1 WtCom= 1.00D+00 WtEn= 0.00D+00
 Coeff-Com:  0.503D-05-0.104D-04-0.117D-03 0.271D-05 0.191D-03 0.414D-02
 Coeff-Com: -0.168D-01-0.161D+00 0.117D+01
 Coeff:      0.503D-05-0.104D-04-0.117D-03 0.271D-05 0.191D-03 0.414D-02
 Coeff:     -0.168D-01-0.161D+00 0.117D+01
 Gap=     0.049 Goal=   None    Shift=    0.000
 Gap=     0.308 Goal=   None    Shift=    0.000
 RMSDP=2.36D-07 MaxDP=4.12D-06 DE=-9.90D-10 OVMax= 2.43D-05

 Cycle  10  Pass 1  IDiag  1:
 E= -76.5828218567460     Delta-E=       -0.000000000261 Rises=F Damp=F
 DIIS: error= 1.81D-07 at cycle  10 NSaved=  10.
 NSaved=10 IEnMin=10 EnMin= -76.5828218567460     IErMin=10 ErrMin= 1.81D-07
 ErrMax= 1.81D-07  0.00D+00 EMaxC= 1.00D-01 BMatC= 4.74D-12 BMatP= 5.58D-10
 IDIUse=1 WtCom= 1.00D+00 WtEn= 0.00D+00
 Coeff-Com:  0.447D-05-0.952D-05 0.198D-04-0.307D-04 0.178D-03-0.343D-02
 Coeff-Com:  0.217D-01-0.402D-01-0.362D+00 0.138D+01
 Coeff:      0.447D-05-0.952D-05 0.198D-04-0.307D-04 0.178D-03-0.343D-02
 Coeff:      0.217D-01-0.402D-01-0.362D+00 0.138D+01
 Gap=     0.049 Goal=   None    Shift=    0.000
 Gap=     0.308 Goal=   None    Shift=    0.000
 RMSDP=3.73D-08 MaxDP=6.49D-07 DE=-2.61D-10 OVMax= 2.47D-06

 Cycle  11  Pass 1  IDiag  1:
 E= -76.5828218567487     Delta-E=       -0.000000000003 Rises=F Damp=F
 DIIS: error= 7.73D-08 at cycle  11 NSaved=  11.
 NSaved=11 IEnMin=11 EnMin= -76.5828218567487     IErMin=11 ErrMin= 7.73D-08
 ErrMax= 7.73D-08  0.00D+00 EMaxC= 1.00D-01 BMatC= 5.04D-13 BMatP= 4.74D-12
 IDIUse=1 WtCom= 1.00D+00 WtEn= 0.00D+00
 Coeff-Com: -0.133D-05 0.261D-05 0.678D-05 0.353D-05-0.428D-04 0.188D-03
 Coeff-Com: -0.187D-02 0.134D-01-0.301D-03-0.215D+00 0.120D+01
 Coeff:     -0.133D-05 0.261D-05 0.678D-05 0.353D-05-0.428D-04 0.188D-03
 Coeff:     -0.187D-02 0.134D-01-0.301D-03-0.215D+00 0.120D+01
 Gap=     0.049 Goal=   None    Shift=    0.000
 Gap=     0.308 Goal=   None    Shift=    0.000
 RMSDP=1.29D-08 MaxDP=2.18D-07 DE=-2.73D-12 OVMax= 1.40D-06

 Cycle  12  Pass 1  IDiag  1:
 E= -76.5828218567493     Delta-E=       -0.000000000001 Rises=F Damp=F
 DIIS: error= 6.14D-08 at cycle  12 NSaved=  12.
 NSaved=12 IEnMin=12 EnMin= -76.5828218567493     IErMin=12 ErrMin= 6.14D-08
 ErrMax= 6.14D-08  0.00D+00 EMaxC= 1.00D-01 BMatC= 6.75D-14 BMatP= 5.04D-13
 IDIUse=1 WtCom= 1.00D+00 WtEn= 0.00D+00
 Coeff-Com:  0.107D-06-0.204D-06-0.208D-05 0.183D-06 0.205D-05 0.287D-04
 Coeff-Com: -0.947D-04-0.217D-02 0.163D-01-0.162D-01-0.243D+00 0.124D+01
 Coeff:      0.107D-06-0.204D-06-0.208D-05 0.183D-06 0.205D-05 0.287D-04
 Coeff:     -0.947D-04-0.217D-02 0.163D-01-0.162D-01-0.243D+00 0.124D+01
 Gap=     0.049 Goal=   None    Shift=    0.000
 Gap=     0.308 Goal=   None    Shift=    0.000
 RMSDP=1.13D-08 MaxDP=1.41D-07 DE=-6.54D-13 OVMax= 1.32D-06

 Cycle  13  Pass 1  IDiag  1:
 E= -76.5828218567498     Delta-E=       -0.000000000000 Rises=F Damp=F
 DIIS: error= 6.14D-08 at cycle  13 NSaved=  13.
 NSaved=13 IEnMin=13 EnMin= -76.5828218567498     IErMin=12 ErrMin= 6.14D-08
 ErrMax= 6.14D-08  0.00D+00 EMaxC= 1.00D-01 BMatC= 4.52D-14 BMatP= 6.75D-14
 IDIUse=1 WtCom= 1.00D+00 WtEn= 0.00D+00
 Coeff-Com:  0.367D-07-0.740D-07 0.287D-06-0.550D-06 0.152D-05-0.156D-04
 Coeff-Com:  0.966D-04-0.278D-03-0.151D-02 0.695D-02 0.217D-02-0.171D+00
 Coeff-Com:  0.116D+01
 Coeff:      0.367D-07-0.740D-07 0.287D-06-0.550D-06 0.152D-05-0.156D-04
 Coeff:      0.966D-04-0.278D-03-0.151D-02 0.695D-02 0.217D-02-0.171D+00
 Coeff:      0.116D+01
 Gap=     0.049 Goal=   None    Shift=    0.000
 Gap=     0.308 Goal=   None    Shift=    0.000
 RMSDP=1.04D-08 MaxDP=1.20D-07 DE=-4.26D-13 OVMax= 1.21D-06

 Cycle  14  Pass 1  IDiag  1:
 E= -76.5828218567501     Delta-E=       -0.000000000000 Rises=F Damp=F
 DIIS: error= 6.14D-08 at cycle  14 NSaved=  14.
 NSaved=14 IEnMin=14 EnMin= -76.5828218567501     IErMin=12 ErrMin= 6.14D-08
 ErrMax= 6.14D-08  0.00D+00 EMaxC= 1.00D-01 BMatC= 4.34D-14 BMatP= 4.52D-14
 IDIUse=1 WtCom= 1.00D+00 WtEn= 0.00D+00
 Coeff-Com: -0.361D-08 0.492D-08 0.794D-07-0.179D-07 0.137D-07-0.118D-05
 Coeff-Com: -0.383D-05 0.560D-04 0.916D-04-0.114D-02 0.444D-02 0.796D-02
 Coeff-Com: -0.236D+00 0.122D+01
 Coeff:     -0.361D-08 0.492D-08 0.794D-07-0.179D-07 0.137D-07-0.118D-05
 Coeff:     -0.383D-05 0.560D-04 0.916D-04-0.114D-02 0.444D-02 0.796D-02
 Coeff:     -0.236D+00 0.122D+01
 Gap=     0.049 Goal=   None    Shift=    0.000
 Gap=     0.308 Goal=   None    Shift=    0.000
 RMSDP=1.08D-08 MaxDP=1.21D-07 DE=-3.27D-13 OVMax= 1.26D-06

 Cycle  15  Pass 1  IDiag  1:
 E= -76.5828218567505     Delta-E=       -0.000000000000 Rises=F Damp=F
 DIIS: error= 6.14D-08 at cycle  15 NSaved=  15.
 NSaved=15 IEnMin=15 EnMin= -76.5828218567505     IErMin=12 ErrMin= 6.14D-08
 ErrMax= 6.14D-08  0.00D+00 EMaxC= 1.00D-01 BMatC= 4.33D-14 BMatP= 4.34D-14
 IDIUse=1 WtCom= 1.00D+00 WtEn= 0.00D+00
 Coeff-Com: -0.487D-08 0.690D-08 0.968D-07-0.169D-07 0.366D-08-0.137D-05
 Coeff-Com: -0.525D-05 0.714D-04 0.117D-03-0.144D-02 0.551D-02 0.103D-01
 Coeff-Com: -0.295D+00 0.152D+01-0.237D+00
 Coeff:     -0.487D-08 0.690D-08 0.968D-07-0.169D-07 0.366D-08-0.137D-05
 Coeff:     -0.525D-05 0.714D-04 0.117D-03-0.144D-02 0.551D-02 0.103D-01
 Coeff:     -0.295D+00 0.152D+01-0.237D+00
 Gap=     0.049 Goal=   None    Shift=    0.000
 Gap=     0.308 Goal=   None    Shift=    0.000
 RMSDP=2.03D-09 MaxDP=2.25D-08 DE=-3.55D-13 OVMax= 2.37D-07

 SCF Done:  E(UM062X) =  -76.5828218568     A.U. after   15 cycles
            NFock= 15  Conv=0.20D-08     -V/T= 2.0022
 <Sx>= 0.0000 <Sy>= 0.0000 <Sz>= 0.5000 <S**2>= 0.7513 S= 0.5007
 <L.S>=  0.00000000000    
 KE= 7.641165026259D+01 PE=-1.949657748163D+02 EE= 3.190734382222D+01
 Annihilation of the first spin contaminant:
 S**2 before annihilation     0.7513,   after     0.7500
 Leave Link  502 at Tue Dec  3 17:43:02 2024, MaxMem=  2147483648 cpu:              59.0 elap:               2.6
 (Enter /home/szhao/Apps/g16/l601.exe)
 Copying SCF densities to generalized density rwf, IOpCl= 1 IROHF=0.

 **********************************************************************

            Population analysis using the SCF density.

 **********************************************************************

 Alpha  occ. eigenvalues --  -10.92872 -10.92872  -0.97206  -0.97187  -0.62032
 Alpha  occ. eigenvalues --   -0.61978  -0.45398
 Alpha virt. eigenvalues --   -0.40537  -0.31760  -0.31741  -0.10928  -0.10468
 Alpha virt. eigenvalues --   -0.07914  -0.06254  -0.06120  -0.04486  -0.04258
 Alpha virt. eigenvalues --   -0.01221   0.01107   0.03528   0.28392   0.30103
 Alpha virt. eigenvalues --    0.37736   0.38612   0.38867   0.39796   0.41760
 Alpha virt. eigenvalues --    0.42799   0.47359   0.56836   0.90903   0.90942
 Alpha virt. eigenvalues --    0.91120   0.91130   1.09162   1.09178   1.10221
 Alpha virt. eigenvalues --    1.10237   1.37727   1.37905   1.65329   1.65389
 Alpha virt. eigenvalues --    1.65611   1.65675   2.18241   2.18956   2.29134
 Alpha virt. eigenvalues --    2.30443   2.45154   2.45985   2.46551   2.47395
 Alpha virt. eigenvalues --    2.96041   2.97250  23.27572  23.29982
  Beta  occ. eigenvalues --  -10.92456 -10.92456  -0.94859  -0.94858  -0.60628
  Beta  occ. eigenvalues --   -0.60581
  Beta virt. eigenvalues --   -0.29828  -0.29803  -0.28193  -0.28162  -0.11282
  Beta virt. eigenvalues --   -0.10521  -0.07592  -0.05451  -0.04512  -0.03656
  Beta virt. eigenvalues --   -0.02710  -0.01329   0.02842   0.05395   0.27386
  Beta virt. eigenvalues --    0.29554   0.38056   0.38366   0.39537   0.39720
  Beta virt. eigenvalues --    0.45264   0.45307   0.50311   0.59119   0.98431
  Beta virt. eigenvalues --    0.98474   0.99353   0.99395   1.12462   1.12462
  Beta virt. eigenvalues --    1.12473   1.12473   1.38049   1.38217   1.67126
  Beta virt. eigenvalues --    1.67186   1.67802   1.67863   2.32307   2.32727
  Beta virt. eigenvalues --    2.37498   2.38075   2.47702   2.48558   2.50055
  Beta virt. eigenvalues --    2.50904   3.07331   3.08894  23.28988  23.31396
          Condensed to atoms (all electrons):
               1          2          3          4
     1  C    5.461919   0.001182   0.247366  -0.000010
     2  C    0.001182   5.461923  -0.000010   0.247365
     3  H    0.247366  -0.000010   0.542185  -0.000000
     4  H   -0.000010   0.247365  -0.000000   0.542186
          Atomic-Atomic Spin Densities.
               1          2          3          4
     1  C    0.520259   0.000400  -0.004950  -0.000005
     2  C    0.000400   0.520262  -0.000005  -0.004951
     3  H   -0.004950  -0.000005  -0.010750  -0.000000
     4  H   -0.000005  -0.004951  -0.000000  -0.010750
 Mulliken charges and spin densities:
               1          2
     1  C    0.289543   0.515704
     2  C    0.289540   0.515707
     3  H    0.210459  -0.015705
     4  H    0.210459  -0.015705
 Sum of Mulliken charges =   1.00000   1.00000
 Mulliken charges and spin densities with hydrogens summed into heavy atoms:
               1          2
     1  C    0.500002   0.499998
     2  C    0.499998   0.500002
 Electronic spatial extent (au):  <R**2>=            445.9915
 Charge=              1.0000 electrons
 Dipole moment (field-independent basis, Debye):
    X=             -0.0000    Y=              0.0000    Z=              0.0000  Tot=              0.0000
 Quadrupole moment (field-independent basis, Debye-Ang):
   XX=             52.1949   YY=            -10.9050   ZZ=             -9.9603
   XY=              0.0000   XZ=              0.0000   YZ=             -0.8719
 Traceless Quadrupole moment (field-independent basis, Debye-Ang):
   XX=             41.7517   YY=            -21.3482   ZZ=            -20.4035
   XY=              0.0000   XZ=              0.0000   YZ=             -0.8719
 Octapole moment (field-independent basis, Debye-Ang**2):
  XXX=             -0.0005  YYY=              0.0000  ZZZ=              0.0000  XYY=              0.0001
  XXY=             -0.0000  XXZ=              0.0000  XZZ=              0.0001  YZZ=              0.0000
  YYZ=              0.0000  XYZ=             -0.0000
 Hexadecapole moment (field-independent basis, Debye-Ang**3):
 XXXX=            169.6256 YYYY=            -11.3155 ZZZZ=             -9.3183 XXXY=              0.0000
 XXXZ=              0.0000 YYYX=              0.0000 YYYZ=             -0.9216 ZZZX=              0.0000
 ZZZY=             -0.9216 XXYY=            -99.0268 XXZZ=            -90.7449 YYZZ=             -3.4390
 XXYZ=             -7.6434 YYXZ=              0.0000 ZZXY=              0.0000
 N-N= 1.006395887476D+01 E-N=-1.949657748163D+02  KE= 7.641165026259D+01
                          Isotropic Fermi Contact Couplings
        Atom                 a.u.       MegaHertz       Gauss      10(-4) cm-1
     1  C(13)              0.07855      88.30151      31.50818      29.45421
     2  C(13)              0.07855      88.30198      31.50834      29.45437
     3  H(1)              -0.00379     -16.96076      -6.05202      -5.65750
     4  H(1)              -0.00379     -16.95881      -6.05133      -5.65685
 --------------------------------------------------------
       Center         ----  Spin Dipole Couplings  ----
                      3XX-RR        3YY-RR        3ZZ-RR
 --------------------------------------------------------
     1   Atom       -0.324609      0.404815     -0.080206
     2   Atom       -0.324613      0.404818     -0.080205
     3   Atom        0.042635     -0.012606     -0.030029
     4   Atom        0.042636     -0.012606     -0.030031
 --------------------------------------------------------
                        XY            XZ            YZ
 --------------------------------------------------------
     1   Atom       -0.000000      0.000000      0.447621
     2   Atom        0.000000      0.000000      0.447624
     3   Atom        0.000000      0.000000      0.016080
     4   Atom        0.000000      0.000000      0.016081
 --------------------------------------------------------


 ---------------------------------------------------------------------------------
              Anisotropic Spin Dipole Couplings in Principal Axis System
 ---------------------------------------------------------------------------------

       Atom             a.u.   MegaHertz   Gauss  10(-4) cm-1        Axes

              Baa    -0.3468   -46.536   -16.605   -15.523  0.0000 -0.5117  0.8592
     1 C(13)  Bbb    -0.3246   -43.559   -15.543   -14.530  1.0000  0.0000  0.0000
              Bcc     0.6714    90.095    32.148    30.053 -0.0000  0.8592  0.5117
 
              Baa    -0.3468   -46.536   -16.605   -15.523  0.0000 -0.5117  0.8592
     2 C(13)  Bbb    -0.3246   -43.560   -15.543   -14.530  1.0000  0.0000  0.0000
              Bcc     0.6714    90.096    32.148    30.053 -0.0000  0.8592  0.5117
 
              Baa    -0.0396   -21.132    -7.540    -7.049  0.0000 -0.5117  0.8592
     3 H(1)   Bbb    -0.0030    -1.616    -0.577    -0.539 -0.0000  0.8592  0.5117
              Bcc     0.0426    22.748     8.117     7.588  1.0000  0.0000  0.0000
 
              Baa    -0.0396   -21.133    -7.541    -7.049  0.0000 -0.5117  0.8592
     4 H(1)   Bbb    -0.0030    -1.616    -0.577    -0.539 -0.0000  0.8592  0.5117
              Bcc     0.0426    22.749     8.117     7.588  1.0000  0.0000  0.0000
 

 ---------------------------------------------------------------------------------

 No NMR shielding tensors so no spin-rotation constants.
 Leave Link  601 at Tue Dec  3 17:43:03 2024, MaxMem=  2147483648 cpu:               3.1 elap:               0.1
 (Enter /home/szhao/Apps/g16/l701.exe)
 ... and contract with generalized density number  0.
 Compute integral first derivatives.
 Leave Link  701 at Tue Dec  3 17:43:03 2024, MaxMem=  2147483648 cpu:               2.1 elap:               0.1
 (Enter /home/szhao/Apps/g16/l702.exe)
 L702 exits ... SP integral derivatives will be done elsewhere.
 Leave Link  702 at Tue Dec  3 17:43:03 2024, MaxMem=  2147483648 cpu:               0.4 elap:               0.0
 (Enter /home/szhao/Apps/g16/l703.exe)
 Integral derivatives from FoFJK, PRISM(SPDF).
 Compute integral first derivatives, UseDBF=F ICtDFT=           0.
 Calling FoFJK, ICntrl=      2127 FMM=F ISym2X=0 I1Cent= 0 IOpClX= 1 NMat=1 NMatS=1 NMatT=0.
 FoFJK:  IHMeth= 1 ICntrl=    2127 DoSepK=F KAlg= 0 I1Cent=           0 FoldK=F
 IRaf=         0 NMat=       1 IRICut=       1 DoRegI=T DoRafI=F ISym2E= 0 IDoP0=0 IntGTp=1.
 FoFCou: FMM=F IPFlag=           0 FMFlag=      100000 FMFlg1=         800
         NFxFlg=           0 DoJE=F BraDBF=F KetDBF=F FulRan=T
         wScrn=  0.000000 ICntrl=      2127 IOpCl=  1 I1Cent=           0 NGrid=           0
         NMat0=    1 NMatS0=      1 NMatT0=    0 NMatD0=    1 NMtDS0=    0 NMtDT0=    0
 Symmetry not used in FoFCou.
 Leave Link  703 at Tue Dec  3 17:43:03 2024, MaxMem=  2147483648 cpu:               8.8 elap:               0.4
 (Enter /home/szhao/Apps/g16/l716.exe)
 Dipole        =-1.42869835D-05 3.02562386D-16 7.72528534D-16
 -------------------------------------------------------------------
 Center     Atomic                   Forces (Hartrees/Bohr)
 Number     Number              X              Y              Z
 -------------------------------------------------------------------
      1        6          -0.000000000   -0.000000000   -0.000000000
      2        6          -0.000000000   -0.000000000   -0.000000000
      3        1          -0.010566697    0.000000000    0.000000000
      4        1           0.010580899   -0.000000000   -0.000000000
 -------------------------------------------------------------------
 Cartesian Forces:  Max     0.010580899 RMS     0.004316736
 Leave Link  716 at Tue Dec  3 17:43:03 2024, MaxMem=  2147483648 cpu:               0.4 elap:               0.0
 (Enter /home/szhao/Apps/g16/l103.exe)

 GradGradGradGradGradGradGradGradGradGradGradGradGradGradGradGradGradGrad
 Berny optimization.
 FormGI is forming the generalized inverse of G from B-inverse, IUseBI=4.
 Internal  Forces:  Max     0.010580899 RMS     0.006104787
 Search for a local minimum.
 Step number   1 out of a maximum of   22
 All quantities printed in internal units (Hartrees-Bohrs-Radians)
 RMS Force = .61048D-02 SwitMx=.10000D-02 MixMth= 1
 Mixed Optimization -- RFO/linear search
 Second derivative matrix not updated -- first step.
 The second derivative matrix:
                          X1        Y1        Z1        X2        Y2
           X1           0.50000
           Y1           0.00000   0.50000
           Z1           0.00000   0.00000   0.50000
           X2           0.00000   0.00000   0.00000   0.50000
           Y2           0.00000   0.00000   0.00000   0.00000   0.50000
           Z2           0.00000   0.00000   0.00000   0.00000   0.00000
           R1           0.00000   0.00000   0.00000   0.00000   0.00000
           R2           0.00000   0.00000   0.00000   0.00000   0.00000
           A1           0.00000   0.00000   0.00000   0.00000   0.00000
           A2           0.00000   0.00000   0.00000   0.00000   0.00000
           A3           0.00000   0.00000   0.00000   0.00000   0.00000
           A4           0.00000   0.00000   0.00000   0.00000   0.00000
                          Z2        R1        R2        A1        A2
           Z2           0.50000
           R1           0.00000   0.33573
           R2           0.00000   0.00000   0.33575
           A1           0.00000   0.00000   0.00000   0.00230
           A2           0.00000   0.00000   0.00000   0.00000   0.00230
           A3           0.00000   0.00000   0.00000   0.00000   0.00000
           A4           0.00000   0.00000   0.00000   0.00000   0.00000
                          A3        A4
           A3           0.00230
           A4           0.00000   0.00230
 ITU=  0
     Eigenvalues ---    0.00230   0.00230   0.00230   0.33573   0.33575
     Eigenvalues --- 1000.000001000.000001000.000001000.000001000.00000
     Eigenvalues --- 1000.000001000.00000
 RFO step:  Lambda=-6.64709080D-04 EMin= 2.30000000D-03
 Linear search not attempted -- first point.
 Iteration  1 RMS(Cart)=  0.01283207 RMS(Int)=  0.00000000
 Iteration  2 RMS(Cart)=  0.00000000 RMS(Int)=  0.00000000
 ITry= 1 IFail=0 DXMaxC= 3.15D-02 DCOld= 1.00D+10 DXMaxT= 3.00D-01 DXLimC= 3.00D+00 Rises=F
 Variable       Old X    -DE/DX   Delta X   Delta X   Delta X     New X
                                 (Linear)    (Quad)   (Total)
    X1       -5.44649  -0.01057   0.00000   0.00000   0.00000  -5.44649
    Y1        0.00000   0.00000   0.00000   0.00000   0.00000   0.00000
    Z1        0.00000   0.00000   0.00000   0.00000   0.00000   0.00000
    X2        5.44649   0.01058   0.00000   0.00000   0.00000   5.44649
    Y2        0.00000  -0.00000   0.00000   0.00000   0.00000   0.00000
    Z2        0.00000   0.00000   0.00000   0.00000   0.00000   0.00000
    R1        2.08058   0.01057   0.00000   0.03141   0.03141   2.11199
    R2        2.08053   0.01058   0.00000   0.03145   0.03145   2.11199
    A1        3.14159  -0.00000   0.00000  -0.00000   0.00000   3.14159
    A2        3.14159   0.00000   0.00000   0.00000   0.00000   3.14159
    A3        3.14159   0.00000   0.00000   0.00000   0.00000   3.14159
    A4        3.14159   0.00000   0.00000   0.00000   0.00000   3.14159
         Item               Value     Threshold  Converged?
 Maximum Force            0.010581     0.000450     NO 
 RMS     Force            0.006105     0.000300     NO 
 Maximum Displacement     0.031452     0.001800     NO 
 RMS     Displacement     0.012832     0.001200     NO 
 Predicted change in Energy=-3.330126D-04
 Lowest energy point so far.  Saving SCF results.
 GradGradGradGradGradGradGradGradGradGradGradGradGradGradGradGradGradGrad

 Leave Link  103 at Tue Dec  3 17:43:03 2024, MaxMem=  2147483648 cpu:               0.2 elap:               0.0
 (Enter /home/szhao/Apps/g16/l202.exe)
                          Input orientation:                          
 ---------------------------------------------------------------------
 Center     Atomic      Atomic             Coordinates (Angstroms)
 Number     Number       Type             X           Y           Z
 ---------------------------------------------------------------------
      1          6           0       -2.882160    0.000000    0.000000
      2          6           0        2.882160    0.000000    0.000000
      3          1           0       -3.999776    0.000000    0.000000
      4          1           0        3.999775   -0.000000    0.000000
 ---------------------------------------------------------------------
                    Distance matrix (angstroms):
                    1          2          3          4
     1  C    0.000000
     2  C    5.764320   0.000000
     3  H    1.117616   6.881936   0.000000
     4  H    6.881935   1.117615   7.999550   0.000000
 Symmetry turned off by external request.
 Stoichiometry    C2H2(1+,2)
 Framework group  C*V[C*(HCCH)]
 Deg. of freedom     3
 Full point group                 C*V     NOp   4
 Rotational constants (GHZ):           0.0000000           2.1820156           2.1820156
 Leave Link  202 at Tue Dec  3 17:43:03 2024, MaxMem=  2147483648 cpu:               0.2 elap:               0.0
 (Enter /home/szhao/Apps/g16/l301.exe)
 Standard basis: 6-311+G(d,p) (5D, 7F)
 Ernie: Thresh=  0.10000D-02 Tol=  0.10000D-05 Strict=F.
    56 basis functions,    88 primitive gaussians,    58 cartesian basis functions
     7 alpha electrons        6 beta electrons
       nuclear repulsion energy         9.9756083778 Hartrees.
 IExCor= 4336 DFT=T Ex+Corr=M062X ExCW=0 ScaHFX=  0.540000
 ScaDFX=  1.000000  1.000000  1.000000  1.000000 ScalE2=  1.000000  1.000000
 IRadAn=      7 IRanWt=     -1 IRanGd=            0 ICorTp=0 IEmpDi=  4
 NAtoms=    4 NActive=    4 NUniq=    4 SFac= 1.00D+00 NAtFMM=   60 NAOKFM=F Big=F
 Integral buffers will be    131072 words long.
 Raffenetti 2 integral format.
 Two-electron integral symmetry is turned off.
 Leave Link  301 at Tue Dec  3 17:43:03 2024, MaxMem=  2147483648 cpu:               0.9 elap:               0.1
 (Enter /home/szhao/Apps/g16/l302.exe)
 NPDir=0 NMtPBC=     1 NCelOv=     1 NCel=       1 NClECP=     1 NCelD=      1
         NCelK=      1 NCelE2=     1 NClLst=     1 CellRange=     0.0.
 One-electron integrals computed using PRISM.
 NBasis=    56 RedAO= T EigKep=  1.93D-02  NBF=    56
 NBsUse=    56 1.00D-06 EigRej= -1.00D+00 NBFU=    56
 Precomputing XC quadrature grid using
 IXCGrd= 4 IRadAn=           7 IRanWt=          -1 IRanGd=           0 AccXCQ= 0.00D+00.
 Generated NRdTot=       0 NPtTot=           0 NUsed=           0 NTot=          32
 NSgBfM=    53    53    53    53    53 MxSgAt=     4 MxSgA2=     4.
 Leave Link  302 at Tue Dec  3 17:43:03 2024, MaxMem=  2147483648 cpu:               2.6 elap:               0.1
 (Enter /home/szhao/Apps/g16/l303.exe)
 DipDrv:  MaxL=1.
 Leave Link  303 at Tue Dec  3 17:43:03 2024, MaxMem=  2147483648 cpu:               0.4 elap:               0.0
 (Enter /home/szhao/Apps/g16/l401.exe)
 Initial guess from the checkpoint file:  "opt.chk"
 B after Tr=     0.000003   -0.000000    0.000000
         Rot=    0.999991    0.004205    0.000000    0.000000 Ang=   0.48 deg.
 Guess basis will be translated and rotated to current coordinates.
 JPrj=2 DoOrth=T DoCkMO=T.
 Initial guess <Sx>= 0.0000 <Sy>= 0.0000 <Sz>= 0.5000 <S**2>= 0.7513 S= 0.5007
 Generating alternative initial guess.
 ExpMin= 4.38D-02 ExpMax= 4.56D+03 ExpMxC= 6.82D+02 IAcc=3 IRadAn=         5 AccDes= 0.00D+00
 Harris functional with IExCor= 1009 and IRadAn=       5 diagonalized for initial guess.
 HarFok:  IExCor= 1009 AccDes= 0.00D+00 IRadAn=         5 IDoV= 1 UseB2=F ITyADJ=14
 ICtDFT=  3500011 ScaDFX=  1.000000  1.000000  1.000000  1.000000
 FoFCou: FMM=F IPFlag=           0 FMFlag=      100000 FMFlg1=           0
         NFxFlg=           0 DoJE=T BraDBF=F KetDBF=T FulRan=T
         wScrn=  0.000000 ICntrl=       500 IOpCl=  0 I1Cent=   200000004 NGrid=           0
         NMat0=    1 NMatS0=      1 NMatT0=    0 NMatD0=    1 NMtDS0=    0 NMtDT0=    0
 Symmetry not used in FoFCou.
 Harris En= -76.6190402815812    
 Leave Link  401 at Tue Dec  3 17:43:04 2024, MaxMem=  2147483648 cpu:               4.0 elap:               0.2
 (Enter /home/szhao/Apps/g16/l502.exe)
 Keep R1 and R2 ints in memory in canonical form, NReq=23774294.
 FoFCou: FMM=F IPFlag=           0 FMFlag=           0 FMFlg1=           0
         NFxFlg=           0 DoJE=F BraDBF=F KetDBF=F FulRan=T
         wScrn=  0.000000 ICntrl=       600 IOpCl=  0 I1Cent=           0 NGrid=           0
         NMat0=    1 NMatS0=   1596 NMatT0=    0 NMatD0=    1 NMtDS0=    0 NMtDT0=    0
 Symmetry not used in FoFCou.
 Two-electron integral symmetry not used.
 UHF open shell SCF:
 Using DIIS extrapolation, IDIIS=  1040.
 NGot=  2147483648 LenX=  2144926146 LenY=  2144922341
 Requested convergence on RMS density matrix=1.00D-08 within 128 cycles.
 Requested convergence on MAX density matrix=1.00D-06.
 Requested convergence on             energy=1.00D-06.
 No special actions if energy rises.

 Cycle   1  Pass 1  IDiag  1:
 E= -76.5830671747711    
 DIIS: error= 1.72D-03 at cycle   1 NSaved=   1.
 NSaved= 1 IEnMin= 1 EnMin= -76.5830671747711     IErMin= 1 ErrMin= 1.72D-03
 ErrMax= 1.72D-03  0.00D+00 EMaxC= 1.00D-01 BMatC= 3.61D-04 BMatP= 3.61D-04
 IDIUse=3 WtCom= 9.83D-01 WtEn= 1.72D-02
 Coeff-Com:  0.100D+01
 Coeff-En:   0.100D+01
 Coeff:      0.100D+01
 Gap=     0.508 Goal=   None    Shift=    0.000
 Gap=     0.656 Goal=   None    Shift=    0.000
 GapD=    0.508 DampG=2.000 DampE=1.000 DampFc=2.0000 IDamp=-1.
 RMSDP=1.31D-04 MaxDP=1.48D-03              OVMax= 2.90D-03

 Cycle   2  Pass 1  IDiag  1:
 E= -76.5831555728384     Delta-E=       -0.000088398067 Rises=F Damp=F
 DIIS: error= 1.89D-04 at cycle   2 NSaved=   2.
 NSaved= 2 IEnMin= 2 EnMin= -76.5831555728384     IErMin= 2 ErrMin= 1.89D-04
 ErrMax= 1.89D-04  0.00D+00 EMaxC= 1.00D-01 BMatC= 7.56D-06 BMatP= 3.61D-04
 IDIUse=3 WtCom= 9.98D-01 WtEn= 1.89D-03
 Coeff-Com: -0.638D-02 0.101D+01
 Coeff-En:   0.000D+00 0.100D+01
 Coeff:     -0.637D-02 0.101D+01
 Gap=     0.049 Goal=   None    Shift=    0.000
 Gap=     0.306 Goal=   None    Shift=    0.000
 RMSDP=4.39D-05 MaxDP=1.17D-03 DE=-8.84D-05 OVMax= 7.54D-04

 Cycle   3  Pass 1  IDiag  1:
 E= -76.5831585640520     Delta-E=       -0.000002991214 Rises=F Damp=F
 DIIS: error= 6.59D-05 at cycle   3 NSaved=   3.
 NSaved= 3 IEnMin= 3 EnMin= -76.5831585640520     IErMin= 3 ErrMin= 6.59D-05
 ErrMax= 6.59D-05  0.00D+00 EMaxC= 1.00D-01 BMatC= 7.01D-07 BMatP= 7.56D-06
 IDIUse=1 WtCom= 1.00D+00 WtEn= 0.00D+00
 Coeff-Com: -0.160D-01 0.704D-01 0.946D+00
 Coeff:     -0.160D-01 0.704D-01 0.946D+00
 Gap=     0.049 Goal=   None    Shift=    0.000
 Gap=     0.306 Goal=   None    Shift=    0.000
 RMSDP=8.59D-06 MaxDP=1.31D-04 DE=-2.99D-06 OVMax= 3.02D-04

 Cycle   4  Pass 1  IDiag  1:
 E= -76.5831588306008     Delta-E=       -0.000000266549 Rises=F Damp=F
 DIIS: error= 2.62D-05 at cycle   4 NSaved=   4.
 NSaved= 4 IEnMin= 4 EnMin= -76.5831588306008     IErMin= 4 ErrMin= 2.62D-05
 ErrMax= 2.62D-05  0.00D+00 EMaxC= 1.00D-01 BMatC= 1.05D-07 BMatP= 7.01D-07
 IDIUse=1 WtCom= 1.00D+00 WtEn= 0.00D+00
 Coeff-Com: -0.679D-03-0.659D-01 0.742D-01 0.992D+00
 Coeff:     -0.679D-03-0.659D-01 0.742D-01 0.992D+00
 Gap=     0.049 Goal=   None    Shift=    0.000
 Gap=     0.306 Goal=   None    Shift=    0.000
 RMSDP=1.01D-05 MaxDP=1.82D-04 DE=-2.67D-07 OVMax= 1.04D-03

 Cycle   5  Pass 1  IDiag  1:
 E= -76.5831586688397     Delta-E=        0.000000161761 Rises=F Damp=F
 DIIS: error= 6.08D-05 at cycle   5 NSaved=   5.
 NSaved= 5 IEnMin= 4 EnMin= -76.5831588306008     IErMin= 4 ErrMin= 2.62D-05
 ErrMax= 6.08D-05  0.00D+00 EMaxC= 1.00D-01 BMatC= 4.24D-07 BMatP= 1.05D-07
 IDIUse=1 WtCom= 1.00D+00 WtEn= 0.00D+00
 Coeff-Com:  0.715D-03-0.593D-01-0.113D-01 0.816D+00 0.254D+00
 Coeff:      0.715D-03-0.593D-01-0.113D-01 0.816D+00 0.254D+00
 Gap=     0.049 Goal=   None    Shift=    0.000
 Gap=     0.306 Goal=   None    Shift=    0.000
 RMSDP=9.14D-06 MaxDP=1.73D-04 DE= 1.62D-07 OVMax= 1.03D-03

 Cycle   6  Pass 1  IDiag  1:
 E= -76.5831588658743     Delta-E=       -0.000000197035 Rises=F Damp=F
 DIIS: error= 1.47D-05 at cycle   6 NSaved=   6.
 NSaved= 6 IEnMin= 6 EnMin= -76.5831588658743     IErMin= 6 ErrMin= 1.47D-05
 ErrMax= 1.47D-05  0.00D+00 EMaxC= 1.00D-01 BMatC= 2.72D-08 BMatP= 1.05D-07
 IDIUse=1 WtCom= 1.00D+00 WtEn= 0.00D+00
 Coeff-Com:  0.109D-02-0.171D-02-0.543D-01-0.227D-01 0.208D+00 0.870D+00
 Coeff:      0.109D-02-0.171D-02-0.543D-01-0.227D-01 0.208D+00 0.870D+00
 Gap=     0.049 Goal=   None    Shift=    0.000
 Gap=     0.306 Goal=   None    Shift=    0.000
 RMSDP=1.97D-06 MaxDP=3.40D-05 DE=-1.97D-07 OVMax= 2.03D-04

 Cycle   7  Pass 1  IDiag  1:
 E= -76.5831588795082     Delta-E=       -0.000000013634 Rises=F Damp=F
 DIIS: error= 1.41D-06 at cycle   7 NSaved=   7.
 NSaved= 7 IEnMin= 7 EnMin= -76.5831588795082     IErMin= 7 ErrMin= 1.41D-06
 ErrMax= 1.41D-06  0.00D+00 EMaxC= 1.00D-01 BMatC= 1.98D-10 BMatP= 2.72D-08
 IDIUse=1 WtCom= 1.00D+00 WtEn= 0.00D+00
 Coeff-Com: -0.295D-03 0.395D-02 0.150D-01-0.460D-01-0.671D-01-0.218D+00
 Coeff-Com:  0.131D+01
 Coeff:     -0.295D-03 0.395D-02 0.150D-01-0.460D-01-0.671D-01-0.218D+00
 Coeff:      0.131D+01
 Gap=     0.049 Goal=   None    Shift=    0.000
 Gap=     0.306 Goal=   None    Shift=    0.000
 RMSDP=2.96D-07 MaxDP=3.40D-06 DE=-1.36D-08 OVMax= 8.63D-06

 Cycle   8  Pass 1  IDiag  1:
 E= -76.5831588796760     Delta-E=       -0.000000000168 Rises=F Damp=F
 DIIS: error= 3.15D-07 at cycle   8 NSaved=   8.
 NSaved= 8 IEnMin= 8 EnMin= -76.5831588796760     IErMin= 8 ErrMin= 3.15D-07
 ErrMax= 3.15D-07  0.00D+00 EMaxC= 1.00D-01 BMatC= 1.12D-11 BMatP= 1.98D-10
 IDIUse=1 WtCom= 1.00D+00 WtEn= 0.00D+00
 Coeff-Com:  0.357D-04-0.120D-02-0.214D-02 0.179D-01 0.819D-02 0.125D-01
 Coeff-Com: -0.407D+00 0.137D+01
 Coeff:      0.357D-04-0.120D-02-0.214D-02 0.179D-01 0.819D-02 0.125D-01
 Coeff:     -0.407D+00 0.137D+01
 Gap=     0.049 Goal=   None    Shift=    0.000
 Gap=     0.306 Goal=   None    Shift=    0.000
 RMSDP=7.82D-08 MaxDP=9.96D-07 DE=-1.68D-10 OVMax= 2.62D-06

 Cycle   9  Pass 1  IDiag  1:
 E= -76.5831588796871     Delta-E=       -0.000000000011 Rises=F Damp=F
 DIIS: error= 1.09D-07 at cycle   9 NSaved=   9.
 NSaved= 9 IEnMin= 9 EnMin= -76.5831588796871     IErMin= 9 ErrMin= 1.09D-07
 ErrMax= 1.09D-07  0.00D+00 EMaxC= 1.00D-01 BMatC= 5.44D-13 BMatP= 1.12D-11
 IDIUse=1 WtCom= 1.00D+00 WtEn= 0.00D+00
 Coeff-Com:  0.278D-05 0.163D-03 0.159D-03-0.329D-02-0.295D-03 0.269D-02
 Coeff-Com:  0.750D-01-0.426D+00 0.135D+01
 Coeff:      0.278D-05 0.163D-03 0.159D-03-0.329D-02-0.295D-03 0.269D-02
 Coeff:      0.750D-01-0.426D+00 0.135D+01
 Gap=     0.049 Goal=   None    Shift=    0.000
 Gap=     0.306 Goal=   None    Shift=    0.000
 RMSDP=2.40D-08 MaxDP=2.55D-07 DE=-1.11D-11 OVMax= 2.54D-06

 Cycle  10  Pass 1  IDiag  1:
 E= -76.5831588796886     Delta-E=       -0.000000000001 Rises=F Damp=F
 DIIS: error= 1.09D-07 at cycle  10 NSaved=  10.
 NSaved=10 IEnMin=10 EnMin= -76.5831588796886     IErMin= 9 ErrMin= 1.09D-07
 ErrMax= 1.09D-07  0.00D+00 EMaxC= 1.00D-01 BMatC= 1.42D-13 BMatP= 5.44D-13
 IDIUse=1 WtCom= 1.00D+00 WtEn= 0.00D+00
 Coeff-Com: -0.120D-05 0.411D-05-0.217D-04 0.175D-03 0.240D-04-0.130D-03
 Coeff-Com: -0.573D-02 0.524D-01-0.260D+00 0.121D+01
 Coeff:     -0.120D-05 0.411D-05-0.217D-04 0.175D-03 0.240D-04-0.130D-03
 Coeff:     -0.573D-02 0.524D-01-0.260D+00 0.121D+01
 Gap=     0.049 Goal=   None    Shift=    0.000
 Gap=     0.306 Goal=   None    Shift=    0.000
 RMSDP=1.91D-08 MaxDP=2.11D-07 DE=-1.48D-12 OVMax= 2.23D-06

 Cycle  11  Pass 1  IDiag  1:
 E= -76.5831588796897     Delta-E=       -0.000000000001 Rises=F Damp=F
 DIIS: error= 1.09D-07 at cycle  11 NSaved=  11.
 NSaved=11 IEnMin=11 EnMin= -76.5831588796897     IErMin= 9 ErrMin= 1.09D-07
 ErrMax= 1.09D-07  0.00D+00 EMaxC= 1.00D-01 BMatC= 1.37D-13 BMatP= 1.42D-13
 IDIUse=1 WtCom= 1.00D+00 WtEn= 0.00D+00
 Coeff-Com:  0.124D-06-0.125D-05 0.156D-05-0.428D-05 0.455D-05 0.262D-04
 Coeff-Com:  0.156D-03-0.365D-02 0.241D-01-0.164D+00 0.114D+01
 Coeff:      0.124D-06-0.125D-05 0.156D-05-0.428D-05 0.455D-05 0.262D-04
 Coeff:      0.156D-03-0.365D-02 0.241D-01-0.164D+00 0.114D+01
 Gap=     0.049 Goal=   None    Shift=    0.000
 Gap=     0.306 Goal=   None    Shift=    0.000
 RMSDP=1.78D-08 MaxDP=1.94D-07 DE=-1.09D-12 OVMax= 2.07D-06

 Cycle  12  Pass 1  IDiag  1:
 E= -76.5831588796909     Delta-E=       -0.000000000001 Rises=F Damp=F
 DIIS: error= 1.09D-07 at cycle  12 NSaved=  12.
 NSaved=12 IEnMin=12 EnMin= -76.5831588796909     IErMin= 9 ErrMin= 1.09D-07
 ErrMax= 1.09D-07  0.00D+00 EMaxC= 1.00D-01 BMatC= 1.37D-13 BMatP= 1.37D-13
 IDIUse=1 WtCom= 1.00D+00 WtEn= 0.00D+00
 Coeff-Com:  0.182D-07-0.101D-06 0.331D-06-0.126D-05-0.255D-06 0.781D-06
 Coeff-Com:  0.550D-04-0.663D-03 0.367D-02-0.209D-01 0.601D-01 0.958D+00
 Coeff:      0.182D-07-0.101D-06 0.331D-06-0.126D-05-0.255D-06 0.781D-06
 Coeff:      0.550D-04-0.663D-03 0.367D-02-0.209D-01 0.601D-01 0.958D+00
 Gap=     0.049 Goal=   None    Shift=    0.000
 Gap=     0.306 Goal=   None    Shift=    0.000
 RMSDP=1.49D-08 MaxDP=1.63D-07 DE=-1.18D-12 OVMax= 1.74D-06

 Cycle  13  Pass 1  IDiag  1:
 E= -76.5831588796918     Delta-E=       -0.000000000001 Rises=F Damp=F
 DIIS: error= 1.09D-07 at cycle  13 NSaved=  13.
 NSaved=13 IEnMin=13 EnMin= -76.5831588796918     IErMin= 9 ErrMin= 1.09D-07
 ErrMax= 1.09D-07  0.00D+00 EMaxC= 1.00D-01 BMatC= 1.37D-13 BMatP= 1.37D-13
 IDIUse=1 WtCom= 1.00D+00 WtEn= 0.00D+00
 Large coefficients: NSaved= 13 BigCof=   19.93 CofMax=   10.00 Det=-4.96D-20
 Inversion failed.  Reducing to 12 matrices.
 Large coefficients: NSaved= 12 BigCof=   19.82 CofMax=   10.00 Det=-5.04D-20
 Inversion failed.  Reducing to 11 matrices.
 Large coefficients: NSaved= 11 BigCof=   17.48 CofMax=   10.00 Det=-5.77D-20
 Inversion failed.  Reducing to 10 matrices.
 Large coefficients: NSaved= 10 BigCof=   17.43 CofMax=   10.00 Det=-5.84D-20
 Inversion failed.  Reducing to  9 matrices.
 Large coefficients: NSaved=  9 BigCof=   14.92 CofMax=   10.00 Det=-6.93D-20
 Inversion failed.  Reducing to  8 matrices.
 Large coefficients: NSaved=  8 BigCof=   14.32 CofMax=   10.00 Det=-7.24D-20
 Inversion failed.  Reducing to  7 matrices.
 Large coefficients: NSaved=  7 BigCof=   14.21 CofMax=   10.00 Det=-7.31D-20
 Inversion failed.  Reducing to  6 matrices.
 Large coefficients: NSaved=  6 BigCof=   10.51 CofMax=   10.00 Det=-1.01D-19
 Inversion failed.  Reducing to  5 matrices.
 Coeff-Com: -0.170D-02 0.289D-01-0.838D+00 0.951D+01-0.770D+01
 Coeff:     -0.170D-02 0.289D-01-0.838D+00 0.951D+01-0.770D+01
 Gap=     0.049 Goal=   None    Shift=    0.000
 Gap=     0.306 Goal=   None    Shift=    0.000
 RMSDP=1.01D-07 MaxDP=1.10D-06 DE=-8.67D-13 OVMax= 1.17D-05

 Cycle  14  Pass 1  IDiag  1:
 E= -76.5831588796860     Delta-E=        0.000000000006 Rises=F Damp=F
 DIIS: error= 1.09D-07 at cycle  14 NSaved=   6.
 NSaved= 6 IEnMin= 5 EnMin= -76.5831588796918     IErMin= 6 ErrMin= 1.09D-07
 ErrMax= 1.09D-07  0.00D+00 EMaxC= 1.00D-01 BMatC= 1.37D-13 BMatP= 1.37D-13
 IDIUse=1 WtCom= 1.00D+00 WtEn= 0.00D+00
 Large coefficients: NSaved=  6 BigCof=   18.53 CofMax=   10.00 Det=-1.04D-19
 Inversion failed.  Reducing to  5 matrices.
 Large coefficients: NSaved=  5 BigCof=   15.56 CofMax=   10.00 Det=-1.18D-19
 Inversion failed.  Reducing to  4 matrices.
 Large coefficients: NSaved=  4 BigCof=   12.28 CofMax=   10.00 Det=-1.38D-19
 Inversion failed.  Reducing to  3 matrices.
 Coeff-Com:  0.231D+01-0.553D+01 0.422D+01
 Coeff:      0.231D+01-0.553D+01 0.422D+01
 Gap=     0.049 Goal=   None    Shift=    0.000
 Gap=     0.306 Goal=   None    Shift=    0.000
 RMSDP=3.43D-07 MaxDP=3.75D-06 DE= 5.73D-12 OVMax= 4.00D-05

 Cycle  15  Pass 1  IDiag  1:
 E= -76.5831588796662     Delta-E=        0.000000000020 Rises=F Damp=F
 DIIS: error= 1.09D-07 at cycle  15 NSaved=   4.
 NSaved= 4 IEnMin= 2 EnMin= -76.5831588796918     IErMin= 4 ErrMin= 1.09D-07
 ErrMax= 1.09D-07  0.00D+00 EMaxC= 1.00D-01 BMatC= 1.37D-13 BMatP= 1.37D-13
 IDIUse=1 WtCom= 1.00D+00 WtEn= 0.00D+00
 Large coefficients: NSaved=  4 BigCof=   12.19 CofMax=   10.00 Det=-2.38D-19
 Inversion failed.  Reducing to  3 matrices.
 Large coefficients: NSaved=  3 BigCof=   11.26 CofMax=   10.00 Det=-9.31D-19
 Inversion failed.  Reducing to  2 matrices.
 Coeff-Com:  0.851D+00 0.149D+00
 Coeff:      0.851D+00 0.149D+00
 Gap=     0.049 Goal=   None    Shift=    0.000
 Gap=     0.306 Goal=   None    Shift=    0.000
 RMSDP=3.07D-07 MaxDP=3.36D-06 DE= 1.99D-11 OVMax= 3.58D-05

 Cycle  16  Pass 1  IDiag  1:
 E= -76.5831588796840     Delta-E=       -0.000000000018 Rises=F Damp=F
 DIIS: error= 1.09D-07 at cycle  16 NSaved=   3.
 NSaved= 3 IEnMin= 1 EnMin= -76.5831588796860     IErMin= 2 ErrMin= 1.09D-07
 ErrMax= 1.09D-07  0.00D+00 EMaxC= 1.00D-01 BMatC= 1.37D-13 BMatP= 1.37D-13
 IDIUse=1 WtCom= 1.00D+00 WtEn= 0.00D+00
 Coeff-Com: -0.419D+01 0.142D+01 0.377D+01
 Coeff:     -0.419D+01 0.142D+01 0.377D+01
 Gap=     0.049 Goal=   None    Shift=    0.000
 Gap=     0.306 Goal=   None    Shift=    0.000
 RMSDP=5.69D-07 MaxDP=6.22D-06 DE=-1.78D-11 OVMax= 6.64D-05

 Cycle  17  Pass 1  IDiag  1:
 E= -76.5831588796511     Delta-E=        0.000000000033 Rises=F Damp=F
 DIIS: error= 1.09D-07 at cycle  17 NSaved=   4.
 NSaved= 4 IEnMin= 1 EnMin= -76.5831588796860     IErMin= 4 ErrMin= 1.09D-07
 ErrMax= 1.09D-07  0.00D+00 EMaxC= 1.00D-01 BMatC= 1.37D-13 BMatP= 1.37D-13
 IDIUse=1 WtCom= 1.00D+00 WtEn= 0.00D+00
 Large coefficients: NSaved=  4 BigCof=  105.97 CofMax=   10.00 Det=-2.89D-19
 Inversion failed.  Reducing to  3 matrices.
 Coeff-Com: -0.445D+01-0.231D+01 0.777D+01
 Coeff:     -0.445D+01-0.231D+01 0.777D+01
 Gap=     0.049 Goal=   None    Shift=    0.000
 Gap=     0.306 Goal=   None    Shift=    0.000
 RMSDP=4.00D-06 MaxDP=4.37D-05 DE= 3.29D-11 OVMax= 4.66D-04

 Cycle  18  Pass 1  IDiag  1:
 E= -76.5831588794201     Delta-E=        0.000000000231 Rises=F Damp=F
 DIIS: error= 1.09D-07 at cycle  18 NSaved=   4.
 NSaved= 4 IEnMin= 1 EnMin= -76.5831588796860     IErMin= 4 ErrMin= 1.09D-07
 ErrMax= 1.09D-07  0.00D+00 EMaxC= 1.00D-01 BMatC= 1.36D-13 BMatP= 1.37D-13
 IDIUse=1 WtCom= 1.00D+00 WtEn= 0.00D+00
 Large coefficients: NSaved=  4 BigCof=   22.57 CofMax=   10.00 Det=-3.84D-18
 Inversion failed.  Reducing to  3 matrices.
 Large coefficients: NSaved=  3 BigCof=   22.66 CofMax=   10.00 Det=-3.84D-18
 Inversion failed.  Reducing to  2 matrices.
 Coeff-Com:  0.409D+00 0.591D+00
 Coeff:      0.409D+00 0.591D+00
 Gap=     0.049 Goal=   None    Shift=    0.000
 Gap=     0.306 Goal=   None    Shift=    0.000
 RMSDP=1.65D-06 MaxDP=1.80D-05 DE= 2.31D-10 OVMax= 1.92D-04

 Cycle  19  Pass 1  IDiag  1:
 E= -76.5831588795153     Delta-E=       -0.000000000095 Rises=F Damp=F
 DIIS: error= 1.09D-07 at cycle  19 NSaved=   3.
 NSaved= 3 IEnMin= 1 EnMin= -76.5831588796511     IErMin= 2 ErrMin= 1.09D-07
 ErrMax= 1.09D-07  0.00D+00 EMaxC= 1.00D-01 BMatC= 1.37D-13 BMatP= 1.36D-13
 IDIUse=1 WtCom= 1.00D+00 WtEn= 0.00D+00
 Coeff-Com: -0.143D+01 0.137D+01 0.106D+01
 Coeff:     -0.143D+01 0.137D+01 0.106D+01
 Gap=     0.049 Goal=   None    Shift=    0.000
 Gap=     0.306 Goal=   None    Shift=    0.000
 RMSDP=5.59D-06 MaxDP=6.11D-05 DE=-9.52D-11 OVMax= 6.52D-04

 Cycle  20  Pass 1  IDiag  1:
 E= -76.5831588791930     Delta-E=        0.000000000322 Rises=F Damp=F
 DIIS: error= 1.08D-07 at cycle  20 NSaved=   4.
 NSaved= 4 IEnMin= 1 EnMin= -76.5831588796511     IErMin= 4 ErrMin= 1.08D-07
 ErrMax= 1.08D-07  0.00D+00 EMaxC= 1.00D-01 BMatC= 1.37D-13 BMatP= 1.36D-13
 IDIUse=1 WtCom= 1.00D+00 WtEn= 0.00D+00
 Coeff-Com: -0.275D+01 0.116D+00 0.226D+01 0.138D+01
 Coeff:     -0.275D+01 0.116D+00 0.226D+01 0.138D+01
 Gap=     0.049 Goal=   None    Shift=    0.000
 Gap=     0.306 Goal=   None    Shift=    0.000
 RMSDP=8.77D-06 MaxDP=9.60D-05 DE= 3.22D-10 OVMax= 1.02D-03

 Cycle  21  Pass 1  IDiag  1:
 E= -76.5831588786897     Delta-E=        0.000000000503 Rises=F Damp=F
 DIIS: error= 1.08D-07 at cycle  21 NSaved=   5.
 NSaved= 5 IEnMin= 1 EnMin= -76.5831588796511     IErMin= 5 ErrMin= 1.08D-07
 ErrMax= 1.08D-07  0.00D+00 EMaxC= 1.00D-01 BMatC= 1.57D-13 BMatP= 1.36D-13
 IDIUse=1 WtCom= 1.00D+00 WtEn= 0.00D+00
 Large coefficients: NSaved=  5 BigCof=  236.09 CofMax=   10.00 Det=-1.36D-18
 Inversion failed.  Reducing to  4 matrices.
 Large coefficients: NSaved=  4 BigCof=   25.50 CofMax=   10.00 Det=-1.34D-17
 Inversion failed.  Reducing to  3 matrices.
 Coeff-Com:  0.634D+00 0.392D+00-0.269D-01
 Coeff:      0.634D+00 0.392D+00-0.269D-01
 Gap=     0.049 Goal=   None    Shift=    0.000
 Gap=     0.306 Goal=   None    Shift=    0.000
 RMSDP=1.41D-05 MaxDP=1.54D-04 DE= 5.03D-10 OVMax= 1.64D-03

 Cycle  22  Pass 1  IDiag  1:
 E= -76.5831588794977     Delta-E=       -0.000000000808 Rises=F Damp=F
 DIIS: error= 1.09D-07 at cycle  22 NSaved=   4.
 NSaved= 4 IEnMin= 1 EnMin= -76.5831588796511     IErMin= 3 ErrMin= 1.08D-07
 ErrMax= 1.09D-07  0.00D+00 EMaxC= 1.00D-01 BMatC= 1.39D-13 BMatP= 1.37D-13
 IDIUse=1 WtCom= 1.00D+00 WtEn= 0.00D+00
 Large coefficients: NSaved=  4 BigCof=   54.76 CofMax=   10.00 Det=-7.56D-18
 Inversion failed.  Reducing to  3 matrices.
 Coeff-Com:  0.751D+00 0.934D-01 0.156D+00
 Coeff:      0.751D+00 0.934D-01 0.156D+00
 Gap=     0.049 Goal=   None    Shift=    0.000
 Gap=     0.306 Goal=   None    Shift=    0.000
 RMSDP=6.93D-07 MaxDP=7.59D-06 DE=-8.08D-10 OVMax= 8.09D-05

 Cycle  23  Pass 1  IDiag  1:
 E= -76.5831588795378     Delta-E=       -0.000000000040 Rises=F Damp=F
 DIIS: error= 1.09D-07 at cycle  23 NSaved=   4.
 NSaved= 4 IEnMin= 1 EnMin= -76.5831588796511     IErMin= 2 ErrMin= 1.08D-07
 ErrMax= 1.09D-07  0.00D+00 EMaxC= 1.00D-01 BMatC= 1.37D-13 BMatP= 1.37D-13
 IDIUse=1 WtCom= 1.00D+00 WtEn= 0.00D+00
 Large coefficients: NSaved=  4 BigCof=   61.06 CofMax=   10.00 Det=-5.04D-18
 Inversion failed.  Reducing to  3 matrices.
 Coeff-Com: -0.361D+00 0.538D+00 0.822D+00
 Coeff:     -0.361D+00 0.538D+00 0.822D+00
 Gap=     0.049 Goal=   None    Shift=    0.000
 Gap=     0.306 Goal=   None    Shift=    0.000
 RMSDP=1.06D-06 MaxDP=1.16D-05 DE=-4.01D-11 OVMax= 1.24D-04

 Cycle  24  Pass 1  IDiag  1:
 E= -76.5831588794763     Delta-E=        0.000000000061 Rises=F Damp=F
 DIIS: error= 1.09D-07 at cycle  24 NSaved=   4.
 NSaved= 4 IEnMin= 1 EnMin= -76.5831588796511     IErMin= 4 ErrMin= 1.09D-07
 ErrMax= 1.09D-07  0.00D+00 EMaxC= 1.00D-01 BMatC= 1.36D-13 BMatP= 1.37D-13
 IDIUse=1 WtCom= 1.00D+00 WtEn= 0.00D+00
 Coeff-Com: -0.697D+01 0.205D+01 0.294D+00 0.562D+01
 Coeff:     -0.697D+01 0.205D+01 0.294D+00 0.562D+01
 Gap=     0.049 Goal=   None    Shift=    0.000
 Gap=     0.306 Goal=   None    Shift=    0.000
 RMSDP=2.00D-05 MaxDP=2.18D-04 DE= 6.14D-11 OVMax= 2.33D-03

 Cycle  25  Pass 1  IDiag  1:
 E= -76.5831588783316     Delta-E=        0.000000001145 Rises=F Damp=F
 DIIS: error= 1.07D-07 at cycle  25 NSaved=   5.
 NSaved= 5 IEnMin= 1 EnMin= -76.5831588796511     IErMin= 5 ErrMin= 1.07D-07
 ErrMax= 1.07D-07  0.00D+00 EMaxC= 1.00D-01 BMatC= 2.62D-13 BMatP= 1.36D-13
 IDIUse=1 WtCom= 1.00D+00 WtEn= 0.00D+00
 Large coefficients: NSaved=  5 BigCof=  125.82 CofMax=   10.00 Det=-2.09D-18
 Inversion failed.  Reducing to  4 matrices.
 Coeff-Com: -0.939D+00-0.134D+01 0.334D+01-0.536D-01
 Coeff:     -0.939D+00-0.134D+01 0.334D+01-0.536D-01
 Gap=     0.049 Goal=   None    Shift=    0.000
 Gap=     0.306 Goal=   None    Shift=    0.000
 RMSDP=1.68D-05 MaxDP=1.84D-04 DE= 1.14D-09 OVMax= 1.96D-03

 Cycle  26  Pass 1  IDiag  1:
 E= -76.5831588792929     Delta-E=       -0.000000000961 Rises=F Damp=F
 DIIS: error= 1.09D-07 at cycle  26 NSaved=   5.
 NSaved= 5 IEnMin= 1 EnMin= -76.5831588796511     IErMin= 4 ErrMin= 1.07D-07
 ErrMax= 1.09D-07  0.00D+00 EMaxC= 1.00D-01 BMatC= 1.38D-13 BMatP= 1.36D-13
 IDIUse=1 WtCom= 1.00D+00 WtEn= 0.00D+00
 Large coefficients: NSaved=  5 BigCof=  353.11 CofMax=   10.00 Det=-9.71D-19
 Inversion failed.  Reducing to  4 matrices.
 Large coefficients: NSaved=  4 BigCof=   71.83 CofMax=   10.00 Det=-4.73D-18
 Inversion failed.  Reducing to  3 matrices.
 Coeff-Com:  0.724D+00-0.625D-02 0.282D+00
 Coeff:      0.724D+00-0.625D-02 0.282D+00
 Gap=     0.049 Goal=   None    Shift=    0.000
 Gap=     0.306 Goal=   None    Shift=    0.000
 RMSDP=4.61D-06 MaxDP=5.04D-05 DE=-9.61D-10 OVMax= 5.38D-04

 Cycle  27  Pass 1  IDiag  1:
 E= -76.5831588795590     Delta-E=       -0.000000000266 Rises=F Damp=F
 DIIS: error= 1.09D-07 at cycle  27 NSaved=   4.
 NSaved= 4 IEnMin= 1 EnMin= -76.5831588796511     IErMin= 2 ErrMin= 1.07D-07
 ErrMax= 1.09D-07  0.00D+00 EMaxC= 1.00D-01 BMatC= 1.39D-13 BMatP= 1.37D-13
 IDIUse=1 WtCom= 1.00D+00 WtEn= 0.00D+00
 Large coefficients: NSaved=  4 BigCof=   88.81 CofMax=   10.00 Det=-3.71D-18
 Inversion failed.  Reducing to  3 matrices.
 Coeff-Com: -0.342D+00 0.774D+00 0.568D+00
 Coeff:     -0.342D+00 0.774D+00 0.568D+00
 Gap=     0.049 Goal=   None    Shift=    0.000
 Gap=     0.306 Goal=   None    Shift=    0.000
 RMSDP=4.10D-06 MaxDP=4.48D-05 DE=-2.66D-10 OVMax= 4.78D-04

 Cycle  28  Pass 1  IDiag  1:
 E= -76.5831588793225     Delta-E=        0.000000000236 Rises=F Damp=F
 DIIS: error= 1.09D-07 at cycle  28 NSaved=   4.
 NSaved= 4 IEnMin= 1 EnMin= -76.5831588796511     IErMin= 2 ErrMin= 1.09D-07
 ErrMax= 1.09D-07  0.00D+00 EMaxC= 1.00D-01 BMatC= 1.36D-13 BMatP= 1.37D-13
 IDIUse=1 WtCom= 1.00D+00 WtEn= 0.00D+00
 Large coefficients: NSaved=  4 BigCof=   82.63 CofMax=   10.00 Det=-5.67D-18
 Inversion failed.  Reducing to  3 matrices.
 Large coefficients: NSaved=  3 BigCof=   29.18 CofMax=   10.00 Det=-1.55D-17
 Inversion failed.  Reducing to  2 matrices.
 Coeff-Com:  0.156D+00 0.844D+00
 Coeff:      0.156D+00 0.844D+00
 Gap=     0.049 Goal=   None    Shift=    0.000
 Gap=     0.306 Goal=   None    Shift=    0.000
 RMSDP=6.56D-07 MaxDP=7.19D-06 DE= 2.36D-10 OVMax= 7.66D-05

 Cycle  29  Pass 1  IDiag  1:
 E= -76.5831588793603     Delta-E=       -0.000000000038 Rises=F Damp=F
 DIIS: error= 1.09D-07 at cycle  29 NSaved=   3.
 NSaved= 3 IEnMin= 1 EnMin= -76.5831588795590     IErMin= 2 ErrMin= 1.09D-07
 ErrMax= 1.09D-07  0.00D+00 EMaxC= 1.00D-01 BMatC= 1.36D-13 BMatP= 1.36D-13
 IDIUse=1 WtCom= 1.00D+00 WtEn= 0.00D+00
 Large coefficients: NSaved=  3 BigCof=   36.88 CofMax=   10.00 Det=-1.38D-17
 Inversion failed.  Reducing to  2 matrices.
 Coeff-Com:  0.614D+00 0.386D+00
 Coeff:      0.614D+00 0.386D+00
 Gap=     0.049 Goal=   None    Shift=    0.000
 Gap=     0.306 Goal=   None    Shift=    0.000
 RMSDP=3.88D-07 MaxDP=4.24D-06 DE=-3.79D-11 OVMax= 4.52D-05

 Cycle  30  Pass 1  IDiag  1:
 E= -76.5831588793380     Delta-E=        0.000000000022 Rises=F Damp=F
 DIIS: error= 1.09D-07 at cycle  30 NSaved=   3.
 NSaved= 3 IEnMin= 2 EnMin= -76.5831588793603     IErMin= 1 ErrMin= 1.09D-07
 ErrMax= 1.09D-07  0.00D+00 EMaxC= 1.00D-01 BMatC= 1.36D-13 BMatP= 1.36D-13
 IDIUse=1 WtCom= 1.00D+00 WtEn= 0.00D+00
 Coeff-Com: -0.126D+01-0.193D+01 0.419D+01
 Coeff:     -0.126D+01-0.193D+01 0.419D+01
 Gap=     0.049 Goal=   None    Shift=    0.000
 Gap=     0.306 Goal=   None    Shift=    0.000
 RMSDP=3.93D-07 MaxDP=4.29D-06 DE= 2.24D-11 OVMax= 4.58D-05

 Cycle  31  Pass 1  IDiag  1:
 E= -76.5831588793153     Delta-E=        0.000000000023 Rises=F Damp=F
 DIIS: error= 1.09D-07 at cycle  31 NSaved=   4.
 NSaved= 4 IEnMin= 2 EnMin= -76.5831588793603     IErMin= 4 ErrMin= 1.09D-07
 ErrMax= 1.09D-07  0.00D+00 EMaxC= 1.00D-01 BMatC= 1.36D-13 BMatP= 1.36D-13
 IDIUse=1 WtCom= 1.00D+00 WtEn= 0.00D+00
 Large coefficients: NSaved=  4 BigCof=   21.59 CofMax=   10.00 Det=-2.77D-18
 Inversion failed.  Reducing to  3 matrices.
 Large coefficients: NSaved=  3 BigCof=   16.43 CofMax=   10.00 Det=-5.14D-18
 Inversion failed.  Reducing to  2 matrices.
 Coeff-Com:  0.310D+00 0.690D+00
 Coeff:      0.310D+00 0.690D+00
 Gap=     0.049 Goal=   None    Shift=    0.000
 Gap=     0.306 Goal=   None    Shift=    0.000
 RMSDP=1.37D-07 MaxDP=1.51D-06 DE= 2.26D-11 OVMax= 1.60D-05

 Cycle  32  Pass 1  IDiag  1:
 E= -76.5831588793233     Delta-E=       -0.000000000008 Rises=F Damp=F
 DIIS: error= 1.09D-07 at cycle  32 NSaved=   3.
 NSaved= 3 IEnMin= 1 EnMin= -76.5831588793380     IErMin= 2 ErrMin= 1.09D-07
 ErrMax= 1.09D-07  0.00D+00 EMaxC= 1.00D-01 BMatC= 1.37D-13 BMatP= 1.36D-13
 IDIUse=1 WtCom= 1.00D+00 WtEn= 0.00D+00
 Large coefficients: NSaved=  3 BigCof=   11.97 CofMax=   10.00 Det=-2.83D-18
 Inversion failed.  Reducing to  2 matrices.
 Coeff-Com:  0.790D+00 0.210D+00
 Coeff:      0.790D+00 0.210D+00
 Gap=     0.049 Goal=   None    Shift=    0.000
 Gap=     0.306 Goal=   None    Shift=    0.000
 RMSDP=9.30D-08 MaxDP=1.02D-06 DE=-7.99D-12 OVMax= 1.08D-05

 Cycle  33  Pass 1  IDiag  1:
 E= -76.5831588793181     Delta-E=        0.000000000005 Rises=F Damp=F
 DIIS: error= 1.09D-07 at cycle  33 NSaved=   3.
 NSaved= 3 IEnMin= 2 EnMin= -76.5831588793233     IErMin= 1 ErrMin= 1.09D-07
 ErrMax= 1.09D-07  0.00D+00 EMaxC= 1.00D-01 BMatC= 1.35D-13 BMatP= 1.36D-13
 IDIUse=1 WtCom= 1.00D+00 WtEn= 0.00D+00
 Coeff-Com:  0.637D+00 0.161D+00 0.202D+00
 Coeff:      0.637D+00 0.161D+00 0.202D+00
 Gap=     0.049 Goal=   None    Shift=    0.000
 Gap=     0.306 Goal=   None    Shift=    0.000
 RMSDP=2.19D-09 MaxDP=2.40D-08 DE= 5.26D-12 OVMax= 2.56D-07

 SCF Done:  E(UM062X) =  -76.5831588793     A.U. after   33 cycles
            NFock= 33  Conv=0.22D-08     -V/T= 2.0028
 <Sx>= 0.0000 <Sy>= 0.0000 <Sz>= 0.5000 <S**2>= 0.7513 S= 0.5007
 <L.S>=  0.00000000000    
 KE= 7.637215664531D+01 PE=-1.947723548038D+02 EE= 3.184143090134D+01
 Annihilation of the first spin contaminant:
 S**2 before annihilation     0.7513,   after     0.7500
 Leave Link  502 at Tue Dec  3 17:43:09 2024, MaxMem=  2147483648 cpu:             127.3 elap:               5.5
 (Enter /home/szhao/Apps/g16/l701.exe)
 ... and contract with generalized density number  0.
 Compute integral first derivatives.
 Leave Link  701 at Tue Dec  3 17:43:09 2024, MaxMem=  2147483648 cpu:               2.2 elap:               0.1
 (Enter /home/szhao/Apps/g16/l702.exe)
 L702 exits ... SP integral derivatives will be done elsewhere.
 Leave Link  702 at Tue Dec  3 17:43:09 2024, MaxMem=  2147483648 cpu:               0.3 elap:               0.0
 (Enter /home/szhao/Apps/g16/l703.exe)
 Integral derivatives from FoFJK, PRISM(SPDF).
 Compute integral first derivatives, UseDBF=F ICtDFT=           0.
 Calling FoFJK, ICntrl=      2127 FMM=F ISym2X=0 I1Cent= 0 IOpClX= 1 NMat=1 NMatS=1 NMatT=0.
 FoFJK:  IHMeth= 1 ICntrl=    2127 DoSepK=F KAlg= 0 I1Cent=           0 FoldK=F
 IRaf=         0 NMat=       1 IRICut=       1 DoRegI=T DoRafI=F ISym2E= 0 IDoP0=0 IntGTp=1.
 FoFCou: FMM=F IPFlag=           0 FMFlag=      100000 FMFlg1=         800
         NFxFlg=           0 DoJE=F BraDBF=F KetDBF=F FulRan=T
         wScrn=  0.000000 ICntrl=      2127 IOpCl=  1 I1Cent=           0 NGrid=           0
         NMat0=    1 NMatS0=      1 NMatT0=    0 NMatD0=    1 NMtDS0=    0 NMtDT0=    0
 Symmetry not used in FoFCou.
 Leave Link  703 at Tue Dec  3 17:43:10 2024, MaxMem=  2147483648 cpu:               8.8 elap:               0.4
 (Enter /home/szhao/Apps/g16/l716.exe)
 Dipole        =-5.36453560D-07-7.86764714D-14 5.52501395D-13
 -------------------------------------------------------------------
 Center     Atomic                   Forces (Hartrees/Bohr)
 Number     Number              X              Y              Z
 -------------------------------------------------------------------
      1        6          -0.000000000   -0.000000000   -0.000000000
      2        6          -0.000000000   -0.000000000   -0.000000000
      3        1          -0.000312898    0.000000000    0.000000000
      4        1           0.000313400   -0.000000000    0.000000000
 -------------------------------------------------------------------
 Cartesian Forces:  Max     0.000313400 RMS     0.000127843
 Leave Link  716 at Tue Dec  3 17:43:10 2024, MaxMem=  2147483648 cpu:               0.4 elap:               0.0
 (Enter /home/szhao/Apps/g16/l103.exe)

 GradGradGradGradGradGradGradGradGradGradGradGradGradGradGradGradGradGrad
 Berny optimization.
 Using GEDIIS/GDIIS optimizer.
 FormGI is forming the generalized inverse of G from B-inverse, IUseBI=4.
 Internal  Forces:  Max     0.000313400 RMS     0.000180797
 Search for a local minimum.
 Step number   2 out of a maximum of   22
 All quantities printed in internal units (Hartrees-Bohrs-Radians)
 RMS Force = .18080D-03 SwitMx=.10000D-02 MixMth= 2
 Mixed Optimization -- En-DIIS/RFO-DIIS
 Update second derivatives using D2CorX and points    1    2
 DE= -3.37D-04 DEPred=-3.33D-04 R= 1.01D+00
 TightC=F SS=  1.41D+00  RLast= 4.45D-02 DXNew= 5.0454D-01 1.3335D-01
 Trust test= 1.01D+00 RLast= 4.45D-02 DXMaxT set to 3.00D-01
 The second derivative matrix:
                          X1        Y1        Z1        X2        Y2
           X1           0.66300
           Y1           0.00000   0.50000
           Z1           0.00000   0.00000   0.50000
           X2          -0.16322  -0.00000  -0.00000   0.66344
           Y2          -0.00000  -0.00000  -0.00000   0.00000   0.50000
           Z2           0.00000   0.00000   0.00000  -0.00000  -0.00000
           R1          -0.16300  -0.00000  -0.00000   0.16322   0.00000
           R2          -0.16322  -0.00000  -0.00000   0.16344   0.00000
           A1          -0.00000  -0.00000  -0.00000   0.00000   0.00000
           A2           0.00000   0.00000   0.00000  -0.00000  -0.00000
           A3           0.00000   0.00000   0.00000  -0.00000  -0.00000
           A4           0.00000   0.00000   0.00000  -0.00000  -0.00000
                          Z2        R1        R2        A1        A2
           Z2           0.50000
           R1          -0.00000   0.33108
           R2          -0.00000  -0.00465   0.33109
           A1          -0.00000   0.00000   0.00000   0.00230
           A2           0.00000  -0.00000  -0.00000  -0.00000   0.00230
           A3           0.00000  -0.00000  -0.00000  -0.00000   0.00000
           A4           0.00000  -0.00000  -0.00000  -0.00000   0.00000
                          A3        A4
           A3           0.00230
           A4           0.00000   0.00230
 ITU=  1  0
 Use linear search instead of GDIIS.
     Eigenvalues ---    0.00230   0.00230   0.00230   0.32644   0.33574
     Eigenvalues --- 1000.000001000.000001000.000001000.000001000.00000
     Eigenvalues --- 1000.000001000.00000
 RFO step:  Lambda= 0.00000000D+00 EMin= 2.30000000D-03
 Quartic linear search produced a step of  0.03210.
 Iteration  1 RMS(Cart)=  0.00041192 RMS(Int)=  0.00000000
 Iteration  2 RMS(Cart)=  0.00000000 RMS(Int)=  0.00000000
 ITry= 1 IFail=0 DXMaxC= 1.01D-03 DCOld= 1.00D+10 DXMaxT= 3.00D-01 DXLimC= 3.00D+00 Rises=F
 Variable       Old X    -DE/DX   Delta X   Delta X   Delta X     New X
                                 (Linear)    (Quad)   (Total)
    X1       -5.44649  -0.00031   0.00000   0.00000   0.00000  -5.44649
    Y1        0.00000   0.00000   0.00000   0.00000   0.00000   0.00000
    Z1        0.00000   0.00000   0.00000   0.00000   0.00000   0.00000
    X2        5.44649   0.00031   0.00000   0.00000   0.00000   5.44649
    Y2        0.00000  -0.00000   0.00000   0.00000   0.00000   0.00000
    Z2        0.00000   0.00000   0.00000   0.00000   0.00000   0.00000
    R1        2.11199   0.00031   0.00101  -0.00000   0.00101   2.11300
    R2        2.11199   0.00031   0.00101   0.00000   0.00101   2.11300
    A1        3.14159  -0.00000   0.00000  -0.00000   0.00000   3.14159
    A2        3.14159   0.00000   0.00000   0.00000   0.00000   3.14159
    A3        3.14159   0.00000   0.00000   0.00000   0.00000   3.14159
    A4        3.14159   0.00000   0.00000   0.00000   0.00000   3.14159
         Item               Value     Threshold  Converged?
 Maximum Force            0.000313     0.000450     YES
 RMS     Force            0.000181     0.000300     YES
 Maximum Displacement     0.001010     0.001800     YES
 RMS     Displacement     0.000412     0.001200     YES
 Predicted change in Energy=-2.995931D-07
 Optimization completed.
    -- Stationary point found.
                           ----------------------------
                           !   Optimized Parameters   !
                           ! (Angstroms and Degrees)  !
 --------------------------                            --------------------------
 ! Name  Definition              Value          Derivative Info.                !
 --------------------------------------------------------------------------------
 ! X1    R(1,-1)                -2.8822         -DE/DX =   -0.0003              !
 ! Y1    R(1,-2)                 0.0            -DE/DX =    0.0                 !
 ! Z1    R(1,-3)                 0.0            -DE/DX =    0.0                 !
 ! X2    R(2,-1)                 2.8822         -DE/DX =    0.0003              !
 ! Y2    R(2,-2)                 0.0            -DE/DX =    0.0                 !
 ! Z2    R(2,-3)                 0.0            -DE/DX =    0.0                 !
 ! R1    R(1,3)                  1.1176         -DE/DX =    0.0003              !
 ! R2    R(2,4)                  1.1176         -DE/DX =    0.0003              !
 ! A1    L(2,1,3,-2,-1)        180.0            -DE/DX =    0.0                 !
 ! A2    L(1,2,4,-2,-1)        180.0            -DE/DX =    0.0                 !
 ! A3    L(2,1,3,-3,-2)        180.0            -DE/DX =    0.0                 !
 ! A4    L(1,2,4,-3,-2)        180.0            -DE/DX =    0.0                 !
 --------------------------------------------------------------------------------
 Lowest energy point so far.  Saving SCF results.
 Largest change from initial coordinates is atom    4       0.017 Angstoms.
 GradGradGradGradGradGradGradGradGradGradGradGradGradGradGradGradGradGrad

 Leave Link  103 at Tue Dec  3 17:43:10 2024, MaxMem=  2147483648 cpu:               0.4 elap:               0.0
 (Enter /home/szhao/Apps/g16/l202.exe)
                          Input orientation:                          
 ---------------------------------------------------------------------
 Center     Atomic      Atomic             Coordinates (Angstroms)
 Number     Number       Type             X           Y           Z
 ---------------------------------------------------------------------
      1          6           0       -2.882160    0.000000    0.000000
      2          6           0        2.882160    0.000000    0.000000
      3          1           0       -3.999776    0.000000    0.000000
      4          1           0        3.999775   -0.000000    0.000000
 ---------------------------------------------------------------------
                    Distance matrix (angstroms):
                    1          2          3          4
     1  C    0.000000
     2  C    5.764320   0.000000
     3  H    1.117616   6.881936   0.000000
     4  H    6.881935   1.117615   7.999550   0.000000
 Symmetry turned off by external request.
 Stoichiometry    C2H2(1+,2)
 Framework group  C*V[C*(HCCH)]
 Deg. of freedom     3
 Full point group                 C*V     NOp   4
 Rotational constants (GHZ):           0.0000000           2.1820156           2.1820156
 Leave Link  202 at Tue Dec  3 17:43:10 2024, MaxMem=  2147483648 cpu:               0.2 elap:               0.0
 (Enter /home/szhao/Apps/g16/l601.exe)
 Copying SCF densities to generalized density rwf, IOpCl= 1 IROHF=0.

 **********************************************************************

            Population analysis using the SCF density.

 **********************************************************************

 Alpha  occ. eigenvalues --  -10.93006 -10.93006  -0.96747  -0.96727  -0.61928
 Alpha  occ. eigenvalues --   -0.61875  -0.45376
 Alpha virt. eigenvalues --   -0.40514  -0.31750  -0.31731  -0.10978  -0.10501
 Alpha virt. eigenvalues --   -0.07912  -0.06259  -0.06122  -0.04489  -0.04259
 Alpha virt. eigenvalues --   -0.01341   0.00668   0.03174   0.28633   0.30208
 Alpha virt. eigenvalues --    0.37712   0.38592   0.38844   0.39777   0.41240
 Alpha virt. eigenvalues --    0.42315   0.47097   0.56513   0.90803   0.90843
 Alpha virt. eigenvalues --    0.91018   0.91029   1.09184   1.09201   1.10228
 Alpha virt. eigenvalues --    1.10244   1.37036   1.37141   1.64152   1.64209
 Alpha virt. eigenvalues --    1.64435   1.64496   2.17143   2.17884   2.28926
 Alpha virt. eigenvalues --    2.30169   2.45006   2.45840   2.46426   2.47272
 Alpha virt. eigenvalues --    2.95139   2.96298  23.25017  23.27483
  Beta  occ. eigenvalues --  -10.92590 -10.92590  -0.94370  -0.94368  -0.60540
  Beta  occ. eigenvalues --   -0.60494
  Beta virt. eigenvalues --   -0.29862  -0.29837  -0.28230  -0.28199  -0.11320
  Beta virt. eigenvalues --   -0.10545  -0.07587  -0.05462  -0.04528  -0.03669
  Beta virt. eigenvalues --   -0.02729  -0.01403   0.02379   0.04961   0.27711
  Beta virt. eigenvalues --    0.29776   0.38029   0.38336   0.39511   0.39690
  Beta virt. eigenvalues --    0.44717   0.45066   0.49395   0.58540   0.98023
  Beta virt. eigenvalues --    0.98066   0.98930   0.98972   1.12463   1.12464
  Beta virt. eigenvalues --    1.12474   1.12474   1.37457   1.37551   1.65906
  Beta virt. eigenvalues --    1.65963   1.66578   1.66637   2.33247   2.33571
  Beta virt. eigenvalues --    2.34139   2.34705   2.47598   2.48456   2.49955
  Beta virt. eigenvalues --    2.50806   3.04807   3.06310  23.26341  23.28806
          Condensed to atoms (all electrons):
               1          2          3          4
     1  C    5.461409   0.001188   0.247915  -0.000010
     2  C    0.001188   5.461409  -0.000010   0.247915
     3  H    0.247915  -0.000010   0.541591  -0.000000
     4  H   -0.000010   0.247915  -0.000000   0.541591
          Atomic-Atomic Spin Densities.
               1          2          3          4
     1  C    0.520209   0.000398  -0.004675  -0.000004
     2  C    0.000398   0.520209  -0.000004  -0.004675
     3  H   -0.004675  -0.000004  -0.011248  -0.000000
     4  H   -0.000004  -0.004675  -0.000000  -0.011248
 Mulliken charges and spin densities:
               1          2
     1  C    0.289497   0.515927
     2  C    0.289496   0.515928
     3  H    0.210504  -0.015927
     4  H    0.210504  -0.015927
 Sum of Mulliken charges =   1.00000   1.00000
 Mulliken charges and spin densities with hydrogens summed into heavy atoms:
               1          2
     1  C    0.500000   0.500000
     2  C    0.500000   0.500000
 Electronic spatial extent (au):  <R**2>=            447.0064
 Charge=              1.0000 electrons
 Dipole moment (field-independent basis, Debye):
    X=             -0.0000    Y=             -0.0000    Z=              0.0000  Tot=              0.0000
 Quadrupole moment (field-independent basis, Debye-Ang):
   XX=             52.1653   YY=            -10.9485   ZZ=             -9.9768
   XY=              0.0000   XZ=              0.0000   YZ=             -0.8648
 Traceless Quadrupole moment (field-independent basis, Debye-Ang):
   XX=             41.7520   YY=            -21.3618   ZZ=            -20.3901
   XY=              0.0000   XZ=              0.0000   YZ=             -0.8648
 Octapole moment (field-independent basis, Debye-Ang**2):
  XXX=             -0.0000  YYY=              0.0000  ZZZ=             -0.0000  XYY=              0.0000
  XXY=             -0.0000  XXZ=              0.0000  XZZ=              0.0000  YZZ=              0.0000
  YYZ=             -0.0000  XYZ=             -0.0000
 Hexadecapole moment (field-independent basis, Debye-Ang**3):
 XXXX=            170.1714 YYYY=            -11.3789 ZZZZ=             -9.3230 XXXY=              0.0000
 XXXZ=              0.0000 YYYX=              0.0000 YYYZ=             -0.9148 ZZZX=              0.0000
 ZZZY=             -0.9148 XXYY=            -99.8498 XXZZ=            -91.3333 YYZZ=             -3.4503
 XXYZ=             -7.5795 YYXZ=              0.0000 ZZXY=              0.0000
 N-N= 9.975608377805D+00 E-N=-1.947723548034D+02  KE= 7.637215664531D+01
                          Isotropic Fermi Contact Couplings
        Atom                 a.u.       MegaHertz       Gauss      10(-4) cm-1
     1  C(13)              0.07827      87.98498      31.39523      29.34863
     2  C(13)              0.07827      87.98502      31.39524      29.34864
     3  H(1)              -0.00413     -18.47402      -6.59199      -6.16227
     4  H(1)              -0.00413     -18.47395      -6.59197      -6.16225
 --------------------------------------------------------
       Center         ----  Spin Dipole Couplings  ----
                      3XX-RR        3YY-RR        3ZZ-RR
 --------------------------------------------------------
     1   Atom       -0.323340      0.411222     -0.087881
     2   Atom       -0.323341      0.411222     -0.087881
     3   Atom        0.042200     -0.012606     -0.029594
     4   Atom        0.042200     -0.012606     -0.029594
 --------------------------------------------------------
                        XY            XZ            YZ
 --------------------------------------------------------
     1   Atom       -0.000000      0.000000      0.444192
     2   Atom        0.000000     -0.000000      0.444193
     3   Atom        0.000000     -0.000000      0.015118
     4   Atom       -0.000000      0.000000      0.015118
 --------------------------------------------------------


 ---------------------------------------------------------------------------------
              Anisotropic Spin Dipole Couplings in Principal Axis System
 ---------------------------------------------------------------------------------

       Atom             a.u.   MegaHertz   Gauss  10(-4) cm-1        Axes

              Baa    -0.3478   -46.674   -16.655   -15.569 -0.0000 -0.5051  0.8631
     1 C(13)  Bbb    -0.3233   -43.389   -15.482   -14.473  1.0000 -0.0000  0.0000
              Bcc     0.6712    90.064    32.137    30.042  0.0000  0.8631  0.5051
 
              Baa    -0.3478   -46.674   -16.655   -15.569  0.0000 -0.5051  0.8631
     2 C(13)  Bbb    -0.3233   -43.389   -15.482   -14.473  1.0000  0.0000 -0.0000
              Bcc     0.6712    90.064    32.137    30.042  0.0000  0.8631  0.5051
 
              Baa    -0.0384   -20.510    -7.319    -6.841  0.0000 -0.5051  0.8631
     3 H(1)   Bbb    -0.0038    -2.006    -0.716    -0.669 -0.0000  0.8631  0.5051
              Bcc     0.0422    22.516     8.034     7.510  1.0000  0.0000 -0.0000
 
              Baa    -0.0384   -20.510    -7.319    -6.841 -0.0000 -0.5051  0.8631
     4 H(1)   Bbb    -0.0038    -2.006    -0.716    -0.669 -0.0000  0.8631  0.5051
              Bcc     0.0422    22.516     8.034     7.510  1.0000 -0.0000  0.0000
 

 ---------------------------------------------------------------------------------

 No NMR shielding tensors so no spin-rotation constants.
 Leave Link  601 at Tue Dec  3 17:43:10 2024, MaxMem=  2147483648 cpu:               3.1 elap:               0.2
 (Enter /home/szhao/Apps/g16/l9999.exe)
 1\1\GINC-NODE01\FOpt\UM062X\6-311+G(d,p)\C2H2(1+,2)\SZHAO\03-Dec-2024\
 0\\#p opt UM062X/6-311+G** nosymm int=superfine SCF=NoVarAcc\\Title Ca
 rd Required\\1,2\C,-2.88216,0.,0.\C,2.88216,0.,0.\H,-3.9997755301,0.,0
 .\H,3.9997746738,0.,0.\\Version=ES64L-G16RevA.03\HF=-76.5831589\S2=0.7
 5132\S2-1=0.\S2A=0.750001\RMSD=2.194e-09\RMSF=1.278e-04\Dipole=-0.0000
 004,0.,0.\Quadrupole=31.0415616,-15.88201,-15.1595516,0.,0.,-0.6429774
 \PG=C*V [C*(H1C1C1H1)]\\@


 WE STILL HAVE JUDGEMENT HERE,
 THAT WE TEACH BUT BLOODY INSTRUCTIONS,
 WHICH, BEING TAUGHT,
 RETURN TO PLAGUE THE INVENTOR.
           MACBETH ACT I, SCENE VII
 Job cpu time:       0 days  0 hours  4 minutes  4.8 seconds.
 Elapsed time:       0 days  0 hours  0 minutes 10.9 seconds.
 File lengths (MBytes):  RWF=      6 Int=      0 D2E=      0 Chk=      1 Scr=      1
 Normal termination of Gaussian 16 at Tue Dec  3 17:43:10 2024.
