Title Card Required                                                     
FOpt      UM062X                                                      6-311+G(d,p)        
Number of atoms                            I                4
Info1-9                                    I   N=           9
          13          13           0           0           0         110
           2          18        -502
Full Title                                 C   N=           2
Title Card Required     
Route                                      C   N=           5
#p opt UM062X/6-311+G** nosymm int=superfine SCF=NoVarAcc   
Charge                                     I                1
Multiplicity                               I                2
Number of electrons                        I               13
Number of alpha electrons                  I                7
Number of beta electrons                   I                6
Number of basis functions                  I               56
Number of independent functions            I               56
Number of point charges in /Mol/           I                0
Number of translation vectors              I                0
Atomic numbers                             I   N=           4
           6           6           1           1
Nuclear charges                            R   N=           4
  6.00000000E+00  6.00000000E+00  1.00000000E+00  1.00000000E+00
Current cartesian coordinates              R   N=          12
 -5.44649305E+00  0.00000000E+00  0.00000000E+00  5.44649305E+00  0.00000000E+00
  0.00000000E+00 -7.55848031E+00  2.33239688E-14  9.82618423E-13  7.55847869E+00
 -4.27402008E-13  9.84518388E-13
Number of symbols in /Mol/                 I                0
Force Field                                I                0
Atom Types                                 C   N=           4
                                                
Int Atom Types                             I   N=           4
           0           0           0           0
MM charges                                 R   N=           4
  0.00000000E+00  0.00000000E+00  0.00000000E+00  0.00000000E+00
Integer atomic weights                     I   N=           4
          12          12           1           1
Real atomic weights                        R   N=           4
  1.20000000E+01  1.20000000E+01  1.00782504E+00  1.00782504E+00
Atom fragment info                         I   N=           4
           0           0           0           0
Atom residue num                           I   N=           4
           0           0           0           0
Nuclear spins                              I   N=           4
           0           0           1           1
Nuclear ZEff                               R   N=           4
 -3.60000000E+00 -3.60000000E+00 -1.00000000E+00 -1.00000000E+00
Nuclear ZNuc                               R   N=           4
  6.00000000E+00  6.00000000E+00  1.00000000E+00  1.00000000E+00
Nuclear QMom                               R   N=           4
  0.00000000E+00  0.00000000E+00  0.00000000E+00  0.00000000E+00
Nuclear GFac                               R   N=           4
  0.00000000E+00  0.00000000E+00  2.79284600E+00  2.79284600E+00
MicOpt                                     I   N=           4
          -2          -2          -1          -1
Number of residues                         I                0
Number of secondary structures             I                0
Redundant internal dimensions              I   N=           4
          12           8           4           0
Redundant internal coordinate indices      I   N=          48
           1          -1           0           0           1          -2
           0           0           1          -3           0           0
           2          -1           0           0           2          -2
           0           0           2          -3           0           0
           1           3           0           0           2           4
           0           0           2           1           3          -4
           1           2           4          -4           2           1
           3          -8           1           2           4          -8
Redundant internal coordinates             R   N=          12
 -5.44649305E+00  0.00000000E+00  0.00000000E+00  5.44649305E+00  0.00000000E+00
  0.00000000E+00  2.11198726E+00  2.11198565E+00  3.14159265E+00  3.14159265E+00
  3.14159265E+00  3.14159265E+00
ZRed-IntVec                                I   N=          12
          -1          -1          -1          -1          -1          -1
           0           0           0           0           0           0
ZRed-FPVec                                 R   N=          12
  0.00000000E+00  0.00000000E+00  0.00000000E+00  0.00000000E+00  0.00000000E+00
  0.00000000E+00  0.00000000E+00  0.00000000E+00  0.00000000E+00  0.00000000E+00
  0.00000000E+00  0.00000000E+00
ZRed-Constraint1                           R   N=          12
 -5.44649305E+00  0.00000000E+00  0.00000000E+00  5.44649305E+00  0.00000000E+00
  0.00000000E+00  2.08057524E+00  2.08053366E+00  3.14159265E+00  3.14159265E+00
  3.14159265E+00  3.14159265E+00
ZRed-Constraint2                           R   N=          12
 -5.44649305E+00  0.00000000E+00  0.00000000E+00  5.44649305E+00  0.00000000E+00
  0.00000000E+00  0.00000000E+00  0.00000000E+00  0.00000000E+00  0.00000000E+00
  0.00000000E+00  0.00000000E+00
Number of contracted shells                I               20
Number of primitive shells                 I               38
Pure/Cartesian d shells                    I                0
Pure/Cartesian f shells                    I                0
Highest angular momentum                   I                2
Largest degree of contraction              I                6
Shell types                                I   N=          20
           0          -1          -1          -1          -1          -2
           0          -1          -1          -1          -1          -2
           0           0           0           1           0           0
           0           1
Number of primitives per shell             I   N=          20
           6           3           1           1           1           1
           6           3           1           1           1           1
           3           1           1           1           3           1
           1           1
Shell to atom map                          I   N=          20
           1           1           1           1           1           1
           2           2           2           2           2           2
           3           3           3           3           4           4
           4           4
Primitive exponents                        R   N=          38
  4.56324000E+03  6.82024000E+02  1.54973000E+02  4.44553000E+01  1.30290000E+01
  1.82773000E+00  2.09642000E+01  4.80331000E+00  1.45933000E+00  4.83456000E-01
  1.45585000E-01  4.38000000E-02  6.26000000E-01  4.56324000E+03  6.82024000E+02
  1.54973000E+02  4.44553000E+01  1.30290000E+01  1.82773000E+00  2.09642000E+01
  4.80331000E+00  1.45933000E+00  4.83456000E-01  1.45585000E-01  4.38000000E-02
  6.26000000E-01  3.38650000E+01  5.09479000E+00  1.15879000E+00  3.25840000E-01
  1.02741000E-01  7.50000000E-01  3.38650000E+01  5.09479000E+00  1.15879000E+00
  3.25840000E-01  1.02741000E-01  7.50000000E-01
Contraction coefficients                   R   N=          38
  1.96665025E-03  1.52306019E-02  7.61269097E-02  2.60801033E-01  6.16462078E-01
  2.21006028E-01  1.14660081E-01  9.19999648E-01 -3.03068213E-03  1.00000000E+00
  1.00000000E+00  1.00000000E+00  1.00000000E+00  1.96665025E-03  1.52306019E-02
  7.61269097E-02  2.60801033E-01  6.16462078E-01  2.21006028E-01  1.14660081E-01
  9.19999648E-01 -3.03068213E-03  1.00000000E+00  1.00000000E+00  1.00000000E+00
  1.00000000E+00  2.54938145E-02  1.90373109E-01  8.52161486E-01  1.00000000E+00
  1.00000000E+00  1.00000000E+00  2.54938145E-02  1.90373109E-01  8.52161486E-01
  1.00000000E+00  1.00000000E+00  1.00000000E+00
P(S=P) Contraction coefficients            R   N=          38
  0.00000000E+00  0.00000000E+00  0.00000000E+00  0.00000000E+00  0.00000000E+00
  0.00000000E+00  4.02486927E-02  2.37593957E-01  8.15853851E-01  1.00000000E+00
  1.00000000E+00  1.00000000E+00  0.00000000E+00  0.00000000E+00  0.00000000E+00
  0.00000000E+00  0.00000000E+00  0.00000000E+00  0.00000000E+00  4.02486927E-02
  2.37593957E-01  8.15853851E-01  1.00000000E+00  1.00000000E+00  1.00000000E+00
  0.00000000E+00  0.00000000E+00  0.00000000E+00  0.00000000E+00  0.00000000E+00
  0.00000000E+00  0.00000000E+00  0.00000000E+00  0.00000000E+00  0.00000000E+00
  0.00000000E+00  0.00000000E+00  0.00000000E+00
Coordinates of each shell                  R   N=          60
 -5.44649305E+00  0.00000000E+00  0.00000000E+00 -5.44649305E+00  0.00000000E+00
  0.00000000E+00 -5.44649305E+00  0.00000000E+00  0.00000000E+00 -5.44649305E+00
  0.00000000E+00  0.00000000E+00 -5.44649305E+00  0.00000000E+00  0.00000000E+00
 -5.44649305E+00  0.00000000E+00  0.00000000E+00  5.44649305E+00  0.00000000E+00
  0.00000000E+00  5.44649305E+00  0.00000000E+00  0.00000000E+00  5.44649305E+00
  0.00000000E+00  0.00000000E+00  5.44649305E+00  0.00000000E+00  0.00000000E+00
  5.44649305E+00  0.00000000E+00  0.00000000E+00  5.44649305E+00  0.00000000E+00
  0.00000000E+00 -7.55848031E+00  2.33239688E-14  9.82618423E-13 -7.55848031E+00
  2.33239688E-14  9.82618423E-13 -7.55848031E+00  2.33239688E-14  9.82618423E-13
 -7.55848031E+00  2.33239688E-14  9.82618423E-13  7.55847869E+00 -4.27402008E-13
  9.84518388E-13  7.55847869E+00 -4.27402008E-13  9.84518388E-13  7.55847869E+00
 -4.27402008E-13  9.84518388E-13  7.55847869E+00 -4.27402008E-13  9.84518388E-13
Num ILSW                                   I              100
ILSW                                       I   N=         100
           1           0           0           0           2           0
           0           0           0           0        4336          -1
           7           0           0           0           2           0
           0           0           0           0           1           0
           1           1           0           0           0           0
           0           0      100000           0          -1           0
           0           0           0           0           0           0
           0           0           0           1           0           0
           0 -2000000000           1           0           0           0
           0           0           4          52           0           0
           0           0          55           0           0           0
           0           0           0           4           0           1
           0           0           0           0           0           0
           0           0           0           0           0           0
           0           0           0           0           0           0
           0           0           0           0           0           0
           0           0           0           0
Num RLSW                                   I               52
RLSW                                       R   N=          52
  1.00000000E+00  1.00000000E+00  1.00000000E+00  1.00000000E+00  5.40000000E-01
  0.00000000E+00  0.00000000E+00  1.00000000E+00  0.00000000E+00  0.00000000E+00
  0.00000000E+00  0.00000000E+00  1.00000000E+00  0.00000000E+00  0.00000000E+00
  0.00000000E+00  0.00000000E+00  1.00000000E+00  0.00000000E+00  0.00000000E+00
  0.00000000E+00  0.00000000E+00  1.00000000E+00  0.00000000E+00  0.00000000E+00
  0.00000000E+00  0.00000000E+00  1.00000000E+00  0.00000000E+00  0.00000000E+00
  0.00000000E+00  0.00000000E+00  1.00000000E+00  0.00000000E+00  0.00000000E+00
  0.00000000E+00  0.00000000E+00  0.00000000E+00  1.00000000E+00  1.00000000E+00
  0.00000000E+00  1.00000000E+00  0.00000000E+00  0.00000000E+00  0.00000000E+00
  0.00000000E+00  0.00000000E+00  0.00000000E+00  0.00000000E+00  0.00000000E+00
  0.00000000E+00  0.00000000E+00
MxBond                                     I                2
NBond                                      I   N=           4
           2           2           1           1
IBond                                      I   N=           8
           2           3           1           4           1           0
           2           0
RBond                                      R   N=           8
  1.00000000E-01  1.00000000E+00  1.00000000E-01  1.00000000E+00  1.00000000E+00
  0.00000000E+00  1.00000000E+00  0.00000000E+00
Virial Ratio                               R      2.002762816231389E+00
SCF Energy                                 R     -7.658315887931808E+01
Total Energy                               R     -7.658315887931808E+01
S**2                                       R      7.513203471275007E-01
S**2 after annihilation                    R      7.500012551060861E-01
RMS Force                                  R      1.278426005013569E-04
RMS Density                                R      2.193993014636290E-09
Job Status                                 I                1
Nuclear derivative order                   I                1
External E-field                           R   N=          35
  0.00000000E+00  0.00000000E+00  0.00000000E+00  0.00000000E+00  0.00000000E+00
  0.00000000E+00  0.00000000E+00  0.00000000E+00  0.00000000E+00  0.00000000E+00
  0.00000000E+00  0.00000000E+00  0.00000000E+00  0.00000000E+00  0.00000000E+00
  0.00000000E+00  0.00000000E+00  0.00000000E+00  0.00000000E+00  0.00000000E+00
  0.00000000E+00  0.00000000E+00  0.00000000E+00  0.00000000E+00  0.00000000E+00
  0.00000000E+00  0.00000000E+00  0.00000000E+00  0.00000000E+00  0.00000000E+00
  0.00000000E+00  0.00000000E+00  0.00000000E+00  0.00000000E+00  0.00000000E+00
IOpCl                                      I                1
IROHF                                      I                0
Alpha Orbital Energies                     R   N=          56
 -1.09300558E+01 -1.09300556E+01 -9.67467764E-01 -9.67270894E-01 -6.19282597E-01
 -6.18754778E-01 -4.53760081E-01 -4.05137053E-01 -3.17495435E-01 -3.17306413E-01
 -1.09775281E-01 -1.05014908E-01 -7.91223983E-02 -6.25902014E-02 -6.12215954E-02
 -4.48888466E-02 -4.25855458E-02 -1.34148173E-02  6.68228886E-03  3.17418622E-02
  2.86334725E-01  3.02080024E-01  3.77119455E-01  3.85919903E-01  3.88440053E-01
  3.97766224E-01  4.12399215E-01  4.23150237E-01  4.70965102E-01  5.65131424E-01
  9.08029229E-01  9.08432964E-01  9.10176078E-01  9.10290274E-01  1.09183944E+00
  1.09200626E+00  1.10227977E+00  1.10244498E+00  1.37035868E+00  1.37141198E+00
  1.64151580E+00  1.64209347E+00  1.64435344E+00  1.64496207E+00  2.17142750E+00
  2.17884479E+00  2.28926268E+00  2.30169392E+00  2.45006327E+00  2.45839912E+00
  2.46425770E+00  2.47271673E+00  2.95139404E+00  2.96297620E+00  2.32501722E+01
  2.32748322E+01
Beta Orbital Energies                      R   N=          56
 -1.09259022E+01 -1.09258997E+01 -9.43700639E-01 -9.43682970E-01 -6.05402739E-01
 -6.04937269E-01 -2.98622163E-01 -2.98365522E-01 -2.82304417E-01 -2.81992142E-01
 -1.13200112E-01 -1.05446192E-01 -7.58680361E-02 -5.46242954E-02 -4.52795459E-02
 -3.66880336E-02 -2.72861020E-02 -1.40313125E-02  2.37900912E-02  4.96147695E-02
  2.77105765E-01  2.97764750E-01  3.80291156E-01  3.83364601E-01  3.95112152E-01
  3.96901738E-01  4.47174548E-01  4.50658030E-01  4.93951328E-01  5.85404172E-01
  9.80231750E-01  9.80663860E-01  9.89296510E-01  9.89716132E-01  1.12463195E+00
  1.12463631E+00  1.12473611E+00  1.12473615E+00  1.37457341E+00  1.37550993E+00
  1.65905901E+00  1.65963035E+00  1.66578453E+00  1.66636538E+00  2.33247026E+00
  2.33570822E+00  2.34138808E+00  2.34705179E+00  2.47598015E+00  2.48456494E+00
  2.49955185E+00  2.50806457E+00  3.04807211E+00  3.06310080E+00  2.32634071E+01
  2.32880603E+01
Alpha MO coefficients                      R   N=        3136
  5.63522380E-01  4.64251845E-01 -2.00643864E-03  4.49584520E-16 -1.37565104E-15
  9.43491197E-03 -1.16128396E-03 -1.84488545E-15  4.54614465E-15 -4.24960275E-03
 -1.38063995E-04  4.98671781E-16 -2.05200831E-15  4.83945809E-04  9.63543926E-04
 -1.56331640E-16  3.26894063E-16 -4.73604097E-04  4.09077163E-15 -1.77382135E-05
  8.40203835E-04 -2.05561264E-15  2.37836947E-02  1.96118703E-02  7.21377311E-05
 -5.52425094E-17  5.50769613E-16  2.55148449E-04  1.02775053E-04 -1.01038931E-17
 -6.06199389E-16  3.27420994E-04 -5.34321297E-05  1.14080760E-16  5.21894956E-16
 -1.29291333E-04  4.59083029E-04 -8.14719742E-17 -1.44261510E-16 -2.80931032E-05
  2.30746502E-17  7.38426833E-09  4.86489800E-05  2.73859929E-16  3.90945243E-04
 -2.72181033E-03  2.51969329E-03 -1.83391932E-03  2.96044780E-16  3.18891198E-15
 -1.17253667E-05 -3.88776673E-05 -3.82779218E-04  1.12763418E-04 -3.09700512E-16
  3.64932345E-17 -2.37858487E-02 -1.95777218E-02  9.72798526E-05  2.98020691E-16
  4.53863122E-16 -5.41807365E-04 -4.93694718E-06 -8.26380210E-18 -9.78388373E-16
  6.87958114E-04  6.52983200E-05 -5.94300900E-16  7.23193422E-16 -1.70677552E-04
 -5.42204209E-04  3.89642730E-16 -1.54172045E-16  1.18572559E-05 -1.37381932E-16
  1.50744642E-06 -2.22297399E-05  2.22025579E-16  5.63522471E-01  4.64250403E-01
  2.00749991E-03  6.16483433E-16 -6.38614902E-16  9.44702095E-03  1.15674932E-03
 -1.76586689E-15  3.08429154E-15 -4.29245763E-03  1.43075007E-04  7.74381954E-16
 -1.53063528E-15  4.96602681E-04 -1.00580715E-03 -2.34694289E-16  1.67831568E-16
 -4.72921766E-04 -2.95178777E-15 -1.78021176E-05  8.39093790E-04  1.48110938E-15
 -4.48275526E-05  1.91155299E-04 -5.97224552E-04  4.19204681E-05  2.08130342E-16
 -4.21678135E-17  3.93330392E-04 -2.72825354E-03  2.56106568E-03  1.83093822E-03
 -9.45451534E-16  3.21436313E-15 -7.98395551E-02 -1.30366798E-01 -5.60969085E-02
 -5.94377349E-14  1.24449063E-13  3.84695845E-01 -8.58533579E-02 -1.08228685E-13
  2.00952276E-13  2.42007427E-01 -3.17326900E-02 -4.64028933E-14  6.03838884E-14
 -4.83739997E-03 -7.93108266E-04  4.99098736E-15  7.52124256E-16 -4.38794644E-03
  7.84824341E-14  3.63529135E-04  7.19160487E-03 -3.12786605E-14 -7.99201154E-02
 -1.30498257E-01  5.61535942E-02 -5.73028793E-14  8.94440817E-14  3.85082609E-01
  8.59407958E-02 -8.58057024E-14  1.41104312E-13  2.42257352E-01  3.17632671E-02
 -2.12562762E-14  3.81318975E-14 -4.84433393E-03  8.01414850E-04 -2.82216991E-15
  1.45413638E-15 -4.39239928E-03 -5.83847918E-14  3.63837078E-04  7.19897165E-03
  4.40698079E-14  9.82771960E-02  1.21739478E-01 -1.47990940E-03  1.69762334E-02
  2.36373693E-14 -2.85800988E-15  9.83763591E-02  1.21863892E-01 -1.48773527E-03
 -1.69931617E-02 -3.44390909E-14  4.32402880E-15 -7.98905565E-02 -1.30368954E-01
 -5.61133457E-02 -6.02434957E-14  1.24231997E-13  3.83605154E-01 -8.66054931E-02
 -1.08031191E-13  2.00282286E-13  2.47980850E-01 -3.03110869E-02 -4.76184203E-14
  6.16812805E-14 -6.88482164E-03 -8.23392142E-03  5.29483535E-15  5.96887185E-16
 -4.40409755E-03  7.84883358E-14  3.03605182E-04  7.28691022E-03 -3.12455155E-14
  7.98099324E-02  1.30237303E-01 -5.60567995E-02  5.62664256E-14 -8.88003562E-14
 -3.83216622E-01 -8.65189028E-02  8.85303717E-14 -1.41413720E-13 -2.47736330E-01
 -3.02790558E-02  1.98052682E-14 -3.87413738E-14  6.87992876E-03 -8.23311821E-03
  2.74220680E-15 -1.74567670E-15  4.39967854E-03  5.82873585E-14 -3.03239916E-04
 -7.27966708E-03 -4.36999414E-14  9.81971746E-02  1.23273073E-01 -7.74231405E-03
  1.67760696E-02  2.38711693E-14 -2.83771695E-15 -9.80980747E-02 -1.23150240E-01
  7.74083283E-03  1.67589379E-02  3.47005500E-14 -4.76541366E-15 -4.22481431E-02
 -7.04422220E-02  1.66572617E-01 -3.82311393E-13  7.28076987E-13  2.18393150E-01
  2.46479961E-01 -6.30172334E-13  1.20125264E-12  2.57881256E-01  1.44321294E-01
 -3.99624625E-13  8.30231027E-13  1.85413581E-02  3.40289871E-04  1.14778540E-15
 -2.45754716E-15  1.47870883E-02  1.99309640E-14  3.30442370E-05 -2.56490303E-02
 -2.44132482E-14 -4.22499791E-02 -7.04452830E-02 -1.66579759E-01 -3.49985244E-13
  4.82596242E-13  2.18402603E-01 -2.46490473E-01 -6.27455450E-13  8.03723659E-13
  2.57892758E-01 -1.44327398E-01 -3.65763454E-13  5.62736114E-13  1.85420857E-02
 -3.40104778E-04 -1.77006702E-14 -1.85731355E-15  1.47877238E-02 -1.38866173E-14
  3.30438166E-05 -2.56501305E-02 -4.77741250E-16 -9.53757305E-02 -1.69923760E-01
 -7.24952866E-02 -7.86784164E-03 -3.38573638E-14  3.67366672E-14 -9.53797832E-02
 -1.69930943E-01 -7.24985432E-02  7.86817398E-03 -2.90034237E-14  1.83524303E-14
 -4.23920945E-02 -7.06433841E-02  1.66792991E-01 -3.87762866E-13  7.27675888E-13
  2.18386132E-01  2.46560995E-01 -6.41083358E-13  1.19921238E-12  2.62646985E-01
  1.44709399E-01 -4.07961817E-13  8.31351749E-13  1.64498174E-02 -4.13201370E-03
  2.14674865E-16 -5.92233148E-15  1.47755786E-02  2.02443335E-14 -2.53589255E-05
 -2.55634728E-02 -2.39602933E-14  4.23903143E-02  7.06404174E-02  1.66785890E-01
  3.49334068E-13 -4.85216872E-13 -2.18376925E-01  2.46550444E-01  6.26700531E-13
 -8.08191833E-13 -2.62636248E-01  1.44703153E-01  3.64695643E-13 -5.69535659E-13
 -1.64490493E-02 -4.13203154E-03  1.51810481E-14  6.08634477E-15 -1.47749509E-02
  1.37403548E-14  2.53596316E-05  2.55623847E-02  5.08819362E-16 -9.54963476E-02
 -1.69951970E-01 -7.61178203E-02 -8.03200177E-03 -3.41123499E-14  3.69720398E-14
  9.54922455E-02  1.69944637E-01  7.61147233E-02 -8.03165517E-03  3.00170543E-14
 -1.83672020E-14  7.83543059E-15  9.39902881E-15 -1.32370561E-14  1.79700799E-01
  1.05160793E-01 -8.88651109E-14 -1.79365873E-13  2.83008697E-01  1.65616807E-01
  6.79638564E-13 -3.78966103E-13  2.55792599E-01  1.49690152E-01  2.24615315E-13
 -4.32246637E-13  2.10796656E-02  1.23358550E-02  3.22011316E-15 -9.05463711E-03
  4.23783545E-14  1.31050522E-13 -1.54728325E-02 -1.17018980E-14 -3.67369269E-14
 -1.14644114E-13  1.79700794E-01  1.05160832E-01  3.05585147E-13  1.64497704E-13
  2.83008699E-01  1.65616875E-01 -1.15661515E-12 -8.31576516E-13  2.55792604E-01
  1.49690215E-01 -1.55964039E-12 -1.16577796E-12  2.10796647E-02  1.23358593E-02
  8.47259630E-15  9.05464882E-03  2.89067370E-14  8.53467311E-14  1.54728462E-02
  3.05008400E-14 -2.95697694E-13 -9.36978276E-13 -1.62537102E-13  1.37633003E-02
  8.05430280E-03  9.72105674E-14 -8.55443455E-13  3.67323923E-12  8.58002390E-14
  1.37633109E-02  8.05431226E-03  7.54860363E-15  5.90756878E-15 -1.94751022E-14
  1.79680661E-01  1.05148784E-01 -2.93433789E-14 -1.63018599E-13  2.82913638E-01
  1.65560821E-01  3.88946176E-13 -4.42620830E-13  2.55925808E-01  1.49767745E-01
  3.53860257E-13  5.66530700E-15  2.14291966E-02  1.25403879E-02  3.51129726E-15
 -9.68838061E-03  4.21056025E-14  1.30361291E-13 -1.65558128E-02  1.31194243E-14
  3.85693042E-14  1.22317439E-13 -1.79680613E-01 -1.05148798E-01 -3.01597544E-13
 -1.61353438E-13 -2.82913571E-01 -1.65560849E-01  1.09280666E-12  8.64456938E-13
 -2.55925750E-01 -1.49767771E-01  1.61859350E-12  1.06702076E-12 -2.14291903E-02
 -1.25403892E-02 -8.84921603E-15 -9.68839012E-03 -2.86208793E-14 -8.39947843E-14
 -1.65558224E-02  4.02369246E-14 -3.50212862E-13 -6.10767808E-13 -1.54330837E-13
  1.42215725E-02  8.32246630E-03 -9.29738724E-14  8.53381540E-13 -3.64329476E-12
 -8.81927677E-14 -1.42215796E-02 -8.32247383E-03  1.76613797E-13  2.85993447E-13
 -4.29945806E-13 -9.86969123E-02  1.68654514E-01 -7.28975281E-13 -6.78275812E-13
 -1.59458119E-01  2.72484521E-01 -1.36185175E-12 -5.77366005E-13 -1.52461815E-01
  2.60529508E-01 -2.92129118E-13  6.01431694E-15 -2.87221292E-02  4.90808662E-02
 -1.07705776E-14 -1.48765336E-02 -6.66273749E-14  1.00125391E-13  8.70582343E-03
  1.29349763E-13  2.16708168E-13  3.47859458E-13 -9.86833766E-02  1.68631316E-01
 -7.09486157E-13  4.60872862E-13 -1.59436244E-01  2.72447032E-01  2.35312084E-13
  1.16320592E-12 -1.52440941E-01  2.60493733E-01  1.01855482E-12  9.88596134E-13
 -2.87181560E-02  4.90740568E-02 -2.60090240E-14  1.48744925E-02 -4.82945820E-14
  1.00810855E-13 -8.70463250E-03  3.37233648E-13  4.87803507E-13  6.50385392E-13
 -4.98179651E-14 -8.60919582E-03  1.47115509E-02  1.86728257E-13  6.19862486E-13
 -2.50678035E-12  1.01134901E-13 -8.60802000E-03  1.47095357E-02 -1.79580323E-13
 -2.93143561E-13  4.30155969E-13  9.88163087E-02 -1.68858931E-01  7.86450756E-13
  6.99463467E-13  1.59708355E-01 -2.72912759E-01  1.17113178E-12  5.16826967E-13
  1.52474532E-01 -2.60551750E-01  3.75799968E-13  3.57205309E-13  2.90515934E-02
 -4.96440286E-02  1.16230635E-14  1.49336515E-02  6.68820394E-14 -1.01557195E-13
 -8.73922496E-03  1.32493907E-13  2.22027004E-13  3.53710973E-13 -9.88298740E-02
  1.68882044E-01 -7.28865539E-13  4.68401086E-13 -1.59730274E-01  2.72950105E-01
  2.24519685E-13  1.16765716E-12 -1.52495499E-01  2.60587474E-01  1.02181772E-12
  1.00697499E-12 -2.90555474E-02  4.96507655E-02 -2.70798505E-14  1.49357007E-02
 -4.77798164E-14  1.02418355E-13 -8.74042768E-03 -3.33420906E-13 -5.47314443E-13
 -3.98854580E-13  5.56557692E-14  8.63067879E-03 -1.47482958E-02  1.90512568E-13
  6.34777859E-13 -2.52118762E-12  1.01269621E-13 -8.63186846E-03  1.47503228E-02
  2.86550341E-02  4.76760661E-02  2.43883878E-02  1.10709878E-14 -1.93354305E-14
 -1.34216992E-01  7.63803940E-02  2.07097234E-14 -4.63006134E-14 -5.96462461E-01
  4.98480273E-02  2.71113321E-15 -6.72628430E-14  9.68615523E-01 -5.69108102E-02
 -1.63411672E-13  4.02404931E-13  2.78967824E-03  1.74826102E-14  1.74009809E-03
 -6.78699866E-03  5.76840265E-15  2.86548356E-02  4.76757348E-02 -2.43878356E-02
 -4.80924017E-15 -2.13071347E-14 -1.34215997E-01 -7.63795149E-02 -9.53583244E-15
 -4.99372579E-14 -5.96458794E-01 -4.98462981E-02 -3.12209647E-14 -8.24238804E-14
  9.68609608E-01  5.69073324E-02 -1.45087464E-13  3.38587965E-13  2.78966104E-03
 -2.03968663E-14  1.74008719E-03 -6.78695506E-03 -1.35476433E-14  8.32491722E-03
  1.23416551E-01  8.97089700E-03 -1.31961140E-04 -1.09018149E-14  8.53809835E-14
  8.32482259E-03  1.23415392E-01  8.97077111E-03  1.31858575E-04  8.88318635E-14
  8.49531400E-14 -2.42982139E-02 -4.12722966E-02 -5.36442154E-02 -1.24876964E-14
  2.74694266E-14  1.30328405E-01 -1.01002623E-01 -1.98055701E-14  7.06600565E-14
  4.32361332E-01 -1.61486013E-01 -1.32075693E-14  9.25897083E-14 -8.80728239E-01
  5.25727069E-01 -3.38414965E-15 -1.72325905E-13 -5.77513731E-03 -3.25942219E-14
 -1.48935551E-03  1.16762078E-02  1.34421619E-16  2.42984150E-02  4.12726363E-02
 -5.36442115E-02  2.88773870E-14 -2.77174671E-14 -1.30329418E-01 -1.01003019E-01
 -9.94883514E-14 -7.14261534E-14 -4.32365326E-01 -1.61485708E-01  1.43403496E-13
 -9.22829918E-14  8.80736343E-01  5.25727639E-01  1.63285091E-14  1.50259046E-13
  5.77518093E-03 -3.23055488E-14  1.48936923E-03 -1.16762974E-02 -1.91403486E-14
  2.88787587E-03 -1.45485879E-01  1.58458256E-01  6.39091904E-03  8.42854356E-15
 -1.03117001E-13 -2.88794108E-03  1.45486656E-01 -1.58459523E-01  6.39086645E-03
  8.65664354E-14  1.04964662E-13  1.50694722E-03  2.14755358E-03 -6.95495116E-02
  6.13363702E-14 -7.55700688E-14 -7.94982198E-04 -8.98571939E-02  6.38977744E-14
 -6.00021205E-14 -3.08785793E-02 -2.07212854E-01  2.01980634E-13 -2.23889960E-13
 -1.46182774E-01  7.62780014E-01 -9.00409271E-13  1.20933524E-12 -7.57552341E-03
 -2.55226798E-14 -1.29163448E-04  1.32662591E-02  5.51656130E-15  1.50694711E-03
  2.14755198E-03  6.95494271E-02  3.65011431E-14 -6.95108664E-14 -7.94941951E-04
  8.98570946E-02  1.64786257E-13 -5.59576654E-14 -3.08788038E-02  2.07212474E-01
  4.99415324E-14 -2.20609414E-13 -1.46183472E-01 -7.62780133E-01 -8.40568754E-13
  1.01397267E-12 -7.57553222E-03  1.93944438E-14 -1.29164544E-04  1.32662754E-02
  1.09654293E-14  1.75519285E-02 -4.20771762E-02  1.54641717E-01  1.04786018E-02
 -2.02850317E-15 -4.73114378E-14  1.75520043E-02 -4.20770574E-02  1.54642419E-01
 -1.04785887E-02 -3.42025138E-14 -5.09673656E-14 -3.99541378E-14 -6.11662432E-14
  7.82818380E-14  4.26976660E-02 -7.29479207E-02  8.03266435E-14  1.22075237E-13
  4.75990339E-02 -8.13246153E-02  9.50947145E-13  1.70691016E-13  1.53218347E-01
 -2.61767302E-01  3.84859789E-13 -1.55166812E-12 -4.08371240E-01  6.97679292E-01
  1.50461797E-14  6.46561740E-03  2.05227515E-14 -5.15063137E-14 -3.78444421E-03
 -2.97657920E-14 -4.75301840E-14 -1.77267642E-13  4.26976362E-02 -7.29478644E-02
  1.08568223E-13 -1.98525008E-13  4.75990024E-02 -8.13245512E-02  2.14526210E-13
 -8.52332610E-13  1.53218254E-01 -2.61767128E-01 -8.16366801E-13  1.28073133E-12
 -4.08370948E-01  6.97678763E-01  1.17038721E-14 -6.46562140E-03  1.40787495E-14
 -3.80448672E-14  3.78444682E-03 -1.14399136E-13 -3.85451015E-14 -1.40667544E-12
  2.85050152E-14 -1.12558048E-03  1.92268216E-03 -4.60241098E-14 -3.76476182E-15
  6.75145908E-13 -8.88532525E-15 -1.12557334E-03  1.92267033E-03 -4.13690502E-15
 -4.07845032E-15 -4.33322303E-14 -6.66912321E-02 -3.90369709E-02 -4.81244221E-15
  1.62755403E-14 -6.20087546E-02 -3.62979226E-02  1.90281806E-13 -2.05940271E-13
 -2.53195630E-01 -1.48203576E-01  3.54114336E-13 -2.71714936E-14  7.01201657E-01
  4.10432174E-01  4.76484748E-17  3.37256195E-03 -1.10917704E-14 -3.48340822E-14
  5.76173301E-03 -1.36470980E-14 -1.66545708E-14  1.46236264E-13 -6.66911847E-02
 -3.90369395E-02 -1.75039953E-14  4.97081562E-14 -6.20087108E-02 -3.62978900E-02
  9.60274303E-13  9.17827143E-13 -2.53195481E-01 -1.48203479E-01  1.49475906E-12
  5.54490886E-13  7.01201199E-01  4.10431885E-01  1.59821247E-14 -3.37256456E-03
 -7.76606239E-15 -5.37427098E-14 -5.76173804E-03 -2.48694648E-14  1.38202841E-13
 -7.34836997E-13  5.06877545E-14  3.30349260E-03  1.93344335E-03 -8.93396841E-14
  1.68869410E-13 -2.99679160E-12 -8.11906280E-14  3.30348072E-03  1.93343663E-03
 -1.17333296E-14 -1.44785797E-14 -1.25559524E-13  4.46297789E-02 -7.62619106E-02
 -5.59892599E-14 -8.61823226E-14  5.11153790E-02 -8.73447442E-02  4.95195714E-13
 -6.64839289E-13  1.58143923E-01 -2.70231584E-01  1.57949221E-12  5.43205389E-13
 -4.46387296E-01  7.62771238E-01  1.90280690E-15  5.47054320E-03  2.36162839E-14