Title Card Required                                                     
FOpt      UM062X                                                      6-311+G(d,p)        
Number of atoms                            I                4
Info1-9                                    I   N=           9
          13          13           0           0           0         110
           2          18        -502
Full Title                                 C   N=           2
Title Card Required     
Route                                      C   N=           4
#p opt UM062X/6-311+G** nosymm int=superfine    
Charge                                     I                0
Multiplicity                               I                1
Number of electrons                        I               26
Number of alpha electrons                  I               13
Number of beta electrons                   I               13
Number of basis functions                  I               64
Number of independent functions            I               64
Number of point charges in /Mol/           I                0
Number of translation vectors              I                0
Atomic numbers                             I   N=           4
           8          16           1           1
Nuclear charges                            R   N=           4
  8.00000000E+00  1.60000000E+01  1.00000000E+00  1.00000000E+00
Current cartesian coordinates              R   N=          12
 -3.04436107E+00  0.00000000E+00  0.00000000E+00  3.04436107E+00  0.00000000E+00
  0.00000000E+00 -3.06635525E+00 -1.83299006E+00  7.57382421E-03  2.85635780E+00
 -1.96440043E+00 -1.60674640E+00
Number of symbols in /Mol/                 I                0
Force Field                                I                0
Atom Types                                 C   N=           4
                                                
Int Atom Types                             I   N=           4
           0           0           0           0
MM charges                                 R   N=           4
  0.00000000E+00  0.00000000E+00  0.00000000E+00  0.00000000E+00
Integer atomic weights                     I   N=           4
          16          32           1           1
Real atomic weights                        R   N=           4
  1.59949146E+01  3.19720718E+01  1.00782504E+00  1.00782504E+00
Atom fragment info                         I   N=           4
           0           0           0           0
Atom residue num                           I   N=           4
           0           0           0           0
Nuclear spins                              I   N=           4
           0           0           1           1
Nuclear ZEff                               R   N=           4
 -5.60000000E+00 -1.36000000E+01 -1.00000000E+00 -1.00000000E+00
Nuclear ZNuc                               R   N=           4
  8.00000000E+00  1.60000000E+01  1.00000000E+00  1.00000000E+00
Nuclear QMom                               R   N=           4
  0.00000000E+00  0.00000000E+00  0.00000000E+00  0.00000000E+00
Nuclear GFac                               R   N=           4
  0.00000000E+00  0.00000000E+00  2.79284600E+00  2.79284600E+00
MicOpt                                     I   N=           4
          -2          -2          -1          -1
Number of residues                         I                0
Number of secondary structures             I                0
Redundant internal dimensions              I   N=           4
          12           8           4           0
Redundant internal coordinate indices      I   N=          48
           1          -1           0           0           1          -2
           0           0           1          -3           0           0
           2          -1           0           0           2          -2
           0           0           2          -3           0           0
           1           3           0           0           2           4
           0           0           2           1           3          -5
           1           2           4          -5           2           1
           3          -7           1           2           4          -7
Redundant internal coordinates             R   N=          12
 -3.04436107E+00  0.00000000E+00  0.00000000E+00  3.04436107E+00  0.00000000E+00
  0.00000000E+00  1.83313765E+00  2.54476880E+00  1.58279482E+00  4.80780354E+00
  2.80995486E+00  1.45431730E+00
ZRed-IntVec                                I   N=          12
          -1          -1          -1          -1          -1          -1
           0           0           0           0           0           0
ZRed-FPVec                                 R   N=          12
  0.00000000E+00  0.00000000E+00  0.00000000E+00  0.00000000E+00  0.00000000E+00
  0.00000000E+00  0.00000000E+00  0.00000000E+00  0.00000000E+00  0.00000000E+00
  0.00000000E+00  0.00000000E+00
ZRed-Constraint1                           R   N=          12
 -3.04436107E+00  0.00000000E+00  0.00000000E+00  3.04436107E+00  0.00000000E+00
  0.00000000E+00  1.83597177E+00  2.59721753E+00  3.14071774E+00  3.14233270E+00
  3.14159265E+00  3.14158686E+00
ZRed-Constraint2                           R   N=          12
 -3.04436107E+00  0.00000000E+00  0.00000000E+00  3.04436107E+00  0.00000000E+00
  0.00000000E+00  0.00000000E+00  0.00000000E+00  0.00000000E+00  0.00000000E+00
  0.00000000E+00  0.00000000E+00
Number of contracted shells                I               27
Number of primitive shells                 I               49
Pure/Cartesian d shells                    I                0
Pure/Cartesian f shells                    I                0
Highest angular momentum                   I                2
Largest degree of contraction              I                6
Shell types                                I   N=          27
           0          -1          -1          -1          -1          -2
           0           0           0           0           0           0
          -1           1           1           1           1           1
          -2           0           0           0           1           0
           0           0           1
Number of primitives per shell             I   N=          27
           6           3           1           1           1           1
           6           3           1           1           1           1
           1           4           2           1           1           1
           1           3           1           1           1           3
           1           1           1
Shell to atom map                          I   N=          27
           1           1           1           1           1           1
           2           2           2           2           2           2
           2           2           2           2           2           2
           2           3           3           3           3           4
           4           4           4
Primitive exponents                        R   N=          49
  8.58850000E+03  1.29723000E+03  2.99296000E+02  8.73771000E+01  2.56789000E+01
  3.74004000E+00  4.21175000E+01  9.62837000E+00  2.85332000E+00  9.05661000E-01
  2.55611000E-01  8.45000000E-02  1.29200000E+00  9.34134000E+04  1.39617000E+04
  3.16991000E+03  9.02456000E+02  2.97158000E+02  1.08702000E+02  1.08702000E+02
  4.31553000E+01  1.81079000E+01  5.56009000E+00  2.13183000E+00  4.20403000E-01
  1.36045000E-01  4.05000000E-02  4.95040000E+02  1.17221000E+02  3.77749000E+01
  1.40584000E+01  5.56574000E+00  2.26297000E+00  8.07994000E-01  2.77460000E-01
  7.71410000E-02  6.50000000E-01  3.38650000E+01  5.09479000E+00  1.15879000E+00
  3.25840000E-01  1.02741000E-01  7.50000000E-01  3.38650000E+01  5.09479000E+00
  1.15879000E+00  3.25840000E-01  1.02741000E-01  7.50000000E-01
Contraction coefficients                   R   N=          49
  1.89515008E-03  1.43859006E-02  7.07320031E-02  2.40001011E-01  5.94797026E-01
  2.80802012E-01  1.13889012E-01  9.20811101E-01 -3.27447036E-03  1.00000000E+00
  1.00000000E+00  1.00000000E+00  1.00000000E+00  7.42999957E-04  5.79299966E-03
  2.99539983E-02  1.19027993E-01  3.68431979E-01  5.77298966E-01  1.43186060E-01
  6.24465262E-01  2.83366119E-01  1.00000000E+00  1.00000000E+00  1.00000000E+00
  1.00000000E+00  1.00000000E+00  8.30900251E-03  6.40240194E-02  2.77614084E-01
  7.45076225E-01  6.13711672E-01  4.43817763E-01  1.00000000E+00  1.00000000E+00
  1.00000000E+00  1.00000000E+00  2.54938145E-02  1.90373109E-01  8.52161486E-01
  1.00000000E+00  1.00000000E+00  1.00000000E+00  2.54938145E-02  1.90373109E-01
  8.52161486E-01  1.00000000E+00  1.00000000E+00  1.00000000E+00
P(S=P) Contraction coefficients            R   N=          49
  0.00000000E+00  0.00000000E+00  0.00000000E+00  0.00000000E+00  0.00000000E+00
  0.00000000E+00  3.65113974E-02  2.37152983E-01  8.19701941E-01  1.00000000E+00
  1.00000000E+00  1.00000000E+00  0.00000000E+00  0.00000000E+00  0.00000000E+00
  0.00000000E+00  0.00000000E+00  0.00000000E+00  0.00000000E+00  0.00000000E+00
  0.00000000E+00  0.00000000E+00  0.00000000E+00  0.00000000E+00  0.00000000E+00
  0.00000000E+00  1.00000000E+00  0.00000000E+00  0.00000000E+00  0.00000000E+00
  0.00000000E+00  0.00000000E+00  0.00000000E+00  0.00000000E+00  0.00000000E+00
  0.00000000E+00  0.00000000E+00  0.00000000E+00  0.00000000E+00  0.00000000E+00
  0.00000000E+00  0.00000000E+00  0.00000000E+00  0.00000000E+00  0.00000000E+00
  0.00000000E+00  0.00000000E+00  0.00000000E+00  0.00000000E+00
Coordinates of each shell                  R   N=          81
 -3.04436107E+00  0.00000000E+00  0.00000000E+00 -3.04436107E+00  0.00000000E+00
  0.00000000E+00 -3.04436107E+00  0.00000000E+00  0.00000000E+00 -3.04436107E+00
  0.00000000E+00  0.00000000E+00 -3.04436107E+00  0.00000000E+00  0.00000000E+00
 -3.04436107E+00  0.00000000E+00  0.00000000E+00  3.04436107E+00  0.00000000E+00
  0.00000000E+00  3.04436107E+00  0.00000000E+00  0.00000000E+00  3.04436107E+00
  0.00000000E+00  0.00000000E+00  3.04436107E+00  0.00000000E+00  0.00000000E+00
  3.04436107E+00  0.00000000E+00  0.00000000E+00  3.04436107E+00  0.00000000E+00
  0.00000000E+00  3.04436107E+00  0.00000000E+00  0.00000000E+00  3.04436107E+00
  0.00000000E+00  0.00000000E+00  3.04436107E+00  0.00000000E+00  0.00000000E+00
  3.04436107E+00  0.00000000E+00  0.00000000E+00  3.04436107E+00  0.00000000E+00
  0.00000000E+00  3.04436107E+00  0.00000000E+00  0.00000000E+00  3.04436107E+00
  0.00000000E+00  0.00000000E+00 -3.06635525E+00 -1.83299006E+00  7.57382421E-03
 -3.06635525E+00 -1.83299006E+00  7.57382421E-03 -3.06635525E+00 -1.83299006E+00
  7.57382421E-03 -3.06635525E+00 -1.83299006E+00  7.57382421E-03  2.85635780E+00
 -1.96440043E+00 -1.60674640E+00  2.85635780E+00 -1.96440043E+00 -1.60674640E+00
  2.85635780E+00 -1.96440043E+00 -1.60674640E+00  2.85635780E+00 -1.96440043E+00
 -1.60674640E+00
Num ILSW                                   I              100
ILSW                                       I   N=         100
           1           0           0           1           2           0
           0           0           0           0        4336          -1
           7           0           0           0           2           0
           0           0           0           0           1           0
           1           1           0           0           0           0
           0           0      100000           0          -1           0
           0           0           0           0           0           0
           0           0           0           1           0           0
           0 -2000000000           1           0           0           0
           0           0           4          52           0           0
           0           0          55           0           0           0
           0           0           0           4           0           1
           0           0           0           0           0           0
           0           0           0           0           0           0
           0           0           0           0           0           0
           0           0           0           0           0           0
           0           0           0           0
Num RLSW                                   I               52
RLSW                                       R   N=          52
  1.00000000E+00  1.00000000E+00  1.00000000E+00  1.00000000E+00  5.40000000E-01
  0.00000000E+00  0.00000000E+00  1.00000000E+00  0.00000000E+00  0.00000000E+00
  0.00000000E+00  0.00000000E+00  1.00000000E+00  0.00000000E+00  0.00000000E+00
  0.00000000E+00  0.00000000E+00  1.00000000E+00  0.00000000E+00  0.00000000E+00
  0.00000000E+00  0.00000000E+00  1.00000000E+00  0.00000000E+00  0.00000000E+00
  0.00000000E+00  0.00000000E+00  1.00000000E+00  0.00000000E+00  0.00000000E+00
  0.00000000E+00  0.00000000E+00  1.00000000E+00  0.00000000E+00  0.00000000E+00
  0.00000000E+00  0.00000000E+00  0.00000000E+00  1.00000000E+00  1.00000000E+00
  0.00000000E+00  1.00000000E+00  0.00000000E+00  0.00000000E+00  0.00000000E+00
  0.00000000E+00  0.00000000E+00  0.00000000E+00  0.00000000E+00  0.00000000E+00
  0.00000000E+00  0.00000000E+00
MxBond                                     I                2
NBond                                      I   N=           4
           2           2           1           1
IBond                                      I   N=           8
           2           3           1           4           1           0
           2           0
RBond                                      R   N=           8
  1.00000000E-01  1.00000000E+00  1.00000000E-01  1.00000000E+00  1.00000000E+00
  0.00000000E+00  1.00000000E+00  0.00000000E+00
Virial Ratio                               R      2.001776133146232E+00
SCF Energy                                 R     -4.743887373248195E+02
Total Energy                               R     -4.743887373248195E+02
S**2                                       R     -1.776356839400250E-14
S**2 after annihilation                    R      1.351807554783570E-12
RMS Force                                  R      3.064240879434819E-04
RMS Density                                R      3.120825878476670E-09
Job Status                                 I                1
Nuclear derivative order                   I                1
External E-field                           R   N=          35
  0.00000000E+00  0.00000000E+00  0.00000000E+00  0.00000000E+00  0.00000000E+00
  0.00000000E+00  0.00000000E+00  0.00000000E+00  0.00000000E+00  0.00000000E+00
  0.00000000E+00  0.00000000E+00  0.00000000E+00  0.00000000E+00  0.00000000E+00
  0.00000000E+00  0.00000000E+00  0.00000000E+00  0.00000000E+00  0.00000000E+00
  0.00000000E+00  0.00000000E+00  0.00000000E+00  0.00000000E+00  0.00000000E+00
  0.00000000E+00  0.00000000E+00  0.00000000E+00  0.00000000E+00  0.00000000E+00
  0.00000000E+00  0.00000000E+00  0.00000000E+00  0.00000000E+00  0.00000000E+00
IOpCl                                      I                1
IROHF                                      I                0
Alpha Orbital Energies                     R   N=          64
 -8.99797419E+01 -1.96740221E+01 -8.34088386E+00 -6.26292679E+00 -6.25938930E+00
 -6.25358047E+00 -1.08557472E+00 -8.39243767E-01 -5.25687440E-01 -4.96978834E-01
 -3.98042305E-01 -3.56910995E-01 -3.49974696E-01 -2.14542274E-01  1.05761197E-02
  4.09923370E-02  5.06551931E-02  5.51821348E-02  6.76289796E-02  1.33365227E-01
  1.94239814E-01  1.98969879E-01  2.17198646E-01  2.56480733E-01  3.10244057E-01
  3.39534117E-01  3.47140928E-01  3.90707105E-01  5.32660988E-01  5.89939078E-01
  7.00498459E-01  7.14817664E-01  7.88067693E-01  8.11682549E-01  9.65814085E-01
  1.04337383E+00  1.08223425E+00  1.09333826E+00  1.38173364E+00  1.38663796E+00
  1.39675529E+00  1.45463012E+00  1.46593174E+00  1.64423282E+00  1.66257700E+00
  1.67867801E+00  2.05728040E+00  2.08449363E+00  2.47844470E+00  2.52467760E+00
  2.88356033E+00  2.88761905E+00  3.16520253E+00  3.18750770E+00  3.84394800E+00
  5.03507528E+00  5.04476492E+00  5.51383548E+00  7.81568137E+00  1.74051889E+01
  1.74213717E+01  1.74517971E+01  4.98720494E+01  1.89075223E+02
Beta Orbital Energies                      R   N=          64
 -8.99797419E+01 -1.96740221E+01 -8.34088386E+00 -6.26292679E+00 -6.25938930E+00
 -6.25358047E+00 -1.08557472E+00 -8.39243767E-01 -5.25687440E-01 -4.96978834E-01
 -3.98042305E-01 -3.56910997E-01 -3.49974693E-01 -2.14542274E-01  1.05761193E-02
  4.09923366E-02  5.06551940E-02  5.51821347E-02  6.76289794E-02  1.33365227E-01
  1.94239814E-01  1.98969879E-01  2.17198646E-01  2.56480734E-01  3.10244057E-01
  3.39534117E-01  3.47140929E-01  3.90707105E-01  5.32660988E-01  5.89939078E-01
  7.00498459E-01  7.14817664E-01  7.88067693E-01  8.11682549E-01  9.65814085E-01
  1.04337383E+00  1.08223425E+00  1.09333826E+00  1.38173364E+00  1.38663796E+00
  1.39675529E+00  1.45463012E+00  1.46593174E+00  1.64423282E+00  1.66257700E+00
  1.67867801E+00  2.05728040E+00  2.08449363E+00  2.47844470E+00  2.52467760E+00
  2.88356033E+00  2.88761905E+00  3.16520253E+00  3.18750770E+00  3.84394800E+00
  5.03507528E+00  5.04476492E+00  5.51383548E+00  7.81568137E+00  1.74051889E+01
  1.74213717E+01  1.74517971E+01  4.98720494E+01  1.89075223E+02
Alpha MO coefficients                      R   N=        4096
  7.98568616E-08 -1.92573628E-07  2.63308769E-06  2.16725218E-07 -1.40271858E-07
  2.41127144E-06 -8.43734022E-06 -1.51564094E-06  5.14968155E-07 -1.67855339E-05
  3.80260250E-06 -9.37053804E-06 -1.59012015E-06  1.49779783E-04  4.66070877E-05
 -6.83416230E-05 -4.25426308E-07 -3.61096600E-06 -2.19384212E-07  3.26296964E-08
 -7.49025814E-07 -1.94436671E-06  4.10786897E-01  6.54412411E-01  1.53451019E-02
 -4.34145388E-03  1.60413069E-03 -8.98866769E-04  1.26351682E-04 -2.46466163E-05
 -1.64273254E-05 -1.30011676E-05 -2.92890073E-05 -6.17976559E-05 -4.92717542E-05
  6.83734209E-06  2.03332031E-05  1.62596983E-05  1.89165471E-06  4.63044321E-06
  4.07146504E-06 -2.65131648E-05 -1.37148367E-04 -1.12294759E-04  7.25748302E-05
  1.44314567E-04  1.16066533E-04  7.18332319E-06  6.54009820E-06  7.66045067E-05
 -4.36941321E-05  7.41724221E-06  3.68973174E-07 -8.26059613E-06 -1.40076592E-04
 -6.38645715E-06 -5.84551129E-06  8.58530689E-07  2.59009811E-05 -2.13832232E-04
  2.70611079E-04 -1.36412372E-05 -1.34161833E-04 -1.09405536E-04  5.52844446E-01
  4.69701933E-01  2.27160565E-04 -1.26572723E-03 -1.71743486E-06  8.03648787E-03
 -4.24068723E-05  1.34155099E-04  2.27983843E-06 -3.08883180E-03 -1.29011592E-04
 -1.91661530E-04 -1.97919167E-06  2.49798546E-03  3.60934596E-04 -3.53472995E-04
  7.14519750E-07 -5.52700474E-05 -5.34086586E-07 -8.87087401E-07 -1.31986435E-04
  1.73279458E-06  3.58706788E-08 -2.27326886E-07  2.60721805E-06 -8.13516834E-06
  4.00822718E-05 -6.03524010E-05 -4.98256213E-04  3.61649728E-04 -2.45192044E-05
  2.68822971E-07 -7.96666466E-07 -1.04171905E-07 -6.09355754E-08  1.71568601E-05
 -6.50271696E-07 -3.01363227E-07 -6.12930471E-05  2.29828952E-06  1.25915133E-06
  1.03377053E-04 -8.33482663E-06 -5.92265465E-06 -1.75058784E-05  1.28513069E-04
  8.97188424E-05  1.65867904E-05 -1.37228423E-07 -6.84153898E-06 -2.76859344E-05
 -2.64858333E-07  6.45169238E-05 -1.25273929E-05 -1.02813730E-03 -2.19104103E-06
 -4.41687331E-04  2.57135466E-06  1.25494326E-05 -3.43587889E-05  2.52886183E-04
  2.71150189E-06 -2.82055793E-06 -4.48057594E-07  2.56158911E-07  3.80215213E-06
  4.95855904E-05  4.66648789E-06 -1.24934125E-06 -3.59118460E-05 -1.13474005E-04
 -2.63539226E-05  6.38824797E-06 -2.68671549E-05  1.84305492E-04 -1.49775606E-04
 -1.93301654E-05  1.76146966E-03  5.14434651E-04 -8.88505300E-04 -5.89417593E-06
 -4.81110604E-05 -1.97689241E-06  2.28281899E-07 -7.64123805E-06 -2.23335477E-05
 -1.19760436E-01 -3.20477225E-01  5.15983368E-01  5.99029872E-01  4.28242505E-02
 -1.48672020E-02  2.33256252E-03 -3.91528184E-04 -1.90970734E-04 -1.49083124E-04
 -7.79227036E-04 -1.55178822E-03 -1.23341678E-03 -1.80723377E-03 -3.50789540E-03
 -2.78938154E-03 -1.70589258E-04 -3.36278872E-04 -2.58799523E-04 -2.83242891E-04
 -1.48110468E-03 -1.21182057E-03  9.26628708E-04  1.81966171E-03  1.46124157E-03
 -2.05438377E-04  3.90894056E-05  1.13145460E-03 -1.09927231E-04  2.82117725E-05
 -5.59758904E-06 -1.48911676E-04 -1.81809961E-03 -8.63127913E-05 -9.00477893E-05
  9.44064518E-06  1.51223974E-04 -2.02474798E-03  3.43896719E-03 -1.37950596E-04
 -1.28006489E-03 -1.04356054E-03  2.85912443E-06  1.54002039E-05 -6.61357847E-07
  4.15484636E-06  1.56914004E-06 -1.54603596E-04 -4.36001710E-05 -1.16564877E-05
 -6.42851493E-06  3.67169370E-04  2.24544496E-04  3.07468953E-05  1.83329860E-05
 -7.30764048E-06  2.06059749E-04 -1.46306592E-04 -2.06409688E-05 -1.81468523E-05
  6.84111841E-07 -2.64226493E-07  2.03178956E-05  6.17449092E-06 -1.86779444E-04
 -5.13691332E-04  9.74186518E-04  7.03345342E-04  1.49113977E-04 -5.33851647E-05
 -8.50429853E-05 -2.55842850E-03  2.58247052E-04  1.89358565E-04  3.74734183E-01
 -4.48635216E-02 -3.25900763E-02  7.01361406E-01 -8.39479196E-02 -6.09760678E-02
  5.43599997E-02 -6.49823413E-03 -4.72165580E-03 -7.62862821E-03  8.51090681E-04
  6.17173045E-04  4.81925575E-03 -4.67583624E-04 -3.42064891E-04  8.04492721E-05
 -3.29474348E-04  9.14535220E-05 -1.88466931E-04 -4.17835010E-04 -4.97370022E-05
  7.04933103E-05 -2.75595360E-04  2.20526242E-05  1.82991055E-07 -9.42932341E-07
  3.44750789E-05 -6.94889580E-06  1.44899666E-05  6.24861270E-05 -6.20344680E-05
 -4.94211639E-05  5.45703002E-07  2.89864530E-06  1.32355150E-06 -6.36055144E-06
 -5.23462710E-06 -2.81576292E-05 -1.66686568E-05  3.17709870E-05  2.38752465E-05
  5.26362678E-05  4.83282244E-05 -7.95460485E-05 -6.43779669E-05  3.44969497E-06
  1.71870428E-05  8.75320035E-05  4.75624125E-05 -2.57190540E-06 -5.19504565E-06
  1.33256746E-06  1.76948486E-06  4.56993018E-07 -8.13901584E-04 -2.20283267E-03
  3.90223799E-03  3.94077476E-03 -7.20945311E-04 -3.19233868E-04 -4.75993694E-04
 -2.72402058E-04 -1.54069624E-03 -1.25823267E-03  5.54351262E-02  2.90665578E-01
  2.37562361E-01  1.03590665E-01  5.43013693E-01  4.43809337E-01  7.87223834E-03
  4.12550090E-02  3.37166890E-02 -1.06059279E-03 -5.34393404E-03 -4.36628021E-03
  6.66431755E-04  3.37673500E-03  2.75837165E-03 -3.64406646E-05 -1.62880570E-04
 -6.57246915E-04  3.48331454E-04 -2.01130607E-04 -2.34078474E-05  1.33989524E-05
  5.39825047E-05  3.08479765E-05  5.98689849E-06  8.13875280E-06 -5.54837413E-04
 -7.74647842E-05  1.12221290E-03  2.59950183E-05  5.11734389E-04  4.19482566E-04
 -7.45810069E-08 -5.56221729E-07 -1.16336541E-07  5.44452441E-06 -6.06617333E-06
  5.39520808E-06  3.94112225E-07 -2.62839039E-05  2.75980079E-05 -5.90156530E-06
  7.59554855E-06  6.12233333E-05 -7.14236028E-05  1.16935068E-05 -2.24949285E-06
 -5.28357676E-05  5.75497115E-05  3.86279960E-07 -6.19775377E-06  1.58855674E-06
  2.99607334E-07  2.44244856E-07  1.22355702E-05  3.32243751E-05 -5.94417420E-05
 -5.78106270E-05  1.21824523E-05 -7.18231392E-06  3.51527001E-06  1.84780137E-05
  1.35017061E-03 -1.65495505E-03 -3.13723349E-03 -2.40293831E-01  2.94739272E-01
 -5.84720561E-03 -4.48113673E-01  5.49647630E-01 -4.29422213E-04 -3.27876753E-02
  4.02144686E-02  6.00215934E-05  4.40869184E-03 -5.40186007E-03 -3.62341340E-05
 -2.54796248E-03  3.12235563E-03 -3.83827974E-04 -1.12546451E-04 -9.90076002E-05
 -2.23588374E-04  9.67307626E-05  1.18433198E-05 -3.15657997E-06 -1.15876424E-05
 -2.24099424E-05 -6.36710389E-06  7.39715637E-06 -2.12109181E-07  2.90341645E-06
 -3.50416701E-07 -5.49239589E-07 -5.66544443E-05  7.29840766E-05 -1.18590531E-01
 -1.95418408E-01  6.27883718E-05 -4.77220874E-02  3.23906768E-05  5.74130063E-01
  2.30282512E-04 -7.65944905E-02  6.72797223E-05  4.19172002E-01  3.30894755E-03
 -2.92086392E-02 -3.00061298E-04 -2.05720688E-02 -5.35039566E-03  5.75568167E-03
 -1.02497109E-04 -9.37585759E-03  1.74360071E-05 -4.17650332E-05 -5.93432183E-03
 -4.72446070E-05  4.70838671E-04  1.33760981E-03 -2.80342939E-03 -4.99692264E-03
  7.18236494E-03  9.26894157E-03  7.74408397E-03 -4.93829232E-03  2.54917460E-04
  1.87420584E-04  9.89161003E-04  7.65922288E-05  4.74126872E-05  1.78118253E-03
  1.43641362E-04  9.10588991E-05 -1.52623346E-03 -7.18013048E-05 -4.35356225E-05
 -8.05696955E-03 -5.36569112E-04 -3.61289964E-04 -2.72594870E-03 -2.67243149E-03
 -1.84423347E-03 -9.64068291E-04  1.21550358E-04  4.48756960E-04  1.47274522E-03
  2.59970298E-04  1.10784218E-01  8.96338242E-02  1.67466206E-02  3.12217897E-04
  2.59697394E-02 -2.56650927E-04  1.02106016E-03  1.15936914E-04 -3.88654763E-03
 -7.21515850E-05  5.45745367E-05  3.87594895E-05  2.53781801E-03  4.21486318E-03
  5.79499762E-03  1.80639734E-03 -9.38350550E-05 -1.30049393E-02  9.29225931E-03
  2.83365448E-03 -1.32879305E-04 -7.71249294E-03  7.51427237E-03  1.04327889E-03
 -5.35980077E-05 -8.03472768E-03 -1.40448269E-03  3.96825615E-03 -6.62019040E-05
 -3.53575855E-05 -1.28960772E-05  8.09781921E-06  6.69166360E-04 -2.97192313E-04
  3.33107859E-02  9.46616098E-02 -1.98721270E-01 -3.67521343E-01  6.66868014E-01
  4.04914764E-01 -1.09672542E-02  1.40880231E-03  2.16396555E-04 -5.77517798E-04
  4.24514315E-04  1.36838456E-02  1.09868990E-02  9.38625504E-04  2.73178558E-02
  2.19463162E-02 -1.85649115E-03 -3.78413722E-02 -3.05148056E-02  2.74484025E-03
 -5.18970989E-02 -4.12105788E-02 -2.15505305E-03 -9.84792398E-03 -6.00416331E-03
 -3.42043701E-03  9.20788030E-04  2.40607600E-02 -4.19555341E-03  1.22060071E-03
 -3.02519919E-03 -3.84644188E-03  9.50935208E-03  1.10133436E-03 -7.20604759E-04
 -1.05562583E-05  1.02282879E-01  1.35150521E-01  4.58742852E-03  2.24078703E-03
  1.81079420E-02  1.50432439E-02 -3.94778226E-02 -6.60975320E-02  3.09719068E-03
  2.50420604E-01 -8.90759974E-04  2.01573892E-01  4.38064101E-03  3.60305917E-01
 -1.29780929E-03  2.89273835E-01  5.02910528E-03  2.39255461E-01 -9.49901857E-04
  6.22896785E-02 -1.62083838E-03  2.29408328E-02  3.73953370E-04  8.11550611E-03
  2.41861404E-05  6.04878560E-05  1.74758742E-02  5.02512446E-04  9.45932276E-04
  2.70705143E-03 -5.85894896E-03 -1.04247951E-02  1.78059531E-02  2.79876865E-02
  3.78194662E-03  1.30286376E-03 -1.39439439E-03 -8.17417181E-04  1.03347924E-03
 -6.30675022E-03 -3.91898047E-03  1.92638958E-03 -1.22694311E-02 -7.65105535E-03
 -2.08323788E-03  1.77464616E-02  1.11410116E-02 -7.64943885E-03  3.08350364E-02
  1.85488056E-02 -5.12184666E-03  9.21561021E-03  2.44666943E-03 -1.11412379E-03
 -1.71696191E-04 -3.65235117E-03  3.92319637E-03 -1.43500044E-03 -1.65621515E-01
 -2.61683994E-01 -8.74004149E-02 -1.29265653E-03 -3.00045978E-02  4.80090102E-04
 -1.44210993E-02 -2.58185268E-02 -1.56220370E-02 -8.50401454E-06 -1.87885478E-03
 -1.83129077E-03  4.19256021E-03  7.02233832E-03  6.41671461E-03 -2.43808264E-02
  5.11276082E-03 -2.15274280E-02  9.78467782E-03 -3.50419208E-02  7.52054959E-03
 -3.08428615E-02  8.97836776E-03 -2.37205091E-02  6.24782085E-03  3.67912819E-03
  4.45823667E-03 -5.97371187E-03  2.22678894E-03 -9.13083769E-04  1.88202740E-04
 -2.67397988E-04 -1.39389367E-03 -2.24335167E-04  1.25667323E-02  3.59009784E-02
 -7.71524172E-02 -1.41181788E-01  2.60616735E-01  3.07144376E-01  2.35238046E-02
 -3.45878502E-03 -1.73453459E-02 -1.44008142E-02 -7.71890585E-03 -6.30288555E-02
 -5.18929641E-02 -1.50197666E-02 -1.22766684E-01 -1.01064995E-01  2.18989638E-02
  1.79226726E-01  1.47473648E-01  3.95860772E-02  3.10308629E-01  2.55942155E-01
  1.64277640E-02  7.68098194E-02  6.37947222E-02 -7.54900941E-03 -4.28321129E-03
 -4.19253429E-02  3.06647212E-02 -5.16710356E-03  1.53872410E-02  2.63394421E-02
 -1.73855066E-03  6.00875726E-04  2.84007044E-03  6.21481581E-04 -1.56975818E-01
 -2.87510840E-01 -1.43938748E-01 -2.83980147E-03 -2.02939480E-02 -1.70796538E-02
 -2.67135201E-04 -4.46928651E-04 -3.23396889E-03  1.80004235E-03  3.04261556E-01
  1.41664772E-03 -4.82277961E-03  2.55801370E-03  4.45828320E-01  2.41479077E-03
 -4.28292251E-03  2.89202527E-03  4.01682490E-01 -7.51696188E-03 -2.81148954E-03
  3.10378208E-03  8.78866666E-02  5.18919542E-06  9.02693851E-04 -1.47030715E-02
  8.24108519E-05  1.63271766E-04 -2.45453484E-04 -6.98566111E-04  1.47932794E-03
  2.88693451E-03 -5.53101556E-03 -5.17521466E-03  4.59058467E-03 -5.85134111E-04
  2.61098059E-03 -8.17122995E-04  1.22124294E-05  6.07630138E-03 -4.16539993E-03
  2.41268236E-05  1.17579067E-02 -7.95514274E-03 -8.56304202E-05 -1.74269937E-02
  1.12792358E-02  1.56213100E-04 -3.32961486E-02  2.56241548E-02 -1.00700061E-03
 -1.87462020E-02  1.33927385E-02 -7.76228297E-04 -1.92478141E-03  8.49176703E-04
 -1.51859876E-03  5.74007031E-05 -1.83189575E-04  2.25765570E-04  3.71299854E-03
 -3.72295281E-04  2.01322076E-04  3.63284936E-02  3.94378491E-03  1.09314645E-02
 -5.12527325E-03  7.00306568E-04 -3.04701460E-04  1.66974687E-03  3.38344600E-04
  5.89214746E-04  3.37882951E-02  4.25183049E-03 -2.42732198E-02 -2.40610108E-03
  5.07192086E-02  5.97516877E-03 -3.55254264E-02  1.16229197E-03  4.75958904E-02
  2.37111456E-03 -3.26295328E-02 -8.87712963E-03  1.28306073E-02  5.92868935E-03
 -8.21282114E-03 -1.43981969E-04  2.96492798E-04  1.17112384E-03  5.78738638E-04
 -2.15476705E-03 -3.36577530E-04 -9.52590268E-04  1.97032354E-03  4.20970446E-03
 -1.09961383E-02  1.15362745E-03  6.89862898E-03  8.45249724E-03  3.76612518E-02
 -4.49373369E-02  1.13009332E-02  6.38622829E-02 -7.92360714E-02  2.18350833E-02
  1.22993698E-01 -1.52659277E-01 -3.04970651E-02 -1.81427835E-01  2.25345409E-01
 -6.72176788E-02 -3.73365222E-01  4.61776066E-01 -4.21342221E-02 -2.10869946E-01
  2.50633195E-01 -1.59748087E-02  1.68661304E-03 -4.46665944E-03 -7.35694554E-03
  1.85099410E-03 -2.78566521E-03 -1.00019941E-02  1.48772088E-02  4.60612780E-03
 -1.48244726E-03 -2.73750680E-03 -9.15118886E-04 -4.87521104E-03 -4.39984126E-03
 -2.28349784E-03 -1.43554266E-02  1.67280209E-02 -4.58962502E-03 -7.77057184E-03
 -2.09717607E-01  5.20907204E-03 -7.32980798E-03  2.56019632E-02 -3.15202473E-01