Title Card Required                                                     
FOpt      UM062X                                                      6-311+G(d,p)        
Number of atoms                            I                4
Info1-9                                    I   N=           9
          15          14           0           0           0         110
           2          18        -502
Full Title                                 C   N=           2
Title Card Required     
Route                                      C   N=           8
#p opt UM062X/6-311+G** nosymm int=superfine SCF=(MaxCycle=2
00,NoVarAcc,noincfock) guess=read   
Charge                                     I                0
Multiplicity                               I                1
Number of electrons                        I               26
Number of alpha electrons                  I               13
Number of beta electrons                   I               13
Number of basis functions                  I               64
Number of independent functions            I               64
Number of point charges in /Mol/           I                0
Number of translation vectors              I                0
Atomic numbers                             I   N=           4
           8          16           1           1
Nuclear charges                            R   N=           4
  8.00000000E+00  1.60000000E+01  1.00000000E+00  1.00000000E+00
Current cartesian coordinates              R   N=          12
 -3.46954850E+00 -2.60782205E-04 -2.13539052E-04  3.46954850E+00  2.28656861E-04
  1.71965077E-04 -3.40125761E+00 -2.37045941E-01 -1.81691691E+00  2.97920629E+00
 -2.75475563E-01  2.48307148E+00
Number of symbols in /Mol/                 I                0
Force Field                                I                0
Atom Types                                 C   N=           4
                                                
Int Atom Types                             I   N=           4
           0           0           0           0
MM charges                                 R   N=           4
  0.00000000E+00  0.00000000E+00  0.00000000E+00  0.00000000E+00
Integer atomic weights                     I   N=           4
          16          32           1           1
Real atomic weights                        R   N=           4
  1.59949146E+01  3.19720718E+01  1.00782504E+00  1.00782504E+00
Atom fragment info                         I   N=           4
           0           0           0           0
Atom residue num                           I   N=           4
           0           0           0           0
Nuclear spins                              I   N=           4
           0           0           1           1
Nuclear ZEff                               R   N=           4
 -5.60000000E+00 -1.36000000E+01 -1.00000000E+00 -1.00000000E+00
Nuclear ZNuc                               R   N=           4
  8.00000000E+00  1.60000000E+01  1.00000000E+00  1.00000000E+00
Nuclear QMom                               R   N=           4
  0.00000000E+00  0.00000000E+00  0.00000000E+00  0.00000000E+00
Nuclear GFac                               R   N=           4
  0.00000000E+00  0.00000000E+00  2.79284600E+00  2.79284600E+00
MicOpt                                     I   N=           4
          -2          -2          -1          -1
Number of residues                         I                0
Number of secondary structures             I                0
Redundant internal dimensions              I   N=           4
          12          10           2           0
Redundant internal coordinate indices      I   N=          48
           1          -1           0           0           1          -2
           0           0           1          -3           0           0
           2          -1           0           0           2          -2
           0           0           2          -3           0           0
           1           3           0           0           1           4
           0           0           2           3           0           0
           2           4           0           0           3           1
           4           0           3           2           4           0
Redundant internal coordinates             R   N=          12
 -3.46954850E+00 -2.60782205E-04 -2.13539052E-04  3.46954850E+00  2.28656861E-04
  1.71965077E-04  1.83334176E+00  6.91584312E+00  7.11098361E+00  2.54582763E+00
  1.89224341E+00  1.63033352E+00
ZRed-IntVec                                I   N=          12
          -1          -1          -1          -1          -1          -1
           0           0           0           0           0           0
ZRed-FPVec                                 R   N=          12
  0.00000000E+00  0.00000000E+00  0.00000000E+00  0.00000000E+00  0.00000000E+00
  0.00000000E+00  0.00000000E+00  0.00000000E+00  0.00000000E+00  0.00000000E+00
  0.00000000E+00  0.00000000E+00
ZRed-Constraint1                           R   N=          12
 -3.46954850E+00 -2.60782205E-04 -2.13539052E-04  3.46954850E+00  2.28656861E-04
  1.71965077E-04  1.82721825E+00  7.23383421E+00  7.01198213E+00  2.54903606E+00
  1.78062613E+00  1.72549192E+00
ZRed-Constraint2                           R   N=          12
 -3.46954850E+00 -2.60782205E-04 -2.13539052E-04  3.46954850E+00  2.28656861E-04
  1.71965077E-04  0.00000000E+00  0.00000000E+00  0.00000000E+00  0.00000000E+00
  0.00000000E+00  0.00000000E+00
Number of contracted shells                I               27
Number of primitive shells                 I               49
Pure/Cartesian d shells                    I                0
Pure/Cartesian f shells                    I                0
Highest angular momentum                   I                2
Largest degree of contraction              I                6
Shell types                                I   N=          27
           0          -1          -1          -1          -1          -2
           0           0           0           0           0           0
          -1           1           1           1           1           1
          -2           0           0           0           1           0
           0           0           1
Number of primitives per shell             I   N=          27
           6           3           1           1           1           1
           6           3           1           1           1           1
           1           4           2           1           1           1
           1           3           1           1           1           3
           1           1           1
Shell to atom map                          I   N=          27
           1           1           1           1           1           1
           2           2           2           2           2           2
           2           2           2           2           2           2
           2           3           3           3           3           4
           4           4           4
Primitive exponents                        R   N=          49
  8.58850000E+03  1.29723000E+03  2.99296000E+02  8.73771000E+01  2.56789000E+01
  3.74004000E+00  4.21175000E+01  9.62837000E+00  2.85332000E+00  9.05661000E-01
  2.55611000E-01  8.45000000E-02  1.29200000E+00  9.34134000E+04  1.39617000E+04
  3.16991000E+03  9.02456000E+02  2.97158000E+02  1.08702000E+02  1.08702000E+02
  4.31553000E+01  1.81079000E+01  5.56009000E+00  2.13183000E+00  4.20403000E-01
  1.36045000E-01  4.05000000E-02  4.95040000E+02  1.17221000E+02  3.77749000E+01
  1.40584000E+01  5.56574000E+00  2.26297000E+00  8.07994000E-01  2.77460000E-01
  7.71410000E-02  6.50000000E-01  3.38650000E+01  5.09479000E+00  1.15879000E+00
  3.25840000E-01  1.02741000E-01  7.50000000E-01  3.38650000E+01  5.09479000E+00
  1.15879000E+00  3.25840000E-01  1.02741000E-01  7.50000000E-01
Contraction coefficients                   R   N=          49
  1.89515008E-03  1.43859006E-02  7.07320031E-02  2.40001011E-01  5.94797026E-01
  2.80802012E-01  1.13889012E-01  9.20811101E-01 -3.27447036E-03  1.00000000E+00
  1.00000000E+00  1.00000000E+00  1.00000000E+00  7.42999957E-04  5.79299966E-03
  2.99539983E-02  1.19027993E-01  3.68431979E-01  5.77298966E-01  1.43186060E-01
  6.24465262E-01  2.83366119E-01  1.00000000E+00  1.00000000E+00  1.00000000E+00
  1.00000000E+00  1.00000000E+00  8.30900251E-03  6.40240194E-02  2.77614084E-01
  7.45076225E-01  6.13711672E-01  4.43817763E-01  1.00000000E+00  1.00000000E+00
  1.00000000E+00  1.00000000E+00  2.54938145E-02  1.90373109E-01  8.52161486E-01
  1.00000000E+00  1.00000000E+00  1.00000000E+00  2.54938145E-02  1.90373109E-01
  8.52161486E-01  1.00000000E+00  1.00000000E+00  1.00000000E+00
P(S=P) Contraction coefficients            R   N=          49
  0.00000000E+00  0.00000000E+00  0.00000000E+00  0.00000000E+00  0.00000000E+00
  0.00000000E+00  3.65113974E-02  2.37152983E-01  8.19701941E-01  1.00000000E+00
  1.00000000E+00  1.00000000E+00  0.00000000E+00  0.00000000E+00  0.00000000E+00
  0.00000000E+00  0.00000000E+00  0.00000000E+00  0.00000000E+00  0.00000000E+00
  0.00000000E+00  0.00000000E+00  0.00000000E+00  0.00000000E+00  0.00000000E+00
  0.00000000E+00  1.00000000E+00  0.00000000E+00  0.00000000E+00  0.00000000E+00
  0.00000000E+00  0.00000000E+00  0.00000000E+00  0.00000000E+00  0.00000000E+00
  0.00000000E+00  0.00000000E+00  0.00000000E+00  0.00000000E+00  0.00000000E+00
  0.00000000E+00  0.00000000E+00  0.00000000E+00  0.00000000E+00  0.00000000E+00
  0.00000000E+00  0.00000000E+00  0.00000000E+00  0.00000000E+00
Coordinates of each shell                  R   N=          81
 -3.46954850E+00 -2.60782205E-04 -2.13539052E-04 -3.46954850E+00 -2.60782205E-04
 -2.13539052E-04 -3.46954850E+00 -2.60782205E-04 -2.13539052E-04 -3.46954850E+00
 -2.60782205E-04 -2.13539052E-04 -3.46954850E+00 -2.60782205E-04 -2.13539052E-04
 -3.46954850E+00 -2.60782205E-04 -2.13539052E-04  3.46954850E+00  2.28656861E-04
  1.71965077E-04  3.46954850E+00  2.28656861E-04  1.71965077E-04  3.46954850E+00
  2.28656861E-04  1.71965077E-04  3.46954850E+00  2.28656861E-04  1.71965077E-04
  3.46954850E+00  2.28656861E-04  1.71965077E-04  3.46954850E+00  2.28656861E-04
  1.71965077E-04  3.46954850E+00  2.28656861E-04  1.71965077E-04  3.46954850E+00
  2.28656861E-04  1.71965077E-04  3.46954850E+00  2.28656861E-04  1.71965077E-04
  3.46954850E+00  2.28656861E-04  1.71965077E-04  3.46954850E+00  2.28656861E-04
  1.71965077E-04  3.46954850E+00  2.28656861E-04  1.71965077E-04  3.46954850E+00
  2.28656861E-04  1.71965077E-04 -3.40125761E+00 -2.37045941E-01 -1.81691691E+00
 -3.40125761E+00 -2.37045941E-01 -1.81691691E+00 -3.40125761E+00 -2.37045941E-01
 -1.81691691E+00 -3.40125761E+00 -2.37045941E-01 -1.81691691E+00  2.97920629E+00
 -2.75475563E-01  2.48307148E+00  2.97920629E+00 -2.75475563E-01  2.48307148E+00
  2.97920629E+00 -2.75475563E-01  2.48307148E+00  2.97920629E+00 -2.75475563E-01
  2.48307148E+00
Num ILSW                                   I              100
ILSW                                       I   N=         100
           1           0           0           1           2           0
           0           0           0           0        4336          -1
           7           0           0           0           2           0
           0           0           0           0           1           0
           1           1           0           0           0           0
           0           0      100000           0          -1           0
           0           0           0           0           0           0
           0           0           0           1           0           0
           0 -2000000000           1           0           0           0
           0           0           4          52           0           0
           0           0          55           0           0           0
           0           0           0           4           0           1
           0           0           0           0           0           0
           0           0           0           0           0           0
           0           0           0           0           0           0
           0           0           0           0           0           0
           0           0           0           0
Num RLSW                                   I               52
RLSW                                       R   N=          52
  1.00000000E+00  1.00000000E+00  1.00000000E+00  1.00000000E+00  5.40000000E-01
  0.00000000E+00  0.00000000E+00  1.00000000E+00  0.00000000E+00  0.00000000E+00
  0.00000000E+00  0.00000000E+00  1.00000000E+00  0.00000000E+00  0.00000000E+00
  0.00000000E+00  0.00000000E+00  1.00000000E+00  0.00000000E+00  0.00000000E+00
  0.00000000E+00  0.00000000E+00  1.00000000E+00  0.00000000E+00  0.00000000E+00
  0.00000000E+00  0.00000000E+00  1.00000000E+00  0.00000000E+00  0.00000000E+00
  0.00000000E+00  0.00000000E+00  1.00000000E+00  0.00000000E+00  0.00000000E+00
  0.00000000E+00  0.00000000E+00  0.00000000E+00  1.00000000E+00  1.00000000E+00
  0.00000000E+00  1.00000000E+00  0.00000000E+00  0.00000000E+00  0.00000000E+00
  0.00000000E+00  0.00000000E+00  0.00000000E+00  0.00000000E+00  0.00000000E+00
  0.00000000E+00  0.00000000E+00
MxBond                                     I                3
NBond                                      I   N=           4
           3           3           2           2
IBond                                      I   N=          12
           2           3           4           1           3           4
           1           2           0           1           2           0
RBond                                      R   N=          12
  1.00000000E-01  1.00000000E+00  1.00000000E-01  1.00000000E-01  1.00000000E-01
  1.00000000E+00  1.00000000E+00  1.00000000E-01  0.00000000E+00  1.00000000E-01
  1.00000000E+00  0.00000000E+00
Virial Ratio                               R      2.001642044791360E+00
SCF Energy                                 R     -4.743662101120389E+02
Total Energy                               R     -4.743662101120389E+02
S**2                                       R      1.000692861907737E-10
S**2 after annihilation                    R     -5.293543381677513E-13
RMS Force                                  R      4.985563923256027E-06
RMS Density                                R      9.623267350374238E-09
Job Status                                 I                1
Nuclear derivative order                   I                1
External E-field                           R   N=          35
  0.00000000E+00  0.00000000E+00  0.00000000E+00  0.00000000E+00  0.00000000E+00
  0.00000000E+00  0.00000000E+00  0.00000000E+00  0.00000000E+00  0.00000000E+00
  0.00000000E+00  0.00000000E+00  0.00000000E+00  0.00000000E+00  0.00000000E+00
  0.00000000E+00  0.00000000E+00  0.00000000E+00  0.00000000E+00  0.00000000E+00
  0.00000000E+00  0.00000000E+00  0.00000000E+00  0.00000000E+00  0.00000000E+00
  0.00000000E+00  0.00000000E+00  0.00000000E+00  0.00000000E+00  0.00000000E+00
  0.00000000E+00  0.00000000E+00  0.00000000E+00  0.00000000E+00  0.00000000E+00
IOpCl                                      I                1
IROHF                                      I                0
Alpha Orbital Energies                     R   N=          64
 -8.99781911E+01 -1.96716646E+01 -8.33997670E+00 -6.26205306E+00 -6.25844398E+00
 -6.25275300E+00 -1.08402848E+00 -8.39175452E-01 -5.24886849E-01 -4.97829762E-01
 -3.97142158E-01 -3.58286797E-01 -3.34924990E-01 -2.31048646E-01  1.56290336E-02
  3.86814356E-02  4.68888231E-02  5.36308724E-02  6.74584513E-02  1.31136796E-01
  1.92110997E-01  1.98129259E-01  2.11016009E-01  2.48190599E-01  3.07808241E-01
  3.39574220E-01  3.46120495E-01  3.89830900E-01  5.33983211E-01  5.87970201E-01
  6.97131023E-01  7.13691319E-01  7.84122897E-01  7.88383658E-01  9.68883465E-01
  1.03853505E+00  1.07898566E+00  1.09570526E+00  1.36565894E+00  1.39277557E+00
  1.39863336E+00  1.45605687E+00  1.45682417E+00  1.64009022E+00  1.66087388E+00
  1.67566839E+00  2.05725310E+00  2.08745428E+00  2.47732039E+00  2.52482559E+00
  2.87876263E+00  2.88673786E+00  3.16498991E+00  3.18801195E+00  3.84320412E+00
  5.03170459E+00  5.04263051E+00  5.51054728E+00  7.81153221E+00  1.74057314E+01
  1.74175106E+01  1.74525464E+01  4.98679121E+01  1.89071392E+02
Beta Orbital Energies                      R   N=          64
 -8.99781911E+01 -1.96716646E+01 -8.33997670E+00 -6.26205306E+00 -6.25844398E+00
 -6.25275300E+00 -1.08402848E+00 -8.39175453E-01 -5.24886848E-01 -4.97829763E-01
 -3.97142159E-01 -3.58286807E-01 -3.34924977E-01 -2.31048645E-01  1.56290310E-02
  3.86814365E-02  4.68888238E-02  5.36308699E-02  6.74584545E-02  1.31136796E-01
  1.92111000E-01  1.98129249E-01  2.11016013E-01  2.48190602E-01  3.07808240E-01
  3.39574219E-01  3.46120499E-01  3.89830898E-01  5.33983211E-01  5.87970200E-01
  6.97131021E-01  7.13691319E-01  7.84122873E-01  7.88383679E-01  9.68883464E-01
  1.03853505E+00  1.07898566E+00  1.09570526E+00  1.36565894E+00  1.39277557E+00
  1.39863336E+00  1.45605686E+00  1.45682418E+00  1.64009022E+00  1.66087387E+00
  1.67566839E+00  2.05725310E+00  2.08745428E+00  2.47732039E+00  2.52482559E+00
  2.87876262E+00  2.88673786E+00  3.16498992E+00  3.18801195E+00  3.84320412E+00
  5.03170460E+00  5.04263050E+00  5.51054728E+00  7.81153221E+00  1.74057314E+01
  1.74175106E+01  1.74525464E+01  4.98679121E+01  1.89071392E+02
Alpha MO coefficients                      R   N=        4096
  2.44472435E-07 -1.17244802E-06 -1.04363087E-06 -7.42449929E-08  2.38276197E-07
  8.64413510E-06  3.70253417E-06  2.55029667E-07 -6.42829146E-07 -3.62797355E-05
 -1.69363238E-05  1.12047529E-06  1.45408945E-05  1.53940328E-04  3.36837363E-05
 -1.03367575E-05 -8.57032902E-05 -1.21625236E-06 -8.04208369E-07 -1.87499154E-07
  5.99830458E-07 -1.28373866E-07  4.10785987E-01  6.54412290E-01  1.53469865E-02
 -4.34056734E-03  1.59796104E-03 -8.89135495E-04  1.41774897E-04 -2.37116028E-05
 -2.44517446E-06  2.05768502E-05 -2.87803068E-05 -8.50706560E-06  7.42432803E-05
  7.77643270E-06  2.78997422E-06 -2.45477864E-05  2.37218408E-06  7.79818859E-07
 -7.16896615E-06 -4.30062744E-05 -1.95495980E-05  1.75491026E-04  6.95525613E-05
  1.98639274E-05 -1.74917275E-04  8.32138808E-05 -2.77923538E-05 -1.68843291E-05
  6.14716729E-06  2.91507925E-06 -1.81275443E-06  2.88221732E-05 -1.77885971E-04
 -3.56778478E-06  1.37441224E-07  1.87827342E-06  2.70243228E-05 -2.18857048E-04
  2.67649035E-04 -3.43463797E-05 -1.88197748E-05  1.69978899E-04  5.52843161E-01
  4.69703504E-01  1.82976505E-04 -1.62066648E-04 -1.23143638E-03  8.01502476E-03
 -1.67028497E-05  1.61336871E-05  1.17119875E-04 -2.98725126E-03 -1.00983168E-04
 -2.27371272E-05 -1.65193604E-04  2.30538925E-03  2.84012815E-04 -4.67071728E-05
 -3.66354853E-04  1.39097711E-04 -1.07832914E-05  2.92089373E-05 -2.04591158E-05
 -1.89549263E-06  5.01722271E-08 -8.46545339E-07  7.05785146E-06 -1.63421091E-05
  4.20800060E-05 -2.93568015E-05 -3.95431396E-04  2.59924694E-04 -3.61523242E-06
 -1.81899351E-05  8.99793641E-09 -4.63553331E-08  2.66918274E-07  1.01597385E-05
 -1.42510633E-07  7.53431854E-07 -2.97492927E-05  2.28114886E-07 -6.64226855E-07
  2.05823173E-05  2.56074487E-07 -4.57013319E-06  4.00257522E-05  1.84252159E-05
 -1.30341121E-04 -1.51533550E-06  4.83358225E-06  2.76673863E-06 -2.04978044E-05
 -6.14920485E-07  5.39969104E-05  2.08526981E-05 -1.06213869E-03  1.85944464E-05
 -5.78033912E-05 -4.42617629E-04  3.89220108E-06 -7.04890112E-06  2.49763455E-04
  6.56273672E-07  9.09331616E-07 -5.08563375E-06 -1.52859763E-06 -7.78979293E-06
  9.58839395E-06 -2.66381954E-07  3.80998119E-06  8.08172186E-05  3.27770662E-05
  2.08820147E-06 -1.29682873E-05 -3.69092677E-04 -1.41532456E-04  1.13310731E-05
  1.56553048E-04  1.96135047E-03  3.96431421E-04 -1.39117606E-04 -1.14555909E-03
 -8.95538260E-06 -1.11762201E-05 -5.75968184E-07  1.04081077E-05 -1.53407116E-06
 -1.19757475E-01 -3.20467599E-01  5.15930698E-01  5.99073782E-01  4.27922625E-02
 -1.47744143E-02  2.50126760E-03 -3.61000791E-04 -2.86770643E-05  2.36664771E-04
 -7.45877678E-04 -2.12737906E-04  1.84238511E-03 -1.71473457E-03 -4.80976470E-04
  4.16768681E-03 -1.56398058E-04 -4.39462852E-05  3.65857028E-04 -4.60894562E-04
 -2.11470606E-04  1.89602702E-03  9.02630119E-04  2.51624687E-04 -2.20980392E-03
  9.36593096E-04 -1.97631255E-04 -2.51713737E-04  6.01341244E-04  9.69539961E-06
 -2.19070715E-05  3.19016687E-04 -2.37540555E-03 -4.91005419E-05 -2.87715748E-07
  6.10453375E-06  1.62951291E-04 -2.07838733E-03  3.41148805E-03 -3.30639108E-04
 -1.79274174E-04  1.61941844E-03  1.88050392E-06  8.48564373E-06  1.81624637E-05
  5.86821127E-07  7.36332538E-07 -7.85353683E-05 -9.23280262E-05 -2.97167742E-06
 -6.21883052E-06  1.71240765E-04  1.77943132E-04 -1.08343929E-05 -1.24002037E-04
  3.62131603E-04  2.34549833E-04 -3.49788408E-05 -2.09983642E-04  1.68629018E-05
 -6.59981192E-06  6.28885300E-06  1.91005723E-05 -7.35150781E-07 -1.22796393E-04
 -3.37312970E-04  6.36354464E-04  4.73891414E-04  7.71264793E-05 -2.88545552E-05
 -1.33692155E-04 -2.39804404E-03  7.75703459E-05 -5.06543942E-04  3.69340436E-01
 -1.28814136E-02  8.31608770E-02  6.91277953E-01 -2.41083007E-02  1.55629991E-01
  5.35897485E-02 -1.86647736E-03  1.20515216E-02 -7.46354316E-03  2.51762063E-04
 -1.62472958E-03  4.60436167E-03 -1.39948906E-04  9.03041468E-04  2.23636174E-04
  4.65640697E-04 -3.16448593E-05 -1.58913798E-04 -5.35592778E-05 -9.65945730E-06
 -1.50829772E-04 -4.92843405E-04 -1.88453448E-05 -6.46303872E-06 -4.52447069E-05
  1.31949136E-05 -1.05634821E-05  8.39112574E-05  6.38646476E-05 -6.16517575E-06
  5.00444719E-05 -3.48393342E-07 -1.09947264E-06 -4.76095502E-06  5.71806549E-07
 -6.71701631E-06  7.54676431E-06  2.81328927E-05 -2.08449810E-06  3.06435117E-05
  2.95541156E-06 -6.17970065E-05  8.25100433E-06 -5.29897718E-05 -2.04518302E-04
 -6.39496883E-05 -6.34092228E-07  1.57472973E-04 -8.09727387E-07  1.56951323E-06
 -1.10076656E-06 -4.10892876E-06  7.50634620E-07  7.73853907E-04  2.09372100E-03
 -3.70397143E-03 -3.75872243E-03  6.88244771E-04  3.26211527E-04  4.95771337E-04
  4.09111725E-04  2.15630815E-04 -1.96058082E-03 -8.42025773E-02 -4.04565192E-02
  3.67778022E-01 -1.57327510E-01 -7.55813685E-02  6.87090002E-01 -1.19680764E-02
 -5.74589756E-03  5.22320461E-02  1.58458808E-03  7.46264113E-04 -6.78705964E-03
 -1.01454141E-03 -4.73476330E-04  4.29844469E-03  6.55419228E-04 -3.17806312E-04
 -1.38152661E-04  7.09132482E-05  3.50255070E-05 -7.12719667E-06  1.64315814E-05
  1.45630368E-04  1.63773876E-05  4.56273011E-07  1.25867073E-05  5.55632373E-04
  1.02059690E-04 -1.15337010E-03 -1.09674330E-04 -7.03230297E-05  6.37124317E-04
  2.67097902E-08  1.62919203E-07  1.57852901E-07 -4.80101152E-06 -7.02761730E-07
 -1.50949836E-06 -8.39238871E-07  2.04324257E-05  3.28567828E-06  1.87315852E-06
  2.16086116E-07 -4.84158524E-05 -8.21606855E-06  1.40085359E-05  3.22128475E-06
  7.14182328E-05  7.74723781E-07  1.54162015E-07  3.00611215E-07  1.58085555E-06
 -5.29592583E-08 -2.14627872E-06 -5.15486516E-06 -1.39921085E-05  2.50864981E-05
  2.39607186E-05 -3.51722469E-06  5.09643022E-07 -3.21287546E-06 -2.23493886E-05
 -2.12964648E-03 -2.39201057E-04  3.63291745E-03  3.77874461E-01  4.23990467E-02
  6.77458261E-03  7.04734127E-01  7.90739682E-02  4.97182563E-04  5.16193075E-02
  5.79155417E-03 -6.88789456E-05 -6.93871520E-03 -7.78104417E-04  4.37003892E-05
  4.01564876E-03  4.49632373E-04  8.31061914E-05 -1.30678471E-05  4.10837727E-04
  4.70027090E-05 -1.50358690E-04 -1.90412155E-06 -2.77089268E-06 -1.51974569E-05
  2.61012482E-06  6.92823838E-06  2.87730672E-07 -4.25366990E-07 -1.22926009E-06
  2.97877970E-06  7.73469790E-07  9.39946331E-05  1.07838186E-05 -1.18715492E-01
 -1.95675951E-01  1.92525154E-03 -6.17397594E-03 -4.69771362E-02  5.75279410E-01
  3.41902323E-03 -9.87709990E-03 -7.51804224E-02  4.17820568E-01  2.70020701E-03
 -3.76920651E-03 -2.78951231E-02 -1.74842981E-02 -3.97670963E-03  7.22244031E-04
  5.69486568E-03  9.35013394E-03 -5.61864579E-04  2.80614436E-03  4.96113218E-03
  2.07200718E-05  2.21810646E-04  6.34391791E-04 -1.36403088E-03 -2.23592153E-03
  2.95967705E-03  4.61087250E-03  7.20268549E-03 -3.79540485E-03  1.31776170E-05
 -1.11486933E-04  6.07664394E-04 -6.60488637E-06  3.64450556E-05  1.11725945E-03
 -1.26405798E-05  7.24339399E-05 -1.21026283E-03  2.54841436E-05 -1.87824589E-04
 -4.04431397E-03  3.19540455E-05  1.28038290E-05 -3.25386379E-03 -3.36237637E-04
  2.53149196E-03 -1.31203358E-04 -1.16739242E-04 -6.57538505E-05  8.24098545E-04
  1.43361683E-05  1.10642695E-01  8.99662434E-02  1.62433484E-02 -1.05683028E-03
  3.40280443E-03  2.60679803E-02  5.30037416E-04 -5.28021516E-05 -4.67360208E-03
 -1.15997336E-05 -8.30455535E-06  8.55031328E-05  1.18002043E-03  1.97895052E-03
  3.70889097E-03  1.53849078E-04  1.06706883E-03 -6.48046133E-03  5.51234028E-03
  2.20619627E-04  1.63499359E-03 -1.88472782E-03  6.30430652E-03  7.86044550E-05
 -1.33554521E-05 -7.99650632E-03 -9.67762870E-04  5.81625897E-04  4.95264890E-03
 -2.53537533E-04 -1.73935684E-04 -2.49538889E-05  2.60018925E-04 -1.96165132E-05
  3.34173926E-02  9.49514060E-02 -1.99206017E-01 -3.69052381E-01  6.69543847E-01
  4.06984365E-01 -1.09510711E-02 -1.49999320E-04  4.03458564E-07  1.17251481E-03
  2.63543380E-03  1.90037483E-03 -1.66747814E-02  5.35650723E-03  3.79537595E-03
 -3.33262501E-02 -7.91744473E-03 -5.26656015E-03  4.64719381E-02 -6.89602581E-03
 -7.20117757E-03  6.20584760E-02 -6.74892478E-04 -1.37105223E-03  8.84212482E-03
  2.04061458E-02 -4.23642707E-03 -5.25214309E-03  1.10520647E-02  3.16125912E-04
 -1.49882642E-03 -2.95272002E-03  1.03300564E-02  6.90531477E-04 -5.98094811E-05
 -4.73052183E-04  1.01119799E-01  1.34021276E-01  2.60738959E-03  5.35600449E-03
  2.54769643E-03 -2.30699997E-02 -3.94010359E-02 -6.59862274E-02 -8.96449183E-03
  3.23066520E-02  2.49460485E-01  2.01422113E-01 -1.28395880E-02  4.65466646E-02
  3.59451553E-01  2.86645962E-01 -7.79192305E-03  3.10527839E-02  2.40782012E-01
  6.06284438E-02 -1.24394146E-03  3.09636575E-03  2.50333222E-02 -1.86678863E-02
  1.79686022E-03 -4.05857504E-03  1.87886881E-03  2.59905383E-04 -5.87088783E-04
 -1.67339070E-03  3.56235069E-03  6.68236965E-03 -1.29219763E-02 -1.17934745E-02
 -4.41750898E-04  1.18202145E-03  1.84118479E-04  3.63167982E-05  1.30068979E-03
  1.54236362E-04 -2.88146243E-03  2.51682456E-03  3.00744986E-04 -5.60329556E-03
 -3.52164722E-03 -4.25054342E-04  8.05169655E-03 -6.96566079E-03 -7.38530390E-04
  1.43341933E-02 -4.74997021E-03  1.26076323E-04  4.78772473E-03  1.54388313E-03
 -1.24385774E-03 -3.11506582E-04  1.67432627E-04  2.69074372E-05 -1.66136213E-01
 -2.59520280E-01 -8.20403407E-02  7.95238771E-04 -3.83631809E-03 -2.95142079E-02
  5.71091885E-03  8.27943252E-03  5.94050763E-03 -1.32793836E-04  1.15281489E-04
 -8.10625344E-04  1.48046851E-03  2.47583049E-03 -2.50155724E-03 -2.26816856E-03
 -1.09179718E-02 -7.43633900E-03 -3.91808401E-03 -3.31699858E-03 -1.55986990E-02
 -1.15634045E-02 -3.54053970E-03 -2.39517220E-03 -1.10666568E-02 -5.18185425E-03
 -2.67275585E-03 -2.80252082E-04  2.03213788E-03  8.94061834E-04  1.99967366E-04
  2.18320203E-04 -1.91903487E-04 -1.23777724E-05 -1.22255488E-02 -3.49258169E-02
  7.50490967E-02  1.37313779E-01 -2.52513103E-01 -2.98554113E-01 -2.57677311E-02
  5.92388078E-03  2.57040486E-03 -2.38562025E-02  1.61527234E-02  8.88653724E-03
 -8.07427007E-02  3.14530682E-02  1.73045782E-02 -1.57211160E-01 -4.58307466E-02
 -2.52019960E-02  2.28769933E-01 -8.06787386E-02 -4.40372346E-02  4.00974005E-01
 -2.21220047E-02 -1.14712992E-02  1.06921548E-01  4.86084312E-02 -1.77502914E-02
 -9.10848400E-03 -4.11170985E-03  2.05953015E-03  7.25199476E-03  1.16523627E-02
  6.43727722E-03 -6.82558422E-04  6.23763770E-05  1.34793224E-03  1.57496182E-01
  2.85039574E-01  1.33534948E-01  6.53456229E-03  2.81345051E-03 -2.57918607E-02
 -7.72002093E-05 -1.29935279E-04 -3.45104019E-03  3.02209842E-01 -3.93820589E-02
  4.34029911E-04 -5.08166986E-03  4.43200652E-01 -5.77560535E-02  4.91448891E-04
 -4.58225568E-03  3.99618900E-01 -5.20295321E-02 -1.07361927E-03 -1.21223043E-03
  8.68855276E-02 -1.11560128E-02  3.23323898E-03  1.83543027E-05 -1.39785379E-02
  1.87579147E-03  1.15931584E-03 -3.12012875E-05 -8.97062881E-05  1.97877154E-04
  3.37937722E-04 -5.47088748E-04 -1.21895648E-03 -6.65174288E-04  1.30974775E-04
  5.38822683E-04 -8.20145562E-04 -5.44179702E-05 -4.28261228E-03 -8.70442796E-04
 -1.03429389E-04 -8.24382686E-03 -1.68580076E-03  1.31500505E-04  1.20131966E-02
  2.48612137E-03  3.70029027E-04  2.47187691E-02  4.81025026E-03  3.12133509E-04
  1.31664276E-02  1.72387870E-03  4.28584632E-04  2.17861480E-05  5.99564591E-04
  2.97979698E-05 -8.49331144E-04 -5.21211119E-05  9.51809077E-06  6.07367809E-04
 -4.03041064E-04  3.57744208E-02 -4.64697227E-03  7.58764983E-04  1.30489576E-03
  1.34511779E-03  1.69489235E-04  9.37190920E-04 -2.19649605E-05  3.19953761E-05
  5.42840831E-05 -2.01989162E-03 -1.58082945E-02  1.04503082E-03 -1.75336133E-04
 -3.06948547E-03 -2.29494557E-02  1.55793234E-03 -2.17413569E-04 -2.75864344E-03
 -2.18455346E-02  1.44952624E-03 -8.13137977E-04 -7.32007799E-04 -2.85755231E-03
  1.17147170E-03 -6.48858057E-05  1.33628698E-04  7.52667532E-04 -1.29752853E-04
  1.92637516E-04  5.45171783E-05  1.54782841E-04 -3.24399181E-04 -6.64375607E-04
  1.60860302E-03  3.73929067E-04 -2.13256208E-03 -6.20911803E-04 -6.01876548E-02
 -6.63679590E-03 -1.78297128E-03 -1.02637340E-01 -1.16416523E-02 -3.44237724E-03
 -1.97701488E-01 -2.24263897E-02  4.95908453E-03  2.91127064E-01  3.30076297E-02
  1.04189086E-02  6.00161103E-01  6.80483708E-02  6.41579217E-03  3.31069880E-01
  3.69781111E-02  3.33942451E-03  2.29706421E-05  1.61211714E-02  1.89513788E-03
 -2.30790973E-03  5.68697393E-04  5.66238922E-04  1.08195949E-03 -3.87910284E-04
 -1.66992829E-03  3.33413662E-04 -6.87318358E-05 -1.10060636E-04  1.24281153E-03