Title Card Required                                                     
FOpt      UM062X                                                      6-311+G(d,p)        
Number of atoms                            I                4
Info1-9                                    I   N=           9
          13          13           0           0           0         110
           2          18        -502
Full Title                                 C   N=           2
Title Card Required     
Route                                      C   N=           4
#p opt UM062X/6-311+G** nosymm int=superfine    
Charge                                     I                0
Multiplicity                               I                1
Number of electrons                        I               26
Number of alpha electrons                  I               13
Number of beta electrons                   I               13
Number of basis functions                  I               64
Number of independent functions            I               64
Number of point charges in /Mol/           I                0
Number of translation vectors              I                0
Atomic numbers                             I   N=           4
           8          16           1           1
Nuclear charges                            R   N=           4
  8.00000000E+00  1.60000000E+01  1.00000000E+00  1.00000000E+00
Current cartesian coordinates              R   N=          12
 -2.52468544E+00 -9.22186349E-04  2.83458919E-05  2.52470056E+00  9.18406897E-04
  1.41729459E-04 -2.56637969E+00 -3.72627686E-02  1.83130645E+00  2.28346434E+00
 -2.08959085E+00 -1.42694926E+00
Number of symbols in /Mol/                 I                0
Force Field                                I                0
Atom Types                                 C   N=           4
                                                
Int Atom Types                             I   N=           4
           0           0           0           0
MM charges                                 R   N=           4
  0.00000000E+00  0.00000000E+00  0.00000000E+00  0.00000000E+00
Integer atomic weights                     I   N=           4
          16          32           1           1
Real atomic weights                        R   N=           4
  1.59949146E+01  3.19720718E+01  1.00782504E+00  1.00782504E+00
Atom fragment info                         I   N=           4
           0           0           0           0
Atom residue num                           I   N=           4
           0           0           0           0
Nuclear spins                              I   N=           4
           0           0           1           1
Nuclear ZEff                               R   N=           4
 -5.60000000E+00 -1.36000000E+01 -1.00000000E+00 -1.00000000E+00
Nuclear ZNuc                               R   N=           4
  8.00000000E+00  1.60000000E+01  1.00000000E+00  1.00000000E+00
Nuclear QMom                               R   N=           4
  0.00000000E+00  0.00000000E+00  0.00000000E+00  0.00000000E+00
Nuclear GFac                               R   N=           4
  0.00000000E+00  0.00000000E+00  2.79284600E+00  2.79284600E+00
MicOpt                                     I   N=           4
          -2          -2          -1          -1
Number of residues                         I                0
Number of secondary structures             I                0
Redundant internal dimensions              I   N=           4
          11           9           2           0
Redundant internal coordinate indices      I   N=          44
           1          -1           0           0           1          -2
           0           0           1          -3           0           0
           2          -1           0           0           2          -2
           0           0           2          -3           0           0
           1           3           0           0           2           3
           0           0           2           4           0           0
           1           2           4           0           3           2
           4           0
Redundant internal coordinates             R   N=          11
 -2.52468544E+00 -9.22186349E-04  2.83458919E-05  2.52470056E+00  9.18406897E-04
  1.41729459E-04  1.83211314E+00  5.41051939E+00  2.54263890E+00  1.47546337E+00
  1.66581953E+00
ZRed-IntVec                                I   N=          11
          -1          -1          -1          -1          -1          -1
           0           0           0           0           0
ZRed-FPVec                                 R   N=          11
  0.00000000E+00  0.00000000E+00  0.00000000E+00  0.00000000E+00  0.00000000E+00
  0.00000000E+00  0.00000000E+00  0.00000000E+00  0.00000000E+00  0.00000000E+00
  0.00000000E+00
ZRed-Constraint1                           R   N=          11
 -2.52468544E+00 -9.22186349E-04  2.83458919E-05  2.52470056E+00  9.18406897E-04
  1.41729459E-04  1.87647412E+00  5.29050271E+00  2.53148783E+00  1.51395804E+00
  1.52318344E+00
ZRed-Constraint2                           R   N=          11
 -2.52468544E+00 -9.22186349E-04  2.83458919E-05  2.52470056E+00  9.18406897E-04
  1.41729459E-04  0.00000000E+00  0.00000000E+00  0.00000000E+00  0.00000000E+00
  0.00000000E+00
Number of contracted shells                I               27
Number of primitive shells                 I               49
Pure/Cartesian d shells                    I                0
Pure/Cartesian f shells                    I                0
Highest angular momentum                   I                2
Largest degree of contraction              I                6
Shell types                                I   N=          27
           0          -1          -1          -1          -1          -2
           0           0           0           0           0           0
          -1           1           1           1           1           1
          -2           0           0           0           1           0
           0           0           1
Number of primitives per shell             I   N=          27
           6           3           1           1           1           1
           6           3           1           1           1           1
           1           4           2           1           1           1
           1           3           1           1           1           3
           1           1           1
Shell to atom map                          I   N=          27
           1           1           1           1           1           1
           2           2           2           2           2           2
           2           2           2           2           2           2
           2           3           3           3           3           4
           4           4           4
Primitive exponents                        R   N=          49
  8.58850000E+03  1.29723000E+03  2.99296000E+02  8.73771000E+01  2.56789000E+01
  3.74004000E+00  4.21175000E+01  9.62837000E+00  2.85332000E+00  9.05661000E-01
  2.55611000E-01  8.45000000E-02  1.29200000E+00  9.34134000E+04  1.39617000E+04
  3.16991000E+03  9.02456000E+02  2.97158000E+02  1.08702000E+02  1.08702000E+02
  4.31553000E+01  1.81079000E+01  5.56009000E+00  2.13183000E+00  4.20403000E-01
  1.36045000E-01  4.05000000E-02  4.95040000E+02  1.17221000E+02  3.77749000E+01
  1.40584000E+01  5.56574000E+00  2.26297000E+00  8.07994000E-01  2.77460000E-01
  7.71410000E-02  6.50000000E-01  3.38650000E+01  5.09479000E+00  1.15879000E+00
  3.25840000E-01  1.02741000E-01  7.50000000E-01  3.38650000E+01  5.09479000E+00
  1.15879000E+00  3.25840000E-01  1.02741000E-01  7.50000000E-01
Contraction coefficients                   R   N=          49
  1.89515008E-03  1.43859006E-02  7.07320031E-02  2.40001011E-01  5.94797026E-01
  2.80802012E-01  1.13889012E-01  9.20811101E-01 -3.27447036E-03  1.00000000E+00
  1.00000000E+00  1.00000000E+00  1.00000000E+00  7.42999957E-04  5.79299966E-03
  2.99539983E-02  1.19027993E-01  3.68431979E-01  5.77298966E-01  1.43186060E-01
  6.24465262E-01  2.83366119E-01  1.00000000E+00  1.00000000E+00  1.00000000E+00
  1.00000000E+00  1.00000000E+00  8.30900251E-03  6.40240194E-02  2.77614084E-01
  7.45076225E-01  6.13711672E-01  4.43817763E-01  1.00000000E+00  1.00000000E+00
  1.00000000E+00  1.00000000E+00  2.54938145E-02  1.90373109E-01  8.52161486E-01
  1.00000000E+00  1.00000000E+00  1.00000000E+00  2.54938145E-02  1.90373109E-01
  8.52161486E-01  1.00000000E+00  1.00000000E+00  1.00000000E+00
P(S=P) Contraction coefficients            R   N=          49
  0.00000000E+00  0.00000000E+00  0.00000000E+00  0.00000000E+00  0.00000000E+00
  0.00000000E+00  3.65113974E-02  2.37152983E-01  8.19701941E-01  1.00000000E+00
  1.00000000E+00  1.00000000E+00  0.00000000E+00  0.00000000E+00  0.00000000E+00
  0.00000000E+00  0.00000000E+00  0.00000000E+00  0.00000000E+00  0.00000000E+00
  0.00000000E+00  0.00000000E+00  0.00000000E+00  0.00000000E+00  0.00000000E+00
  0.00000000E+00  1.00000000E+00  0.00000000E+00  0.00000000E+00  0.00000000E+00
  0.00000000E+00  0.00000000E+00  0.00000000E+00  0.00000000E+00  0.00000000E+00
  0.00000000E+00  0.00000000E+00  0.00000000E+00  0.00000000E+00  0.00000000E+00
  0.00000000E+00  0.00000000E+00  0.00000000E+00  0.00000000E+00  0.00000000E+00
  0.00000000E+00  0.00000000E+00  0.00000000E+00  0.00000000E+00
Coordinates of each shell                  R   N=          81
 -2.52468544E+00 -9.22186349E-04  2.83458919E-05 -2.52468544E+00 -9.22186349E-04
  2.83458919E-05 -2.52468544E+00 -9.22186349E-04  2.83458919E-05 -2.52468544E+00
 -9.22186349E-04  2.83458919E-05 -2.52468544E+00 -9.22186349E-04  2.83458919E-05
 -2.52468544E+00 -9.22186349E-04  2.83458919E-05  2.52470056E+00  9.18406897E-04
  1.41729459E-04  2.52470056E+00  9.18406897E-04  1.41729459E-04  2.52470056E+00
  9.18406897E-04  1.41729459E-04  2.52470056E+00  9.18406897E-04  1.41729459E-04
  2.52470056E+00  9.18406897E-04  1.41729459E-04  2.52470056E+00  9.18406897E-04
  1.41729459E-04  2.52470056E+00  9.18406897E-04  1.41729459E-04  2.52470056E+00
  9.18406897E-04  1.41729459E-04  2.52470056E+00  9.18406897E-04  1.41729459E-04
  2.52470056E+00  9.18406897E-04  1.41729459E-04  2.52470056E+00  9.18406897E-04
  1.41729459E-04  2.52470056E+00  9.18406897E-04  1.41729459E-04  2.52470056E+00
  9.18406897E-04  1.41729459E-04 -2.56637969E+00 -3.72627686E-02  1.83130645E+00
 -2.56637969E+00 -3.72627686E-02  1.83130645E+00 -2.56637969E+00 -3.72627686E-02
  1.83130645E+00 -2.56637969E+00 -3.72627686E-02  1.83130645E+00  2.28346434E+00
 -2.08959085E+00 -1.42694926E+00  2.28346434E+00 -2.08959085E+00 -1.42694926E+00
  2.28346434E+00 -2.08959085E+00 -1.42694926E+00  2.28346434E+00 -2.08959085E+00
 -1.42694926E+00
Num ILSW                                   I              100
ILSW                                       I   N=         100
           1           0           0           1           2           0
           0           0           0           0        4336          -1
           7           0           0           0           2           0
           0           0           0           0           1           0
           1           1           0           0           0           0
           0           0      100000           0          -1           0
           0           0           0           0           0           0
           0           0           0           1           0           0
           0 -2000000000           1           0           0           0
           0           0           4          52           0           0
           0           0          55           0           0           0
           0           0           0           4           0           1
           0           0           0           0           0           0
           0           0           0           0           0           0
           0           0           0           0           0           0
           0           0           0           0           0           0
           0           0           0           0
Num RLSW                                   I               52
RLSW                                       R   N=          52
  1.00000000E+00  1.00000000E+00  1.00000000E+00  1.00000000E+00  5.40000000E-01
  0.00000000E+00  0.00000000E+00  1.00000000E+00  0.00000000E+00  0.00000000E+00
  0.00000000E+00  0.00000000E+00  1.00000000E+00  0.00000000E+00  0.00000000E+00
  0.00000000E+00  0.00000000E+00  1.00000000E+00  0.00000000E+00  0.00000000E+00
  0.00000000E+00  0.00000000E+00  1.00000000E+00  0.00000000E+00  0.00000000E+00
  0.00000000E+00  0.00000000E+00  1.00000000E+00  0.00000000E+00  0.00000000E+00
  0.00000000E+00  0.00000000E+00  1.00000000E+00  0.00000000E+00  0.00000000E+00
  0.00000000E+00  0.00000000E+00  0.00000000E+00  1.00000000E+00  1.00000000E+00
  0.00000000E+00  1.00000000E+00  0.00000000E+00  0.00000000E+00  0.00000000E+00
  0.00000000E+00  0.00000000E+00  0.00000000E+00  0.00000000E+00  0.00000000E+00
  0.00000000E+00  0.00000000E+00
MxBond                                     I                3
NBond                                      I   N=           4
           2           3           2           1
IBond                                      I   N=          12
           2           3           0           1           3           4
           1           2           0           2           0           0
RBond                                      R   N=          12
  1.00000000E-01  1.00000000E+00  0.00000000E+00  1.00000000E-01  1.00000000E-01
  1.00000000E+00  1.00000000E+00  1.00000000E-01  0.00000000E+00  1.00000000E+00
  0.00000000E+00  0.00000000E+00
Virial Ratio                               R      2.002014348951867E+00
SCF Energy                                 R     -4.744418332189100E+02
Total Energy                               R     -4.744418332189100E+02
S**2                                       R      3.225864020350855E-12
S**2 after annihilation                    R      7.602807272645092E-13
RMS Force                                  R      1.061227072301845E-05
RMS Density                                R      9.894521089178037E-09
Job Status                                 I                1
Nuclear derivative order                   I                1
External E-field                           R   N=          35
  0.00000000E+00  0.00000000E+00  0.00000000E+00  0.00000000E+00  0.00000000E+00
  0.00000000E+00  0.00000000E+00  0.00000000E+00  0.00000000E+00  0.00000000E+00
  0.00000000E+00  0.00000000E+00  0.00000000E+00  0.00000000E+00  0.00000000E+00
  0.00000000E+00  0.00000000E+00  0.00000000E+00  0.00000000E+00  0.00000000E+00
  0.00000000E+00  0.00000000E+00  0.00000000E+00  0.00000000E+00  0.00000000E+00
  0.00000000E+00  0.00000000E+00  0.00000000E+00  0.00000000E+00  0.00000000E+00
  0.00000000E+00  0.00000000E+00  0.00000000E+00  0.00000000E+00  0.00000000E+00
IOpCl                                      I                1
IROHF                                      I                0
Alpha Orbital Energies                     R   N=          64
 -8.99762127E+01 -1.96750130E+01 -8.33669802E+00 -6.25889861E+00 -6.25516809E+00
 -6.24962777E+00 -1.08750992E+00 -8.33359479E-01 -5.27453089E-01 -4.92525107E-01
 -3.99111917E-01 -3.81984598E-01 -3.51052889E-01 -1.76103572E-01  1.60711336E-02
  4.03424242E-02  4.72024432E-02  5.62636848E-02  7.37947066E-02  1.47204891E-01
  1.94823306E-01  2.00110528E-01  2.13787069E-01  2.64989298E-01  3.12195765E-01
  3.40437611E-01  3.55206711E-01  3.99722524E-01  5.40579769E-01  6.05039630E-01
  7.14648010E-01  7.23338002E-01  7.98824115E-01  8.10919512E-01  9.74729372E-01
  1.04431684E+00  1.08783163E+00  1.10486064E+00  1.36028592E+00  1.39192713E+00
  1.39904659E+00  1.46803311E+00  1.49982655E+00  1.64824828E+00  1.66669710E+00
  1.74073981E+00  2.06729820E+00  2.09702256E+00  2.49712954E+00  2.54783941E+00
  2.89113074E+00  2.90161293E+00  3.17209951E+00  3.18828754E+00  3.85005582E+00
  5.04977561E+00  5.05909035E+00  5.52278082E+00  7.83547396E+00  1.74096993E+01
  1.74390595E+01  1.74564757E+01  4.98802334E+01  1.89097897E+02
Beta Orbital Energies                      R   N=          64
 -8.99762127E+01 -1.96750130E+01 -8.33669802E+00 -6.25889864E+00 -6.25516809E+00
 -6.24962777E+00 -1.08750985E+00 -8.33359527E-01 -5.27453046E-01 -4.92525127E-01
 -3.99111863E-01 -3.81984477E-01 -3.51052918E-01 -1.76103532E-01  1.60711432E-02
  4.03424295E-02  4.72024464E-02  5.62636885E-02  7.37947051E-02  1.47204895E-01
  1.94823305E-01  2.00110535E-01  2.13787070E-01  2.64989313E-01  3.12195773E-01
  3.40437615E-01  3.55206718E-01  3.99722526E-01  5.40579781E-01  6.05039585E-01
  7.14647932E-01  7.23337970E-01  7.98824035E-01  8.10919466E-01  9.74729338E-01
  1.04431686E+00  1.08783165E+00  1.10486069E+00  1.36028596E+00  1.39192714E+00
  1.39904660E+00  1.46803309E+00  1.49982653E+00  1.64824824E+00  1.66669707E+00
  1.74073966E+00  2.06729822E+00  2.09702254E+00  2.49712955E+00  2.54783940E+00
  2.89113085E+00  2.90161297E+00  3.17209960E+00  3.18828757E+00  3.85005587E+00
  5.04977565E+00  5.05909047E+00  5.52278086E+00  7.83547395E+00  1.74096993E+01
  1.74390594E+01  1.74564756E+01  4.98802334E+01  1.89097897E+02
Alpha MO coefficients                      R   N=        4096
 -4.72061213E-07  2.26555811E-06  1.60398732E-06 -2.76401413E-07 -3.05030424E-07
 -1.42936670E-05 -1.01418133E-05  8.57517250E-07  8.82056837E-07  1.70432050E-05
  3.02644151E-05 -2.61860834E-06  1.37222676E-05  1.54043663E-04  7.75660121E-05
 -4.54436661E-07  4.87675240E-05  6.05578202E-07  8.71224931E-07 -1.79093573E-07
  8.44324551E-06 -1.36224568E-07  4.10787440E-01  6.54411457E-01  1.53493405E-02
 -4.35090559E-03  1.63099275E-03 -9.51063819E-04  1.07719908E-04 -5.07408735E-05
 -2.02946584E-05 -1.35496193E-05 -4.54290722E-05 -6.25896495E-05 -3.98561646E-05
  1.17046869E-05  2.10986169E-05  1.35191073E-05 -1.18872839E-06  3.73185685E-06
  3.41557810E-06 -3.28427885E-05 -1.39331947E-04 -9.60671148E-05  1.44588965E-04
  1.56312722E-04  1.04807095E-04 -9.00069459E-07  7.26605362E-06  6.86096110E-05
 -5.15740443E-05  9.66323391E-06 -2.98950526E-06 -1.93173484E-05 -9.84017995E-05
 -4.20682341E-06 -1.71263842E-06  3.58137412E-06  2.15625642E-05 -1.93062441E-04
  2.66591602E-04 -1.86860251E-05 -1.39723050E-04 -9.57773862E-05  5.52853234E-01
  4.69691275E-01  4.41543894E-04 -3.34620864E-05  1.24109086E-03  8.06698090E-03
 -1.24918952E-04  3.64004360E-06 -1.31886031E-04 -3.21623526E-03 -1.14827757E-04
 -1.71666978E-06  2.23957311E-04  2.79263887E-03  4.63163492E-04 -9.51864486E-06
  3.06356770E-04  1.44319379E-04 -4.15493284E-06 -4.65562111E-06 -1.61978492E-05
 -8.53017443E-07 -1.00991097E-08  1.33272533E-06 -9.64199628E-06  1.96551952E-05
 -4.91766691E-05  1.58392831E-07 -6.84647542E-04  4.45972928E-04  1.16336851E-05
  3.92503924E-05  4.59505314E-06 -1.85359800E-07 -1.59506772E-07 -2.56836387E-06
 -1.21500662E-06  1.01836037E-07  1.21001334E-05  9.57983053E-06  3.44522470E-06
  3.34085766E-05 -5.03232460E-05 -2.97026503E-05  4.11880614E-05  6.62966971E-05
  2.30474659E-05  4.20346345E-06  7.14919059E-06  1.94056333E-05 -1.78292926E-05
  1.11274780E-05  8.02132518E-05 -8.60784836E-05 -9.26807312E-04 -6.96403092E-06
 -1.02700976E-05  4.41629336E-04  3.66576101E-05 -1.47313085E-04  2.05737965E-04
  4.05695959E-05 -2.90751841E-05 -2.34264245E-05  3.49091511E-07  1.72608155E-05
  1.37900466E-05 -1.67828636E-06 -7.73791165E-07 -2.08595638E-04 -1.15972994E-06
  1.01876569E-05 -8.70504678E-06  3.01564897E-04  3.77675241E-04 -2.99674554E-05
  9.06921303E-05  1.82572056E-03  9.76782233E-04 -9.46204995E-06  6.81073820E-04
 -2.56988089E-05  2.83781982E-06 -1.15401730E-06  1.10057383E-04 -9.94747430E-07
 -1.19761695E-01 -3.20483246E-01  5.16033340E-01  5.98934187E-01  4.31171679E-02
 -1.54972063E-02  2.10194109E-03 -7.35120209E-04 -2.34366643E-04 -1.51119249E-04
 -1.17398141E-03 -1.54802366E-03 -9.71537405E-04 -2.70806494E-03 -3.49533522E-03
 -2.19563633E-03 -3.00683043E-04 -3.35283349E-04 -1.89715151E-04 -3.53175786E-04
 -1.48653952E-03 -1.02244657E-03  1.83687587E-03  1.96432814E-03  1.30821475E-03
 -3.29915744E-04  3.00247948E-05  1.01156007E-03 -2.10039088E-04  1.79903467E-05
 -7.23097420E-05 -5.93262718E-05 -1.40350465E-03 -1.31166729E-05 -1.80740625E-05
 -1.99080779E-06  1.05714610E-04 -1.76139100E-03  3.38742759E-03 -1.90792993E-04
 -1.31212864E-03 -8.99940495E-04 -1.72023300E-06 -1.06611842E-05 -7.55104638E-05
  1.33601952E-06  1.34544788E-05  1.16077126E-04  2.77420267E-04 -5.76967942E-06
 -8.06668770E-05 -3.93939088E-04 -5.21967446E-04  4.42365513E-05 -4.39733790E-04
  6.56689880E-04  6.98520881E-04 -4.62525218E-05  2.67314244E-04 -8.25213279E-05
 -3.23026787E-05  2.86155240E-06 -2.90384397E-05  2.79747165E-06 -2.88550423E-04
 -7.92095277E-04  1.49040486E-03  1.12431900E-03  1.41530433E-04 -3.72124441E-05
 -2.57976854E-04 -2.50389330E-03  4.17741636E-04  2.69617335E-04  3.69576536E-01
 -7.07922944E-02 -4.36331168E-02  6.91698557E-01 -1.32448760E-01 -8.16192905E-02
  5.36708879E-02 -1.02464372E-02 -6.32819926E-03 -7.60225100E-03  1.30777360E-03
  8.20969542E-04  4.91532684E-03 -7.97402301E-04 -5.19381765E-04  8.50997336E-05
 -2.27336941E-04  1.38878698E-04 -2.78774864E-04 -3.71510522E-04 -8.74120856E-05
  9.16383737E-04 -7.22939344E-04  1.74058428E-04  6.92246041E-06 -2.10758437E-04
  8.11942698E-05 -9.19127069E-05 -5.62984453E-05  8.56232514E-05 -1.26728989E-04
 -8.86455608E-05 -1.09596706E-07 -1.20479479E-06 -1.93202357E-05 -1.26630532E-06
  2.56959586E-06  1.17852493E-05  6.24211907E-05  1.47262273E-05 -8.74942836E-06
  1.78341408E-06 -9.47271760E-05 -7.34759941E-05 -9.85024433E-05 -9.73217341E-05
  8.77090063E-05  4.22212426E-05 -6.82359014E-05 -1.08324557E-05 -7.86418970E-06
  2.05026998E-06 -7.87523209E-06 -8.41174564E-06 -7.98331858E-04 -2.16122320E-03
  3.83251179E-03  3.85117351E-03 -6.78889025E-04 -3.10300397E-04 -5.18455154E-04
 -4.20983799E-04 -1.59775877E-03 -1.10747804E-03  8.31499683E-02  3.04551192E-01
  2.10622710E-01  1.55385259E-01  5.68892067E-01  3.93438013E-01  1.17935674E-02
  4.31440991E-02  2.98362002E-02 -1.59592967E-03 -5.59365483E-03 -3.86924969E-03
  9.99532211E-04  3.53547720E-03  2.44665053E-03  7.61181783E-05 -2.08682500E-04
 -5.59980835E-04  3.46477637E-04 -3.10055887E-04  1.62999103E-06  7.03517819E-05
  1.99728860E-04  1.15992129E-05 -1.14508761E-05 -3.94527418E-05 -5.50920786E-04
 -1.14243838E-04  1.14253299E-03  2.86658307E-05  5.23512800E-04  3.62320129E-04
  2.01874039E-07  8.48324582E-07  8.47345226E-07  1.17509905E-06 -1.59416530E-06
 -1.18703503E-05 -3.70676184E-06 -1.16153591E-05  1.83020743E-05  8.83123805E-05
  2.59406040E-05  5.23874252E-05  5.63881556E-06 -1.28726553E-04  3.39515845E-06
 -2.17022989E-05 -4.98560159E-05  1.23484369E-05  1.10797356E-06 -1.26116310E-06
  4.76436944E-07  6.41213855E-06  3.55832555E-05  9.66800289E-05 -1.73490046E-04
 -1.66936137E-04  3.90127662E-05 -2.58187686E-05 -6.52602390E-06  3.95782382E-05
  1.20304567E-03 -1.75854936E-03 -4.29537408E-03 -2.15510555E-01  3.13315871E-01
 -8.00004167E-03 -4.01885835E-01  5.84271000E-01 -5.96958163E-04 -2.94007149E-02
  4.27418557E-02  9.47110932E-05  3.96564496E-03 -5.75240002E-03 -5.29992109E-05
 -2.28123558E-03  3.33803163E-03 -3.22270244E-04 -1.86069850E-04 -1.71485308E-04
 -1.94329148E-04  1.31997499E-04  3.14639141E-05 -1.87265963E-04  2.11710884E-04
 -5.29177987E-05  3.15025692E-06  1.90213719E-05  1.16277290E-06  1.86430355E-05
  1.65066269E-06 -1.55330948E-06 -5.01035997E-05  8.20185462E-05 -1.18169452E-01
 -1.94574665E-01  1.71425583E-03 -1.26605200E-03  4.68056175E-02  5.69112510E-01
  1.05726156E-03 -2.04919804E-03  7.58265789E-02  4.27606722E-01  1.19649169E-02
 -1.46057944E-03  3.08776756E-02 -2.85212303E-02 -9.93209232E-03  5.09136790E-05
 -7.40036117E-03  1.01562702E-02  5.48117687E-05 -4.21827910E-04  5.16971214E-03
  1.12639574E-04  1.44559664E-03  4.08976235E-03 -8.42343823E-03 -1.58803650E-02
  2.61147720E-02  2.24921807E-02  9.23953752E-03 -5.80278196E-03  1.58369655E-04
  6.08775059E-05  2.41548197E-03  2.14617359E-04  3.98305870E-05  4.66737582E-03
  4.32742571E-04  9.18913249E-05 -5.31115817E-03 -4.93486563E-04 -1.25316221E-04
 -1.59213795E-02 -6.15835454E-04  2.37073733E-04 -4.12935166E-03 -2.02580206E-03
 -7.43399328E-04 -2.30162681E-03 -2.40163884E-04  6.78553404E-04  3.51724536E-03
  2.13660864E-04  1.09841198E-01  8.37957289E-02  1.96897864E-02  5.54570959E-05
  5.44635133E-04 -2.42349210E-02  2.75788182E-03  2.93743926E-03 -3.44694523E-03
 -5.06560335E-04  6.34131625E-04  4.55083235E-04  7.14280515E-03  1.18754116E-02
  1.28803401E-02 -3.47323177E-04 -6.39781395E-03 -3.66983387E-02  1.92541755E-02
 -4.18557094E-04 -9.37765949E-03 -2.25884548E-02  1.66568015E-02 -6.78933016E-04
 -2.44039619E-03 -1.31852757E-02 -5.69848275E-03  1.66032950E-04 -4.28142818E-03
 -1.36460939E-03  6.77439700E-04  1.72915643E-05  9.43668880E-04 -1.19660588E-04
  3.33017441E-02  9.46570100E-02 -1.98902536E-01 -3.66799267E-01  6.63964796E-01
  4.11467218E-01 -8.82832205E-03  3.75332822E-03 -5.46079449E-04 -1.97730025E-03
  4.93313088E-04  1.41312640E-02  9.23706001E-03  1.01919159E-03  2.81973850E-02
  1.84543075E-02 -1.63740132E-03 -3.91100179E-02 -2.58260154E-02  3.21041099E-03
 -5.36112314E-02 -3.39710822E-02 -7.46816492E-03 -9.14729906E-03 -2.57826073E-03
 -6.59117503E-03  2.78658149E-04  2.27047206E-02 -6.20418969E-03  9.63409989E-04
 -9.40919346E-03 -1.39974647E-02  9.96939907E-03  1.12538564E-03 -4.95377663E-05
  3.26513528E-03  1.01123812E-01  1.31193591E-01  2.68434347E-03  3.62837365E-03
  1.88770792E-02  1.29539148E-02  3.85526895E-02  6.44818841E-02 -8.03466509E-03
 -2.87606092E-03  2.50175338E-01 -1.95395015E-01 -1.04381831E-02 -4.11644536E-03
  3.58786638E-01 -2.86606799E-01 -1.58544968E-02 -1.52189561E-03  2.41019322E-01
 -5.91975104E-02  2.59389591E-03  7.48231167E-04  2.68983582E-02  1.88510321E-02
  1.18768623E-03 -7.25193540E-04 -1.80891556E-03  3.80766920E-05  1.79560769E-03
  5.12731940E-03 -1.09930631E-02 -2.01328492E-02  3.92827544E-02  2.99903589E-02
  5.13907190E-03 -3.90138534E-03 -1.27496895E-03 -3.97408359E-03 -5.16449735E-03
 -2.95729627E-03 -6.55352495E-03 -9.96073020E-03 -5.74666409E-03 -1.26012298E-02
  1.31755789E-02  8.13286561E-03  1.74229340E-02  3.15676852E-02  1.45646730E-02
  3.60877896E-02  1.17550296E-02  1.21334166E-03  1.51151259E-02  1.59274550E-03
 -5.16616074E-03 -2.59473631E-03 -1.11818099E-03 -1.17207152E-03  1.64939761E-01
  2.59968945E-01  7.88839684E-02  2.56185860E-03  6.32917115E-04 -3.04807013E-02
 -9.50733288E-03 -1.42239471E-02 -1.31180447E-02  1.65925875E-03 -1.27451992E-03
 -2.00575986E-04 -1.69153249E-03 -2.78625384E-03  1.80263457E-02  2.12178948E-02
 -2.33347053E-02  7.25763124E-03  2.60202892E-02  3.05387084E-02 -3.37918018E-02
  2.09694675E-02  2.65856999E-02  2.85088910E-02 -1.78117423E-02  5.35882221E-03
  8.00037390E-03  3.62861867E-03 -6.43036075E-03 -1.95649409E-03  1.38023484E-03
  1.02763958E-03  8.99967219E-04  9.34385783E-04  1.18144092E-02  3.37600582E-02
 -7.26279718E-02 -1.32431053E-01  2.42351919E-01  2.94571761E-01  1.91598405E-02
  3.26436535E-04 -1.88088691E-02 -1.41065704E-02 -6.95607832E-03 -6.76453608E-02
 -4.62994231E-02 -1.35738810E-02 -1.31727955E-01 -9.01660106E-02  2.06651546E-02
  1.92226615E-01  1.31507698E-01  3.34681640E-02  3.34108784E-01  2.28830310E-01
  1.04363031E-02  8.94236697E-02  6.41079109E-02 -1.34101405E-03 -4.74028219E-03
 -3.85791082E-02  3.45851532E-02 -7.42922705E-03 -1.67814733E-02 -3.21913778E-02
  1.35437210E-03  2.52142851E-03  2.22027013E-03  4.43884445E-03 -1.57106096E-01
 -2.84083769E-01 -1.30676297E-01 -5.11411486E-03 -2.15939867E-02 -1.52103982E-02
 -1.15761375E-03 -1.97670723E-03 -2.62261114E-02  2.99124771E-01  6.26115531E-03
  7.07485948E-03 -3.85483853E-02  4.37020559E-01  9.09603645E-03  4.53196932E-03
 -3.79697572E-02  3.97051714E-01  5.37324179E-03 -1.23783885E-02 -1.06502419E-02
  8.96528698E-02 -4.38405686E-04  8.45853429E-04 -1.52411897E-03  1.41847164E-02
 -3.10469266E-05  2.04386504E-03 -5.28341134E-04 -1.51677280E-03  3.32577995E-03
  5.75534760E-03 -8.53531666E-03 -2.44013554E-02 -6.46243640E-03 -2.75212731E-03
 -2.43072094E-03  7.50201808E-03 -4.96620493E-03 -1.12624323E-03  1.47868983E-02
 -9.61558594E-03 -1.96359997E-03  2.86015189E-02  1.31950875E-02  1.93520687E-03
 -4.21964850E-02  2.97225019E-02  1.21270841E-02 -8.13213136E-02  1.46323200E-02
  2.02455986E-02 -3.59907433E-02  2.51748524E-03 -1.31003703E-04  5.36982916E-03
 -4.50396713E-03 -6.67738175E-03  1.33924007E-03  5.36286057E-03  6.73109590E-03
 -3.10013651E-03  3.49845340E-02 -5.59216930E-04  1.61852022E-02  2.97205969E-02
  2.46107766E-02  3.94651889E-03  3.96306190E-03 -4.27666586E-04 -9.43069892E-03
 -1.61658759E-02 -2.09312600E-01 -3.52247935E-02 -1.48548943E-02  5.76467524E-02
 -3.09455578E-01 -5.13549340E-02 -2.20168594E-02  3.49519722E-02 -3.12637637E-01
 -4.83258361E-02 -3.69542352E-02 -8.60231297E-03 -6.41959459E-02 -6.38373222E-03
  2.62998763E-03  8.16486517E-04 -1.16799962E-02 -1.63498371E-03 -5.05828058E-03
  1.98916682E-04  3.13853560E-03  8.95589919E-03 -1.91728729E-02 -3.64517168E-02
  7.98917769E-02  3.46524667E-02  1.68596082E-02 -4.77713442E-02 -6.06770547E-03
  6.17545134E-03 -6.16981003E-02 -3.81275816E-03  5.03593675E-03 -1.19059678E-01
 -7.23536971E-03  9.83695346E-03  1.63515398E-01  1.09025778E-02 -1.48155748E-02
  3.72918249E-01  2.30193691E-02 -2.54352002E-02  1.82412412E-01  1.37596026E-02
 -2.78724747E-02  9.84006530E-03 -4.82608463E-03  3.83935829E-04 -1.54577914E-02
 -9.04329844E-03 -1.38790873E-03  2.34085599E-02 -1.88550718E-02 -2.35865642E-02
 -4.10350362E-03 -6.60739270E-03 -1.91666676E-03  2.54906332E-03 -4.41957678E-03
  1.11217509E-02  1.04689535E-03 -6.89516617E-04 -2.34111253E-03 -3.96455622E-03
 -2.04336433E-02  4.20459772E-02 -1.71722383E-02  1.29625050E-02 -3.00461701E-02