 Entering Gaussian System, Link 0=g16
 Initial command:
 /home/szhao/Apps/g16/l1.exe "/home/szhao/tmp/Gau-52807.inp" -scrdir="/home/szhao/tmp/"
 Default is to use a total of  16 processors:
                               16 via shared-memory
                                1 via Linda
 Entering Link 1 = /home/szhao/Apps/g16/l1.exe PID=     52809.
  
 Copyright (c) 1988,1990,1992,1993,1995,1998,2003,2009,2016,
            Gaussian, Inc.  All Rights Reserved.
  
 This is part of the Gaussian(R) 16 program.  It is based on
 the Gaussian(R) 09 system (copyright 2009, Gaussian, Inc.),
 the Gaussian(R) 03 system (copyright 2003, Gaussian, Inc.),
 the Gaussian(R) 98 system (copyright 1998, Gaussian, Inc.),
 the Gaussian(R) 94 system (copyright 1995, Gaussian, Inc.),
 the Gaussian 92(TM) system (copyright 1992, Gaussian, Inc.),
 the Gaussian 90(TM) system (copyright 1990, Gaussian, Inc.),
 the Gaussian 88(TM) system (copyright 1988, Gaussian, Inc.),
 the Gaussian 86(TM) system (copyright 1986, Carnegie Mellon
 University), and the Gaussian 82(TM) system (copyright 1983,
 Carnegie Mellon University). Gaussian is a federally registered
 trademark of Gaussian, Inc.
  
 This software contains proprietary and confidential information,
 including trade secrets, belonging to Gaussian, Inc.
  
 This software is provided under written license and may be
 used, copied, transmitted, or stored only in accord with that
 written license.
  
 The following legend is applicable only to US Government
 contracts under FAR:
  
                    RESTRICTED RIGHTS LEGEND
  
 Use, reproduction and disclosure by the US Government is
 subject to restrictions as set forth in subparagraphs (a)
 and (c) of the Commercial Computer Software - Restricted
 Rights clause in FAR 52.227-19.
  
 Gaussian, Inc.
 340 Quinnipiac St., Bldg. 40, Wallingford CT 06492
  
  
 ---------------------------------------------------------------
 Warning -- This program may not be used in any manner that
 competes with the business of Gaussian, Inc. or will provide
 assistance to any competitor of Gaussian, Inc.  The licensee
 of this program is prohibited from giving any competitor of
 Gaussian, Inc. access to this program.  By using this program,
 the user acknowledges that Gaussian, Inc. is engaged in the
 business of creating and licensing software in the field of
 computational chemistry and represents and warrants to the
 licensee that it is not a competitor of Gaussian, Inc. and that
 it will not use this program in any manner prohibited above.
 ---------------------------------------------------------------
  

 Cite this work as:
 Gaussian 16, Revision A.03,
 M. J. Frisch, G. W. Trucks, H. B. Schlegel, G. E. Scuseria, 
 M. A. Robb, J. R. Cheeseman, G. Scalmani, V. Barone, 
 G. A. Petersson, H. Nakatsuji, X. Li, M. Caricato, A. V. Marenich, 
 J. Bloino, B. G. Janesko, R. Gomperts, B. Mennucci, H. P. Hratchian, 
 J. V. Ortiz, A. F. Izmaylov, J. L. Sonnenberg, D. Williams-Young, 
 F. Ding, F. Lipparini, F. Egidi, J. Goings, B. Peng, A. Petrone, 
 T. Henderson, D. Ranasinghe, V. G. Zakrzewski, J. Gao, N. Rega, 
 G. Zheng, W. Liang, M. Hada, M. Ehara, K. Toyota, R. Fukuda, 
 J. Hasegawa, M. Ishida, T. Nakajima, Y. Honda, O. Kitao, H. Nakai, 
 T. Vreven, K. Throssell, J. A. Montgomery, Jr., J. E. Peralta, 
 F. Ogliaro, M. J. Bearpark, J. J. Heyd, E. N. Brothers, K. N. Kudin, 
 V. N. Staroverov, T. A. Keith, R. Kobayashi, J. Normand, 
 K. Raghavachari, A. P. Rendell, J. C. Burant, S. S. Iyengar, 
 J. Tomasi, M. Cossi, J. M. Millam, M. Klene, C. Adamo, R. Cammi, 
 J. W. Ochterski, R. L. Martin, K. Morokuma, O. Farkas, 
 J. B. Foresman, and D. J. Fox, Gaussian, Inc., Wallingford CT, 2016.
 
 ******************************************
 Gaussian 16:  ES64L-G16RevA.03 25-Dec-2016
                16-Apr-2025 
 ******************************************
 %chk=force.chk
 %mem=4GB
 %nprocshared=8
 Will use up to    8 processors via shared memory.
 ---------------------------------------------------
 #p UM062X/6-311+G** force int=superfine pop=saveNBO
 ---------------------------------------------------
 1/10=7,30=1,38=1/1,3;
 2/12=2,17=6,18=5,40=1/2;
 3/5=4,6=6,7=111,11=2,25=1,30=1,71=1,74=-55,75=-7,116=2/1,2,3;
 4//1;
 5/5=2,38=5/2;
 6/7=2,8=2,9=2,10=2,28=1,40=1,73=1/1,7;
 7/29=1/1,2,3,16;
 1/10=7,30=1/3;
 99//99;
 Leave Link    1 at Wed Apr 16 06:13:00 2025, MaxMem=   536870912 cpu:               0.3 elap:               0.1
 (Enter /home/szhao/Apps/g16/l101.exe)
 -------------------
 Title Card Required
 -------------------
 Symbolic Z-matrix:
 Charge =  0 Multiplicity = 1
 P                    -1.11722   0.        0. 
 P                     1.11722   0.        0. 
 H                     1.23405  -1.40926   0. 
 H                    -1.23407   1.39816  -0.17652 
 H                     1.35726   0.11794  -1.3898 
 H                    -1.35727  -0.2911   -1.36408 
 
 ITRead=  0  0  0  0  0  0
 MicOpt= -1 -1 -1 -1 -1 -1
 NAtoms=      6 NQM=        6 NQMF=       0 NMMI=      0 NMMIF=      0
                NMic=       0 NMicF=      0.
                    Isotopes and Nuclear Properties:
 (Nuclear quadrupole moments (NQMom) in fm**2, nuclear magnetic moments (NMagM)
  in nuclear magnetons)

  Atom         1           2           3           4           5           6
 IAtWgt=          31          31           1           1           1           1
 AtmWgt=  30.9737634  30.9737634   1.0078250   1.0078250   1.0078250   1.0078250
 NucSpn=           1           1           1           1           1           1
 AtZEff=  -0.0000000  -0.0000000  -0.0000000  -0.0000000  -0.0000000  -0.0000000
 NQMom=    0.0000000   0.0000000   0.0000000   0.0000000   0.0000000   0.0000000
 NMagM=    1.1316000   1.1316000   2.7928460   2.7928460   2.7928460   2.7928460
 AtZNuc=  15.0000000  15.0000000   1.0000000   1.0000000   1.0000000   1.0000000
 Leave Link  101 at Wed Apr 16 06:13:00 2025, MaxMem=   536870912 cpu:               1.6 elap:               0.4
 (Enter /home/szhao/Apps/g16/l103.exe)

 GradGradGradGradGradGradGradGradGradGradGradGradGradGradGradGradGradGrad
 Berny optimization.
 Initialization pass.
 Trust Radius=3.00D-01 FncErr=1.00D-07 GrdErr=1.00D-07 EigMax=2.50D+02 EigMin=1.00D-04
 Number of steps in this run=      2 maximum allowed number of steps=      2.
 GradGradGradGradGradGradGradGradGradGradGradGradGradGradGradGradGradGrad

 Leave Link  103 at Wed Apr 16 06:13:01 2025, MaxMem=   536870912 cpu:               0.3 elap:               0.1
 (Enter /home/szhao/Apps/g16/l202.exe)
                          Input orientation:                          
 ---------------------------------------------------------------------
 Center     Atomic      Atomic             Coordinates (Angstroms)
 Number     Number       Type             X           Y           Z
 ---------------------------------------------------------------------
      1         15           0       -1.117217    0.000000    0.000000
      2         15           0        1.117217    0.000000    0.000000
      3          1           0        1.234053   -1.409264    0.000000
      4          1           0       -1.234069    1.398163   -0.176523
      5          1           0        1.357265    0.117937   -1.389802
      6          1           0       -1.357265   -0.291103   -1.364082
 ---------------------------------------------------------------------
                    Distance matrix (angstroms):
                    1          2          3          4          5
     1  P    0.000000
     2  P    2.234433   0.000000
     3  H    2.741258   1.414099   0.000000
     4  H    1.414098   2.741270   3.742250   0.000000
     5  H    2.840514   1.415303   2.068593   3.134651   0.000000
     6  H    1.415303   2.840514   3.134635   2.068596   2.745296
                    6
     6  H    0.000000
 Stoichiometry    H4P2
 Framework group  C1[X(H4P2)]
 Deg. of freedom    12
 Full point group                 C1      NOp   1
 Largest Abelian subgroup         C1      NOp   1
 Largest concise Abelian subgroup C1      NOp   1
                         Standard orientation:                         
 ---------------------------------------------------------------------
 Center     Atomic      Atomic             Coordinates (Angstroms)
 Number     Number       Type             X           Y           Z
 ---------------------------------------------------------------------
      1         15           0       -1.114311    0.080509   -0.086362
      2         15           0        1.114312   -0.080517   -0.086355
      3          1           0        1.332204    1.313897    0.002022
      4          1           0       -1.332219   -1.313894    0.002132
      5          1           0        1.338969   -0.302145    1.293316
      6          1           0       -1.338967    0.302261    1.293290
 ---------------------------------------------------------------------
 Rotational constants (GHZ):          65.7697101           5.7474173           5.7314781
 Leave Link  202 at Wed Apr 16 06:13:01 2025, MaxMem=   536870912 cpu:               0.1 elap:               0.0
 (Enter /home/szhao/Apps/g16/l301.exe)
 Standard basis: 6-311+G(d,p) (5D, 7F)
 Ernie: Thresh=  0.10000D-02 Tol=  0.10000D-05 Strict=F.
 There are    86 symmetry adapted cartesian basis functions of A   symmetry.
 There are    84 symmetry adapted basis functions of A   symmetry.
    84 basis functions,   132 primitive gaussians,    86 cartesian basis functions
    17 alpha electrons       17 beta electrons
       nuclear repulsion energy        88.2933016892 Hartrees.
 IExCor= 4336 DFT=T Ex+Corr=M062X ExCW=0 ScaHFX=  0.540000
 ScaDFX=  1.000000  1.000000  1.000000  1.000000 ScalE2=  1.000000  1.000000
 IRadAn=      7 IRanWt=     -1 IRanGd=            0 ICorTp=0 IEmpDi=  4
 NAtoms=    6 NActive=    6 NUniq=    6 SFac= 1.00D+00 NAtFMM=   60 NAOKFM=F Big=F
 Integral buffers will be    131072 words long.
 Raffenetti 2 integral format.
 Two-electron integral symmetry is turned on.
 Leave Link  301 at Wed Apr 16 06:13:01 2025, MaxMem=   536870912 cpu:               0.5 elap:               0.2
 (Enter /home/szhao/Apps/g16/l302.exe)
 NPDir=0 NMtPBC=     1 NCelOv=     1 NCel=       1 NClECP=     1 NCelD=      1
         NCelK=      1 NCelE2=     1 NClLst=     1 CellRange=     0.0.
 One-electron integrals computed using PRISM.
 One-electron integral symmetry used in STVInt
 NBasis=    84 RedAO= T EigKep=  8.49D-04  NBF=    84
 NBsUse=    84 1.00D-06 EigRej= -1.00D+00 NBFU=    84
 Precomputing XC quadrature grid using
 IXCGrd= 4 IRadAn=           7 IRanWt=          -1 IRanGd=           0 AccXCQ= 0.00D+00.
 Generated NRdTot=       0 NPtTot=           0 NUsed=           0 NTot=          32
 NSgBfM=    85    85    85    85    85 MxSgAt=     6 MxSgA2=     6.
 Leave Link  302 at Wed Apr 16 06:13:01 2025, MaxMem=   536870912 cpu:               1.9 elap:               0.5
 (Enter /home/szhao/Apps/g16/l303.exe)
 DipDrv:  MaxL=1.
 Leave Link  303 at Wed Apr 16 06:13:01 2025, MaxMem=   536870912 cpu:               0.4 elap:               0.1
 (Enter /home/szhao/Apps/g16/l401.exe)
 ExpMin= 3.48D-02 ExpMax= 7.75D+04 ExpMxC= 2.65D+03 IAcc=3 IRadAn=         7 AccDes= 0.00D+00
 Harris functional with IExCor= 1009 and IRadAn=       7 diagonalized for initial guess.
 HarFok:  IExCor= 1009 AccDes= 0.00D+00 IRadAn=         7 IDoV= 1 UseB2=F ITyADJ=14
 ICtDFT=  3500011 ScaDFX=  1.000000  1.000000  1.000000  1.000000
 FoFCou: FMM=F IPFlag=           0 FMFlag=      100000 FMFlg1=           0
         NFxFlg=           0 DoJE=T BraDBF=F KetDBF=T FulRan=T
         wScrn=  0.000000 ICntrl=       500 IOpCl=  0 I1Cent=   200000004 NGrid=           0
         NMat0=    1 NMatS0=      1 NMatT0=    0 NMatD0=    1 NMtDS0=    0 NMtDT0=    0
 Petite list used in FoFCou.
 Harris En= -684.751356572319    
 JPrj=0 DoOrth=F DoCkMO=F.
 Initial guess <Sx>= 0.0000 <Sy>= 0.0000 <Sz>= 0.0000 <S**2>= 0.0000 S= 0.0000
 Leave Link  401 at Wed Apr 16 06:13:02 2025, MaxMem=   536870912 cpu:               4.0 elap:               0.9
 (Enter /home/szhao/Apps/g16/l502.exe)
 Keep R1 and R2 ints in memory in canonical form, NReq=20057846.
 FoFCou: FMM=F IPFlag=           0 FMFlag=           0 FMFlg1=           0
         NFxFlg=           0 DoJE=F BraDBF=F KetDBF=F FulRan=T
         wScrn=  0.000000 ICntrl=       600 IOpCl=  0 I1Cent=           0 NGrid=           0
         NMat0=    1 NMatS0=   3570 NMatT0=    0 NMatD0=    1 NMtDS0=    0 NMtDT0=    0
 Symmetry not used in FoFCou.
 Two-electron integral symmetry not used.
 UHF open shell SCF:
 Using DIIS extrapolation, IDIIS=  1040.
 NGot=   536870912 LenX=   524105974 LenY=   524098137
 Requested convergence on RMS density matrix=1.00D-08 within 128 cycles.
 Requested convergence on MAX density matrix=1.00D-06.
 Requested convergence on             energy=1.00D-06.
 No special actions if energy rises.

 Cycle   1  Pass 1  IDiag  1:
 E= -685.041556438383    
 DIIS: error= 2.15D-02 at cycle   1 NSaved=   1.
 NSaved= 1 IEnMin= 1 EnMin= -685.041556438383     IErMin= 1 ErrMin= 2.15D-02
 ErrMax= 2.15D-02  0.00D+00 EMaxC= 1.00D-01 BMatC= 2.05D-01 BMatP= 2.05D-01
 IDIUse=3 WtCom= 7.85D-01 WtEn= 2.15D-01
 Coeff-Com:  0.100D+01
 Coeff-En:   0.100D+01
 Coeff:      0.100D+01
 Gap=     0.326 Goal=   None    Shift=    0.000
 Gap=     0.326 Goal=   None    Shift=    0.000
 GapD=    0.326 DampG=1.000 DampE=0.500 DampFc=0.5000 IDamp=-1.
 Damping current iteration by 5.00D-01
 RMSDP=1.76D-03 MaxDP=3.23D-02              OVMax= 2.78D-02

 Cycle   2  Pass 1  IDiag  1:
 E= -685.049704744734     Delta-E=       -0.008148306352 Rises=F Damp=T
 DIIS: error= 9.35D-03 at cycle   2 NSaved=   2.
 NSaved= 2 IEnMin= 2 EnMin= -685.049704744734     IErMin= 2 ErrMin= 9.35D-03
 ErrMax= 9.35D-03  0.00D+00 EMaxC= 1.00D-01 BMatC= 3.68D-02 BMatP= 2.05D-01
 IDIUse=3 WtCom= 9.07D-01 WtEn= 9.35D-02
 Coeff-Com: -0.682D+00 0.168D+01
 Coeff-En:   0.000D+00 0.100D+01
 Coeff:     -0.618D+00 0.162D+01
 Gap=     0.313 Goal=   None    Shift=    0.000
 Gap=     0.313 Goal=   None    Shift=    0.000
 RMSDP=9.00D-04 MaxDP=1.21D-02 DE=-8.15D-03 OVMax= 6.81D-03

 Cycle   3  Pass 1  IDiag  1:
 E= -685.057229809788     Delta-E=       -0.007525065053 Rises=F Damp=F
 DIIS: error= 2.94D-04 at cycle   3 NSaved=   3.
 NSaved= 3 IEnMin= 3 EnMin= -685.057229809788     IErMin= 3 ErrMin= 2.94D-04
 ErrMax= 2.94D-04  0.00D+00 EMaxC= 1.00D-01 BMatC= 5.63D-05 BMatP= 3.68D-02
 IDIUse=3 WtCom= 9.97D-01 WtEn= 2.94D-03
 Coeff-Com: -0.443D-01 0.888D-01 0.955D+00
 Coeff-En:   0.000D+00 0.000D+00 0.100D+01
 Coeff:     -0.441D-01 0.886D-01 0.956D+00
 Gap=     0.314 Goal=   None    Shift=    0.000
 Gap=     0.314 Goal=   None    Shift=    0.000
 RMSDP=8.47D-05 MaxDP=1.93D-03 DE=-7.53D-03 OVMax= 2.11D-03

 Cycle   4  Pass 1  IDiag  1:
 E= -685.057243843988     Delta-E=       -0.000014034200 Rises=F Damp=F
 DIIS: error= 1.20D-04 at cycle   4 NSaved=   4.
 NSaved= 4 IEnMin= 4 EnMin= -685.057243843988     IErMin= 4 ErrMin= 1.20D-04
 ErrMax= 1.20D-04  0.00D+00 EMaxC= 1.00D-01 BMatC= 6.14D-06 BMatP= 5.63D-05
 IDIUse=3 WtCom= 9.99D-01 WtEn= 1.20D-03
 Coeff-Com: -0.384D-02 0.517D-02 0.250D+00 0.749D+00
 Coeff-En:   0.000D+00 0.000D+00 0.000D+00 0.100D+01
 Coeff:     -0.383D-02 0.516D-02 0.249D+00 0.749D+00
 Gap=     0.313 Goal=   None    Shift=    0.000
 Gap=     0.313 Goal=   None    Shift=    0.000
 RMSDP=2.98D-05 MaxDP=2.75D-04 DE=-1.40D-05 OVMax= 6.17D-04

 Cycle   5  Pass 1  IDiag  1:
 E= -685.057245986269     Delta-E=       -0.000002142281 Rises=F Damp=F
 DIIS: error= 2.65D-05 at cycle   5 NSaved=   5.
 NSaved= 5 IEnMin= 5 EnMin= -685.057245986269     IErMin= 5 ErrMin= 2.65D-05
 ErrMax= 2.65D-05  0.00D+00 EMaxC= 1.00D-01 BMatC= 2.37D-07 BMatP= 6.14D-06
 IDIUse=1 WtCom= 1.00D+00 WtEn= 0.00D+00
 Coeff-Com:  0.967D-03-0.209D-02-0.344D-01 0.649D-01 0.971D+00
 Coeff:      0.967D-03-0.209D-02-0.344D-01 0.649D-01 0.971D+00
 Gap=     0.313 Goal=   None    Shift=    0.000
 Gap=     0.313 Goal=   None    Shift=    0.000
 RMSDP=7.82D-06 MaxDP=1.69D-04 DE=-2.14D-06 OVMax= 2.06D-04

 Cycle   6  Pass 1  IDiag  1:
 E= -685.057246100643     Delta-E=       -0.000000114374 Rises=F Damp=F
 DIIS: error= 5.89D-06 at cycle   6 NSaved=   6.
 NSaved= 6 IEnMin= 6 EnMin= -685.057246100643     IErMin= 6 ErrMin= 5.89D-06
 ErrMax= 5.89D-06  0.00D+00 EMaxC= 1.00D-01 BMatC= 2.43D-08 BMatP= 2.37D-07
 IDIUse=1 WtCom= 1.00D+00 WtEn= 0.00D+00
 Coeff-Com:  0.758D-03-0.144D-02-0.220D-01-0.176D-01 0.264D+00 0.776D+00
 Coeff:      0.758D-03-0.144D-02-0.220D-01-0.176D-01 0.264D+00 0.776D+00
 Gap=     0.313 Goal=   None    Shift=    0.000
 Gap=     0.313 Goal=   None    Shift=    0.000
 RMSDP=1.97D-06 MaxDP=4.15D-05 DE=-1.14D-07 OVMax= 5.35D-05

 Cycle   7  Pass 1  IDiag  1:
 E= -685.057246110120     Delta-E=       -0.000000009477 Rises=F Damp=F
 DIIS: error= 1.91D-06 at cycle   7 NSaved=   7.
 NSaved= 7 IEnMin= 7 EnMin= -685.057246110120     IErMin= 7 ErrMin= 1.91D-06
 ErrMax= 1.91D-06  0.00D+00 EMaxC= 1.00D-01 BMatC= 1.28D-09 BMatP= 2.43D-08
 IDIUse=1 WtCom= 1.00D+00 WtEn= 0.00D+00
 Coeff-Com:  0.736D-05 0.179D-04-0.156D-02-0.903D-02-0.256D-01 0.147D+00
 Coeff-Com:  0.889D+00
 Coeff:      0.736D-05 0.179D-04-0.156D-02-0.903D-02-0.256D-01 0.147D+00
 Coeff:      0.889D+00
 Gap=     0.313 Goal=   None    Shift=    0.000
 Gap=     0.313 Goal=   None    Shift=    0.000
 RMSDP=5.44D-07 MaxDP=9.38D-06 DE=-9.48D-09 OVMax= 1.59D-05

 Cycle   8  Pass 1  IDiag  1:
 E= -685.057246110781     Delta-E=       -0.000000000661 Rises=F Damp=F
 DIIS: error= 2.15D-07 at cycle   8 NSaved=   8.
 NSaved= 8 IEnMin= 8 EnMin= -685.057246110781     IErMin= 8 ErrMin= 2.15D-07
 ErrMax= 2.15D-07  0.00D+00 EMaxC= 1.00D-01 BMatC= 3.56D-11 BMatP= 1.28D-09
 IDIUse=1 WtCom= 1.00D+00 WtEn= 0.00D+00
 Coeff-Com: -0.160D-04 0.283D-04 0.728D-03 0.188D-02-0.856D-02-0.416D-01
 Coeff-Com: -0.475D-01 0.110D+01
 Coeff:     -0.160D-04 0.283D-04 0.728D-03 0.188D-02-0.856D-02-0.416D-01
 Coeff:     -0.475D-01 0.110D+01
 Gap=     0.313 Goal=   None    Shift=    0.000
 Gap=     0.313 Goal=   None    Shift=    0.000
 RMSDP=1.28D-07 MaxDP=1.27D-06 DE=-6.61D-10 OVMax= 5.03D-06

 Cycle   9  Pass 1  IDiag  1:
 E= -685.057246110812     Delta-E=       -0.000000000031 Rises=F Damp=F
 DIIS: error= 7.59D-08 at cycle   9 NSaved=   9.
 NSaved= 9 IEnMin= 9 EnMin= -685.057246110812     IErMin= 9 ErrMin= 7.59D-08
 ErrMax= 7.59D-08  0.00D+00 EMaxC= 1.00D-01 BMatC= 2.14D-12 BMatP= 3.56D-11
 IDIUse=1 WtCom= 1.00D+00 WtEn= 0.00D+00
 Coeff-Com: -0.307D-05 0.441D-05 0.923D-04 0.816D-03 0.102D-02-0.109D-01
 Coeff-Com: -0.588D-01 0.131D+00 0.937D+00
 Coeff:     -0.307D-05 0.441D-05 0.923D-04 0.816D-03 0.102D-02-0.109D-01
 Coeff:     -0.588D-01 0.131D+00 0.937D+00
 Gap=     0.313 Goal=   None    Shift=    0.000
 Gap=     0.313 Goal=   None    Shift=    0.000
 RMSDP=2.51D-08 MaxDP=2.89D-07 DE=-3.12D-11 OVMax= 7.71D-07

 Cycle  10  Pass 1  IDiag  1:
 E= -685.057246110814     Delta-E=       -0.000000000002 Rises=F Damp=F
 DIIS: error= 7.72D-09 at cycle  10 NSaved=  10.
 NSaved=10 IEnMin=10 EnMin= -685.057246110814     IErMin=10 ErrMin= 7.72D-09
 ErrMax= 7.72D-09  0.00D+00 EMaxC= 1.00D-01 BMatC= 2.39D-14 BMatP= 2.14D-12
 IDIUse=1 WtCom= 1.00D+00 WtEn= 0.00D+00
 Coeff-Com:  0.374D-06-0.672D-06-0.111D-04-0.496D-04 0.234D-04 0.114D-02
 Coeff-Com:  0.158D-02-0.235D-01-0.374D-01 0.106D+01
 Coeff:      0.374D-06-0.672D-06-0.111D-04-0.496D-04 0.234D-04 0.114D-02
 Coeff:      0.158D-02-0.235D-01-0.374D-01 0.106D+01
 Gap=     0.313 Goal=   None    Shift=    0.000
 Gap=     0.313 Goal=   None    Shift=    0.000
 RMSDP=3.69D-09 MaxDP=2.91D-08 DE=-1.93D-12 OVMax= 1.13D-07

 SCF Done:  E(UM062X) =  -685.057246111     A.U. after   10 cycles
            NFock= 10  Conv=0.37D-08     -V/T= 2.0013
 <Sx>= 0.0000 <Sy>= 0.0000 <Sz>= 0.0000 <S**2>=-0.0000 S=-0.0000
 <L.S>=  0.00000000000    
 KE= 6.841576368977D+02 PE=-1.806509193770D+03 EE= 3.490010090720D+02
 Annihilation of the first spin contaminant:
 S**2 before annihilation    -0.0000,   after     0.0000
 Leave Link  502 at Wed Apr 16 06:13:23 2025, MaxMem=   536870912 cpu:              91.1 elap:              20.3
 (Enter /home/szhao/Apps/g16/l601.exe)
 Copying SCF densities to generalized density rwf, IOpCl= 1 IROHF=0.

 **********************************************************************

            Population analysis using the SCF density.

 **********************************************************************

 Orbital symmetries:
 Alpha Orbitals:
       Occupied  (A) (A) (A) (A) (A) (A) (A) (A) (A) (A) (A) (A)
                 (A) (A) (A) (A) (A)
       Virtual   (A) (A) (A) (A) (A) (A) (A) (A) (A) (A) (A) (A)
                 (A) (A) (A) (A) (A) (A) (A) (A) (A) (A) (A) (A)
                 (A) (A) (A) (A) (A) (A) (A) (A) (A) (A) (A) (A)
                 (A) (A) (A) (A) (A) (A) (A) (A) (A) (A) (A) (A)
                 (A) (A) (A) (A) (A) (A) (A) (A) (A) (A) (A) (A)
                 (A) (A) (A) (A) (A) (A) (A)
 Beta  Orbitals:
       Occupied  (A) (A) (A) (A) (A) (A) (A) (A) (A) (A) (A) (A)
                 (A) (A) (A) (A) (A)
       Virtual   (A) (A) (A) (A) (A) (A) (A) (A) (A) (A) (A) (A)
                 (A) (A) (A) (A) (A) (A) (A) (A) (A) (A) (A) (A)
                 (A) (A) (A) (A) (A) (A) (A) (A) (A) (A) (A) (A)
                 (A) (A) (A) (A) (A) (A) (A) (A) (A) (A) (A) (A)
                 (A) (A) (A) (A) (A) (A) (A) (A) (A) (A) (A) (A)
                 (A) (A) (A) (A) (A) (A) (A)
 The electronic state is 1-A.
 Alpha  occ. eigenvalues --  -78.02630 -78.02630  -6.85323  -6.85317  -4.96898
 Alpha  occ. eigenvalues --   -4.96873  -4.96847  -4.96847  -4.96625  -4.96620
 Alpha  occ. eigenvalues --   -0.77064  -0.66770  -0.46419  -0.46143  -0.40734
 Alpha  occ. eigenvalues --   -0.32946  -0.31080
 Alpha virt. eigenvalues --    0.00268   0.00761   0.03470   0.03757   0.03998
 Alpha virt. eigenvalues --    0.04881   0.05328   0.06602   0.06606   0.08340
 Alpha virt. eigenvalues --    0.10657   0.14783   0.19176   0.27430   0.29454
 Alpha virt. eigenvalues --    0.29577   0.31915   0.31951   0.33275   0.36473
 Alpha virt. eigenvalues --    0.38571   0.45228   0.53749   0.59268   0.60234
 Alpha virt. eigenvalues --    0.63097   0.64189   0.69220   0.76962   0.79306
 Alpha virt. eigenvalues --    0.80262   0.80644   0.95589   0.98465   1.06484
 Alpha virt. eigenvalues --    1.37813   1.38126   1.43044   1.43304   1.45651
 Alpha virt. eigenvalues --    1.51409   1.51986   1.56289   1.60552   1.61169
 Alpha virt. eigenvalues --    1.70946   1.73938   1.75065   1.90122   2.01314
 Alpha virt. eigenvalues --    2.07372   2.13794   2.14769   2.55472   2.59510
 Alpha virt. eigenvalues --    2.70906   2.75342   7.05601   7.12308  14.03877
 Alpha virt. eigenvalues --   14.04296  14.06688  14.09010  14.09638  14.14168
 Alpha virt. eigenvalues --  163.34794 163.43058
  Beta  occ. eigenvalues --  -78.02630 -78.02630  -6.85323  -6.85317  -4.96898
  Beta  occ. eigenvalues --   -4.96873  -4.96847  -4.96847  -4.96625  -4.96620
  Beta  occ. eigenvalues --   -0.77064  -0.66770  -0.46419  -0.46143  -0.40734
  Beta  occ. eigenvalues --   -0.32946  -0.31080
  Beta virt. eigenvalues --    0.00268   0.00761   0.03470   0.03757   0.03998
  Beta virt. eigenvalues --    0.04881   0.05328   0.06602   0.06606   0.08340
  Beta virt. eigenvalues --    0.10657   0.14783   0.19176   0.27430   0.29454
  Beta virt. eigenvalues --    0.29577   0.31915   0.31951   0.33275   0.36473
  Beta virt. eigenvalues --    0.38571   0.45228   0.53749   0.59268   0.60234
  Beta virt. eigenvalues --    0.63097   0.64189   0.69220   0.76962   0.79306
  Beta virt. eigenvalues --    0.80262   0.80644   0.95589   0.98465   1.06484
  Beta virt. eigenvalues --    1.37813   1.38126   1.43044   1.43304   1.45651
  Beta virt. eigenvalues --    1.51409   1.51986   1.56289   1.60552   1.61169
  Beta virt. eigenvalues --    1.70946   1.73938   1.75065   1.90122   2.01314
  Beta virt. eigenvalues --    2.07372   2.13794   2.14769   2.55472   2.59510
  Beta virt. eigenvalues --    2.70906   2.75342   7.05601   7.12308  14.03877
  Beta virt. eigenvalues --   14.04296  14.06688  14.09010  14.09638  14.14168
  Beta virt. eigenvalues --  163.34794 163.43058
          Condensed to atoms (all electrons):
               1          2          3          4          5          6
     1  P   14.269971   0.259256  -0.052506   0.316772  -0.048083   0.305614
     2  P    0.259256  14.269970   0.316772  -0.052505   0.305613  -0.048083
     3  H   -0.052506   0.316772   0.742294   0.003965  -0.035629  -0.000099
     4  H    0.316772  -0.052505   0.003965   0.742292  -0.000099  -0.035629
     5  H   -0.048083   0.305613  -0.035629  -0.000099   0.758601  -0.006224
     6  H    0.305614  -0.048083  -0.000099  -0.035629  -0.006224   0.758600
          Atomic-Atomic Spin Densities.
               1          2          3          4          5          6
     1  P    0.000000  -0.000000  -0.000000  -0.000000   0.000000  -0.000000
     2  P   -0.000000  -0.000000   0.000000   0.000000  -0.000000   0.000000
     3  H   -0.000000   0.000000   0.000000   0.000000   0.000000  -0.000000
     4  H   -0.000000   0.000000   0.000000   0.000000   0.000000   0.000000
     5  H    0.000000  -0.000000   0.000000   0.000000  -0.000000  -0.000000
     6  H   -0.000000   0.000000  -0.000000   0.000000  -0.000000   0.000000
 Mulliken charges and spin densities:
               1          2
     1  P   -0.051023   0.000000
     2  P   -0.051022  -0.000000
     3  H    0.025202   0.000000
     4  H    0.025203  -0.000000
     5  H    0.025820  -0.000000
     6  H    0.025820  -0.000000
 Sum of Mulliken charges =  -0.00000  -0.00000
 Mulliken charges and spin densities with hydrogens summed into heavy atoms:
               1          2
     1  P   -0.000000   0.000000
     2  P    0.000000  -0.000000
 Electronic spatial extent (au):  <R**2>=            251.6038
 Charge=             -0.0000 electrons
 Dipole moment (field-independent basis, Debye):
    X=              0.0000    Y=              0.0001    Z=              1.3729  Tot=              1.3729
 Quadrupole moment (field-independent basis, Debye-Ang):
   XX=            -30.8763   YY=            -28.9328   ZZ=            -29.8739
   XY=              2.2904   XZ=             -0.0001   YZ=             -0.0000
 Traceless Quadrupole moment (field-independent basis, Debye-Ang):
   XX=             -0.9820   YY=              0.9615   ZZ=              0.0204
   XY=              2.2904   XZ=             -0.0001   YZ=             -0.0000
 Octapole moment (field-independent basis, Debye-Ang**2):
  XXX=             -0.0000  YYY=              0.0001  ZZZ=              2.1748  XYY=             -0.0002
  XXY=              0.0002  XXZ=              5.6477  XZZ=              0.0002  YZZ=              0.0000
  YYZ=              0.9397  XYZ=             -2.5201
 Hexadecapole moment (field-independent basis, Debye-Ang**3):
 XXXX=           -279.8096 YYYY=            -61.7263 ZZZZ=            -63.9028 XXXY=              9.0741
 XXXZ=             -0.0004 YYYX=              3.9433 YYYZ=             -0.0002 ZZZX=             -0.0002
 ZZZY=              0.0001 XXYY=            -58.1881 XXZZ=            -60.1863 YYZZ=            -21.9908
 XXYZ=             -0.0001 YYXZ=             -0.0000 ZZXY=              1.6999
 N-N= 8.829330168922D+01 E-N=-1.806509193524D+03  KE= 6.841576368977D+02
                          Isotropic Fermi Contact Couplings
        Atom                 a.u.       MegaHertz       Gauss      10(-4) cm-1
     1  P(31)             -0.00000      -0.00000      -0.00000      -0.00000
     2  P(31)              0.00000       0.00000       0.00000       0.00000
     3  H(1)               0.00000       0.00000       0.00000       0.00000
     4  H(1)               0.00000       0.00000       0.00000       0.00000
     5  H(1)               0.00000       0.00000       0.00000       0.00000
     6  H(1)               0.00000       0.00000       0.00000       0.00000
 --------------------------------------------------------
       Center         ----  Spin Dipole Couplings  ----
                      3XX-RR        3YY-RR        3ZZ-RR
 --------------------------------------------------------
     1   Atom        0.000000      0.000000      0.000000
     2   Atom        0.000000      0.000000      0.000000
     3   Atom        0.000000      0.000000      0.000000
     4   Atom        0.000000      0.000000      0.000000
     5   Atom        0.000000      0.000000      0.000000
     6   Atom        0.000000      0.000000      0.000000
 --------------------------------------------------------
                        XY            XZ            YZ
 --------------------------------------------------------
     1   Atom        0.000000      0.000000      0.000000
     2   Atom        0.000000      0.000000      0.000000
     3   Atom        0.000000      0.000000      0.000000
     4   Atom        0.000000      0.000000      0.000000
     5   Atom        0.000000      0.000000      0.000000
     6   Atom        0.000000      0.000000      0.000000
 --------------------------------------------------------


 ---------------------------------------------------------------------------------
              Anisotropic Spin Dipole Couplings in Principal Axis System
 ---------------------------------------------------------------------------------

       Atom             a.u.   MegaHertz   Gauss  10(-4) cm-1        Axes

              Baa     0.0000     0.000     0.000     0.000  1.0000  0.0000  0.0000
     1 P(31)  Bbb     0.0000     0.000     0.000     0.000 -0.0000  1.0000  0.0000
              Bcc     0.0000     0.000     0.000     0.000  0.0000  0.0000  1.0000
 
              Baa     0.0000     0.000     0.000     0.000  1.0000  0.0000  0.0000
     2 P(31)  Bbb     0.0000     0.000     0.000     0.000 -0.0000  1.0000  0.0000
              Bcc     0.0000     0.000     0.000     0.000  0.0000  0.0000  1.0000
 
              Baa     0.0000     0.000     0.000     0.000  1.0000  0.0000  0.0000
     3 H(1)   Bbb     0.0000     0.000     0.000     0.000 -0.0000  1.0000  0.0000
              Bcc     0.0000     0.000     0.000     0.000  0.0000  0.0000  1.0000
 
              Baa     0.0000     0.000     0.000     0.000  1.0000  0.0000  0.0000
     4 H(1)   Bbb     0.0000     0.000     0.000     0.000 -0.0000  1.0000  0.0000
              Bcc     0.0000     0.000     0.000     0.000  0.0000  0.0000  1.0000
 
              Baa     0.0000     0.000     0.000     0.000  1.0000  0.0000  0.0000
     5 H(1)   Bbb     0.0000     0.000     0.000     0.000 -0.0000  1.0000  0.0000
              Bcc     0.0000     0.000     0.000     0.000  0.0000  0.0000  1.0000
 
              Baa     0.0000     0.000     0.000     0.000  1.0000  0.0000  0.0000
     6 H(1)   Bbb     0.0000     0.000     0.000     0.000 -0.0000  1.0000  0.0000
              Bcc     0.0000     0.000     0.000     0.000  0.0000  0.0000  1.0000
 

 ---------------------------------------------------------------------------------

 No NMR shielding tensors so no spin-rotation constants.
 Leave Link  601 at Wed Apr 16 06:13:23 2025, MaxMem=   536870912 cpu:               1.6 elap:               0.4
 (Enter /home/szhao/Apps/g16/l607.exe)
 ******************************Gaussian NBO Version 3.1******************************
             N A T U R A L   A T O M I C   O R B I T A L   A N D
          N A T U R A L   B O N D   O R B I T A L   A N A L Y S I S
 ******************************Gaussian NBO Version 3.1******************************
       /RESON  / : Allow strongly delocalized NBO set

 Analyzing the SCF density

 Job title: Title Card Required                                             

 Storage needed:     21714 in NPA,     28542 in NBO ( 536870684 available)
 GSVD:  LWork=        1656 too small for GESVD, short by        8694 words or        8694 for optimal perf.


 NATURAL POPULATIONS:  Natural atomic orbital occupancies 
                                                          
   NAO  Atom  No  lang   Type(AO)    Occupancy
 --------------------------------------------
     1    P    1  S      Cor( 1S)     2.00000
     2    P    1  S      Cor( 2S)     1.99939
     3    P    1  S      Val( 3S)     1.60795
     4    P    1  S      Ryd( 4S)     0.00135
     5    P    1  S      Ryd( 5S)     0.00027
     6    P    1  S      Ryd( 6S)     0.00001
     7    P    1  S      Ryd( 7S)     0.00000
     8    P    1  px     Cor( 2p)     1.99992
     9    P    1  px     Val( 3p)     1.02338
    10    P    1  px     Ryd( 4p)     0.00330
    11    P    1  px     Ryd( 6p)     0.00029
    12    P    1  px     Ryd( 5p)     0.00033
    13    P    1  px     Ryd( 7p)     0.00000
    14    P    1  py     Cor( 2p)     1.99993
    15    P    1  py     Val( 3p)     1.10929
    16    P    1  py     Ryd( 4p)     0.00290
    17    P    1  py     Ryd( 5p)     0.00014
    18    P    1  py     Ryd( 6p)     0.00006
    19    P    1  py     Ryd( 7p)     0.00000
    20    P    1  pz     Cor( 2p)     1.99992
    21    P    1  pz     Val( 3p)     1.21597
    22    P    1  pz     Ryd( 4p)     0.00483
    23    P    1  pz     Ryd( 5p)     0.00018
    24    P    1  pz     Ryd( 6p)     0.00004
    25    P    1  pz     Ryd( 7p)     0.00000
    26    P    1  dxy    Ryd( 3d)     0.00195
    27    P    1  dxz    Ryd( 3d)     0.00207
    28    P    1  dyz    Ryd( 3d)     0.00095
    29    P    1  dx2y2  Ryd( 3d)     0.00805
    30    P    1  dz2    Ryd( 3d)     0.00835
 
    31    P    2  S      Cor( 1S)     2.00000
    32    P    2  S      Cor( 2S)     1.99939
    33    P    2  S      Val( 3S)     1.60795
    34    P    2  S      Ryd( 4S)     0.00135
    35    P    2  S      Ryd( 5S)     0.00027
    36    P    2  S      Ryd( 6S)     0.00001
    37    P    2  S      Ryd( 7S)     0.00000
    38    P    2  px     Cor( 2p)     1.99992
    39    P    2  px     Val( 3p)     1.02338
    40    P    2  px     Ryd( 4p)     0.00330
    41    P    2  px     Ryd( 6p)     0.00029
    42    P    2  px     Ryd( 5p)     0.00033
    43    P    2  px     Ryd( 7p)     0.00000
    44    P    2  py     Cor( 2p)     1.99993
    45    P    2  py     Val( 3p)     1.10933
    46    P    2  py     Ryd( 4p)     0.00290
    47    P    2  py     Ryd( 5p)     0.00014
    48    P    2  py     Ryd( 6p)     0.00006
    49    P    2  py     Ryd( 7p)     0.00000
    50    P    2  pz     Cor( 2p)     1.99992
    51    P    2  pz     Val( 3p)     1.21593
    52    P    2  pz     Ryd( 4p)     0.00483
    53    P    2  pz     Ryd( 5p)     0.00018
    54    P    2  pz     Ryd( 6p)     0.00004
    55    P    2  pz     Ryd( 7p)     0.00000
    56    P    2  dxy    Ryd( 3d)     0.00195
    57    P    2  dxz    Ryd( 3d)     0.00207
    58    P    2  dyz    Ryd( 3d)     0.00095
    59    P    2  dx2y2  Ryd( 3d)     0.00805
    60    P    2  dz2    Ryd( 3d)     0.00835
 
    61    H    3  S      Val( 1S)     0.99873
    62    H    3  S      Ryd( 2S)     0.00142
    63    H    3  S      Ryd( 3S)     0.00013
    64    H    3  px     Ryd( 2p)     0.00026
    65    H    3  py     Ryd( 2p)     0.00263
    66    H    3  pz     Ryd( 2p)     0.00024
 
    67    H    4  S      Val( 1S)     0.99873
    68    H    4  S      Ryd( 2S)     0.00142
    69    H    4  S      Ryd( 3S)     0.00013
    70    H    4  px     Ryd( 2p)     0.00026
    71    H    4  py     Ryd( 2p)     0.00263
    72    H    4  pz     Ryd( 2p)     0.00024
 
    73    H    5  S      Val( 1S)     1.00135
    74    H    5  S      Ryd( 2S)     0.00121
    75    H    5  S      Ryd( 3S)     0.00014
    76    H    5  px     Ryd( 2p)     0.00032
    77    H    5  py     Ryd( 2p)     0.00021
    78    H    5  pz     Ryd( 2p)     0.00256
 
    79    H    6  S      Val( 1S)     1.00135
    80    H    6  S      Ryd( 2S)     0.00121
    81    H    6  S      Ryd( 3S)     0.00014
    82    H    6  px     Ryd( 2p)     0.00032
    83    H    6  py     Ryd( 2p)     0.00021
    84    H    6  pz     Ryd( 2p)     0.00256


 Summary of Natural Population Analysis:                  
                                                          
                                       Natural Population 
                Natural  -----------------------------------------------
    Atom  No    Charge         Core      Valence    Rydberg      Total
 -----------------------------------------------------------------------
      P    1    0.00919      9.99916     4.95659    0.03506    14.99081
      P    2    0.00919      9.99916     4.95658    0.03506    14.99081
      H    3   -0.00341      0.00000     0.99873    0.00468     1.00341
      H    4   -0.00341      0.00000     0.99873    0.00468     1.00341
      H    5   -0.00578      0.00000     1.00135    0.00444     1.00578
      H    6   -0.00578      0.00000     1.00135    0.00444     1.00578
 =======================================================================
   * Total *    0.00000     19.99831    13.91333    0.08836    34.00000

                                 Natural Population      
 --------------------------------------------------------
   Core                      19.99831 ( 99.9916% of  20)
   Valence                   13.91333 ( 99.3809% of  14)
   Natural Minimal Basis     33.91164 ( 99.7401% of  34)
   Natural Rydberg Basis      0.08836 (  0.2599% of  34)
 --------------------------------------------------------

    Atom  No          Natural Electron Configuration
 ----------------------------------------------------------------------------
      P    1      [core]3S( 1.61)3p( 3.35)3d( 0.02)4p( 0.01)
      P    2      [core]3S( 1.61)3p( 3.35)3d( 0.02)4p( 0.01)
      H    3            1S( 1.00)
      H    4            1S( 1.00)
      H    5            1S( 1.00)
      H    6            1S( 1.00)


 ***************************************************
 *******         Alpha spin orbitals         *******
 ***************************************************


 NATURAL POPULATIONS:  Natural atomic orbital occupancies 
                                                          
   NAO  Atom  No  lang   Type(AO)    Occupancy      Energy
 ----------------------------------------------------------
     1    P    1  S      Cor( 1S)     1.00000     -77.17966
     2    P    1  S      Cor( 2S)     0.99970      -7.54545
     3    P    1  S      Val( 3S)     0.80397      -0.58924
     4    P    1  S      Ryd( 5S)     0.00067       0.99851
     5    P    1  S      Ryd( 4S)     0.00014       0.45744
     6    P    1  S      Ryd( 6S)     0.00000      12.63868
     7    P    1  S      Ryd( 7S)     0.00000     157.11556
     8    P    1  px     Cor( 2p)     0.99996      -4.96395
     9    P    1  px     Val( 3p)     0.51169      -0.17872
    10    P    1  px     Ryd( 4p)     0.00165       0.33933
    11    P    1  px     Ryd( 6p)     0.00014       1.13255
    12    P    1  px     Ryd( 5p)     0.00016       0.74903
    13    P    1  px     Ryd( 7p)     0.00000      13.88265
    14    P    1  py     Cor( 2p)     0.99996      -4.96186
    15    P    1  py     Val( 3p)     0.55464      -0.15516
    16    P    1  py     Ryd( 4p)     0.00145       0.34341
    17    P    1  py     Ryd( 6p)     0.00007       1.11234
    18    P    1  py     Ryd( 5p)     0.00003       0.75460
    19    P    1  py     Ryd( 7p)     0.00000      13.88903
    20    P    1  pz     Cor( 2p)     0.99996      -4.96152
    21    P    1  pz     Val( 3p)     0.60798      -0.16201
    22    P    1  pz     Ryd( 4p)     0.00241       0.34976
    23    P    1  pz     Ryd( 6p)     0.00009       1.10319
    24    P    1  pz     Ryd( 5p)     0.00002       0.76659
    25    P    1  pz     Ryd( 7p)     0.00000      13.88529
    26    P    1  dxy    Ryd( 3d)     0.00098       0.81266
    27    P    1  dxz    Ryd( 3d)     0.00104       0.81646
    28    P    1  dyz    Ryd( 3d)     0.00048       0.83131
    29    P    1  dx2y2  Ryd( 3d)     0.00402       1.10208
    30    P    1  dz2    Ryd( 3d)     0.00417       1.15877
 
    31    P    2  S      Cor( 1S)     1.00000     -77.17966
    32    P    2  S      Cor( 2S)     0.99970      -7.54545
    33    P    2  S      Val( 3S)     0.80397      -0.58924
    34    P    2  S      Ryd( 5S)     0.00067       0.99852
    35    P    2  S      Ryd( 4S)     0.00014       0.45744
    36    P    2  S      Ryd( 6S)     0.00000      12.63866
    37    P    2  S      Ryd( 7S)     0.00000     157.11557
    38    P    2  px     Cor( 2p)     0.99996      -4.96395
    39    P    2  px     Val( 3p)     0.51169      -0.17872
    40    P    2  px     Ryd( 4p)     0.00165       0.33933
    41    P    2  px     Ryd( 6p)     0.00014       1.13254
    42    P    2  px     Ryd( 5p)     0.00016       0.74904
    43    P    2  px     Ryd( 7p)     0.00000      13.88265
    44    P    2  py     Cor( 2p)     0.99996      -4.96186
    45    P    2  py     Val( 3p)     0.55466      -0.15517
    46    P    2  py     Ryd( 4p)     0.00145       0.34341
    47    P    2  py     Ryd( 6p)     0.00007       1.11233
    48    P    2  py     Ryd( 5p)     0.00003       0.75461
    49    P    2  py     Ryd( 7p)     0.00000      13.88903
    50    P    2  pz     Cor( 2p)     0.99996      -4.96152
    51    P    2  pz     Val( 3p)     0.60796      -0.16201
    52    P    2  pz     Ryd( 4p)     0.00241       0.34976
    53    P    2  pz     Ryd( 6p)     0.00009       1.10318
    54    P    2  pz     Ryd( 5p)     0.00002       0.76659
    55    P    2  pz     Ryd( 7p)     0.00000      13.88529
    56    P    2  dxy    Ryd( 3d)     0.00098       0.81266
    57    P    2  dxz    Ryd( 3d)     0.00104       0.81646
    58    P    2  dyz    Ryd( 3d)     0.00048       0.83128
    59    P    2  dx2y2  Ryd( 3d)     0.00402       1.10209
    60    P    2  dz2    Ryd( 3d)     0.00417       1.15879
 
    61    H    3  S      Val( 1S)     0.49937      -0.15481
    62    H    3  S      Ryd( 2S)     0.00071       0.49110
    63    H    3  S      Ryd( 3S)     0.00006       2.25408
    64    H    3  px     Ryd( 2p)     0.00013       1.46517
    65    H    3  py     Ryd( 2p)     0.00131       2.03527
    66    H    3  pz     Ryd( 2p)     0.00012       1.44761
 
    67    H    4  S      Val( 1S)     0.49937      -0.15481
    68    H    4  S      Ryd( 2S)     0.00071       0.49110
    69    H    4  S      Ryd( 3S)     0.00006       2.25408
    70    H    4  px     Ryd( 2p)     0.00013       1.46517
    71    H    4  py     Ryd( 2p)     0.00131       2.03526
    72    H    4  pz     Ryd( 2p)     0.00012       1.44761
 
    73    H    5  S      Val( 1S)     0.50067      -0.15498
    74    H    5  S      Ryd( 2S)     0.00061       0.51412
    75    H    5  S      Ryd( 3S)     0.00007       2.22873
    76    H    5  px     Ryd( 2p)     0.00016       1.46640
    77    H    5  py     Ryd( 2p)     0.00011       1.47279
    78    H    5  pz     Ryd( 2p)     0.00128       2.01057
 
    79    H    6  S      Val( 1S)     0.50067      -0.15498
    80    H    6  S      Ryd( 2S)     0.00061       0.51412
    81    H    6  S      Ryd( 3S)     0.00007       2.22873
    82    H    6  px     Ryd( 2p)     0.00016       1.46640
    83    H    6  py     Ryd( 2p)     0.00011       1.47281
    84    H    6  pz     Ryd( 2p)     0.00128       2.01055

 WARNING:  Population inversion found on atom  P    1
           Population inversion found on atom  P    2


 Summary of Natural Population Analysis:                  
                                                          
                                       Natural Population 
                Natural  -----------------------------------------------
    Atom  No    Charge         Core      Valence    Rydberg      Total
 -----------------------------------------------------------------------
      P    1    0.00460      4.99958     2.47829    0.01753     7.49540
      P    2    0.00460      4.99958     2.47829    0.01753     7.49540
      H    3   -0.00170      0.00000     0.49937    0.00234     0.50170
      H    4   -0.00170      0.00000     0.49937    0.00234     0.50170
      H    5   -0.00289      0.00000     0.50067    0.00222     0.50289
      H    6   -0.00289      0.00000     0.50067    0.00222     0.50289
 =======================================================================
   * Total *   -0.00000      9.99916     6.95666    0.04418    17.00000

                                 Natural Population      
 --------------------------------------------------------
   Core                       9.99916 ( 99.9916% of  10)
   Valence                    6.95666 ( 99.3809% of   7)
   Natural Minimal Basis     16.95582 ( 99.7401% of  17)
   Natural Rydberg Basis      0.04418 (  0.2599% of  17)
 --------------------------------------------------------

    Atom  No          Natural Electron Configuration
 ----------------------------------------------------------------------------
      P    1      [core]3S( 0.80)3p( 1.67)3d( 0.01)4p( 0.01)
      P    2      [core]3S( 0.80)3p( 1.67)3d( 0.01)4p( 0.01)
      H    3            1S( 0.50)
      H    4            1S( 0.50)
      H    5            1S( 0.50)
      H    6            1S( 0.50)


 NATURAL BOND ORBITAL ANALYSIS, alpha spin orbitals:

                       Occupancies       Lewis Structure    Low   High
           Occ.    -------------------  -----------------   occ   occ
  Cycle   Thresh.   Lewis   Non-Lewis     CR  BD  3C  LP    (L)   (NL)   Dev
 =============================================================================
   1(1)    0.90    16.95985   0.04015     10   5   0   2     0      0    0.00
 -----------------------------------------------------------------------------

 Structure accepted: No low occupancy Lewis orbitals

 --------------------------------------------------------
   Core                      9.99916 ( 99.992% of  10)
   Valence Lewis             6.96070 ( 99.439% of   7)
  ==================       ============================
   Total Lewis              16.95985 ( 99.764% of  17)
  -----------------------------------------------------
   Valence non-Lewis         0.03044 (  0.179% of  17)
   Rydberg non-Lewis         0.00971 (  0.057% of  17)
  ==================       ============================
   Total non-Lewis           0.04015 (  0.236% of  17)
 --------------------------------------------------------


       (Occupancy)   Bond orbital/ Coefficients/ Hybrids
 ---------------------------------------------------------------------------------
     1. (0.99536) BD ( 1) P   1 - P   2  
                ( 50.00%)   0.7071* P   1 s( 12.75%)p 6.80( 86.70%)d 0.04(  0.55%)
                                            0.0000  0.0002  0.3568 -0.0078  0.0102
                                            0.0016 -0.0001  0.0000  0.9290 -0.0230
                                           -0.0055 -0.0127  0.0002 -0.0000 -0.0327
                                           -0.0144  0.0006  0.0032 -0.0003  0.0000
                                            0.0258  0.0363 -0.0044  0.0025  0.0005
                                           -0.0183  0.0193 -0.0007  0.0589 -0.0362
                ( 50.00%)   0.7071* P   2 s( 12.75%)p 6.80( 86.70%)d 0.04(  0.55%)
                                            0.0000  0.0002  0.3568 -0.0078  0.0102
                                            0.0016 -0.0001 -0.0000 -0.9290  0.0230
                                            0.0055  0.0127 -0.0002  0.0000  0.0327
                                            0.0144 -0.0006 -0.0032  0.0003  0.0000
                                            0.0258  0.0363 -0.0044  0.0025  0.0005
                                           -0.0183 -0.0193  0.0007  0.0589 -0.0362
     2. (0.99437) BD ( 1) P   1 - H   4  
                ( 49.97%)   0.7069* P   1 s( 15.25%)p 5.51( 84.10%)d 0.04(  0.65%)
                                           -0.0000  0.0000  0.3902 -0.0153  0.0021
                                           -0.0005  0.0000  0.0000 -0.1785  0.0280
                                            0.0017 -0.0028 -0.0002 -0.0000 -0.8985
                                            0.0220 -0.0032 -0.0062  0.0001  0.0000
                                           -0.0003  0.0228 -0.0013 -0.0005  0.0003
                                            0.0080 -0.0035 -0.0200 -0.0678 -0.0379
                ( 50.03%)   0.7073* H   4 s( 99.77%)p 0.00(  0.23%)
                                            0.9989  0.0024  0.0004  0.0086  0.0469
                                           -0.0031
     3. (0.99608) BD ( 1) P   1 - H   6  
                ( 49.98%)   0.7069* P   1 s( 15.64%)p 5.35( 83.72%)d 0.04(  0.63%)
                                            0.0000 -0.0001 -0.3953  0.0126  0.0005
                                            0.0002 -0.0000 -0.0000  0.1650 -0.0301
                                           -0.0018  0.0022  0.0003  0.0000 -0.2006
                                            0.0306 -0.0024 -0.0011  0.0003  0.0000
                                           -0.8761  0.0175 -0.0049 -0.0046  0.0000
                                           -0.0014  0.0095 -0.0107 -0.0005 -0.0784
                ( 50.02%)   0.7073* H   6 s( 99.78%)p 0.00(  0.22%)
                                           -0.9989 -0.0029 -0.0005 -0.0081  0.0066
                                            0.0460
     4. (0.99437) BD ( 1) P   2 - H   3  
                ( 49.97%)   0.7069* P   2 s( 15.25%)p 5.51( 84.10%)d 0.04(  0.65%)
                                           -0.0000  0.0000  0.3902 -0.0153  0.0021
                                           -0.0005  0.0000 -0.0000  0.1785 -0.0280
                                           -0.0017  0.0028  0.0002  0.0000  0.8985
                                           -0.0220  0.0032  0.0062 -0.0001  0.0000
                                           -0.0004  0.0228 -0.0013 -0.0005  0.0003
                                            0.0080  0.0034  0.0200 -0.0678 -0.0379
                ( 50.03%)   0.7073* H   3 s( 99.77%)p 0.00(  0.23%)
                                            0.9989  0.0024  0.0004 -0.0086 -0.0469
                                           -0.0031
     5. (0.99608) BD ( 1) P   2 - H   5  
                ( 49.98%)   0.7069* P   2 s( 15.64%)p 5.35( 83.72%)d 0.04(  0.63%)
                                           -0.0000  0.0001  0.3953 -0.0126 -0.0005
                                           -0.0002  0.0000 -0.0000  0.1650 -0.0301
                                           -0.0018  0.0022  0.0003  0.0000 -0.2005
                                            0.0305 -0.0024 -0.0011  0.0003 -0.0000
                                            0.8761 -0.0175  0.0049  0.0046 -0.0000
                                            0.0014  0.0095 -0.0107  0.0005  0.0784
                ( 50.02%)   0.7073* H   5 s( 99.78%)p 0.00(  0.22%)
                                            0.9989  0.0029  0.0005 -0.0081  0.0066
                                           -0.0460
     6. (1.00000) CR ( 1) P   1           s(100.00%)
                                            1.0000  0.0000  0.0000 -0.0000  0.0000
                                           -0.0000  0.0000  0.0000 -0.0000  0.0000
                                            0.0000 -0.0000 -0.0000 -0.0000 -0.0000
                                            0.0000 -0.0000 -0.0000  0.0000  0.0000
                                           -0.0000  0.0000 -0.0000 -0.0000  0.0000
                                            0.0000 -0.0000 -0.0000 -0.0000 -0.0000
     7. (0.99970) CR ( 2) P   1           s(100.00%)p 0.00(  0.00%)
                                            0.0000  1.0000 -0.0003 -0.0000 -0.0000
                                           -0.0000  0.0000  0.0000 -0.0001  0.0000
                                            0.0000  0.0000 -0.0000  0.0000 -0.0001
                                           -0.0000 -0.0000 -0.0000  0.0000 -0.0000
                                            0.0001  0.0000  0.0000 -0.0000 -0.0000
                                            0.0000  0.0000 -0.0000 -0.0000  0.0000
     8. (0.99996) CR ( 3) P   1           s(  0.00%)p 1.00(100.00%)
                                            0.0000  0.0000  0.0000  0.0000 -0.0000
                                           -0.0000 -0.0000  1.0000 -0.0000 -0.0000
                                            0.0000 -0.0000  0.0000  0.0000  0.0000
                                            0.0000  0.0000 -0.0000  0.0000 -0.0000
                                           -0.0000 -0.0000 -0.0000 -0.0000 -0.0000
                                            0.0000 -0.0000  0.0000  0.0000 -0.0000
     9. (0.99996) CR ( 4) P   1           s(  0.00%)p 1.00(100.00%)
                                           -0.0000  0.0000  0.0000 -0.0000  0.0000
                                            0.0000 -0.0000  0.0000  0.0000  0.0000
                                           -0.0000 -0.0000 -0.0000  1.0000 -0.0000
                                           -0.0000  0.0000  0.0000 -0.0000  0.0000
                                            0.0000  0.0000  0.0000  0.0000  0.0000
                                           -0.0000  0.0000 -0.0000  0.0000  0.0000
    10. (0.99996) CR ( 5) P   1           s(  0.00%)p 1.00(100.00%)
                                            0.0000 -0.0000 -0.0000  0.0000 -0.0000
                                           -0.0000  0.0000 -0.0000 -0.0000  0.0000
                                            0.0000  0.0000  0.0000  0.0000  0.0000
                                           -0.0000  0.0000  0.0000  0.0000  1.0000
                                            0.0000 -0.0000  0.0000 -0.0000 -0.0000
                                            0.0000 -0.0000  0.0000  0.0000  0.0000
    11. (1.00000) CR ( 1) P   2           s(100.00%)
                                            1.0000  0.0000  0.0000 -0.0000  0.0000
                                           -0.0000  0.0000 -0.0000  0.0000 -0.0000
                                           -0.0000  0.0000  0.0000  0.0000  0.0000
                                           -0.0000  0.0000  0.0000 -0.0000  0.0000
                                           -0.0000  0.0000 -0.0000 -0.0000  0.0000
                                            0.0000  0.0000  0.0000 -0.0000 -0.0000
    12. (0.99970) CR ( 2) P   2           s(100.00%)p 0.00(  0.00%)
                                            0.0000  1.0000 -0.0003 -0.0000 -0.0000
                                           -0.0000  0.0000 -0.0000  0.0001 -0.0000
                                           -0.0000 -0.0000  0.0000 -0.0000  0.0001
                                            0.0000  0.0000  0.0000 -0.0000 -0.0000
                                            0.0001  0.0000  0.0000 -0.0000 -0.0000
                                            0.0000 -0.0000  0.0000 -0.0000  0.0000
    13. (0.99996) CR ( 3) P   2           s(  0.00%)p 1.00(100.00%)
                                           -0.0000 -0.0000 -0.0000 -0.0000  0.0000
                                            0.0000  0.0000  1.0000 -0.0000 -0.0000
                                            0.0000 -0.0000  0.0000  0.0000  0.0000
                                            0.0000  0.0000 -0.0000  0.0000  0.0000
                                            0.0000  0.0000  0.0000  0.0000  0.0000
                                           -0.0000 -0.0000  0.0000 -0.0000  0.0000
    14. (0.99996) CR ( 4) P   2           s(  0.00%)p 1.00(100.00%)
                                            0.0000 -0.0000 -0.0000  0.0000 -0.0000
                                           -0.0000  0.0000  0.0000  0.0000  0.0000
                                           -0.0000 -0.0000 -0.0000  1.0000 -0.0000
                                           -0.0000  0.0000  0.0000 -0.0000 -0.0000
                                           -0.0000 -0.0000 -0.0000 -0.0000 -0.0000
                                            0.0000  0.0000 -0.0000 -0.0000 -0.0000
    15. (0.99996) CR ( 5) P   2           s(  0.00%)p 1.00(100.00%)
                                            0.0000 -0.0000 -0.0000  0.0000 -0.0000
                                           -0.0000  0.0000  0.0000  0.0000 -0.0000
                                           -0.0000 -0.0000 -0.0000 -0.0000 -0.0000
                                            0.0000 -0.0000 -0.0000 -0.0000  1.0000
                                            0.0000 -0.0000  0.0000 -0.0000 -0.0000
                                            0.0000  0.0000 -0.0000  0.0000  0.0000
    16. (0.99221) LP ( 1) P   1           s( 56.36%)p 0.77( 43.57%)d 0.00(  0.06%)
                                           -0.0000  0.0003  0.7507  0.0097 -0.0033
                                           -0.0002  0.0000 -0.0000 -0.2610 -0.0212
                                            0.0021 -0.0066 -0.0001  0.0000  0.3766
                                            0.0250  0.0007 -0.0015 -0.0002  0.0000
                                           -0.4727 -0.0342 -0.0005  0.0009  0.0002
                                            0.0109 -0.0131  0.0150  0.0073 -0.0080
    17. (0.99221) LP ( 1) P   2           s( 56.36%)p 0.77( 43.57%)d 0.00(  0.06%)
                                           -0.0000  0.0003  0.7507  0.0097 -0.0033
                                           -0.0002  0.0000  0.0000  0.2610  0.0212
                                           -0.0021  0.0066  0.0001 -0.0000 -0.3766
                                           -0.0250 -0.0007  0.0015  0.0002  0.0000
                                           -0.4727 -0.0342 -0.0005  0.0009  0.0002
                                            0.0109  0.0131 -0.0150  0.0073 -0.0080
    18. (0.00153) RY*( 1) P   1           s(  2.68%)p 7.63( 20.48%)d28.63( 76.83%)
                                            0.0000  0.0000 -0.0006  0.1427 -0.0728
                                            0.0341 -0.0013 -0.0000 -0.0172 -0.1943
                                           -0.2040 -0.0309 -0.0102 -0.0000 -0.0489
                                           -0.1573  0.2003  0.0185 -0.0050 -0.0000
                                           -0.0115 -0.1041  0.2069 -0.0512 -0.0081
                                           -0.5648 -0.5612  0.0955  0.3218  0.1477
    19. (0.00058) RY*( 2) P   1           s( 42.03%)p 0.33( 14.03%)d 1.05( 43.94%)
                                            0.0000  0.0000  0.0072  0.6408  0.0979
                                            0.0081  0.0000 -0.0000 -0.0073  0.1238
                                            0.2561 -0.0779  0.0181  0.0000 -0.0063
                                            0.1901  0.0616 -0.0626 -0.0165 -0.0000
                                            0.0071 -0.0442 -0.0795 -0.0203  0.0050
                                           -0.4722  0.4581 -0.0371  0.0059  0.0721
    20. (0.00051) RY*( 3) P   1           s( 26.55%)p 1.77( 46.90%)d 1.00( 26.55%)
                                           -0.0000  0.0000  0.0020  0.4081  0.3127
                                           -0.0343  0.0020  0.0000 -0.0032  0.2151
                                            0.2028 -0.1583  0.0178  0.0000  0.0209
                                           -0.0933 -0.0392 -0.0653 -0.0032  0.0000
                                           -0.0046  0.5705  0.1232 -0.0253 -0.0046
                                            0.2848 -0.4230  0.0665 -0.0240 -0.0213
    21. (0.00005) RY*( 4) P   1           s(  0.84%)p96.19( 81.15%)d21.34( 18.00%)
    22. (0.00000) RY*( 5) P   1           s( 22.93%)p 1.78( 40.86%)d 1.58( 36.20%)
    23. (0.00000) RY*( 6) P   1           s(  1.95%)p34.03( 66.35%)d16.26( 31.70%)
    24. (0.00000) RY*( 7) P   1           s(  2.26%)p41.42( 93.55%)d 1.86(  4.19%)
    25. (0.00000) RY*( 8) P   1           s(  0.05%)p99.99( 99.88%)d 1.21(  0.06%)
    26. (0.00000) RY*( 9) P   1           s(  2.73%)p34.47( 94.20%)d 1.12(  3.06%)
    27. (0.00000) RY*(10) P   1           s(  4.53%)p20.71( 93.76%)d 0.38(  1.72%)
    28. (0.00000) RY*(11) P   1           s(  0.57%)p99.99( 99.39%)d 0.06(  0.04%)
    29. (0.00000) RY*(12) P   1           s(  0.02%)p99.99( 99.97%)d 0.71(  0.01%)
    30. (0.00000) RY*(13) P   1           s( 81.43%)p 0.22( 18.11%)d 0.01(  0.46%)
    31. (0.00000) RY*(14) P   1           s(  3.15%)p29.24( 92.21%)d 1.47(  4.63%)
    32. (0.00000) RY*(15) P   1           s(  0.10%)p99.99( 99.68%)d 2.09(  0.22%)
    33. (0.00000) RY*(16) P   1           s(  0.00%)p 1.00( 99.99%)d 0.00(  0.01%)
    34. (0.00000) RY*(17) P   1           s( 99.76%)p 0.00(  0.11%)d 0.00(  0.13%)
    35. (0.00000) RY*(18) P   1           s(100.00%)p 0.00(  0.00%)d 0.00(  0.00%)
    36. (0.00000) RY*(19) P   1           s(  0.05%)p 9.08(  0.42%)d99.99( 99.53%)
    37. (0.00000) RY*(20) P   1           s(  0.73%)p23.24( 16.95%)d99.99( 82.33%)
    38. (0.00000) RY*(21) P   1           s(  7.62%)p 3.14( 23.90%)d 8.99( 68.48%)
    39. (0.00153) RY*( 1) P   2           s(  2.68%)p 7.63( 20.48%)d28.63( 76.83%)
                                            0.0000  0.0000 -0.0006  0.1427 -0.0728
                                            0.0341 -0.0013  0.0000  0.0172  0.1943
                                            0.2040  0.0309  0.0102  0.0000  0.0489
                                            0.1573 -0.2002 -0.0185  0.0050 -0.0000
                                           -0.0115 -0.1041  0.2069 -0.0512 -0.0081
                                           -0.5647  0.5612 -0.0954  0.3218  0.1477
    40. (0.00058) RY*( 2) P   2           s( 42.03%)p 0.33( 14.03%)d 1.05( 43.94%)
                                            0.0000  0.0000  0.0072  0.6408  0.0979
                                            0.0081  0.0000  0.0000  0.0073 -0.1238
                                           -0.2561  0.0780 -0.0181 -0.0000  0.0063
                                           -0.1902 -0.0616  0.0626  0.0165 -0.0000
                                            0.0071 -0.0441 -0.0795 -0.0203  0.0050
                                           -0.4722 -0.4580  0.0371  0.0059  0.0720
    41. (0.00051) RY*( 3) P   2           s( 26.55%)p 1.77( 46.90%)d 1.00( 26.55%)
                                           -0.0000  0.0000  0.0020  0.4080  0.3127
                                           -0.0343  0.0020 -0.0000  0.0032 -0.2151
                                           -0.2028  0.1583 -0.0178 -0.0000 -0.0209
                                            0.0933  0.0392  0.0652  0.0032  0.0000
                                           -0.0046  0.5705  0.1232 -0.0253 -0.0046
                                            0.2849  0.4230 -0.0665 -0.0240 -0.0213
    42. (0.00005) RY*( 4) P   2           s(  0.84%)p96.19( 81.15%)d21.34( 18.00%)
    43. (0.00000) RY*( 5) P   2           s( 22.93%)p 1.78( 40.86%)d 1.58( 36.20%)
    44. (0.00000) RY*( 6) P   2           s(  1.95%)p34.03( 66.35%)d16.26( 31.70%)
    45. (0.00000) RY*( 7) P   2           s(  2.26%)p41.42( 93.55%)d 1.86(  4.19%)
    46. (0.00000) RY*( 8) P   2           s(  0.05%)p99.99( 99.88%)d 1.21(  0.06%)
    47. (0.00000) RY*( 9) P   2           s(  2.73%)p34.47( 94.20%)d 1.12(  3.07%)
    48. (0.00000) RY*(10) P   2           s(  4.53%)p20.71( 93.75%)d 0.38(  1.72%)
    49. (0.00000) RY*(11) P   2           s(  0.57%)p99.99( 99.39%)d 0.06(  0.04%)
    50. (0.00000) RY*(12) P   2           s(  0.02%)p99.99( 99.97%)d 0.71(  0.01%)
    51. (0.00000) RY*(13) P   2           s( 81.43%)p 0.22( 18.11%)d 0.01(  0.46%)
    52. (0.00000) RY*(14) P   2           s(  3.15%)p29.23( 92.21%)d 1.47(  4.63%)
    53. (0.00000) RY*(15) P   2           s(  0.10%)p99.99( 99.68%)d 2.09(  0.22%)
    54. (0.00000) RY*(16) P   2           s(  0.00%)p 1.00( 99.99%)d 0.00(  0.01%)
    55. (0.00000) RY*(17) P   2           s( 99.76%)p 0.00(  0.11%)d 0.00(  0.13%)
    56. (0.00000) RY*(18) P   2           s(100.00%)p 0.00(  0.00%)d 0.00(  0.00%)
    57. (0.00000) RY*(19) P   2           s(  0.05%)p 9.08(  0.42%)d99.99( 99.53%)
    58. (0.00000) RY*(20) P   2           s(  0.73%)p23.23( 16.94%)d99.99( 82.33%)
    59. (0.00000) RY*(21) P   2           s(  7.62%)p 3.14( 23.91%)d 8.99( 68.48%)
    60. (0.00074) RY*( 1) H   3           s( 96.91%)p 0.03(  3.09%)
                                            0.0037  0.9844  0.0030 -0.0312  0.1410
                                           -0.1002
    61. (0.00027) RY*( 2) H   3           s( 13.84%)p 6.23( 86.16%)
                                            0.0278 -0.0512  0.3674 -0.4177  0.6352
                                            0.5327
    62. (0.00008) RY*( 3) H   3           s(  3.02%)p32.16( 96.98%)
    63. (0.00004) RY*( 4) H   3           s( 59.45%)p 0.68( 40.55%)
    64. (0.00000) RY*( 5) H   3           s( 27.01%)p 2.70( 72.99%)
    65. (0.00074) RY*( 1) H   4           s( 96.91%)p 0.03(  3.09%)
                                            0.0037  0.9844  0.0030  0.0311 -0.1410
                                           -0.1002
    66. (0.00027) RY*( 2) H   4           s( 13.84%)p 6.23( 86.16%)
                                            0.0278 -0.0512  0.3674  0.4177 -0.6351
                                            0.5327
    67. (0.00008) RY*( 3) H   4           s(  3.02%)p32.16( 96.98%)
    68. (0.00004) RY*( 4) H   4           s( 59.45%)p 0.68( 40.55%)
    69. (0.00000) RY*( 5) H   4           s( 27.01%)p 2.70( 72.99%)
    70. (0.00062) RY*( 1) H   5           s( 98.05%)p 0.02(  1.95%)
                                            0.0029  0.9902  0.0073 -0.0186 -0.0735
                                            0.1171
    71. (0.00026) RY*( 2) H   5           s( 16.59%)p 5.03( 83.41%)
                                            0.0234 -0.0598  0.4022 -0.4974  0.4003
                                            0.6531
    72. (0.00011) RY*( 3) H   5           s(  1.83%)p53.79( 98.17%)
                                            0.0101  0.0370  0.1295  0.7863  0.5792
                                            0.1671
    73. (0.00004) RY*( 4) H   5           s( 52.11%)p 0.92( 47.89%)
    74. (0.00001) RY*( 5) H   5           s( 31.65%)p 2.16( 68.35%)
    75. (0.00062) RY*( 1) H   6           s( 98.05%)p 0.02(  1.95%)
                                            0.0029  0.9902  0.0073  0.0186  0.0735
                                            0.1171
    76. (0.00026) RY*( 2) H   6           s( 16.59%)p 5.03( 83.41%)
                                            0.0234 -0.0598  0.4022  0.4974 -0.4003
                                            0.6531
    77. (0.00011) RY*( 3) H   6           s(  1.83%)p53.79( 98.17%)
                                            0.0101  0.0370  0.1295 -0.7863 -0.5792
                                            0.1671
    78. (0.00004) RY*( 4) H   6           s( 52.11%)p 0.92( 47.89%)
    79. (0.00001) RY*( 5) H   6           s( 31.65%)p 2.16( 68.35%)
    80. (0.00381) BD*( 1) P   1 - P   2  
                ( 50.00%)   0.7071* P   1 s( 12.75%)p 6.80( 86.70%)d 0.04(  0.55%)
                                           -0.0000 -0.0002 -0.3568  0.0078 -0.0102
                                           -0.0016  0.0001 -0.0000 -0.9290  0.0230
                                            0.0055  0.0127 -0.0002  0.0000  0.0327
                                            0.0144 -0.0006 -0.0032  0.0003 -0.0000
                                           -0.0258 -0.0363  0.0044 -0.0025 -0.0005
                                            0.0183 -0.0193  0.0007 -0.0589  0.0362
                ( 50.00%)  -0.7071* P   2 s( 12.75%)p 6.80( 86.70%)d 0.04(  0.55%)
                                           -0.0000 -0.0002 -0.3568  0.0078 -0.0102
                                           -0.0016  0.0001  0.0000  0.9290 -0.0230
                                           -0.0055 -0.0127  0.0002 -0.0000 -0.0327
                                           -0.0144  0.0006  0.0032 -0.0003 -0.0000
                                           -0.0258 -0.0363  0.0044 -0.0025 -0.0005
                                            0.0183  0.0193 -0.0007 -0.0589  0.0362
    81. (0.00615) BD*( 1) P   1 - H   4  
                ( 50.03%)   0.7073* P   1 s( 15.25%)p 5.51( 84.10%)d 0.04(  0.65%)
                                           -0.0000  0.0000  0.3902 -0.0153  0.0021
                                           -0.0005  0.0000  0.0000 -0.1785  0.0280
                                            0.0017 -0.0028 -0.0002 -0.0000 -0.8985
                                            0.0220 -0.0032 -0.0062  0.0001  0.0000
                                           -0.0003  0.0228 -0.0013 -0.0005  0.0003
                                            0.0080 -0.0035 -0.0200 -0.0678 -0.0379
                ( 49.97%)  -0.7069* H   4 s( 99.77%)p 0.00(  0.23%)
                                            0.9989  0.0024  0.0004  0.0086  0.0469
                                           -0.0031
    82. (0.00717) BD*( 1) P   1 - H   6  
                ( 50.02%)   0.7073* P   1 s( 15.64%)p 5.35( 83.72%)d 0.04(  0.63%)
                                            0.0000 -0.0001 -0.3953  0.0126  0.0005
                                            0.0002 -0.0000 -0.0000  0.1650 -0.0301
                                           -0.0018  0.0022  0.0003  0.0000 -0.2006
                                            0.0306 -0.0024 -0.0011  0.0003  0.0000
                                           -0.8761  0.0175 -0.0049 -0.0046  0.0000
                                           -0.0014  0.0095 -0.0107 -0.0005 -0.0784
                ( 49.98%)  -0.7069* H   6 s( 99.78%)p 0.00(  0.22%)
                                           -0.9989 -0.0029 -0.0005 -0.0081  0.0066
                                            0.0460
    83. (0.00615) BD*( 1) P   2 - H   3  
                ( 50.03%)   0.7073* P   2 s( 15.25%)p 5.51( 84.10%)d 0.04(  0.65%)
                                           -0.0000  0.0000  0.3902 -0.0153  0.0021
                                           -0.0005  0.0000 -0.0000  0.1785 -0.0280
                                           -0.0017  0.0028  0.0002  0.0000  0.8985
                                           -0.0220  0.0032  0.0062 -0.0001  0.0000
                                           -0.0004  0.0228 -0.0013 -0.0005  0.0003
                                            0.0080  0.0034  0.0200 -0.0678 -0.0379
                ( 49.97%)  -0.7069* H   3 s( 99.77%)p 0.00(  0.23%)
                                            0.9989  0.0024  0.0004 -0.0086 -0.0469
                                           -0.0031
    84. (0.00717) BD*( 1) P   2 - H   5  
                ( 50.02%)   0.7073* P   2 s( 15.64%)p 5.35( 83.72%)d 0.04(  0.63%)
                                           -0.0000  0.0001  0.3953 -0.0126 -0.0005
                                           -0.0002  0.0000 -0.0000  0.1650 -0.0301
                                           -0.0018  0.0022  0.0003  0.0000 -0.2005
                                            0.0305 -0.0024 -0.0011  0.0003 -0.0000
                                            0.8761 -0.0175  0.0049  0.0046 -0.0000
                                            0.0014  0.0095 -0.0107  0.0005  0.0784
                ( 49.98%)  -0.7069* H   5 s( 99.78%)p 0.00(  0.22%)
                                            0.9989  0.0029  0.0005 -0.0081  0.0066
                                           -0.0460


 NHO Directionality and "Bond Bending" (deviations from line of nuclear centers)

         [Thresholds for printing:  angular deviation  >  1.0 degree]
                                    hybrid p-character > 25.0%
                                    orbital occupancy  >  0.10e

                                Line of Centers        Hybrid 1              Hybrid 2
                                ---------------  -------------------   ------------------
                NBO               Theta   Phi    Theta   Phi    Dev    Theta   Phi    Dev
 ========================================================================================
     1. BD (   1) P   1 - P   2    90.0  355.9    86.1  357.2   4.1     86.1  177.2   4.1
     2. BD (   1) P   1 - H   4    86.4  261.1    88.7  260.3   2.4      --     --    --
     3. BD (   1) P   1 - H   6    12.9  135.4    14.2  128.0   2.2      --     --    --
     4. BD (   1) P   2 - H   3    86.4   81.1    88.7   80.3   2.4      --     --    --
     5. BD (   1) P   2 - H   5    12.9  315.4    14.2  308.1   2.2      --     --    --
    16. LP (   1) P   1             --     --    135.8  125.6   --       --     --    --
    17. LP (   1) P   2             --     --    135.8  305.6   --       --     --    --


 Second Order Perturbation Theory Analysis of Fock Matrix in NBO Basis

     Threshold for printing:   0.25 kcal/mol
                                                                              E(2)  E(j)-E(i) F(i,j)
         Donor NBO (i)                     Acceptor NBO (j)                 kcal/mol   a.u.    a.u. 
 ===================================================================================================

 within unit  1
   1. BD (   1) P   1 - P   2        / 81. BD*(   1) P   1 - H   4            0.29    0.76    0.019
   1. BD (   1) P   1 - P   2        / 82. BD*(   1) P   1 - H   6            0.34    0.76    0.020
   1. BD (   1) P   1 - P   2        / 83. BD*(   1) P   2 - H   3            0.29    0.76    0.019
   1. BD (   1) P   1 - P   2        / 84. BD*(   1) P   2 - H   5            0.34    0.76    0.020
   2. BD (   1) P   1 - H   4        / 40. RY*(   2) P   2                    0.32    1.29    0.026
   2. BD (   1) P   1 - H   4        / 80. BD*(   1) P   1 - P   2            0.36    0.65    0.019
   2. BD (   1) P   1 - H   4        / 82. BD*(   1) P   1 - H   6            0.46    0.77    0.024
   2. BD (   1) P   1 - H   4        / 83. BD*(   1) P   2 - H   3            0.67    0.77    0.029
   3. BD (   1) P   1 - H   6        / 41. RY*(   3) P   2                    0.29    1.13    0.023
   3. BD (   1) P   1 - H   6        / 80. BD*(   1) P   1 - P   2            0.65    0.65    0.026
   3. BD (   1) P   1 - H   6        / 81. BD*(   1) P   1 - H   4            0.45    0.77    0.024
   4. BD (   1) P   2 - H   3        / 19. RY*(   2) P   1                    0.32    1.29    0.026
   4. BD (   1) P   2 - H   3        / 80. BD*(   1) P   1 - P   2            0.36    0.65    0.019
   4. BD (   1) P   2 - H   3        / 81. BD*(   1) P   1 - H   4            0.67    0.77    0.029
   4. BD (   1) P   2 - H   3        / 84. BD*(   1) P   2 - H   5            0.46    0.77    0.024
   5. BD (   1) P   2 - H   5        / 20. RY*(   3) P   1                    0.29    1.13    0.023
   5. BD (   1) P   2 - H   5        / 80. BD*(   1) P   1 - P   2            0.65    0.65    0.026
   5. BD (   1) P   2 - H   5        / 83. BD*(   1) P   2 - H   3            0.45    0.77    0.024
  16. LP (   1) P   1                / 39. RY*(   1) P   2                    0.35    1.39    0.028
  16. LP (   1) P   1                / 83. BD*(   1) P   2 - H   3            0.34    0.72    0.020
  16. LP (   1) P   1                / 84. BD*(   1) P   2 - H   5            0.68    0.73    0.028
  17. LP (   1) P   2                / 18. RY*(   1) P   1                    0.35    1.39    0.028
  17. LP (   1) P   2                / 81. BD*(   1) P   1 - H   4            0.34    0.73    0.020
  17. LP (   1) P   2                / 82. BD*(   1) P   1 - H   6            0.68    0.73    0.028


 Natural Bond Orbitals (Summary):

                                                            Principal Delocalizations
           NBO                        Occupancy    Energy   (geminal,vicinal,remote)
 ====================================================================================
 Molecular unit  1  (H4P2)
     1. BD (   1) P   1 - P   2          0.99536    -0.53145  82(g),84(g),81(g),83(g)
     2. BD (   1) P   1 - H   4          0.99437    -0.54679  83(v),82(g),80(g),40(v)
     3. BD (   1) P   1 - H   6          0.99608    -0.54902  80(g),81(g),41(v)
     4. BD (   1) P   2 - H   3          0.99437    -0.54679  81(v),84(g),80(g),19(v)
     5. BD (   1) P   2 - H   5          0.99608    -0.54902  80(g),83(g),20(v)
     6. CR (   1) P   1                  1.00000   -77.17966   
     7. CR (   2) P   1                  0.99970    -7.54495   
     8. CR (   3) P   1                  0.99996    -4.96394   
     9. CR (   4) P   1                  0.99996    -4.96185   
    10. CR (   5) P   1                  0.99996    -4.96152   
    11. CR (   1) P   2                  1.00000   -77.17966   
    12. CR (   2) P   2                  0.99970    -7.54494   
    13. CR (   3) P   2                  0.99996    -4.96394   
    14. CR (   4) P   2                  0.99996    -4.96185   
    15. CR (   5) P   2                  0.99996    -4.96152   
    16. LP (   1) P   1                  0.99221    -0.49939  84(v),39(v),83(v)
    17. LP (   1) P   2                  0.99221    -0.49939  82(v),18(v),81(v)
    18. RY*(   1) P   1                  0.00153     0.89445   
    19. RY*(   2) P   1                  0.00058     0.74634   
    20. RY*(   3) P   1                  0.00051     0.58050   
    21. RY*(   4) P   1                  0.00005     0.71721   
    22. RY*(   5) P   1                  0.00000     0.70981   
    23. RY*(   6) P   1                  0.00000     1.04021   
    24. RY*(   7) P   1                  0.00000     0.66098   
    25. RY*(   8) P   1                  0.00000    13.79604   
    26. RY*(   9) P   1                  0.00000     0.58399   
    27. RY*(  10) P   1                  0.00000     0.95265   
    28. RY*(  11) P   1                  0.00000     0.73672   
    29. RY*(  12) P   1                  0.00000    13.89445   
    30. RY*(  13) P   1                  0.00000     0.61047   
    31. RY*(  14) P   1                  0.00000     1.09981   
    32. RY*(  15) P   1                  0.00000     0.80023   
    33. RY*(  16) P   1                  0.00000    13.88920   
    34. RY*(  17) P   1                  0.00000    12.62153   
    35. RY*(  18) P   1                  0.00000   157.12120   
    36. RY*(  19) P   1                  0.00000     0.82776   
    37. RY*(  20) P   1                  0.00000     1.00175   
    38. RY*(  21) P   1                  0.00000     0.91520   
    39. RY*(   1) P   2                  0.00153     0.89445   
    40. RY*(   2) P   2                  0.00058     0.74634   
    41. RY*(   3) P   2                  0.00051     0.58049   
    42. RY*(   4) P   2                  0.00005     0.71721   
    43. RY*(   5) P   2                  0.00000     0.70981   
    44. RY*(   6) P   2                  0.00000     1.04027   
    45. RY*(   7) P   2                  0.00000     0.66098   
    46. RY*(   8) P   2                  0.00000    13.79604   
    47. RY*(   9) P   2                  0.00000     0.58394   
    48. RY*(  10) P   2                  0.00000     0.95266   
    49. RY*(  11) P   2                  0.00000     0.73674   
    50. RY*(  12) P   2                  0.00000    13.89445   
    51. RY*(  13) P   2                  0.00000     0.61048   
    52. RY*(  14) P   2                  0.00000     1.09979   
    53. RY*(  15) P   2                  0.00000     0.80024   
    54. RY*(  16) P   2                  0.00000    13.88920   
    55. RY*(  17) P   2                  0.00000    12.62150   
    56. RY*(  18) P   2                  0.00000   157.12122   
    57. RY*(  19) P   2                  0.00000     0.82773   
    58. RY*(  20) P   2                  0.00000     1.00176   
    59. RY*(  21) P   2                  0.00000     0.91520   
    60. RY*(   1) H   3                  0.00074     0.53553   
    61. RY*(   2) H   3                  0.00027     1.85619   
    62. RY*(   3) H   3                  0.00008     1.46138   
    63. RY*(   4) H   3                  0.00004     1.91955   
    64. RY*(   5) H   3                  0.00000     1.92116   
    65. RY*(   1) H   4                  0.00074     0.53553   
[...]
     3. BD (   1) P   1 - H   6          0.99608    -0.54902  80(g),81(g),41(v)
     4. BD (   1) P   2 - H   3          0.99437    -0.54679  81(v),84(g),80(g),19(v)
     5. BD (   1) P   2 - H   5          0.99608    -0.54902  80(g),83(g),20(v)
     6. CR (   1) P   1                  1.00000   -77.17966   
     7. CR (   2) P   1                  0.99970    -7.54495   
     8. CR (   3) P   1                  0.99996    -4.96394   
     9. CR (   4) P   1                  0.99996    -4.96185   
    10. CR (   5) P   1                  0.99996    -4.96152   
    11. CR (   1) P   2                  1.00000   -77.17966   
    12. CR (   2) P   2                  0.99970    -7.54494   
    13. CR (   3) P   2                  0.99996    -4.96394   
    14. CR (   4) P   2                  0.99996    -4.96185   
    15. CR (   5) P   2                  0.99996    -4.96152   
    16. LP (   1) P   1                  0.99221    -0.49939  84(v),39(v),83(v)
    17. LP (   1) P   2                  0.99221    -0.49939  82(v),18(v),81(v)
    18. RY*(   1) P   1                  0.00153     0.89445   
    19. RY*(   2) P   1                  0.00058     0.74634   
    20. RY*(   3) P   1                  0.00051     0.58050   
    21. RY*(   4) P   1                  0.00005     0.71721   
    22. RY*(   5) P   1                  0.00000     0.70981   
    23. RY*(   6) P   1                  0.00000     1.04021   
    24. RY*(   7) P   1                  0.00000     0.66098   
    25. RY*(   8) P   1                  0.00000    13.79604   
    26. RY*(   9) P   1                  0.00000     0.58399   
    27. RY*(  10) P   1                  0.00000     0.95265   
    28. RY*(  11) P   1                  0.00000     0.73672   
    29. RY*(  12) P   1                  0.00000    13.89445   
    30. RY*(  13) P   1                  0.00000     0.61047   
    31. RY*(  14) P   1                  0.00000     1.09981   
    32. RY*(  15) P   1                  0.00000     0.80023   
    33. RY*(  16) P   1                  0.00000    13.88920   
    34. RY*(  17) P   1                  0.00000    12.62153   
    35. RY*(  18) P   1                  0.00000   157.12120   
    36. RY*(  19) P   1                  0.00000     0.82776   
    37. RY*(  20) P   1                  0.00000     1.00175   
    38. RY*(  21) P   1                  0.00000     0.91520   
    39. RY*(   1) P   2                  0.00153     0.89445   
    40. RY*(   2) P   2                  0.00058     0.74634   
    41. RY*(   3) P   2                  0.00051     0.58049   
    42. RY*(   4) P   2                  0.00005     0.71721   
    43. RY*(   5) P   2                  0.00000     0.70981   
    44. RY*(   6) P   2                  0.00000     1.04027   
    45. RY*(   7) P   2                  0.00000     0.66098   
    46. RY*(   8) P   2                  0.00000    13.79604   
    47. RY*(   9) P   2                  0.00000     0.58394   
    48. RY*(  10) P   2                  0.00000     0.95266   
    49. RY*(  11) P   2                  0.00000     0.73674   
    50. RY*(  12) P   2                  0.00000    13.89445   
    51. RY*(  13) P   2                  0.00000     0.61048   
    52. RY*(  14) P   2                  0.00000     1.09979   
    53. RY*(  15) P   2                  0.00000     0.80024   
    54. RY*(  16) P   2                  0.00000    13.88920   
    55. RY*(  17) P   2                  0.00000    12.62150   
    56. RY*(  18) P   2                  0.00000   157.12122   
    57. RY*(  19) P   2                  0.00000     0.82773   
    58. RY*(  20) P   2                  0.00000     1.00176   
    59. RY*(  21) P   2                  0.00000     0.91520   
    60. RY*(   1) H   3                  0.00074     0.53553   
    61. RY*(   2) H   3                  0.00027     1.85619   
    62. RY*(   3) H   3                  0.00008     1.46138   
    63. RY*(   4) H   3                  0.00004     1.91955   
    64. RY*(   5) H   3                  0.00000     1.92116   
    65. RY*(   1) H   4                  0.00074     0.53553   
    66. RY*(   2) H   4                  0.00027     1.85620   
    67. RY*(   3) H   4                  0.00008     1.46138   
    68. RY*(   4) H   4                  0.00004     1.91955   
    69. RY*(   5) H   4                  0.00000     1.92116   
    70. RY*(   1) H   5                  0.00062     0.55252   
    71. RY*(   2) H   5                  0.00026     1.79567   
    72. RY*(   3) H   5                  0.00011     1.48481   
    73. RY*(   4) H   5                  0.00004     1.89026   
    74. RY*(   5) H   5                  0.00001     1.96976   
    75. RY*(   1) H   6                  0.00062     0.55252   
    76. RY*(   2) H   6                  0.00026     1.79567   
    77. RY*(   3) H   6                  0.00011     1.48482   
    78. RY*(   4) H   6                  0.00004     1.89026   
    79. RY*(   5) H   6                  0.00001     1.96976   
    80. BD*(   1) P   1 - P   2          0.00381     0.10115   
    81. BD*(   1) P   1 - H   4          0.00615     0.22561   
    82. BD*(   1) P   1 - H   6          0.00717     0.22700   
    83. BD*(   1) P   2 - H   3          0.00615     0.22561   
    84. BD*(   1) P   2 - H   5          0.00717     0.22701   
       -------------------------------
              Total Lewis   16.95985  ( 99.7638%)
        Valence non-Lewis    0.03044  (  0.1791%)
        Rydberg non-Lewis    0.00971  (  0.0571%)
       -------------------------------
            Total unit  1   17.00000  (100.0000%)
           Charge unit  1    0.00000
 Sorting of NBOs:                   11    6    7   12   13    8   14    9   15   10
 Sorting of NBOs:                    5    3    2    4    1   17   16   80   83   81
 Sorting of NBOs:                   82   84   65   60   70   75   41   20   47   26
 Sorting of NBOs:                   30   51   24   45   43   22   42   21   28   49
 Sorting of NBOs:                   19   40   32   53   57   36   39   18   59   38
 Sorting of NBOs:                   27   48   37   58   23   44   52   31   62   67
 Sorting of NBOs:                   72   77   76   71   61   66   78   73   68   63
 Sorting of NBOs:                   69   64   79   74   55   34   25   46   33   54
 Sorting of NBOs:                   50   29   35   56
 Reordering of NBOs for storage:    11    6    7   12   13    8   14    9   15   10
 Reordering of NBOs for storage:     5    3    2    4    1   17   16   80   83   81
 Reordering of NBOs for storage:    82   84   65   60   70   75   41   20   47   26
 Reordering of NBOs for storage:    30   51   24   45   43   22   42   21   28   49
 Reordering of NBOs for storage:    19   40   32   53   57   36   39   18   59   38
 Reordering of NBOs for storage:    27   48   37   58   23   44   52   31   62   67
 Reordering of NBOs for storage:    72   77   76   71   61   66   78   73   68   63
 Reordering of NBOs for storage:    69   64   79   74   55   34   25   46   33   54
 Reordering of NBOs for storage:    50   29   35   56
 Labels of output orbitals:  CR  CR  CR  CR  CR  CR  CR  CR  CR  CR  BD  BD  BD  BD  BD  LP  LP  BD* BD* BD* 
 Labels of output orbitals:  BD* BD* RY* RY* RY* RY* RY* RY* RY* RY* RY* RY* RY* RY* RY* RY* RY* RY* RY* RY* 
 Labels of output orbitals:  RY* RY* RY* RY* RY* RY* RY* RY* RY* RY* RY* RY* RY* RY* RY* RY* RY* RY* RY* RY* 
 Labels of output orbitals:  RY* RY* RY* RY* RY* RY* RY* RY* RY* RY* RY* RY* RY* RY* RY* RY* RY* RY* RY* RY* 
 Labels of output orbitals:  RY* RY* RY* RY* 
 GSVD:  LWork=       -5025 too small for GESVD, short by       23450 words or       23450 for optimal perf.
 Leave Link  607 at Wed Apr 16 06:13:25 2025, MaxMem=   536870912 cpu:               6.7 elap:               1.5
 (Enter /home/szhao/Apps/g16/l701.exe)
 ... and contract with generalized density number  0.
 Compute integral first derivatives.
 Leave Link  701 at Wed Apr 16 06:13:26 2025, MaxMem=   536870912 cpu:               2.7 elap:               0.7
 (Enter /home/szhao/Apps/g16/l702.exe)
 L702 exits ... SP integral derivatives will be done elsewhere.
 Leave Link  702 at Wed Apr 16 06:13:26 2025, MaxMem=   536870912 cpu:               0.4 elap:               0.1
 (Enter /home/szhao/Apps/g16/l703.exe)
 Integral derivatives from FoFJK, PRISM(SPDF).
 Compute integral first derivatives, UseDBF=F ICtDFT=           0.
 Calling FoFJK, ICntrl=      2127 FMM=F ISym2X=0 I1Cent= 0 IOpClX= 1 NMat=1 NMatS=1 NMatT=0.
 FoFJK:  IHMeth= 1 ICntrl=    2127 DoSepK=F KAlg= 0 I1Cent=           0 FoldK=F
 IRaf=         0 NMat=       1 IRICut=       1 DoRegI=T DoRafI=F ISym2E= 0 IDoP0=0 IntGTp=1.
 FoFCou: FMM=F IPFlag=           0 FMFlag=      100000 FMFlg1=         800
         NFxFlg=           0 DoJE=F BraDBF=F KetDBF=F FulRan=T
         wScrn=  0.000000 ICntrl=      2127 IOpCl=  1 I1Cent=           0 NGrid=           0
         NMat0=    1 NMatS0=      1 NMatT0=    0 NMatD0=    1 NMtDS0=    0 NMtDT0=    0
 Symmetry not used in FoFCou.
 Leave Link  703 at Wed Apr 16 06:13:29 2025, MaxMem=   536870912 cpu:              13.0 elap:               3.1
 (Enter /home/szhao/Apps/g16/l716.exe)
 Dipole        = 6.45446907D-07 2.04433616D-05 5.40122123D-01
 ***** Axes restored to original set *****
 -------------------------------------------------------------------
 Center     Atomic                   Forces (Hartrees/Bohr)
 Number     Number              X              Y              Z
 -------------------------------------------------------------------
      1       15           0.000127727   -0.000088715   -0.000021755
      2       15          -0.000128139    0.000084640   -0.000032664
      3        1          -0.000079934   -0.000008145    0.000026632
      4        1           0.000080324    0.000011737    0.000025134
      5        1           0.000015816    0.000017727    0.000000093
      6        1          -0.000015795   -0.000017244    0.000002560
 -------------------------------------------------------------------
 Cartesian Forces:  Max     0.000128139 RMS     0.000060006
 Z-matrix is all fixed cartesians, so copy forces.
 Force constants in Cartesian coordinates: 
                1             2             3             4             5 
      1  0.226560D+00
      2 -0.290740D-02  0.254599D+00
      3  0.246153D-01 -0.543175D-02  0.254425D+00
      4 -0.173392D+00 -0.129509D-01 -0.139126D-01  0.226560D+00
      5 -0.111061D-01 -0.213105D-01 -0.389241D-03 -0.596545D-02  0.255946D+00
      6  0.154253D-01  0.281991D-03 -0.221591D-01 -0.240570D-01  0.524093D-02
      7  0.000000D+00  0.141315D-01  0.000000D+00 -0.247697D-01  0.539654D-02
      8  0.000000D+00  0.117158D-02  0.000000D+00  0.155899D-01 -0.212365D+00
      9  0.000000D+00 -0.397611D-03 -0.228916D-03  0.595937D-02 -0.215283D-01
     10 -0.247701D-01  0.483725D-02 -0.478670D-02  0.000000D+00  0.140202D-01
     11  0.147227D-01 -0.206775D+00  0.227477D-01  0.000000D+00  0.119918D-02
     12 -0.786577D-02  0.446195D-01 -0.294697D-01  0.000000D+00  0.217310D-03
     13  0.000000D+00 -0.118061D-02  0.139126D-01 -0.283977D-01  0.568912D-03
     14  0.000000D+00  0.488115D-03  0.681563D-04  0.332646D-02 -0.240000D-01
     15  0.000000D+00 -0.162495D-03  0.240879D-02  0.320102D-01  0.160596D-01
     16 -0.283977D-01 -0.192985D-02 -0.198286D-01  0.000000D+00 -0.291408D-02
     17 -0.709220D-03 -0.281734D-01 -0.169949D-01  0.000000D+00  0.529980D-03
     18 -0.321748D-01 -0.389096D-01 -0.204976D+00  0.000000D+00  0.399713D-03
                6             7             8             9            10 
      6  0.253078D+00
      7  0.414304D-02  0.243977D-01
      8  0.343483D-03 -0.156207D-01  0.211517D+00
      9 -0.238796D-01 -0.387573D-02 -0.321321D-03  0.223578D-01
     10 -0.177010D-02  0.000000D+00  0.000000D+00  0.000000D+00  0.243980D-01
     11 -0.180303D-03  0.000000D+00  0.000000D+00  0.406215D-04 -0.150144D-01
     12 -0.256348D-03  0.000000D+00  0.000000D+00  0.321745D-03  0.580214D-02
     13  0.199139D-01  0.371999D-03  0.308410D-04 -0.208364D-02  0.000000D+00
     14 -0.585516D-02 -0.390732D-02 -0.323940D-03  0.218862D-01  0.000000D+00
     15 -0.209150D+00 -0.267319D-03 -0.221624D-04  0.149735D-02  0.000000D+00
     16 -0.136551D-01  0.000000D+00  0.000000D+00  0.000000D+00  0.372049D-03
     17  0.169065D-03  0.000000D+00  0.000000D+00  0.320447D-03 -0.384308D-02
     18  0.236693D-02  0.000000D+00  0.000000D+00 -0.683851D-04  0.754662D-03
               11            12            13            14            15 
     11  0.208629D+00
     12 -0.231961D-01  0.252459D-01
     13  0.000000D+00  0.000000D+00  0.280257D-01
     14 -0.408959D-04 -0.323918D-03  0.580855D-03  0.241993D-01
     15 -0.347039D-05 -0.274874D-04 -0.317429D-01 -0.158441D-01  0.205265D+00
     16  0.291635D-03  0.206363D-02  0.000000D+00  0.000000D+00  0.000000D+00
     17 -0.301251D-02 -0.213167D-01  0.000000D+00 -0.322611D-03 -0.273765D-04
     18  0.591564D-03  0.418596D-02  0.000000D+00  0.688469D-04  0.584229D-05
               16            17            18 
     16  0.280257D-01
     17  0.455230D-02  0.309786D-01
     18  0.314201D-01  0.378495D-01  0.198485D+00
 Leave Link  716 at Wed Apr 16 06:13:29 2025, MaxMem=   536870912 cpu:               0.3 elap:               0.1
 (Enter /home/szhao/Apps/g16/l103.exe)

 GradGradGradGradGradGradGradGradGradGradGradGradGradGradGradGradGradGrad
 Berny optimization.
 Search for a local minimum.
 Step number   1 out of a maximum of    2
 All quantities printed in internal units (Hartrees-Bohrs-Radians)
 Second derivative matrix not updated -- first step.
 The second derivative matrix:
                          X1        Y1        Z1        X2        Y2
           X1           0.22656
           Y1          -0.00291   0.25460
           Z1           0.02462  -0.00543   0.25442
           X2          -0.17339  -0.01295  -0.01391   0.22656
           Y2          -0.01111  -0.02131  -0.00039  -0.00597   0.25595
           Z2           0.01543   0.00028  -0.02216  -0.02406   0.00524
           X3          -0.00000   0.01413   0.00000  -0.02477   0.00540
           Y3           0.00000   0.00117   0.00000   0.01559  -0.21236
           Z3           0.00000  -0.00040  -0.00023   0.00596  -0.02153
           X4          -0.02477   0.00484  -0.00479  -0.00000   0.01402
           Y4           0.01472  -0.20678   0.02275   0.00000   0.00120
           Z4          -0.00787   0.04462  -0.02947  -0.00000   0.00022
           X5          -0.00000  -0.00118   0.01391  -0.02840   0.00057
           Y5          -0.00000   0.00049   0.00007   0.00333  -0.02400
           Z5          -0.00000  -0.00016   0.00241   0.03201   0.01606
           X6          -0.02840  -0.00193  -0.01983   0.00000  -0.00291
           Y6          -0.00071  -0.02817  -0.01699  -0.00000   0.00053
           Z6          -0.03217  -0.03891  -0.20498   0.00000   0.00040
                          Z2        X3        Y3        Z3        X4
           Z2           0.25308
           X3           0.00414   0.02440
           Y3           0.00034  -0.01562   0.21152
           Z3          -0.02388  -0.00388  -0.00032   0.02236
           X4          -0.00177  -0.00000  -0.00000   0.00000   0.02440
           Y4          -0.00018   0.00000  -0.00000   0.00004  -0.01501
           Z4          -0.00026   0.00000  -0.00000   0.00032   0.00580
           X5           0.01991   0.00037   0.00003  -0.00208   0.00000
           Y5          -0.00586  -0.00391  -0.00032   0.02189  -0.00000
           Z5          -0.20915  -0.00027  -0.00002   0.00150  -0.00000
           X6          -0.01366   0.00000  -0.00000   0.00000   0.00037
           Y6           0.00017   0.00000   0.00000   0.00032  -0.00384
           Z6           0.00237  -0.00000   0.00000  -0.00007   0.00075
                          Y4        Z4        X5        Y5        Z5
           Y4           0.20863
           Z4          -0.02320   0.02525
           X5          -0.00000  -0.00000   0.02803
           Y5          -0.00004  -0.00032   0.00058   0.02420
           Z5          -0.00000  -0.00003  -0.03174  -0.01584   0.20527
           X6           0.00029   0.00206  -0.00000   0.00000   0.00000
           Y6          -0.00301  -0.02132  -0.00000  -0.00032  -0.00003
           Z6           0.00059   0.00419   0.00000   0.00007   0.00001
                          X6        Y6        Z6
           X6           0.02803
           Y6           0.00455   0.03098
           Z6           0.03142   0.03785   0.19849
 ITU=  0
     Eigenvalues ---    0.00168   0.02062   0.02492   0.03365   0.05580
     Eigenvalues ---    0.06168   0.06581   0.29964   0.32408   0.34171
     Eigenvalues ---    0.35142   0.42519
 Angle between quadratic step and forces=  58.18 degrees.
 Linear search not attempted -- first point.
 B after Tr=    -0.000002   -0.000032   -0.000497
         Rot=    1.000000   -0.000000   -0.000009   -0.000140 Ang=  -0.02 deg.
 Variable       Old X    -DE/DX   Delta X   Delta X   Delta X     New X
                                 (Linear)    (Quad)   (Total)
    X1       -2.11123   0.00013   0.00000   0.00055   0.00055  -2.11068
    Y1        0.00000  -0.00009   0.00000  -0.00113  -0.00175  -0.00175
    Z1        0.00000  -0.00002   0.00000  -0.00045  -0.00091  -0.00091
    X2        2.11123  -0.00013   0.00000  -0.00055  -0.00056   2.11068
    Y2       -0.00000   0.00008   0.00000   0.00106   0.00162   0.00162
    Z2        0.00000  -0.00003   0.00000  -0.00059  -0.00112  -0.00112
    X3        2.33202  -0.00008   0.00000  -0.00252  -0.00178   2.33024
    Y3       -2.66312  -0.00001   0.00000   0.00089   0.00151  -2.66161
    Z3       -0.00000   0.00003   0.00000   0.00280   0.00226   0.00226
    X4       -2.33205   0.00008   0.00000   0.00254   0.00179  -2.33026
    Y4        2.64214   0.00001   0.00000  -0.00053  -0.00122   2.64093
    Z4       -0.33358   0.00003   0.00000   0.00288   0.00242  -0.33116
    X5        2.56486   0.00002   0.00000   0.00001  -0.00010   2.56476
    Y5        0.22287   0.00002   0.00000  -0.00156  -0.00088   0.22199
    Z5       -2.62635   0.00000   0.00000  -0.00073  -0.00127  -2.62762
    X6       -2.56486  -0.00002   0.00000  -0.00002   0.00009  -2.56477
    Y6       -0.55010  -0.00002   0.00000   0.00146   0.00072  -0.54939
    Z6       -2.57774   0.00000   0.00000  -0.00092  -0.00137  -2.57912
         Item               Value     Threshold  Converged?
 Maximum Force            0.000128     0.000450     YES
 RMS     Force            0.000060     0.000300     YES
 Maximum Displacement     0.002423     0.001800     NO 
 RMS     Displacement     0.001380     0.001200     NO 
 Predicted change in Energy=-4.139097D-07
 GradGradGradGradGradGradGradGradGradGradGradGradGradGradGradGradGradGrad

 Leave Link  103 at Wed Apr 16 06:13:30 2025, MaxMem=   536870912 cpu:               0.2 elap:               0.1
 (Enter /home/szhao/Apps/g16/l9999.exe)
 1\1\GINC-NODE01\Force\UM062X\6-311+G(d,p)\H4P2\SZHAO\16-Apr-2025\0\\#p
  UM062X/6-311+G** force int=superfine pop=saveNBO\\Title Card Required
 \\0,1\P,-1.11721652,0.,0.\P,1.11721652,0.,0.\H,1.23405294,-1.4092642,0
 .\H,-1.23406894,1.39816272,-0.17652327\H,1.35726494,0.11793735,-1.3898
 021\H,-1.35726503,-0.29110265,-1.36408209\\Version=ES64L-G16RevA.03\St
 ate=1-A\HF=-685.0572461\S2=0.\S2-1=0.\S2A=0.\RMSD=3.690e-09\RMSF=6.001
 e-05\Dipole=0.0000008,-0.0338923,-0.5390577\Quadrupole=-0.9673505,0.94
 84728,0.0188776,-1.5781866,0.0992331,-0.0586695\PG=C01 [X(H4P2)]\\@


 THE BEST WAY TO CONVINCE A FOOL THAT HE IS WRONG 
 IS TO LET HIM HAVE HIS OWN WAY.

                                         JOSH BILLINGS
 Job cpu time:       0 days  0 hours  2 minutes  6.0 seconds.
 Elapsed time:       0 days  0 hours  0 minutes 28.7 seconds.
 File lengths (MBytes):  RWF=     10 Int=      0 D2E=      0 Chk=      2 Scr=      1
 Normal termination of Gaussian 16 at Wed Apr 16 06:13:30 2025.
