 Entering Gaussian System, Link 0=g16
 Initial command:
 /home/szhao/Apps/g16/l1.exe "/home/szhao/tmp/Gau-65573.inp" -scrdir="/home/szhao/tmp/"
 Default is to use a total of  16 processors:
                               16 via shared-memory
                                1 via Linda
 Entering Link 1 = /home/szhao/Apps/g16/l1.exe PID=     65575.
  
 Copyright (c) 1988,1990,1992,1993,1995,1998,2003,2009,2016,
            Gaussian, Inc.  All Rights Reserved.
  
 This is part of the Gaussian(R) 16 program.  It is based on
 the Gaussian(R) 09 system (copyright 2009, Gaussian, Inc.),
 the Gaussian(R) 03 system (copyright 2003, Gaussian, Inc.),
 the Gaussian(R) 98 system (copyright 1998, Gaussian, Inc.),
 the Gaussian(R) 94 system (copyright 1995, Gaussian, Inc.),
 the Gaussian 92(TM) system (copyright 1992, Gaussian, Inc.),
 the Gaussian 90(TM) system (copyright 1990, Gaussian, Inc.),
 the Gaussian 88(TM) system (copyright 1988, Gaussian, Inc.),
 the Gaussian 86(TM) system (copyright 1986, Carnegie Mellon
 University), and the Gaussian 82(TM) system (copyright 1983,
 Carnegie Mellon University). Gaussian is a federally registered
 trademark of Gaussian, Inc.
  
 This software contains proprietary and confidential information,
 including trade secrets, belonging to Gaussian, Inc.
  
 This software is provided under written license and may be
 used, copied, transmitted, or stored only in accord with that
 written license.
  
 The following legend is applicable only to US Government
 contracts under FAR:
  
                    RESTRICTED RIGHTS LEGEND
  
 Use, reproduction and disclosure by the US Government is
 subject to restrictions as set forth in subparagraphs (a)
 and (c) of the Commercial Computer Software - Restricted
 Rights clause in FAR 52.227-19.
  
 Gaussian, Inc.
 340 Quinnipiac St., Bldg. 40, Wallingford CT 06492
  
  
 ---------------------------------------------------------------
 Warning -- This program may not be used in any manner that
 competes with the business of Gaussian, Inc. or will provide
 assistance to any competitor of Gaussian, Inc.  The licensee
 of this program is prohibited from giving any competitor of
 Gaussian, Inc. access to this program.  By using this program,
 the user acknowledges that Gaussian, Inc. is engaged in the
 business of creating and licensing software in the field of
 computational chemistry and represents and warrants to the
 licensee that it is not a competitor of Gaussian, Inc. and that
 it will not use this program in any manner prohibited above.
 ---------------------------------------------------------------
  

 Cite this work as:
 Gaussian 16, Revision A.03,
 M. J. Frisch, G. W. Trucks, H. B. Schlegel, G. E. Scuseria, 
 M. A. Robb, J. R. Cheeseman, G. Scalmani, V. Barone, 
 G. A. Petersson, H. Nakatsuji, X. Li, M. Caricato, A. V. Marenich, 
 J. Bloino, B. G. Janesko, R. Gomperts, B. Mennucci, H. P. Hratchian, 
 J. V. Ortiz, A. F. Izmaylov, J. L. Sonnenberg, D. Williams-Young, 
 F. Ding, F. Lipparini, F. Egidi, J. Goings, B. Peng, A. Petrone, 
 T. Henderson, D. Ranasinghe, V. G. Zakrzewski, J. Gao, N. Rega, 
 G. Zheng, W. Liang, M. Hada, M. Ehara, K. Toyota, R. Fukuda, 
 J. Hasegawa, M. Ishida, T. Nakajima, Y. Honda, O. Kitao, H. Nakai, 
 T. Vreven, K. Throssell, J. A. Montgomery, Jr., J. E. Peralta, 
 F. Ogliaro, M. J. Bearpark, J. J. Heyd, E. N. Brothers, K. N. Kudin, 
 V. N. Staroverov, T. A. Keith, R. Kobayashi, J. Normand, 
 K. Raghavachari, A. P. Rendell, J. C. Burant, S. S. Iyengar, 
 J. Tomasi, M. Cossi, J. M. Millam, M. Klene, C. Adamo, R. Cammi, 
 J. W. Ochterski, R. L. Martin, K. Morokuma, O. Farkas, 
 J. B. Foresman, and D. J. Fox, Gaussian, Inc., Wallingford CT, 2016.
 
 ******************************************
 Gaussian 16:  ES64L-G16RevA.03 25-Dec-2016
                 3-Dec-2024 
 ******************************************
 %chk=opt.chk
 %mem=4GB
 %nprocshared=8
 Will use up to    8 processors via shared memory.
 --------------------------------------------
 #p opt UM062X/6-311+G** nosymm int=superfine
 --------------------------------------------
 1/18=20,19=15,26=5,38=1/1,3;
 2/9=110,12=2,15=1,17=6,18=5,40=1/2;
 3/5=4,6=6,7=111,11=2,25=1,30=1,71=1,74=-55,75=-7,116=2/1,2,3;
 4//1;
 5/5=2,38=5/2;
 6/7=2,8=2,9=2,10=2,28=1/1;
 7/30=1/1,2,3,16;
 1/18=20,19=15,26=5/3(2);
 2/9=110,15=1/2;
 99//99;
 2/9=110,15=1/2;
 3/5=4,6=6,7=111,11=2,25=1,30=1,71=1,74=-55,75=-7,116=2/1,2,3;
 4/5=5,16=3,69=1/1;
 5/5=2,38=5/2;
 7/30=1/1,2,3,16;
 1/18=20,19=15,26=5/3(-5);
 2/9=110,15=1/2;
 6/7=2,8=2,9=2,10=2,19=2,28=1/1;
 99/9=1/99;
 Leave Link    1 at Tue Dec  3 20:03:25 2024, MaxMem=   536870912 cpu:               0.3 elap:               0.0
 (Enter /home/szhao/Apps/g16/l101.exe)
 -------------------
 Title Card Required
 -------------------
 Symbolic Z-matrix:
 Charge =  0 Multiplicity = 1
 C                    -1   -0.61647   0.        0. 
 C                    -1    0.61647   0.        0. 
 H                    0    -1.71281   0.        0. 
 H                    0     1.7128    0.        0. 
 
 ITRead=  2  2  0  0
 MicOpt= -2 -2 -1 -1
 NAtoms=      4 NQM=        2 NQMF=       2 NMMI=      0 NMMIF=      0
                NMic=       0 NMicF=      0.
                    Isotopes and Nuclear Properties:
 (Nuclear quadrupole moments (NQMom) in fm**2, nuclear magnetic moments (NMagM)
  in nuclear magnetons)

  Atom         1           2           3           4
 IAtWgt=          12          12           1           1
 AtmWgt=  12.0000000  12.0000000   1.0078250   1.0078250
 NucSpn=           0           0           1           1
 AtZEff=  -0.0000000  -0.0000000  -0.0000000  -0.0000000
 NQMom=    0.0000000   0.0000000   0.0000000   0.0000000
 NMagM=    0.0000000   0.0000000   2.7928460   2.7928460
 AtZNuc=   6.0000000   6.0000000   1.0000000   1.0000000
 Leave Link  101 at Tue Dec  3 20:03:26 2024, MaxMem=   536870912 cpu:               1.8 elap:               0.2
 (Enter /home/szhao/Apps/g16/l103.exe)

 GradGradGradGradGradGradGradGradGradGradGradGradGradGradGradGradGradGrad
 Berny optimization.
 Initialization pass.
                           ----------------------------
                           !    Initial Parameters    !
                           ! (Angstroms and Degrees)  !
 --------------------------                            --------------------------
 ! Name  Definition              Value          Derivative Info.                !
 --------------------------------------------------------------------------------
 ! X1    R(1,-1)                -0.6165         Frozen                          !
 ! Y1    R(1,-2)                 0.0            Frozen                          !
 ! Z1    R(1,-3)                 0.0            Frozen                          !
 ! X2    R(2,-1)                 0.6165         Frozen                          !
 ! Y2    R(2,-2)                 0.0            Frozen                          !
 ! Z2    R(2,-3)                 0.0            Frozen                          !
 ! R1    R(1,3)                  1.0963         estimate D2E/DX2                !
 ! R2    R(2,4)                  1.0963         estimate D2E/DX2                !
 ! A1    L(2,1,3,-2,-1)        180.0            estimate D2E/DX2                !
 ! A2    L(1,2,4,-2,-1)        180.0            estimate D2E/DX2                !
 ! A3    L(2,1,3,-3,-2)        180.0            estimate D2E/DX2                !
 ! A4    L(1,2,4,-3,-2)        180.0            estimate D2E/DX2                !
 --------------------------------------------------------------------------------
 Trust Radius=3.00D-01 FncErr=1.00D-07 GrdErr=1.00D-07 EigMax=2.50D+02 EigMin=1.00D-04
 Number of steps in this run=     22 maximum allowed number of steps=    100.
 GradGradGradGradGradGradGradGradGradGradGradGradGradGradGradGradGradGrad

 Leave Link  103 at Tue Dec  3 20:03:26 2024, MaxMem=   536870912 cpu:               0.1 elap:               0.0
 (Enter /home/szhao/Apps/g16/l202.exe)
                          Input orientation:                          
 ---------------------------------------------------------------------
 Center     Atomic      Atomic             Coordinates (Angstroms)
 Number     Number       Type             X           Y           Z
 ---------------------------------------------------------------------
      1          6           0       -0.616471    0.000000    0.000000
      2          6           0        0.616471    0.000000    0.000000
      3          1           0       -1.712812    0.000000    0.000000
      4          1           0        1.712796    0.000000    0.000000
 ---------------------------------------------------------------------
                    Distance matrix (angstroms):
                    1          2          3          4
     1  C    0.000000
     2  C    1.232942   0.000000
     3  H    1.096341   2.329283   0.000000
     4  H    2.329267   1.096325   3.425608   0.000000
 Symmetry turned off by external request.
 Stoichiometry    C2H2
 Framework group  C*V[C*(HCCH)]
 Deg. of freedom     3
 Full point group                 C*V     NOp   4
 Rotational constants (GHZ):           0.0000000          33.6153307          33.6153307
 Leave Link  202 at Tue Dec  3 20:03:26 2024, MaxMem=   536870912 cpu:               0.0 elap:               0.0
 (Enter /home/szhao/Apps/g16/l301.exe)
 Standard basis: 6-311+G(d,p) (5D, 7F)
 Ernie: Thresh=  0.10000D-02 Tol=  0.10000D-05 Strict=F.
    56 basis functions,    88 primitive gaussians,    58 cartesian basis functions
     7 alpha electrons        7 beta electrons
       nuclear repulsion energy        24.1240098200 Hartrees.
 IExCor= 4336 DFT=T Ex+Corr=M062X ExCW=0 ScaHFX=  0.540000
 ScaDFX=  1.000000  1.000000  1.000000  1.000000 ScalE2=  1.000000  1.000000
 IRadAn=      7 IRanWt=     -1 IRanGd=            0 ICorTp=0 IEmpDi=  4
 NAtoms=    4 NActive=    4 NUniq=    4 SFac= 1.00D+00 NAtFMM=   60 NAOKFM=F Big=F
 Integral buffers will be    131072 words long.
 Raffenetti 2 integral format.
 Two-electron integral symmetry is turned off.
 Leave Link  301 at Tue Dec  3 20:03:26 2024, MaxMem=   536870912 cpu:               0.3 elap:               0.0
 (Enter /home/szhao/Apps/g16/l302.exe)
 NPDir=0 NMtPBC=     1 NCelOv=     1 NCel=       1 NClECP=     1 NCelD=      1
         NCelK=      1 NCelE2=     1 NClLst=     1 CellRange=     0.0.
 One-electron integrals computed using PRISM.
 GSVD:  received Info=                   1 from GESDD.
 NBasis=    56 RedAO= T EigKep=  1.16D-04  NBF=    56
 NBsUse=    56 1.00D-06 EigRej= -1.00D+00 NBFU=    56
 Precomputing XC quadrature grid using
 IXCGrd= 4 IRadAn=           7 IRanWt=          -1 IRanGd=           0 AccXCQ= 0.00D+00.
 Generated NRdTot=       0 NPtTot=           0 NUsed=           0 NTot=          32
 NSgBfM=    58    58    58    58    58 MxSgAt=     4 MxSgA2=     4.
 Leave Link  302 at Tue Dec  3 20:03:26 2024, MaxMem=   536870912 cpu:               1.0 elap:               0.1
 (Enter /home/szhao/Apps/g16/l303.exe)
 DipDrv:  MaxL=1.
 Leave Link  303 at Tue Dec  3 20:03:26 2024, MaxMem=   536870912 cpu:               0.3 elap:               0.0
 (Enter /home/szhao/Apps/g16/l401.exe)
 ExpMin= 4.38D-02 ExpMax= 4.56D+03 ExpMxC= 6.82D+02 IAcc=3 IRadAn=         7 AccDes= 0.00D+00
 Harris functional with IExCor= 1009 and IRadAn=       7 diagonalized for initial guess.
 HarFok:  IExCor= 1009 AccDes= 0.00D+00 IRadAn=         7 IDoV= 1 UseB2=F ITyADJ=14
 ICtDFT=  3500011 ScaDFX=  1.000000  1.000000  1.000000  1.000000
 FoFCou: FMM=F IPFlag=           0 FMFlag=      100000 FMFlg1=           0
         NFxFlg=           0 DoJE=T BraDBF=F KetDBF=T FulRan=T
         wScrn=  0.000000 ICntrl=       500 IOpCl=  0 I1Cent=   200000004 NGrid=           0
         NMat0=    1 NMatS0=      1 NMatT0=    0 NMatD0=    1 NMtDS0=    0 NMtDT0=    0
 Symmetry not used in FoFCou.
 Harris En= -77.3002179788405    
 JPrj=0 DoOrth=F DoCkMO=F.
 Initial guess <Sx>= 0.0000 <Sy>= 0.0000 <Sz>= 0.0000 <S**2>=-0.0000 S=-0.0000
 Leave Link  401 at Tue Dec  3 20:03:26 2024, MaxMem=   536870912 cpu:               1.7 elap:               0.2
 (Enter /home/szhao/Apps/g16/l502.exe)
 Keep R1 and R2 ints in memory in canonical form, NReq=9624198.
 FoFCou: FMM=F IPFlag=           0 FMFlag=           0 FMFlg1=           0
         NFxFlg=           0 DoJE=F BraDBF=F KetDBF=F FulRan=T
         wScrn=  0.000000 ICntrl=       600 IOpCl=  0 I1Cent=           0 NGrid=           0
         NMat0=    1 NMatS0=   1596 NMatT0=    0 NMatD0=    1 NMtDS0=    0 NMtDT0=    0
 Symmetry not used in FoFCou.
 Two-electron integral symmetry not used.
 UHF open shell SCF:
 Using DIIS extrapolation, IDIIS=  1040.
 NGot=   536870912 LenX=   534314338 LenY=   534310533
 Requested convergence on RMS density matrix=1.00D-08 within 128 cycles.
 Requested convergence on MAX density matrix=1.00D-06.
 Requested convergence on             energy=1.00D-06.
 No special actions if energy rises.

 Cycle   1  Pass 1  IDiag  1:
 E= -77.2402971548767    
 DIIS: error= 5.77D-02 at cycle   1 NSaved=   1.
 NSaved= 1 IEnMin= 1 EnMin= -77.2402971548767     IErMin= 1 ErrMin= 5.77D-02
 ErrMax= 5.77D-02  0.00D+00 EMaxC= 1.00D-01 BMatC= 3.06D-01 BMatP= 3.06D-01
 IDIUse=3 WtCom= 4.23D-01 WtEn= 5.77D-01
 Coeff-Com:  0.100D+01
 Coeff-En:   0.100D+01
 Coeff:      0.100D+01
 Gap=     0.401 Goal=   None    Shift=    0.000
 Gap=     0.401 Goal=   None    Shift=    0.000
 GapD=    0.401 DampG=2.000 DampE=0.500 DampFc=1.0000 IDamp=-1.
 RMSDP=5.68D-03 MaxDP=7.97D-02              OVMax= 1.50D-01

 Cycle   2  Pass 1  IDiag  1:
 E= -77.2737649343437     Delta-E=       -0.033467779467 Rises=F Damp=F
 DIIS: error= 4.52D-02 at cycle   2 NSaved=   2.
 NSaved= 2 IEnMin= 2 EnMin= -77.2737649343437     IErMin= 2 ErrMin= 4.52D-02
 ErrMax= 4.52D-02  0.00D+00 EMaxC= 1.00D-01 BMatC= 1.44D-01 BMatP= 3.06D-01
 IDIUse=3 WtCom= 5.48D-01 WtEn= 4.52D-01
 Coeff-Com:  0.403D+00 0.597D+00
 Coeff-En:   0.310D+00 0.690D+00
 Coeff:      0.361D+00 0.639D+00
 Gap=     0.389 Goal=   None    Shift=    0.000
 Gap=     0.389 Goal=   None    Shift=    0.000
 RMSDP=2.44D-03 MaxDP=4.04D-02 DE=-3.35D-02 OVMax= 7.24D-02

 Cycle   3  Pass 1  IDiag  1:
 E= -77.3118024885209     Delta-E=       -0.038037554177 Rises=F Damp=F
 DIIS: error= 5.98D-03 at cycle   3 NSaved=   3.
 NSaved= 3 IEnMin= 3 EnMin= -77.3118024885209     IErMin= 3 ErrMin= 5.98D-03
 ErrMax= 5.98D-03  0.00D+00 EMaxC= 1.00D-01 BMatC= 2.48D-03 BMatP= 1.44D-01
 IDIUse=3 WtCom= 9.40D-01 WtEn= 5.98D-02
 Coeff-Com: -0.364D-02 0.111D+00 0.892D+00
 Coeff-En:   0.000D+00 0.000D+00 0.100D+01
 Coeff:     -0.343D-02 0.105D+00 0.899D+00
 Gap=     0.378 Goal=   None    Shift=    0.000
 Gap=     0.378 Goal=   None    Shift=    0.000
 RMSDP=3.17D-04 MaxDP=4.60D-03 DE=-3.80D-02 OVMax= 8.08D-03

 Cycle   4  Pass 1  IDiag  1:
 E= -77.3124454147562     Delta-E=       -0.000642926235 Rises=F Damp=F
 DIIS: error= 1.46D-04 at cycle   4 NSaved=   4.
 NSaved= 4 IEnMin= 4 EnMin= -77.3124454147562     IErMin= 4 ErrMin= 1.46D-04
 ErrMax= 1.46D-04  0.00D+00 EMaxC= 1.00D-01 BMatC= 2.10D-06 BMatP= 2.48D-03
 IDIUse=3 WtCom= 9.99D-01 WtEn= 1.46D-03
 Coeff-Com: -0.107D-02-0.579D-02-0.654D-02 0.101D+01
 Coeff-En:   0.000D+00 0.000D+00 0.000D+00 0.100D+01
 Coeff:     -0.107D-02-0.579D-02-0.653D-02 0.101D+01
 Gap=     0.378 Goal=   None    Shift=    0.000
 Gap=     0.378 Goal=   None    Shift=    0.000
 RMSDP=2.53D-05 MaxDP=3.41D-04 DE=-6.43D-04 OVMax= 3.91D-04

 Cycle   5  Pass 1  IDiag  1:
 E= -77.3124461299846     Delta-E=       -0.000000715228 Rises=F Damp=F
 DIIS: error= 1.02D-05 at cycle   5 NSaved=   5.
 NSaved= 5 IEnMin= 5 EnMin= -77.3124461299846     IErMin= 5 ErrMin= 1.02D-05
 ErrMax= 1.02D-05  0.00D+00 EMaxC= 1.00D-01 BMatC= 1.67D-08 BMatP= 2.10D-06
 IDIUse=1 WtCom= 1.00D+00 WtEn= 0.00D+00
 Coeff-Com: -0.178D-05-0.524D-03-0.491D-02-0.153D-01 0.102D+01
 Coeff:     -0.178D-05-0.524D-03-0.491D-02-0.153D-01 0.102D+01
 Gap=     0.378 Goal=   None    Shift=    0.000
 Gap=     0.378 Goal=   None    Shift=    0.000
 RMSDP=3.87D-06 MaxDP=4.48D-05 DE=-7.15D-07 OVMax= 4.14D-05

 Cycle   6  Pass 1  IDiag  1:
 E= -77.3124461362434     Delta-E=       -0.000000006259 Rises=F Damp=F
 DIIS: error= 5.60D-06 at cycle   6 NSaved=   6.
 NSaved= 6 IEnMin= 6 EnMin= -77.3124461362434     IErMin= 6 ErrMin= 5.60D-06
 ErrMax= 5.60D-06  0.00D+00 EMaxC= 1.00D-01 BMatC= 3.51D-09 BMatP= 1.67D-08
 IDIUse=1 WtCom= 1.00D+00 WtEn= 0.00D+00
 Coeff-Com:  0.192D-04-0.734D-05-0.128D-02-0.286D-01 0.255D+00 0.775D+00
 Coeff:      0.192D-04-0.734D-05-0.128D-02-0.286D-01 0.255D+00 0.775D+00
 Gap=     0.378 Goal=   None    Shift=    0.000
 Gap=     0.378 Goal=   None    Shift=    0.000
 RMSDP=6.79D-07 MaxDP=9.47D-06 DE=-6.26D-09 OVMax= 2.30D-05

 Cycle   7  Pass 1  IDiag  1:
 E= -77.3124461362768     Delta-E=       -0.000000000033 Rises=F Damp=F
 DIIS: error= 6.24D-06 at cycle   7 NSaved=   7.
 NSaved= 7 IEnMin= 7 EnMin= -77.3124461362768     IErMin= 6 ErrMin= 5.60D-06
 ErrMax= 6.24D-06  0.00D+00 EMaxC= 1.00D-01 BMatC= 3.88D-09 BMatP= 3.51D-09
 IDIUse=1 WtCom= 1.00D+00 WtEn= 0.00D+00
 Coeff-Com:  0.905D-05 0.589D-04-0.150D-03-0.141D-01 0.977D-02 0.528D+00
 Coeff-Com:  0.477D+00
 Coeff:      0.905D-05 0.589D-04-0.150D-03-0.141D-01 0.977D-02 0.528D+00
 Coeff:      0.477D+00
 Gap=     0.378 Goal=   None    Shift=    0.000
 Gap=     0.378 Goal=   None    Shift=    0.000
 RMSDP=2.97D-07 MaxDP=4.61D-06 DE=-3.33D-11 OVMax= 1.22D-05

 Cycle   8  Pass 1  IDiag  1:
 E= -77.3124461372396     Delta-E=       -0.000000000963 Rises=F Damp=F
 DIIS: error= 2.22D-07 at cycle   8 NSaved=   8.
 NSaved= 8 IEnMin= 8 EnMin= -77.3124461372396     IErMin= 8 ErrMin= 2.22D-07
 ErrMax= 2.22D-07  0.00D+00 EMaxC= 1.00D-01 BMatC= 4.79D-12 BMatP= 3.51D-09
 IDIUse=1 WtCom= 1.00D+00 WtEn= 0.00D+00
 Coeff-Com: -0.125D-05 0.193D-05 0.378D-04 0.796D-03-0.113D-01-0.281D-01
 Coeff-Com:  0.271D-02 0.104D+01
 Coeff:     -0.125D-05 0.193D-05 0.378D-04 0.796D-03-0.113D-01-0.281D-01
 Coeff:      0.271D-02 0.104D+01
 Gap=     0.378 Goal=   None    Shift=    0.000
 Gap=     0.378 Goal=   None    Shift=    0.000
 RMSDP=2.17D-08 MaxDP=3.14D-07 DE=-9.63D-10 OVMax= 6.17D-07

 Cycle   9  Pass 1  IDiag  1:
 E= -77.3124461372414     Delta-E=       -0.000000000002 Rises=F Damp=F
 DIIS: error= 5.42D-09 at cycle   9 NSaved=   9.
 NSaved= 9 IEnMin= 9 EnMin= -77.3124461372414     IErMin= 9 ErrMin= 5.42D-09
 ErrMax= 5.42D-09  0.00D+00 EMaxC= 1.00D-01 BMatC= 5.15D-15 BMatP= 4.79D-12
 IDIUse=1 WtCom= 1.00D+00 WtEn= 0.00D+00
 Coeff-Com:  0.135D-06-0.296D-06-0.228D-05-0.542D-05 0.996D-03-0.548D-03
 Coeff-Com: -0.293D-02-0.888D-01 0.109D+01
 Coeff:      0.135D-06-0.296D-06-0.228D-05-0.542D-05 0.996D-03-0.548D-03
 Coeff:     -0.293D-02-0.888D-01 0.109D+01
 Gap=     0.378 Goal=   None    Shift=    0.000
 Gap=     0.378 Goal=   None    Shift=    0.000
 RMSDP=4.33D-09 MaxDP=5.68D-08 DE=-1.79D-12 OVMax= 2.86D-08

 SCF Done:  E(UM062X) =  -77.3124461372     A.U. after    9 cycles
            NFock=  9  Conv=0.43D-08     -V/T= 2.0073
 <Sx>= 0.0000 <Sy>= 0.0000 <Sz>= 0.0000 <S**2>=-0.0000 S=-0.0000
 <L.S>=  0.00000000000    
 KE= 7.675242307510D+01 PE=-2.273616785154D+02 EE= 4.917279948304D+01
 Annihilation of the first spin contaminant:
 S**2 before annihilation    -0.0000,   after     0.0000
 Leave Link  502 at Tue Dec  3 20:03:29 2024, MaxMem=   536870912 cpu:              23.7 elap:               3.0
 (Enter /home/szhao/Apps/g16/l601.exe)
 Copying SCF densities to generalized density rwf, IOpCl= 1 IROHF=0.

 **********************************************************************

            Population analysis using the SCF density.

 **********************************************************************

 Alpha  occ. eigenvalues --  -10.56044 -10.55825  -0.84485  -0.64158  -0.55897
 Alpha  occ. eigenvalues --   -0.35188  -0.35188
 Alpha virt. eigenvalues --    0.02615   0.02617   0.04088   0.04088   0.07702
 Alpha virt. eigenvalues --    0.07702   0.09135   0.14333   0.14333   0.15107
 Alpha virt. eigenvalues --    0.19136   0.23730   0.39084   0.44453   0.57143
 Alpha virt. eigenvalues --    0.57143   0.65338   0.65338   0.71503   0.73028
 Alpha virt. eigenvalues --    0.82929   0.99076   1.08768   1.09774   1.09774
 Alpha virt. eigenvalues --    1.21413   1.21413   1.47100   1.47100   1.59527
 Alpha virt. eigenvalues --    1.59527   1.71412   1.83714   1.83714   2.09210
 Alpha virt. eigenvalues --    2.46490   2.46490   2.57058   2.64099   2.78724
 Alpha virt. eigenvalues --    2.78724   2.92564   3.00873   3.00873   3.29345
 Alpha virt. eigenvalues --    3.34761   3.76170  23.58996  25.03444
  Beta  occ. eigenvalues --  -10.56044 -10.55825  -0.84485  -0.64158  -0.55897
  Beta  occ. eigenvalues --   -0.35188  -0.35188
  Beta virt. eigenvalues --    0.02615   0.02617   0.04088   0.04088   0.07702
  Beta virt. eigenvalues --    0.07702   0.09135   0.14333   0.14333   0.15107
  Beta virt. eigenvalues --    0.19136   0.23730   0.39084   0.44453   0.57143
  Beta virt. eigenvalues --    0.57143   0.65338   0.65338   0.71503   0.73028
  Beta virt. eigenvalues --    0.82929   0.99076   1.08768   1.09774   1.09774
  Beta virt. eigenvalues --    1.21413   1.21413   1.47100   1.47100   1.59527
  Beta virt. eigenvalues --    1.59527   1.71412   1.83714   1.83714   2.09210
  Beta virt. eigenvalues --    2.46490   2.46490   2.57058   2.64099   2.78724
  Beta virt. eigenvalues --    2.78724   2.92564   3.00873   3.00873   3.29345
  Beta virt. eigenvalues --    3.34761   3.76170  23.58996  25.03444
          Condensed to atoms (all electrons):
               1          2          3          4
     1  C    4.793636   1.029443   0.342727   0.024302
     2  C    1.029443   4.793626   0.024306   0.342732
     3  H    0.342727   0.024306   0.442321   0.000537
     4  H    0.024302   0.342732   0.000537   0.442324
          Atomic-Atomic Spin Densities.
               1          2          3          4
     1  C    0.000000   0.000000   0.000000   0.000000
     2  C    0.000000  -0.000000  -0.000000  -0.000000
     3  H    0.000000  -0.000000   0.000000  -0.000000
     4  H    0.000000  -0.000000  -0.000000  -0.000000
 Mulliken charges and spin densities:
               1          2
     1  C   -0.190108   0.000000
     2  C   -0.190107  -0.000000
     3  H    0.190110   0.000000
     4  H    0.190105  -0.000000
 Sum of Mulliken charges =  -0.00000  -0.00000
 Mulliken charges and spin densities with hydrogens summed into heavy atoms:
               1          2
     1  C    0.000002   0.000000
     2  C   -0.000002  -0.000000
 Electronic spatial extent (au):  <R**2>=             63.0056
 Charge=             -0.0000 electrons
 Dipole moment (field-independent basis, Debye):
    X=             -0.0000    Y=             -0.0000    Z=             -0.0000  Tot=              0.0000
 Quadrupole moment (field-independent basis, Debye-Ang):
   XX=             -6.5660   YY=            -14.0458   ZZ=            -14.0458
   XY=              0.0000   XZ=             -0.0000   YZ=             -0.0000
 Traceless Quadrupole moment (field-independent basis, Debye-Ang):
   XX=              4.9865   YY=             -2.4933   ZZ=             -2.4933
   XY=              0.0000   XZ=             -0.0000   YZ=             -0.0000
 Octapole moment (field-independent basis, Debye-Ang**2):
  XXX=             -0.0001  YYY=             -0.0000  ZZZ=             -0.0000  XYY=              0.0000
  XXY=              0.0000  XXZ=              0.0000  XZZ=              0.0000  YZZ=             -0.0000
  YYZ=             -0.0000  XYZ=             -0.0000
 Hexadecapole moment (field-independent basis, Debye-Ang**3):
 XXXX=            -37.6846 YYYY=            -17.6740 ZZZZ=            -17.6740 XXXY=             -0.0000
 XXXZ=             -0.0000 YYYX=              0.0000 YYYZ=             -0.0000 ZZZX=             -0.0000
 ZZZY=             -0.0000 XXYY=            -13.3348 XXZZ=            -13.3348 YYZZ=             -5.8913
 XXYZ=             -0.0000 YYXZ=             -0.0000 ZZXY=              0.0000
 N-N= 2.412400982005D+01 E-N=-2.273616785013D+02  KE= 7.675242307510D+01
                          Isotropic Fermi Contact Couplings
        Atom                 a.u.       MegaHertz       Gauss      10(-4) cm-1
     1  C(13)             -0.00000      -0.00000      -0.00000      -0.00000
     2  C(13)             -0.00000      -0.00000      -0.00000      -0.00000
     3  H(1)               0.00000       0.00000       0.00000       0.00000
     4  H(1)              -0.00000      -0.00000      -0.00000      -0.00000
 --------------------------------------------------------
       Center         ----  Spin Dipole Couplings  ----
                      3XX-RR        3YY-RR        3ZZ-RR
 --------------------------------------------------------
     1   Atom       -0.000000      0.000000      0.000000
     2   Atom        0.000000     -0.000000     -0.000000
     3   Atom       -0.000000      0.000000      0.000000
     4   Atom        0.000000     -0.000000     -0.000000
 --------------------------------------------------------
                        XY            XZ            YZ
 --------------------------------------------------------
     1   Atom       -0.000000     -0.000000     -0.000000
     2   Atom        0.000000      0.000000     -0.000000
     3   Atom        0.000000      0.000000      0.000000
     4   Atom       -0.000000     -0.000000     -0.000000
 --------------------------------------------------------


 ---------------------------------------------------------------------------------
              Anisotropic Spin Dipole Couplings in Principal Axis System
 ---------------------------------------------------------------------------------

       Atom             a.u.   MegaHertz   Gauss  10(-4) cm-1        Axes

              Baa    -0.0000    -0.000    -0.000    -0.000  0.9932  0.0602  0.0997
     1 C(13)  Bbb     0.0000     0.000     0.000     0.000 -0.0990 -0.0141  0.9950
              Bcc     0.0000     0.000     0.000     0.000 -0.0613  0.9981  0.0080
 
              Baa    -0.0000    -0.000    -0.000    -0.000 -0.3625  0.7276  0.5824
     2 C(13)  Bbb    -0.0000    -0.000    -0.000    -0.000 -0.0465 -0.6382  0.7684
              Bcc     0.0000     0.000     0.000     0.000  0.9308  0.2515  0.2652
 
              Baa    -0.0000    -0.000    -0.000    -0.000  0.9804 -0.1563 -0.1203
     3 H(1)   Bbb     0.0000     0.000     0.000     0.000  0.0909  0.8991 -0.4282
              Bcc     0.0000     0.000     0.000     0.000  0.1751  0.4089  0.8956
 
              Baa    -0.0000    -0.000    -0.000    -0.000  0.2061  0.9196  0.3344
     4 H(1)   Bbb    -0.0000    -0.000    -0.000    -0.000  0.0488 -0.3510  0.9351
              Bcc     0.0000     0.000     0.000     0.000  0.9773 -0.1764 -0.1172
 

 ---------------------------------------------------------------------------------

 No NMR shielding tensors so no spin-rotation constants.
 Leave Link  601 at Tue Dec  3 20:03:29 2024, MaxMem=   536870912 cpu:               1.3 elap:               0.2
 (Enter /home/szhao/Apps/g16/l701.exe)
 ... and contract with generalized density number  0.
 Compute integral first derivatives.
 Leave Link  701 at Tue Dec  3 20:03:30 2024, MaxMem=   536870912 cpu:               0.7 elap:               0.1
 (Enter /home/szhao/Apps/g16/l702.exe)
 L702 exits ... SP integral derivatives will be done elsewhere.
 Leave Link  702 at Tue Dec  3 20:03:30 2024, MaxMem=   536870912 cpu:               0.3 elap:               0.0
 (Enter /home/szhao/Apps/g16/l703.exe)
 Integral derivatives from FoFJK, PRISM(SPDF).
 Compute integral first derivatives, UseDBF=F ICtDFT=           0.
 Calling FoFJK, ICntrl=      2127 FMM=F ISym2X=0 I1Cent= 0 IOpClX= 1 NMat=1 NMatS=1 NMatT=0.
 FoFJK:  IHMeth= 1 ICntrl=    2127 DoSepK=F KAlg= 0 I1Cent=           0 FoldK=F
 IRaf=         0 NMat=       1 IRICut=       1 DoRegI=T DoRafI=F ISym2E= 0 IDoP0=0 IntGTp=1.
 FoFCou: FMM=F IPFlag=           0 FMFlag=      100000 FMFlg1=         800
         NFxFlg=           0 DoJE=F BraDBF=F KetDBF=F FulRan=T
         wScrn=  0.000000 ICntrl=      2127 IOpCl=  1 I1Cent=           0 NGrid=           0
         NMat0=    1 NMatS0=      1 NMatT0=    0 NMatD0=    1 NMtDS0=    0 NMtDT0=    0
 Symmetry not used in FoFCou.
 Leave Link  703 at Tue Dec  3 20:03:30 2024, MaxMem=   536870912 cpu:               5.4 elap:               0.7
 (Enter /home/szhao/Apps/g16/l716.exe)
 Dipole        =-7.30116308D-06-6.87375488D-15-3.05557192D-15
 -------------------------------------------------------------------
 Center     Atomic                   Forces (Hartrees/Bohr)
 Number     Number              X              Y              Z
 -------------------------------------------------------------------
      1        6          -0.000000000   -0.000000000   -0.000000000
      2        6          -0.000000000   -0.000000000   -0.000000000
      3        1           0.022373265   -0.000000000   -0.000000000
      4        1          -0.022362447    0.000000000   -0.000000000
 -------------------------------------------------------------------
 Cartesian Forces:  Max     0.022373265 RMS     0.009131639
 Leave Link  716 at Tue Dec  3 20:03:30 2024, MaxMem=   536870912 cpu:               0.2 elap:               0.0
 (Enter /home/szhao/Apps/g16/l103.exe)

 GradGradGradGradGradGradGradGradGradGradGradGradGradGradGradGradGradGrad
 Berny optimization.
 FormGI is forming the generalized inverse of G from B-inverse, IUseBI=4.
 Internal  Forces:  Max     0.022373265 RMS     0.012914088
 Search for a local minimum.
 Step number   1 out of a maximum of   22
 All quantities printed in internal units (Hartrees-Bohrs-Radians)
 RMS Force = .12914D-01 SwitMx=.10000D-02 MixMth= 1
 Mixed Optimization -- RFO/linear search
 Second derivative matrix not updated -- first step.
 The second derivative matrix:
                          X1        Y1        Z1        X2        Y2
           X1           0.50000
           Y1           0.00000   0.50000
           Z1           0.00000   0.00000   0.50000
           X2           0.00000   0.00000   0.00000   0.50000
           Y2           0.00000   0.00000   0.00000   0.00000   0.50000
           Z2           0.00000   0.00000   0.00000   0.00000   0.00000
           R1           0.00000   0.00000   0.00000   0.00000   0.00000
           R2           0.00000   0.00000   0.00000   0.00000   0.00000
           A1           0.00000   0.00000   0.00000   0.00000   0.00000
           A2           0.00000   0.00000   0.00000   0.00000   0.00000
           A3           0.00000   0.00000   0.00000   0.00000   0.00000
           A4           0.00000   0.00000   0.00000   0.00000   0.00000
                          Z2        R1        R2        A1        A2
           Z2           0.50000
           R1           0.00000   0.34090
           R2           0.00000   0.00000   0.34092
           A1           0.00000   0.00000   0.00000   0.00230
           A2           0.00000   0.00000   0.00000   0.00000   0.00230
           A3           0.00000   0.00000   0.00000   0.00000   0.00000
           A4           0.00000   0.00000   0.00000   0.00000   0.00000
                          A3        A4
           A3           0.00230
           A4           0.00000   0.00230
 ITU=  0
     Eigenvalues ---    0.00230   0.00230   0.00230   0.34090   0.34092
     Eigenvalues --- 1000.000001000.000001000.000001000.000001000.00000
     Eigenvalues --- 1000.000001000.00000
 RFO step:  Lambda=-2.91037203D-03 EMin= 2.30000000D-03
 Linear search not attempted -- first point.
 Iteration  1 RMS(Cart)=  0.02655940 RMS(Int)=  0.00000000
 Iteration  2 RMS(Cart)=  0.00000000 RMS(Int)=  0.00000000
 ITry= 1 IFail=0 DXMaxC= 6.51D-02 DCOld= 1.00D+10 DXMaxT= 3.00D-01 DXLimC= 3.00D+00 Rises=F
 Variable       Old X    -DE/DX   Delta X   Delta X   Delta X     New X
                                 (Linear)    (Quad)   (Total)
    X1       -1.16496   0.02237   0.00000   0.00000   0.00000  -1.16496
    Y1        0.00000  -0.00000   0.00000   0.00000   0.00000   0.00000
    Z1        0.00000   0.00000   0.00000   0.00000   0.00000   0.00000
    X2        1.16496  -0.02236   0.00000   0.00000   0.00000   1.16496
    Y2        0.00000   0.00000   0.00000   0.00000   0.00000   0.00000
    Z2        0.00000  -0.00000   0.00000   0.00000   0.00000   0.00000
    R1        2.07178  -0.02237   0.00000  -0.06507  -0.06507   2.00671
    R2        2.07175  -0.02236   0.00000  -0.06504  -0.06504   2.00671
    A1        3.14159  -0.00000   0.00000  -0.00000   0.00000   3.14159
    A2        3.14159  -0.00000   0.00000  -0.00000   0.00000   3.14159
    A3        3.14159  -0.00000   0.00000  -0.00000   0.00000   3.14159
    A4        3.14159  -0.00000   0.00000  -0.00000   0.00000   3.14159
         Item               Value     Threshold  Converged?
 Maximum Force            0.022373     0.000450     NO 
 RMS     Force            0.012914     0.000300     NO 
 Maximum Displacement     0.065074     0.001800     NO 
 RMS     Displacement     0.026559     0.001200     NO 
 Predicted change in Energy=-1.467503D-03
 Lowest energy point so far.  Saving SCF results.
 GradGradGradGradGradGradGradGradGradGradGradGradGradGradGradGradGradGrad

 Leave Link  103 at Tue Dec  3 20:03:30 2024, MaxMem=   536870912 cpu:               0.0 elap:               0.0
 (Enter /home/szhao/Apps/g16/l202.exe)
                          Input orientation:                          
 ---------------------------------------------------------------------
 Center     Atomic      Atomic             Coordinates (Angstroms)
 Number     Number       Type             X           Y           Z
 ---------------------------------------------------------------------
      1          6           0       -0.616471    0.000000    0.000000
      2          6           0        0.616471    0.000000    0.000000
      3          1           0       -1.678376   -0.000000    0.000000
      4          1           0        1.678378    0.000000   -0.000000
 ---------------------------------------------------------------------
                    Distance matrix (angstroms):
                    1          2          3          4
     1  C    0.000000
     2  C    1.232942   0.000000
     3  H    1.061905   2.294847   0.000000
     4  H    2.294849   1.061907   3.356755   0.000000
 Symmetry turned off by external request.
 Stoichiometry    C2H2
 Framework group  C*V[C*(HCCH)]
 Deg. of freedom     3
 Full point group                 C*V     NOp   4
 Rotational constants (GHZ):           0.0000000          34.1498585          34.1498585
 Leave Link  202 at Tue Dec  3 20:03:30 2024, MaxMem=   536870912 cpu:               0.0 elap:               0.0
 (Enter /home/szhao/Apps/g16/l301.exe)
 Standard basis: 6-311+G(d,p) (5D, 7F)
 Ernie: Thresh=  0.10000D-02 Tol=  0.10000D-05 Strict=F.
    56 basis functions,    88 primitive gaussians,    58 cartesian basis functions
     7 alpha electrons        7 beta electrons
       nuclear repulsion energy        24.3558561897 Hartrees.
 IExCor= 4336 DFT=T Ex+Corr=M062X ExCW=0 ScaHFX=  0.540000
 ScaDFX=  1.000000  1.000000  1.000000  1.000000 ScalE2=  1.000000  1.000000
 IRadAn=      7 IRanWt=     -1 IRanGd=            0 ICorTp=0 IEmpDi=  4
 NAtoms=    4 NActive=    4 NUniq=    4 SFac= 1.00D+00 NAtFMM=   60 NAOKFM=F Big=F
 Integral buffers will be    131072 words long.
 Raffenetti 2 integral format.
 Two-electron integral symmetry is turned off.
 Leave Link  301 at Tue Dec  3 20:03:30 2024, MaxMem=   536870912 cpu:               0.3 elap:               0.0
 (Enter /home/szhao/Apps/g16/l302.exe)
 NPDir=0 NMtPBC=     1 NCelOv=     1 NCel=       1 NClECP=     1 NCelD=      1
         NCelK=      1 NCelE2=     1 NClLst=     1 CellRange=     0.0.
 One-electron integrals computed using PRISM.
 NBasis=    56 RedAO= T EigKep=  1.17D-04  NBF=    56
 NBsUse=    56 1.00D-06 EigRej= -1.00D+00 NBFU=    56
 Precomputing XC quadrature grid using
 IXCGrd= 4 IRadAn=           7 IRanWt=          -1 IRanGd=           0 AccXCQ= 0.00D+00.
 Generated NRdTot=       0 NPtTot=           0 NUsed=           0 NTot=          32
 NSgBfM=    58    58    58    58    58 MxSgAt=     4 MxSgA2=     4.
 Leave Link  302 at Tue Dec  3 20:03:30 2024, MaxMem=   536870912 cpu:               0.9 elap:               0.1
 (Enter /home/szhao/Apps/g16/l303.exe)
 DipDrv:  MaxL=1.
 Leave Link  303 at Tue Dec  3 20:03:31 2024, MaxMem=   536870912 cpu:               0.3 elap:               0.0
 (Enter /home/szhao/Apps/g16/l401.exe)
 Initial guess from the checkpoint file:  "opt.chk"
 B after Tr=     0.000002    0.000000   -0.000000
         Rot=    0.991487   -0.130203   -0.000000    0.000000 Ang= -14.96 deg.
 Guess basis will be translated and rotated to current coordinates.
 JPrj=2 DoOrth=T DoCkMO=T.
 Initial guess <Sx>= 0.0000 <Sy>= 0.0000 <Sz>= 0.0000 <S**2>= 0.0000 S= 0.0000
 Generating alternative initial guess.
 ExpMin= 4.38D-02 ExpMax= 4.56D+03 ExpMxC= 6.82D+02 IAcc=3 IRadAn=         5 AccDes= 0.00D+00
 Harris functional with IExCor= 1009 and IRadAn=       5 diagonalized for initial guess.
 HarFok:  IExCor= 1009 AccDes= 0.00D+00 IRadAn=         5 IDoV= 1 UseB2=F ITyADJ=14
 ICtDFT=  3500011 ScaDFX=  1.000000  1.000000  1.000000  1.000000
 FoFCou: FMM=F IPFlag=           0 FMFlag=      100000 FMFlg1=           0
         NFxFlg=           0 DoJE=T BraDBF=F KetDBF=T FulRan=T
         wScrn=  0.000000 ICntrl=       500 IOpCl=  0 I1Cent=   200000004 NGrid=           0
         NMat0=    1 NMatS0=      1 NMatT0=    0 NMatD0=    1 NMtDS0=    0 NMtDT0=    0
 Symmetry not used in FoFCou.
 Harris En= -77.3032433589049    
 Leave Link  401 at Tue Dec  3 20:03:31 2024, MaxMem=   536870912 cpu:               1.5 elap:               0.2
 (Enter /home/szhao/Apps/g16/l502.exe)
 Keep R1 and R2 ints in memory in canonical form, NReq=9624198.
 FoFCou: FMM=F IPFlag=           0 FMFlag=           0 FMFlg1=           0
         NFxFlg=           0 DoJE=F BraDBF=F KetDBF=F FulRan=T
         wScrn=  0.000000 ICntrl=       600 IOpCl=  0 I1Cent=           0 NGrid=           0
         NMat0=    1 NMatS0=   1596 NMatT0=    0 NMatD0=    1 NMtDS0=    0 NMtDT0=    0
 Symmetry not used in FoFCou.
 Two-electron integral symmetry not used.
 UHF open shell SCF:
 Using DIIS extrapolation, IDIIS=  1040.
 NGot=   536870912 LenX=   534314338 LenY=   534310533
 Requested convergence on RMS density matrix=1.00D-08 within 128 cycles.
 Requested convergence on MAX density matrix=1.00D-06.
 Requested convergence on             energy=1.00D-06.
 No special actions if energy rises.

 Cycle   1  Pass 1  IDiag  1:
 E= -77.3134116284267    
 DIIS: error= 3.82D-03 at cycle   1 NSaved=   1.
 NSaved= 1 IEnMin= 1 EnMin= -77.3134116284267     IErMin= 1 ErrMin= 3.82D-03
 ErrMax= 3.82D-03  0.00D+00 EMaxC= 1.00D-01 BMatC= 1.78D-03 BMatP= 1.78D-03
 IDIUse=3 WtCom= 9.62D-01 WtEn= 3.82D-02
 Coeff-Com:  0.100D+01
 Coeff-En:   0.100D+01
 Coeff:      0.100D+01
 Gap=     0.598 Goal=   None    Shift=    0.000
 Gap=     0.598 Goal=   None    Shift=    0.000
 GapD=    0.598 DampG=2.000 DampE=1.000 DampFc=2.0000 IDamp=-1.
 RMSDP=3.72D-04 MaxDP=4.70D-03              OVMax= 7.98D-03

 Cycle   2  Pass 1  IDiag  1:
 E= -77.3137773897002     Delta-E=       -0.000365761273 Rises=F Damp=F
 DIIS: error= 4.97D-04 at cycle   2 NSaved=   2.
 NSaved= 2 IEnMin= 2 EnMin= -77.3137773897002     IErMin= 2 ErrMin= 4.97D-04
 ErrMax= 4.97D-04  0.00D+00 EMaxC= 1.00D-01 BMatC= 3.91D-05 BMatP= 1.78D-03
 IDIUse=3 WtCom= 9.95D-01 WtEn= 4.97D-03
 Coeff-Com:  0.548D-01 0.945D+00
 Coeff-En:   0.000D+00 0.100D+01
 Coeff:      0.545D-01 0.945D+00
 Gap=     0.378 Goal=   None    Shift=    0.000
 Gap=     0.378 Goal=   None    Shift=    0.000
 RMSDP=6.21D-05 MaxDP=7.84D-04 DE=-3.66D-04 OVMax= 1.24D-03

 Cycle   3  Pass 1  IDiag  1:
 E= -77.3137853168352     Delta-E=       -0.000007927135 Rises=F Damp=F
 DIIS: error= 1.42D-04 at cycle   3 NSaved=   3.
 NSaved= 3 IEnMin= 3 EnMin= -77.3137853168352     IErMin= 3 ErrMin= 1.42D-04
 ErrMax= 1.42D-04  0.00D+00 EMaxC= 1.00D-01 BMatC= 2.56D-06 BMatP= 3.91D-05
 IDIUse=3 WtCom= 9.99D-01 WtEn= 1.42D-03
 Coeff-Com: -0.381D-02 0.132D+00 0.871D+00
 Coeff-En:   0.000D+00 0.000D+00 0.100D+01
 Coeff:     -0.381D-02 0.132D+00 0.872D+00
 Gap=     0.379 Goal=   None    Shift=    0.000
 Gap=     0.379 Goal=   None    Shift=    0.000
 RMSDP=1.34D-05 MaxDP=2.48D-04 DE=-7.93D-06 OVMax= 3.95D-04

 Cycle   4  Pass 1  IDiag  1:
 E= -77.3137858818876     Delta-E=       -0.000000565052 Rises=F Damp=F
 DIIS: error= 6.68D-05 at cycle   4 NSaved=   4.
 NSaved= 4 IEnMin= 4 EnMin= -77.3137858818876     IErMin= 4 ErrMin= 6.68D-05
 ErrMax= 6.68D-05  0.00D+00 EMaxC= 1.00D-01 BMatC= 3.62D-07 BMatP= 2.56D-06
 IDIUse=1 WtCom= 1.00D+00 WtEn= 0.00D+00
 Coeff-Com: -0.318D-02 0.239D-02 0.272D+00 0.729D+00
 Coeff:     -0.318D-02 0.239D-02 0.272D+00 0.729D+00
 Gap=     0.378 Goal=   None    Shift=    0.000
 Gap=     0.378 Goal=   None    Shift=    0.000
 RMSDP=3.92D-06 MaxDP=6.18D-05 DE=-5.65D-07 OVMax= 1.34D-04

 Cycle   5  Pass 1  IDiag  1:
 E= -77.3137859861682     Delta-E=       -0.000000104281 Rises=F Damp=F
 DIIS: error= 1.20D-05 at cycle   5 NSaved=   5.
 NSaved= 5 IEnMin= 5 EnMin= -77.3137859861682     IErMin= 5 ErrMin= 1.20D-05
 ErrMax= 1.20D-05  0.00D+00 EMaxC= 1.00D-01 BMatC= 9.45D-09 BMatP= 3.62D-07
 IDIUse=1 WtCom= 1.00D+00 WtEn= 0.00D+00
 Coeff-Com: -0.898D-04-0.957D-02-0.325D-01 0.796D-01 0.963D+00
 Coeff:     -0.898D-04-0.957D-02-0.325D-01 0.796D-01 0.963D+00
 Gap=     0.378 Goal=   None    Shift=    0.000
 Gap=     0.378 Goal=   None    Shift=    0.000
 RMSDP=1.41D-06 MaxDP=1.75D-05 DE=-1.04D-07 OVMax= 2.34D-05

 Cycle   6  Pass 1  IDiag  1:
 E= -77.3137859885300     Delta-E=       -0.000000002362 Rises=F Damp=F
 DIIS: error= 1.64D-06 at cycle   6 NSaved=   6.
 NSaved= 6 IEnMin= 6 EnMin= -77.3137859885300     IErMin= 6 ErrMin= 1.64D-06
 ErrMax= 1.64D-06  0.00D+00 EMaxC= 1.00D-01 BMatC= 4.54D-10 BMatP= 9.45D-09
 IDIUse=1 WtCom= 1.00D+00 WtEn= 0.00D+00
 Coeff-Com:  0.502D-05-0.373D-02-0.150D-01 0.243D-01 0.356D+00 0.638D+00
 Coeff:      0.502D-05-0.373D-02-0.150D-01 0.243D-01 0.356D+00 0.638D+00
 Gap=     0.378 Goal=   None    Shift=    0.000
 Gap=     0.378 Goal=   None    Shift=    0.000
 RMSDP=2.06D-07 MaxDP=2.53D-06 DE=-2.36D-09 OVMax= 7.10D-06

 Cycle   7  Pass 1  IDiag  1:
 E= -77.3137859885845     Delta-E=       -0.000000000054 Rises=F Damp=F
 DIIS: error= 1.25D-06 at cycle   7 NSaved=   7.
 NSaved= 7 IEnMin= 7 EnMin= -77.3137859885845     IErMin= 7 ErrMin= 1.25D-06
 ErrMax= 1.25D-06  0.00D+00 EMaxC= 1.00D-01 BMatC= 2.54D-10 BMatP= 4.54D-10
 IDIUse=1 WtCom= 1.00D+00 WtEn= 0.00D+00
 Coeff-Com:  0.260D-04 0.100D-03-0.730D-03-0.404D-02-0.267D-01 0.435D+00
 Coeff-Com:  0.597D+00
 Coeff:      0.260D-04 0.100D-03-0.730D-03-0.404D-02-0.267D-01 0.435D+00
 Coeff:      0.597D+00
 Gap=     0.378 Goal=   None    Shift=    0.000
 Gap=     0.378 Goal=   None    Shift=    0.000
 RMSDP=1.03D-07 MaxDP=1.13D-06 DE=-5.44D-11 OVMax= 3.11D-06

 Cycle   8  Pass 1  IDiag  1:
 E= -77.3137859886481     Delta-E=       -0.000000000064 Rises=F Damp=F
 DIIS: error= 2.65D-08 at cycle   8 NSaved=   8.
 NSaved= 8 IEnMin= 8 EnMin= -77.3137859886481     IErMin= 8 ErrMin= 2.65D-08
 ErrMax= 2.65D-08  0.00D+00 EMaxC= 1.00D-01 BMatC= 8.23D-14 BMatP= 2.54D-10
 IDIUse=1 WtCom= 1.00D+00 WtEn= 0.00D+00
 Coeff-Com: -0.306D-05 0.285D-04 0.146D-03-0.131D-03 0.211D-03-0.584D-01
 Coeff-Com: -0.705D-01 0.113D+01
 Coeff:     -0.306D-05 0.285D-04 0.146D-03-0.131D-03 0.211D-03-0.584D-01
 Coeff:     -0.705D-01 0.113D+01
 Gap=     0.378 Goal=   None    Shift=    0.000
 Gap=     0.378 Goal=   None    Shift=    0.000
 RMSDP=9.62D-09 MaxDP=9.88D-08 DE=-6.36D-11 OVMax= 1.46D-07

 SCF Done:  E(UM062X) =  -77.3137859886     A.U. after    8 cycles
            NFock=  8  Conv=0.96D-08     -V/T= 2.0060
 <Sx>= 0.0000 <Sy>= 0.0000 <Sz>= 0.0000 <S**2>=-0.0000 S=-0.0000
 <L.S>=  0.00000000000    
 KE= 7.685121274691D+01 PE=-2.278796509102D+02 EE= 4.935879598491D+01
 Annihilation of the first spin contaminant:
 S**2 before annihilation    -0.0000,   after    -0.0000
 Leave Link  502 at Tue Dec  3 20:03:33 2024, MaxMem=   536870912 cpu:              20.8 elap:               2.6
 (Enter /home/szhao/Apps/g16/l701.exe)
 ... and contract with generalized density number  0.
 Compute integral first derivatives.
 Leave Link  701 at Tue Dec  3 20:03:33 2024, MaxMem=   536870912 cpu:               0.7 elap:               0.1
 (Enter /home/szhao/Apps/g16/l702.exe)
 L702 exits ... SP integral derivatives will be done elsewhere.
 Leave Link  702 at Tue Dec  3 20:03:34 2024, MaxMem=   536870912 cpu:               0.2 elap:               0.0
 (Enter /home/szhao/Apps/g16/l703.exe)
 Integral derivatives from FoFJK, PRISM(SPDF).
 Compute integral first derivatives, UseDBF=F ICtDFT=           0.
 Calling FoFJK, ICntrl=      2127 FMM=F ISym2X=0 I1Cent= 0 IOpClX= 1 NMat=1 NMatS=1 NMatT=0.
 FoFJK:  IHMeth= 1 ICntrl=    2127 DoSepK=F KAlg= 0 I1Cent=           0 FoldK=F
 IRaf=         0 NMat=       1 IRICut=       1 DoRegI=T DoRafI=F ISym2E= 0 IDoP0=0 IntGTp=1.
 FoFCou: FMM=F IPFlag=           0 FMFlag=      100000 FMFlg1=         800
         NFxFlg=           0 DoJE=F BraDBF=F KetDBF=F FulRan=T
         wScrn=  0.000000 ICntrl=      2127 IOpCl=  1 I1Cent=           0 NGrid=           0
         NMat0=    1 NMatS0=      1 NMatT0=    0 NMatD0=    1 NMtDS0=    0 NMtDT0=    0
 Symmetry not used in FoFCou.
 Leave Link  703 at Tue Dec  3 20:03:34 2024, MaxMem=   536870912 cpu:               5.4 elap:               0.7
 (Enter /home/szhao/Apps/g16/l716.exe)
 Dipole        = 8.88784066D-07 2.96229659D-13-3.80272166D-13
 -------------------------------------------------------------------
 Center     Atomic                   Forces (Hartrees/Bohr)
 Number     Number              X              Y              Z
 -------------------------------------------------------------------
      1        6          -0.000000000   -0.000000000   -0.000000000
      2        6          -0.000000000   -0.000000000   -0.000000000
      3        1          -0.002574400    0.000000000    0.000000000
      4        1           0.002572789   -0.000000000    0.000000000
 -------------------------------------------------------------------
 Cartesian Forces:  Max     0.002574400 RMS     0.001050666
 Leave Link  716 at Tue Dec  3 20:03:34 2024, MaxMem=   536870912 cpu:               0.3 elap:               0.0
 (Enter /home/szhao/Apps/g16/l103.exe)

 GradGradGradGradGradGradGradGradGradGradGradGradGradGradGradGradGradGrad
 Berny optimization.
 Using GEDIIS/GDIIS optimizer.
 FormGI is forming the generalized inverse of G from B-inverse, IUseBI=4.
 Internal  Forces:  Max     0.002574400 RMS     0.001485866
 Search for a local minimum.
 Step number   2 out of a maximum of   22
 All quantities printed in internal units (Hartrees-Bohrs-Radians)
 RMS Force = .14859D-02 SwitMx=.10000D-02 MixMth= 1
 Mixed Optimization -- RFO/linear search
 Update second derivatives using D2CorX and points    1    2
 DE= -1.34D-03 DEPred=-1.47D-03 R= 9.13D-01
 TightC=F SS=  1.41D+00  RLast= 9.20D-02 DXNew= 5.0454D-01 2.7601D-01
 Trust test= 9.13D-01 RLast= 9.20D-02 DXMaxT set to 3.00D-01
 The second derivative matrix:
                          X1        Y1        Z1        X2        Y2
           X1           0.69178
           Y1           0.00000   0.50000
           Z1          -0.00000  -0.00000   0.50000
           X2          -0.19169  -0.00000   0.00000   0.69159
           Y2          -0.00000  -0.00000   0.00000   0.00000   0.50000
           Z2           0.00000   0.00000  -0.00000  -0.00000  -0.00000
           R1          -0.19178  -0.00000   0.00000   0.19169   0.00000
           R2          -0.19169  -0.00000   0.00000   0.19159   0.00000
           A1           0.00000   0.00000  -0.00000  -0.00000  -0.00000
           A2          -0.00000  -0.00000   0.00000   0.00000   0.00000
           A3           0.00000   0.00000  -0.00000  -0.00000  -0.00000
           A4           0.00000   0.00000  -0.00000  -0.00000  -0.00000
                          Z2        R1        R2        A1        A2
           Z2           0.50000
           R1          -0.00000   0.36215
           R2          -0.00000   0.02123   0.36214
           A1           0.00000  -0.00000  -0.00000   0.00230
           A2          -0.00000   0.00000   0.00000  -0.00000   0.00230
           A3           0.00000  -0.00000  -0.00000   0.00000  -0.00000
           A4           0.00000  -0.00000  -0.00000   0.00000  -0.00000
                          A3        A4
           A3           0.00230
           A4           0.00000   0.00230
 ITU=  1  0
 Use linear search instead of GDIIS.
     Eigenvalues ---    0.00230   0.00230   0.00230   0.34091   0.38338
     Eigenvalues --- 1000.000001000.000001000.000001000.000001000.00000
     Eigenvalues --- 1000.000001000.00000
 RFO step:  Lambda=-1.11840968D-08 EMin= 2.30000000D-03
 Quartic linear search produced a step of -0.09481.
 Iteration  1 RMS(Cart)=  0.00251814 RMS(Int)=  0.00000001
 Iteration  2 RMS(Cart)=  0.00000002 RMS(Int)=  0.00000001
 ITry= 1 IFail=0 DXMaxC= 6.17D-03 DCOld= 1.00D+10 DXMaxT= 3.00D-01 DXLimC= 3.00D+00 Rises=F
 Variable       Old X    -DE/DX   Delta X   Delta X   Delta X     New X
                                 (Linear)    (Quad)   (Total)
    X1       -1.16496  -0.00257   0.00000   0.00000   0.00000  -1.16496
    Y1        0.00000  -0.00000   0.00000   0.00000   0.00000   0.00000
    Z1        0.00000   0.00000   0.00000   0.00000   0.00000   0.00000
    X2        1.16496   0.00257   0.00000   0.00000   0.00000   1.16496
    Y2        0.00000   0.00000   0.00000   0.00000   0.00000   0.00000
    Z2        0.00000  -0.00000   0.00000   0.00000   0.00000   0.00000
    R1        2.00671   0.00257   0.00617   0.00000   0.00617   2.01288
    R2        2.00671   0.00257   0.00617  -0.00000   0.00617   2.01288
    A1        3.14159  -0.00000   0.00000  -0.00000  -0.00000   3.14159
    A2        3.14159   0.00000   0.00000   0.00000   0.00000   3.14159
    A3        3.14159  -0.00000   0.00000  -0.00000  -0.00000   3.14159
    A4        3.14159  -0.00000   0.00000  -0.00000   0.00000   3.14159
         Item               Value     Threshold  Converged?
 Maximum Force            0.002574     0.000450     NO 
 RMS     Force            0.001486     0.000300     NO 
 Maximum Displacement     0.006170     0.001800     NO 
 RMS     Displacement     0.002518     0.001200     NO 
 Predicted change in Energy=-1.716259D-05
 Lowest energy point so far.  Saving SCF results.
 GradGradGradGradGradGradGradGradGradGradGradGradGradGradGradGradGradGrad

 Leave Link  103 at Tue Dec  3 20:03:34 2024, MaxMem=   536870912 cpu:               0.0 elap:               0.0
 (Enter /home/szhao/Apps/g16/l202.exe)
                          Input orientation:                          
 ---------------------------------------------------------------------
 Center     Atomic      Atomic             Coordinates (Angstroms)
 Number     Number       Type             X           Y           Z
 ---------------------------------------------------------------------
      1          6           0       -0.616471    0.000000    0.000000
      2          6           0        0.616471    0.000000    0.000000
      3          1           0       -1.681641   -0.000000    0.000000
      4          1           0        1.681641   -0.000000    0.000000
 ---------------------------------------------------------------------
                    Distance matrix (angstroms):
                    1          2          3          4
     1  C    0.000000
     2  C    1.232942   0.000000
     3  H    1.065171   2.298112   0.000000
     4  H    2.298112   1.065170   3.363283   0.000000
 Symmetry turned off by external request.
 Stoichiometry    C2H2
 Framework group  C*V[C*(HCCH)]
 Deg. of freedom     3
 Full point group                 C*V     NOp   4
 Rotational constants (GHZ):           0.0000000          34.0989224          34.0989224
 Leave Link  202 at Tue Dec  3 20:03:34 2024, MaxMem=   536870912 cpu:               0.0 elap:               0.0
 (Enter /home/szhao/Apps/g16/l301.exe)
 Standard basis: 6-311+G(d,p) (5D, 7F)
 Ernie: Thresh=  0.10000D-02 Tol=  0.10000D-05 Strict=F.
    56 basis functions,    88 primitive gaussians,    58 cartesian basis functions
     7 alpha electrons        7 beta electrons
       nuclear repulsion energy        24.3332954860 Hartrees.
 IExCor= 4336 DFT=T Ex+Corr=M062X ExCW=0 ScaHFX=  0.540000
 ScaDFX=  1.000000  1.000000  1.000000  1.000000 ScalE2=  1.000000  1.000000
 IRadAn=      7 IRanWt=     -1 IRanGd=            0 ICorTp=0 IEmpDi=  4
 NAtoms=    4 NActive=    4 NUniq=    4 SFac= 1.00D+00 NAtFMM=   60 NAOKFM=F Big=F
 Integral buffers will be    131072 words long.
 Raffenetti 2 integral format.
 Two-electron integral symmetry is turned off.
 Leave Link  301 at Tue Dec  3 20:03:34 2024, MaxMem=   536870912 cpu:               0.3 elap:               0.0
 (Enter /home/szhao/Apps/g16/l302.exe)
 NPDir=0 NMtPBC=     1 NCelOv=     1 NCel=       1 NClECP=     1 NCelD=      1
         NCelK=      1 NCelE2=     1 NClLst=     1 CellRange=     0.0.
 One-electron integrals computed using PRISM.
 NBasis=    56 RedAO= T EigKep=  1.17D-04  NBF=    56
 NBsUse=    56 1.00D-06 EigRej= -1.00D+00 NBFU=    56
 Precomputing XC quadrature grid using
 IXCGrd= 4 IRadAn=           7 IRanWt=          -1 IRanGd=           0 AccXCQ= 0.00D+00.
 Generated NRdTot=       0 NPtTot=           0 NUsed=           0 NTot=          32
 NSgBfM=    58    58    58    58    58 MxSgAt=     4 MxSgA2=     4.
 Leave Link  302 at Tue Dec  3 20:03:34 2024, MaxMem=   536870912 cpu:               0.9 elap:               0.1
 (Enter /home/szhao/Apps/g16/l303.exe)
 DipDrv:  MaxL=1.
 Leave Link  303 at Tue Dec  3 20:03:35 2024, MaxMem=   536870912 cpu:               0.2 elap:               0.0
 (Enter /home/szhao/Apps/g16/l401.exe)
 Initial guess from the checkpoint file:  "opt.chk"
 B after Tr=    -0.000000   -0.000000    0.000000
         Rot=    0.721426    0.692491    0.000000    0.000000 Ang=  87.66 deg.
 Guess basis will be translated and rotated to current coordinates.
 JPrj=2 DoOrth=T DoCkMO=T.
 Initial guess <Sx>= 0.0000 <Sy>= 0.0000 <Sz>= 0.0000 <S**2>=-0.0000 S=-0.0000
 Leave Link  401 at Tue Dec  3 20:03:35 2024, MaxMem=   536870912 cpu:               0.5 elap:               0.1
 (Enter /home/szhao/Apps/g16/l502.exe)
 Keep R1 and R2 ints in memory in canonical form, NReq=9624198.
 FoFCou: FMM=F IPFlag=           0 FMFlag=           0 FMFlg1=           0
         NFxFlg=           0 DoJE=F BraDBF=F KetDBF=F FulRan=T
         wScrn=  0.000000 ICntrl=       600 IOpCl=  0 I1Cent=           0 NGrid=           0
         NMat0=    1 NMatS0=   1596 NMatT0=    0 NMatD0=    1 NMtDS0=    0 NMtDT0=    0
 Symmetry not used in FoFCou.
 Two-electron integral symmetry not used.
 UHF open shell SCF:
 Using DIIS extrapolation, IDIIS=  1040.
 NGot=   536870912 LenX=   534314338 LenY=   534310533
 Requested convergence on RMS density matrix=1.00D-08 within 128 cycles.
 Requested convergence on MAX density matrix=1.00D-06.
 Requested convergence on             energy=1.00D-06.
 No special actions if energy rises.

 Cycle   1  Pass 1  IDiag  1:
 E= -77.3137982824718    
 DIIS: error= 3.73D-04 at cycle   1 NSaved=   1.
 NSaved= 1 IEnMin= 1 EnMin= -77.3137982824718     IErMin= 1 ErrMin= 3.73D-04
 ErrMax= 3.73D-04  0.00D+00 EMaxC= 1.00D-01 BMatC= 1.73D-05 BMatP= 1.73D-05
 IDIUse=3 WtCom= 9.96D-01 WtEn= 3.73D-03
 Coeff-Com:  0.100D+01
 Coeff-En:   0.100D+01
 Coeff:      0.100D+01
 Gap=     0.597 Goal=   None    Shift=    0.000
 Gap=     0.597 Goal=   None    Shift=    0.000
 RMSDP=3.51D-05 MaxDP=4.23D-04              OVMax= 7.70D-04

 Cycle   2  Pass 1  IDiag  1:
 E= -77.3138017267215     Delta-E=       -0.000003444250 Rises=F Damp=F
 DIIS: error= 5.04D-05 at cycle   2 NSaved=   2.
 NSaved= 2 IEnMin= 2 EnMin= -77.3138017267215     IErMin= 2 ErrMin= 5.04D-05
 ErrMax= 5.04D-05  0.00D+00 EMaxC= 1.00D-01 BMatC= 3.48D-07 BMatP= 1.73D-05
 IDIUse=1 WtCom= 1.00D+00 WtEn= 0.00D+00
 Coeff-Com:  0.507D-01 0.949D+00
 Coeff:      0.507D-01 0.949D+00
 Gap=     0.378 Goal=   None    Shift=    0.000
 Gap=     0.378 Goal=   None    Shift=    0.000
 RMSDP=5.72D-06 MaxDP=7.32D-05 DE=-3.44D-06 OVMax= 1.13D-04

 Cycle   3  Pass 1  IDiag  1:
 E= -77.3138017970123     Delta-E=       -0.000000070291 Rises=F Damp=F
 DIIS: error= 1.15D-05 at cycle   3 NSaved=   3.
 NSaved= 3 IEnMin= 3 EnMin= -77.3138017970123     IErMin= 3 ErrMin= 1.15D-05
 ErrMax= 1.15D-05  0.00D+00 EMaxC= 1.00D-01 BMatC= 1.96D-08 BMatP= 3.48D-07
 IDIUse=1 WtCom= 1.00D+00 WtEn= 0.00D+00
 Coeff-Com: -0.425D-02 0.119D+00 0.885D+00
 Coeff:     -0.425D-02 0.119D+00 0.885D+00
 Gap=     0.378 Goal=   None    Shift=    0.000
 Gap=     0.378 Goal=   None    Shift=    0.000
 RMSDP=1.20D-06 MaxDP=2.21D-05 DE=-7.03D-08 OVMax= 3.51D-05

 Cycle   4  Pass 1  IDiag  1:
 E= -77.3138018013483     Delta-E=       -0.000000004336 Rises=F Damp=F
 DIIS: error= 5.87D-06 at cycle   4 NSaved=   4.
 NSaved= 4 IEnMin= 4 EnMin= -77.3138018013483     IErMin= 4 ErrMin= 5.87D-06
 ErrMax= 5.87D-06  0.00D+00 EMaxC= 1.00D-01 BMatC= 2.86D-09 BMatP= 1.96D-08
 IDIUse=1 WtCom= 1.00D+00 WtEn= 0.00D+00
 Coeff-Com: -0.294D-02 0.277D-02 0.275D+00 0.725D+00
 Coeff:     -0.294D-02 0.277D-02 0.275D+00 0.725D+00
 Gap=     0.378 Goal=   None    Shift=    0.000
 Gap=     0.378 Goal=   None    Shift=    0.000
 RMSDP=3.53D-07 MaxDP=5.68D-06 DE=-4.34D-09 OVMax= 1.21D-05

 Cycle   5  Pass 1  IDiag  1:
 E= -77.3138018021681     Delta-E=       -0.000000000820 Rises=F Damp=F
 DIIS: error= 1.18D-06 at cycle   5 NSaved=   5.
 NSaved= 5 IEnMin= 5 EnMin= -77.3138018021681     IErMin= 5 ErrMin= 1.18D-06
 ErrMax= 1.18D-06  0.00D+00 EMaxC= 1.00D-01 BMatC= 9.20D-11 BMatP= 2.86D-09
 IDIUse=1 WtCom= 1.00D+00 WtEn= 0.00D+00
 Coeff-Com: -0.831D-04-0.969D-02-0.311D-01 0.978D-01 0.943D+00
 Coeff:     -0.831D-04-0.969D-02-0.311D-01 0.978D-01 0.943D+00
 Gap=     0.378 Goal=   None    Shift=    0.000
 Gap=     0.378 Goal=   None    Shift=    0.000
 RMSDP=1.33D-07 MaxDP=1.66D-06 DE=-8.20D-10 OVMax= 2.22D-06

 Cycle   6  Pass 1  IDiag  1:
 E= -77.3138018021902     Delta-E=       -0.000000000022 Rises=F Damp=F
 DIIS: error= 2.61D-07 at cycle   6 NSaved=   6.
 NSaved= 6 IEnMin= 6 EnMin= -77.3138018021902     IErMin= 6 ErrMin= 2.61D-07
 ErrMax= 2.61D-07  0.00D+00 EMaxC= 1.00D-01 BMatC= 6.63D-12 BMatP= 9.20D-11
 IDIUse=1 WtCom= 1.00D+00 WtEn= 0.00D+00
 Coeff-Com:  0.539D-05-0.445D-02-0.172D-01 0.362D-01 0.413D+00 0.572D+00
 Coeff:      0.539D-05-0.445D-02-0.172D-01 0.362D-01 0.413D+00 0.572D+00
 Gap=     0.378 Goal=   None    Shift=    0.000
 Gap=     0.378 Goal=   None    Shift=    0.000
 RMSDP=2.10D-08 MaxDP=2.72D-07 DE=-2.21D-11 OVMax= 7.69D-07

 Cycle   7  Pass 1  IDiag  1:
 E= -77.3138018021913     Delta-E=       -0.000000000001 Rises=F Damp=F
 DIIS: error= 1.49D-07 at cycle   7 NSaved=   7.
 NSaved= 7 IEnMin= 7 EnMin= -77.3138018021913     IErMin= 7 ErrMin= 1.49D-07
 ErrMax= 1.49D-07  0.00D+00 EMaxC= 1.00D-01 BMatC= 2.13D-12 BMatP= 6.63D-12
 IDIUse=1 WtCom= 1.00D+00 WtEn= 0.00D+00
 Coeff-Com:  0.252D-04 0.809D-04-0.834D-03-0.432D-02-0.256D-01 0.364D+00
 Coeff-Com:  0.666D+00
 Coeff:      0.252D-04 0.809D-04-0.834D-03-0.432D-02-0.256D-01 0.364D+00
 Coeff:      0.666D+00
 Gap=     0.378 Goal=   None    Shift=    0.000
 Gap=     0.378 Goal=   None    Shift=    0.000
 RMSDP=1.06D-08 MaxDP=1.25D-07 DE=-1.14D-12 OVMax= 2.87D-07

 Cycle   8  Pass 1  IDiag  1:
 E= -77.3138018021919     Delta-E=       -0.000000000001 Rises=F Damp=F
 DIIS: error= 2.62D-09 at cycle   8 NSaved=   8.
 NSaved= 8 IEnMin= 8 EnMin= -77.3138018021919     IErMin= 8 ErrMin= 2.62D-09
 ErrMax= 2.62D-09  0.00D+00 EMaxC= 1.00D-01 BMatC= 7.47D-16 BMatP= 2.13D-12
 IDIUse=1 WtCom= 1.00D+00 WtEn= 0.00D+00
 Coeff-Com: -0.308D-05 0.305D-04 0.151D-03-0.152D-03 0.257D-03-0.502D-01
 Coeff-Com: -0.827D-01 0.113D+01
 Coeff:     -0.308D-05 0.305D-04 0.151D-03-0.152D-03 0.257D-03-0.502D-01
 Coeff:     -0.827D-01 0.113D+01
 Gap=     0.378 Goal=   None    Shift=    0.000
 Gap=     0.378 Goal=   None    Shift=    0.000
 RMSDP=9.76D-10 MaxDP=1.05D-08 DE=-5.68D-13 OVMax= 1.42D-08

 SCF Done:  E(UM062X) =  -77.3138018022     A.U. after    8 cycles
            NFock=  8  Conv=0.98D-09     -V/T= 2.0061
 <Sx>= 0.0000 <Sy>= 0.0000 <Sz>= 0.0000 <S**2>=-0.0000 S=-0.0000
 <L.S>=  0.00000000000    
 KE= 7.684144891831D+01 PE=-2.278293514009D+02 EE= 4.934080519441D+01
 Annihilation of the first spin contaminant:
 S**2 before annihilation    -0.0000,   after     0.0000
 Leave Link  502 at Tue Dec  3 20:03:37 2024, MaxMem=   536870912 cpu:              21.5 elap:               2.7
 (Enter /home/szhao/Apps/g16/l701.exe)
 ... and contract with generalized density number  0.
 Compute integral first derivatives.
 Leave Link  701 at Tue Dec  3 20:03:37 2024, MaxMem=   536870912 cpu:               0.7 elap:               0.1
 (Enter /home/szhao/Apps/g16/l702.exe)
 L702 exits ... SP integral derivatives will be done elsewhere.
 Leave Link  702 at Tue Dec  3 20:03:37 2024, MaxMem=   536870912 cpu:               0.3 elap:               0.0
 (Enter /home/szhao/Apps/g16/l703.exe)
 Integral derivatives from FoFJK, PRISM(SPDF).
 Compute integral first derivatives, UseDBF=F ICtDFT=           0.
 Calling FoFJK, ICntrl=      2127 FMM=F ISym2X=0 I1Cent= 0 IOpClX= 1 NMat=1 NMatS=1 NMatT=0.
 FoFJK:  IHMeth= 1 ICntrl=    2127 DoSepK=F KAlg= 0 I1Cent=           0 FoldK=F
 IRaf=         0 NMat=       1 IRICut=       1 DoRegI=T DoRafI=F ISym2E= 0 IDoP0=0 IntGTp=1.
 FoFCou: FMM=F IPFlag=           0 FMFlag=      100000 FMFlg1=         800
         NFxFlg=           0 DoJE=F BraDBF=F KetDBF=F FulRan=T
         wScrn=  0.000000 ICntrl=      2127 IOpCl=  1 I1Cent=           0 NGrid=           0
         NMat0=    1 NMatS0=      1 NMatT0=    0 NMatD0=    1 NMtDS0=    0 NMtDT0=    0
 Symmetry not used in FoFCou.
 Leave Link  703 at Tue Dec  3 20:03:38 2024, MaxMem=   536870912 cpu:               5.6 elap:               0.7
 (Enter /home/szhao/Apps/g16/l716.exe)
 Dipole        =-9.99252023D-08-9.81440371D-09 1.04579195D-08
 -------------------------------------------------------------------
 Center     Atomic                   Forces (Hartrees/Bohr)
 Number     Number              X              Y              Z
 -------------------------------------------------------------------
      1        6          -0.000000000   -0.000000000   -0.000000000
      2        6          -0.000000000   -0.000000000   -0.000000000
      3        1           0.000002170    0.000000000   -0.000000000
      4        1          -0.000001993    0.000000001   -0.000000001
 -------------------------------------------------------------------
 Cartesian Forces:  Max     0.000002170 RMS     0.000000850
 Leave Link  716 at Tue Dec  3 20:03:38 2024, MaxMem=   536870912 cpu:               0.2 elap:               0.0
 (Enter /home/szhao/Apps/g16/l103.exe)

 GradGradGradGradGradGradGradGradGradGradGradGradGradGradGradGradGradGrad
 Berny optimization.
 Using GEDIIS/GDIIS optimizer.
 FormGI is forming the generalized inverse of G from B-inverse, IUseBI=4.
 Internal  Forces:  Max     0.000002170 RMS     0.000001203
 Search for a local minimum.
 Step number   3 out of a maximum of   22
 All quantities printed in internal units (Hartrees-Bohrs-Radians)
 RMS Force = .12028D-05 SwitMx=.10000D-02 MixMth= 2
 Mixed Optimization -- En-DIIS/RFO-DIIS
 Update second derivatives using D2CorX and points    1    2    3
 DE= -1.58D-05 DEPred=-1.72D-05 R= 9.21D-01
 TightC=F SS=  1.41D+00  RLast= 8.72D-03 DXNew= 5.0454D-01 2.6169D-02
 Trust test= 9.21D-01 RLast= 8.72D-03 DXMaxT set to 3.00D-01
 The second derivative matrix:
                          X1        Y1        Z1        X2        Y2
           X1           0.70893
           Y1           0.00000   0.50000
           Z1           0.00000   0.00000   0.50000
           X2          -0.20879  -0.00000  -0.00000   0.70864
           Y2           0.00000   0.00000   0.00000  -0.00000   0.50000
           Z2          -0.00000  -0.00000  -0.00000   0.00000  -0.00000
           R1          -0.20892  -0.00000  -0.00000   0.20878  -0.00000
           R2          -0.20880  -0.00000  -0.00000   0.20866  -0.00000
           A1           0.00000   0.00000   0.00000  -0.00000   0.00000
           A2          -0.00000  -0.00000  -0.00000   0.00000  -0.00000
           A3           0.00000   0.00000   0.00000  -0.00000   0.00000
           A4          -0.00000  -0.00000  -0.00000   0.00000  -0.00000
                          Z2        R1        R2        A1        A2
           Z2           0.50000
           R1           0.00000   0.37927
           R2           0.00000   0.03833   0.37922
           A1          -0.00000  -0.00000  -0.00000   0.00230
           A2           0.00000   0.00000   0.00000  -0.00000   0.00230
           A3          -0.00000  -0.00000  -0.00000   0.00000  -0.00000
           A4           0.00000   0.00000   0.00000  -0.00000   0.00000
                          A3        A4
           A3           0.00230
           A4          -0.00000   0.00230
 ITU=  1  1  0
 Use linear search instead of GDIIS.
     Eigenvalues ---    0.00230   0.00230   0.00230   0.34091   0.41758
     Eigenvalues --- 1000.000001000.000001000.000001000.000001000.00000
     Eigenvalues --- 1000.000001000.00000
 RFO step:  Lambda= 0.00000000D+00 EMin= 2.30000000D-03
 Quartic linear search produced a step of -0.00082.
 Iteration  1 RMS(Cart)=  0.00000211 RMS(Int)=  0.00000001
 Iteration  2 RMS(Cart)=  0.00000002 RMS(Int)=  0.00000000
 ITry= 1 IFail=0 DXMaxC= 5.29D-06 DCOld= 1.00D+10 DXMaxT= 3.00D-01 DXLimC= 3.00D+00 Rises=F
 Variable       Old X    -DE/DX   Delta X   Delta X   Delta X     New X
                                 (Linear)    (Quad)   (Total)
    X1       -1.16496   0.00000   0.00000   0.00000   0.00000  -1.16496
    Y1        0.00000   0.00000   0.00000   0.00000   0.00000   0.00000
    Z1        0.00000   0.00000   0.00000   0.00000   0.00000   0.00000
    X2        1.16496  -0.00000   0.00000   0.00000   0.00000   1.16496
    Y2        0.00000   0.00000   0.00000   0.00000   0.00000   0.00000
    Z2        0.00000  -0.00000   0.00000   0.00000   0.00000   0.00000
    R1        2.01288  -0.00000  -0.00001  -0.00000  -0.00001   2.01288
    R2        2.01288  -0.00000  -0.00001   0.00000  -0.00000   2.01288
    A1        3.14159   0.00000   0.00000   0.00000   0.00000   3.14159
    A2        3.14159  -0.00000  -0.00000  -0.00000  -0.00000   3.14159
    A3        3.14159   0.00000   0.00000   0.00000   0.00000   3.14159
    A4        3.14159  -0.00000  -0.00000  -0.00000  -0.00000   3.14159
         Item               Value     Threshold  Converged?
 Maximum Force            0.000002     0.000450     YES
 RMS     Force            0.000001     0.000300     YES
 Maximum Displacement     0.000005     0.001800     YES
 RMS     Displacement     0.000002     0.001200     YES
 Predicted change in Energy=-1.039746D-11
 Optimization completed.
    -- Stationary point found.
                           ----------------------------
                           !   Optimized Parameters   !
                           ! (Angstroms and Degrees)  !
 --------------------------                            --------------------------
 ! Name  Definition              Value          Derivative Info.                !
 --------------------------------------------------------------------------------
 ! X1    R(1,-1)                -0.6165         -DE/DX =    0.0                 !
 ! Y1    R(1,-2)                 0.0            -DE/DX =    0.0                 !
 ! Z1    R(1,-3)                 0.0            -DE/DX =    0.0                 !
 ! X2    R(2,-1)                 0.6165         -DE/DX =    0.0                 !
 ! Y2    R(2,-2)                 0.0            -DE/DX =    0.0                 !
 ! Z2    R(2,-3)                 0.0            -DE/DX =    0.0                 !
 ! R1    R(1,3)                  1.0652         -DE/DX =    0.0                 !
 ! R2    R(2,4)                  1.0652         -DE/DX =    0.0                 !
 ! A1    L(2,1,3,-2,-1)        180.0            -DE/DX =    0.0                 !
 ! A2    L(1,2,4,-2,-1)        180.0            -DE/DX =    0.0                 !
 ! A3    L(2,1,3,-3,-2)        180.0            -DE/DX =    0.0                 !
 ! A4    L(1,2,4,-3,-2)        180.0            -DE/DX =    0.0                 !
 --------------------------------------------------------------------------------
 Lowest energy point so far.  Saving SCF results.
 Largest change from initial coordinates is atom    3       0.031 Angstoms.
 GradGradGradGradGradGradGradGradGradGradGradGradGradGradGradGradGradGrad

 Leave Link  103 at Tue Dec  3 20:03:38 2024, MaxMem=   536870912 cpu:               0.0 elap:               0.0
 (Enter /home/szhao/Apps/g16/l202.exe)
                          Input orientation:                          
 ---------------------------------------------------------------------
 Center     Atomic      Atomic             Coordinates (Angstroms)
 Number     Number       Type             X           Y           Z
 ---------------------------------------------------------------------
      1          6           0       -0.616471    0.000000    0.000000
      2          6           0        0.616471    0.000000    0.000000
      3          1           0       -1.681641   -0.000000    0.000000
      4          1           0        1.681641   -0.000000    0.000000
 ---------------------------------------------------------------------
                    Distance matrix (angstroms):
                    1          2          3          4
     1  C    0.000000
     2  C    1.232942   0.000000
     3  H    1.065171   2.298112   0.000000
     4  H    2.298112   1.065170   3.363283   0.000000
 Symmetry turned off by external request.
 Stoichiometry    C2H2
 Framework group  C*V[C*(HCCH)]
 Deg. of freedom     3
 Full point group                 C*V     NOp   4
 Rotational constants (GHZ):           0.0000000          34.0989224          34.0989224
 Leave Link  202 at Tue Dec  3 20:03:38 2024, MaxMem=   536870912 cpu:               0.0 elap:               0.0
 (Enter /home/szhao/Apps/g16/l601.exe)
 Copying SCF densities to generalized density rwf, IOpCl= 1 IROHF=0.

 **********************************************************************

            Population analysis using the SCF density.

 **********************************************************************

 Alpha  occ. eigenvalues --  -10.55829 -10.55610  -0.84673  -0.65173  -0.56716
 Alpha  occ. eigenvalues --   -0.35253  -0.35253
 Alpha virt. eigenvalues --    0.02590   0.02765   0.04054   0.04054   0.07690
 Alpha virt. eigenvalues --    0.07690   0.09299   0.14282   0.14282   0.15508
 Alpha virt. eigenvalues --    0.19661   0.24297   0.39121   0.44881   0.57135
 Alpha virt. eigenvalues --    0.57135   0.65379   0.65379   0.71423   0.73443
 Alpha virt. eigenvalues --    0.84208   1.00911   1.08828   1.09917   1.09917
 Alpha virt. eigenvalues --    1.21350   1.21350   1.48292   1.48292   1.59449
 Alpha virt. eigenvalues --    1.59449   1.71098   1.86399   1.86399   2.12012
 Alpha virt. eigenvalues --    2.49346   2.49346   2.57220   2.64954   2.79022
 Alpha virt. eigenvalues --    2.79022   2.99502   3.01483   3.01483   3.35026
 Alpha virt. eigenvalues --    3.35099   3.78820  23.63611  25.08701
  Beta  occ. eigenvalues --  -10.55829 -10.55610  -0.84673  -0.65173  -0.56716
  Beta  occ. eigenvalues --   -0.35253  -0.35253
  Beta virt. eigenvalues --    0.02590   0.02765   0.04054   0.04054   0.07690
  Beta virt. eigenvalues --    0.07690   0.09299   0.14282   0.14282   0.15508
  Beta virt. eigenvalues --    0.19661   0.24297   0.39121   0.44881   0.57135
  Beta virt. eigenvalues --    0.57135   0.65379   0.65379   0.71423   0.73443
  Beta virt. eigenvalues --    0.84208   1.00911   1.08828   1.09917   1.09917
  Beta virt. eigenvalues --    1.21350   1.21350   1.48292   1.48292   1.59449
  Beta virt. eigenvalues --    1.59449   1.71098   1.86399   1.86399   2.12012
  Beta virt. eigenvalues --    2.49346   2.49346   2.57220   2.64954   2.79022
  Beta virt. eigenvalues --    2.79022   2.99502   3.01483   3.01483   3.35026
  Beta virt. eigenvalues --    3.35099   3.78820  23.63611  25.08701
          Condensed to atoms (all electrons):
               1          2          3          4
     1  C    4.779666   1.030769   0.349585   0.020999
     2  C    1.030769   4.779666   0.020999   0.349585
     3  H    0.349585   0.020999   0.447812   0.000585
     4  H    0.020999   0.349585   0.000585   0.447812
          Atomic-Atomic Spin Densities.
               1          2          3          4
     1  C   -0.000000  -0.000000  -0.000000  -0.000000
     2  C   -0.000000   0.000000   0.000000   0.000000
     3  H   -0.000000   0.000000  -0.000000  -0.000000
     4  H   -0.000000   0.000000  -0.000000   0.000000
 Mulliken charges and spin densities:
               1          2
     1  C   -0.181019  -0.000000
     2  C   -0.181019   0.000000
     3  H    0.181019  -0.000000
     4  H    0.181019   0.000000
 Sum of Mulliken charges =  -0.00000   0.00000
 Mulliken charges and spin densities with hydrogens summed into heavy atoms:
               1          2
     1  C    0.000000  -0.000000
     2  C   -0.000000   0.000000
 Electronic spatial extent (au):  <R**2>=             62.2792
 Charge=             -0.0000 electrons
 Dipole moment (field-independent basis, Debye):
    X=             -0.0000    Y=             -0.0000    Z=              0.0000  Tot=              0.0000
 Quadrupole moment (field-independent basis, Debye-Ang):
   XX=             -6.7648   YY=            -13.9660   ZZ=            -13.9660
   XY=             -0.0000   XZ=              0.0000   YZ=             -0.0000
 Traceless Quadrupole moment (field-independent basis, Debye-Ang):
   XX=              4.8008   YY=             -2.4004   ZZ=             -2.4004
   XY=             -0.0000   XZ=              0.0000   YZ=             -0.0000
 Octapole moment (field-independent basis, Debye-Ang**2):
  XXX=             -0.0000  YYY=              0.0000  ZZZ=             -0.0000  XYY=              0.0000
  XXY=             -0.0000  XXZ=              0.0000  XZZ=              0.0000  YZZ=              0.0000
  YYZ=             -0.0000  XYZ=              0.0000
 Hexadecapole moment (field-independent basis, Debye-Ang**3):
 XXXX=            -38.0842 YYYY=            -17.5291 ZZZZ=            -17.5291 XXXY=             -0.0000
 XXXZ=              0.0000 YYYX=              0.0000 YYYZ=             -0.0000 ZZZX=             -0.0000
 ZZZY=             -0.0000 XXYY=            -13.0103 XXZZ=            -13.0103 YYZZ=             -5.8430
 XXYZ=             -0.0000 YYXZ=             -0.0000 ZZXY=              0.0000
 N-N= 2.433329548601D+01 E-N=-2.278293514604D+02  KE= 7.684144891831D+01
                          Isotropic Fermi Contact Couplings
        Atom                 a.u.       MegaHertz       Gauss      10(-4) cm-1
     1  C(13)              0.00000       0.00000       0.00000       0.00000
     2  C(13)              0.00000       0.00000       0.00000       0.00000
     3  H(1)              -0.00000      -0.00000      -0.00000      -0.00000
     4  H(1)              -0.00000      -0.00000      -0.00000      -0.00000
 --------------------------------------------------------
       Center         ----  Spin Dipole Couplings  ----
                      3XX-RR        3YY-RR        3ZZ-RR
 --------------------------------------------------------
     1   Atom        0.000000      0.000000      0.000000
     2   Atom        0.000000      0.000000      0.000000
     3   Atom        0.000000      0.000000      0.000000
     4   Atom        0.000000      0.000000      0.000000
 --------------------------------------------------------
                        XY            XZ            YZ
 --------------------------------------------------------
     1   Atom        0.000000      0.000000      0.000000
     2   Atom        0.000000      0.000000      0.000000
     3   Atom        0.000000      0.000000      0.000000
     4   Atom        0.000000      0.000000      0.000000
 --------------------------------------------------------


 ---------------------------------------------------------------------------------
              Anisotropic Spin Dipole Couplings in Principal Axis System
 ---------------------------------------------------------------------------------

       Atom             a.u.   MegaHertz   Gauss  10(-4) cm-1        Axes

              Baa     0.0000     0.000     0.000     0.000  1.0000  0.0000  0.0000
     1 C(13)  Bbb     0.0000     0.000     0.000     0.000 -0.0000  1.0000  0.0000
              Bcc     0.0000     0.000     0.000     0.000  0.0000  0.0000  1.0000
 
              Baa     0.0000     0.000     0.000     0.000  1.0000  0.0000  0.0000
     2 C(13)  Bbb     0.0000     0.000     0.000     0.000 -0.0000  1.0000  0.0000
              Bcc     0.0000     0.000     0.000     0.000  0.0000  0.0000  1.0000
 
              Baa     0.0000     0.000     0.000     0.000  1.0000  0.0000  0.0000
     3 H(1)   Bbb     0.0000     0.000     0.000     0.000 -0.0000  1.0000  0.0000
              Bcc     0.0000     0.000     0.000     0.000  0.0000  0.0000  1.0000
 
              Baa     0.0000     0.000     0.000     0.000  1.0000  0.0000  0.0000
     4 H(1)   Bbb     0.0000     0.000     0.000     0.000 -0.0000  1.0000  0.0000
              Bcc     0.0000     0.000     0.000     0.000  0.0000  0.0000  1.0000
 

 ---------------------------------------------------------------------------------

 No NMR shielding tensors so no spin-rotation constants.
 Leave Link  601 at Tue Dec  3 20:03:38 2024, MaxMem=   536870912 cpu:               0.9 elap:               0.1
 (Enter /home/szhao/Apps/g16/l9999.exe)
 1\1\GINC-NODE01\FOpt\UM062X\6-311+G(d,p)\C2H2\SZHAO\03-Dec-2024\0\\#p 
 opt UM062X/6-311+G** nosymm int=superfine\\Title Card Required\\0,1\C,
 -0.61647096,0.,0.\C,0.61647096,0.,0.\H,-1.6816414778,-0.0000000001,0.0
 000000013\H,1.6816412505,-0.0000000223,0.0000000225\\Version=ES64L-G16
 RevA.03\HF=-77.3138018\S2=0.\S2-1=0.\S2A=0.\RMSD=9.763e-10\RMSF=8.505e
 -07\Dipole=0.,0.,0.\Quadrupole=3.5692792,-1.7846396,-1.7846396,0.,0.,0
 .\PG=C*V [C*(H1C1C1H1)]\\@


 IF THERE IS ONE WAY BETTER THAN ANOTHER IT IS THE WAY OF NATURE.

                          -- ARISTOTLE
 Job cpu time:       0 days  0 hours  1 minutes 39.3 seconds.
 Elapsed time:       0 days  0 hours  0 minutes 12.6 seconds.
 File lengths (MBytes):  RWF=      6 Int=      0 D2E=      0 Chk=      1 Scr=      1
 Normal termination of Gaussian 16 at Tue Dec  3 20:03:38 2024.
