 Entering Gaussian System, Link 0=g16
 Initial command:
 /home/szhao/Apps/g16/l1.exe "/home/szhao/tmp/Gau-54751.inp" -scrdir="/home/szhao/tmp/"
 Default is to use a total of  16 processors:
                               16 via shared-memory
                                1 via Linda
 Entering Link 1 = /home/szhao/Apps/g16/l1.exe PID=     54754.
  
 Copyright (c) 1988,1990,1992,1993,1995,1998,2003,2009,2016,
            Gaussian, Inc.  All Rights Reserved.
  
 This is part of the Gaussian(R) 16 program.  It is based on
 the Gaussian(R) 09 system (copyright 2009, Gaussian, Inc.),
 the Gaussian(R) 03 system (copyright 2003, Gaussian, Inc.),
 the Gaussian(R) 98 system (copyright 1998, Gaussian, Inc.),
 the Gaussian(R) 94 system (copyright 1995, Gaussian, Inc.),
 the Gaussian 92(TM) system (copyright 1992, Gaussian, Inc.),
 the Gaussian 90(TM) system (copyright 1990, Gaussian, Inc.),
 the Gaussian 88(TM) system (copyright 1988, Gaussian, Inc.),
 the Gaussian 86(TM) system (copyright 1986, Carnegie Mellon
 University), and the Gaussian 82(TM) system (copyright 1983,
 Carnegie Mellon University). Gaussian is a federally registered
 trademark of Gaussian, Inc.
  
 This software contains proprietary and confidential information,
 including trade secrets, belonging to Gaussian, Inc.
  
 This software is provided under written license and may be
 used, copied, transmitted, or stored only in accord with that
 written license.
  
 The following legend is applicable only to US Government
 contracts under FAR:
  
                    RESTRICTED RIGHTS LEGEND
  
 Use, reproduction and disclosure by the US Government is
 subject to restrictions as set forth in subparagraphs (a)
 and (c) of the Commercial Computer Software - Restricted
 Rights clause in FAR 52.227-19.
  
 Gaussian, Inc.
 340 Quinnipiac St., Bldg. 40, Wallingford CT 06492
  
  
 ---------------------------------------------------------------
 Warning -- This program may not be used in any manner that
 competes with the business of Gaussian, Inc. or will provide
 assistance to any competitor of Gaussian, Inc.  The licensee
 of this program is prohibited from giving any competitor of
 Gaussian, Inc. access to this program.  By using this program,
 the user acknowledges that Gaussian, Inc. is engaged in the
 business of creating and licensing software in the field of
 computational chemistry and represents and warrants to the
 licensee that it is not a competitor of Gaussian, Inc. and that
 it will not use this program in any manner prohibited above.
 ---------------------------------------------------------------
  

 Cite this work as:
 Gaussian 16, Revision A.03,
 M. J. Frisch, G. W. Trucks, H. B. Schlegel, G. E. Scuseria, 
 M. A. Robb, J. R. Cheeseman, G. Scalmani, V. Barone, 
 G. A. Petersson, H. Nakatsuji, X. Li, M. Caricato, A. V. Marenich, 
 J. Bloino, B. G. Janesko, R. Gomperts, B. Mennucci, H. P. Hratchian, 
 J. V. Ortiz, A. F. Izmaylov, J. L. Sonnenberg, D. Williams-Young, 
 F. Ding, F. Lipparini, F. Egidi, J. Goings, B. Peng, A. Petrone, 
 T. Henderson, D. Ranasinghe, V. G. Zakrzewski, J. Gao, N. Rega, 
 G. Zheng, W. Liang, M. Hada, M. Ehara, K. Toyota, R. Fukuda, 
 J. Hasegawa, M. Ishida, T. Nakajima, Y. Honda, O. Kitao, H. Nakai, 
 T. Vreven, K. Throssell, J. A. Montgomery, Jr., J. E. Peralta, 
 F. Ogliaro, M. J. Bearpark, J. J. Heyd, E. N. Brothers, K. N. Kudin, 
 V. N. Staroverov, T. A. Keith, R. Kobayashi, J. Normand, 
 K. Raghavachari, A. P. Rendell, J. C. Burant, S. S. Iyengar, 
 J. Tomasi, M. Cossi, J. M. Millam, M. Klene, C. Adamo, R. Cammi, 
 J. W. Ochterski, R. L. Martin, K. Morokuma, O. Farkas, 
 J. B. Foresman, and D. J. Fox, Gaussian, Inc., Wallingford CT, 2016.
 
 ******************************************
 Gaussian 16:  ES64L-G16RevA.03 25-Dec-2016
                21-Apr-2025 
 ******************************************
 %chk=opt.chk
 %mem=4GB
 %nprocshared=8
 Will use up to    8 processors via shared memory.
 --------------------------------------------
 #p opt UM062X/6-311+G** nosymm int=superfine
 --------------------------------------------
 1/18=20,19=15,26=5,38=1/1,3;
 2/9=110,12=2,15=1,17=6,18=5,40=1/2;
 3/5=4,6=6,7=111,11=2,25=1,30=1,71=1,74=-55,75=-7,116=2/1,2,3;
 4//1;
 5/5=2,38=5/2;
 6/7=2,8=2,9=2,10=2,28=1/1;
 7/30=1/1,2,3,16;
 1/18=20,19=15,26=5/3(2);
 2/9=110,15=1/2;
 99//99;
 2/9=110,15=1/2;
 3/5=4,6=6,7=111,11=2,25=1,30=1,71=1,74=-55,75=-7,116=2/1,2,3;
 4/5=5,16=3,69=1/1;
 5/5=2,38=5/2;
 7/30=1/1,2,3,16;
 1/18=20,19=15,26=5/3(-5);
 2/9=110,15=1/2;
 6/7=2,8=2,9=2,10=2,19=2,28=1/1;
 99/9=1/99;
 Leave Link    1 at Mon Apr 21 19:28:44 2025, MaxMem=   536870912 cpu:               3.8 elap:               0.5
 (Enter /home/szhao/Apps/g16/l101.exe)
 -------------------
 Title Card Required
 -------------------
 Symbolic Z-matrix:
 Charge =  0 Multiplicity = 1
 C                    -1   -1.49038   0.        0. 
 P                    -1    1.49038   0.        0. 
 H                    0    -2.56382   0.        0. 
 
 Add virtual bond connecting atoms P2         and C1         Dist= 5.63D+00.
 ITRead=  2  2  0
 MicOpt= -2 -2 -1
 NAtoms=      3 NQM=        1 NQMF=       2 NMMI=      0 NMMIF=      0
                NMic=       0 NMicF=      0.
                    Isotopes and Nuclear Properties:
 (Nuclear quadrupole moments (NQMom) in fm**2, nuclear magnetic moments (NMagM)
  in nuclear magnetons)

  Atom         1           2           3
 IAtWgt=          12          31           1
 AtmWgt=  12.0000000  30.9737634   1.0078250
 NucSpn=           0           1           1
 AtZEff=  -0.0000000  -0.0000000  -0.0000000
 NQMom=    0.0000000   0.0000000   0.0000000
 NMagM=    0.0000000   1.1316000   2.7928460
 AtZNuc=   6.0000000  15.0000000   1.0000000
 Leave Link  101 at Mon Apr 21 19:28:45 2025, MaxMem=   536870912 cpu:               2.6 elap:               0.3
 (Enter /home/szhao/Apps/g16/l103.exe)

 GradGradGradGradGradGradGradGradGradGradGradGradGradGradGradGradGradGrad
 Berny optimization.
 Initialization pass.
                           ----------------------------
                           !    Initial Parameters    !
                           ! (Angstroms and Degrees)  !
 --------------------------                            --------------------------
 ! Name  Definition              Value          Derivative Info.                !
 --------------------------------------------------------------------------------
 ! X1    R(1,-1)                -1.4904         Frozen                          !
 ! Y1    R(1,-2)                 0.0            Frozen                          !
 ! Z1    R(1,-3)                 0.0            Frozen                          !
 ! X2    R(2,-1)                 1.4904         Frozen                          !
 ! Y2    R(2,-2)                 0.0            Frozen                          !
 ! Z2    R(2,-3)                 0.0            Frozen                          !
 ! R1    R(1,3)                  1.0734         estimate D2E/DX2                !
 ! A1    L(2,1,3,-2,-1)        180.0            estimate D2E/DX2                !
 ! A2    L(2,1,3,-3,-2)        180.0            estimate D2E/DX2                !
 --------------------------------------------------------------------------------
 Trust Radius=3.00D-01 FncErr=1.00D-07 GrdErr=1.00D-07 EigMax=2.50D+02 EigMin=1.00D-04
 Number of steps in this run=     20 maximum allowed number of steps=    100.
 GradGradGradGradGradGradGradGradGradGradGradGradGradGradGradGradGradGrad

 Leave Link  103 at Mon Apr 21 19:28:46 2025, MaxMem=   536870912 cpu:               1.0 elap:               0.3
 (Enter /home/szhao/Apps/g16/l202.exe)
                          Input orientation:                          
 ---------------------------------------------------------------------
 Center     Atomic      Atomic             Coordinates (Angstroms)
 Number     Number       Type             X           Y           Z
 ---------------------------------------------------------------------
      1          6           0       -1.490377    0.000000    0.000000
      2         15           0        1.490377    0.000000    0.000000
      3          1           0       -2.563816    0.000000    0.000000
 ---------------------------------------------------------------------
                    Distance matrix (angstroms):
                    1          2          3
     1  C    0.000000
     2  P    2.980754   0.000000
     3  H    1.073439   4.054193   0.000000
 Symmetry turned off by external request.
 Stoichiometry    CHP
 Framework group  C*V[C*(HCP)]
 Deg. of freedom     2
 Full point group                 C*V     NOp   4
 Rotational constants (GHZ):           0.0000000           5.8043972           5.8043972
 Leave Link  202 at Mon Apr 21 19:28:47 2025, MaxMem=   536870912 cpu:               0.8 elap:               0.3
 (Enter /home/szhao/Apps/g16/l301.exe)
 Standard basis: 6-311+G(d,p) (5D, 7F)
 Ernie: Thresh=  0.10000D-02 Tol=  0.10000D-05 Strict=F.
    58 basis functions,    94 primitive gaussians,    60 cartesian basis functions
    11 alpha electrons       11 beta electrons
       nuclear repulsion energy        20.8935502277 Hartrees.
 IExCor= 4336 DFT=T Ex+Corr=M062X ExCW=0 ScaHFX=  0.540000
 ScaDFX=  1.000000  1.000000  1.000000  1.000000 ScalE2=  1.000000  1.000000
 IRadAn=      7 IRanWt=     -1 IRanGd=            0 ICorTp=0 IEmpDi=  4
 NAtoms=    3 NActive=    3 NUniq=    3 SFac= 1.00D+00 NAtFMM=   60 NAOKFM=F Big=F
 Integral buffers will be    131072 words long.
 Raffenetti 2 integral format.
 Two-electron integral symmetry is turned off.
 Leave Link  301 at Mon Apr 21 19:28:47 2025, MaxMem=   536870912 cpu:               1.0 elap:               0.2
 (Enter /home/szhao/Apps/g16/l302.exe)
 NPDir=0 NMtPBC=     1 NCelOv=     1 NCel=       1 NClECP=     1 NCelD=      1
         NCelK=      1 NCelE2=     1 NClLst=     1 CellRange=     0.0.
 One-electron integrals computed using PRISM.
 NBasis=    58 RedAO= T EigKep=  1.25D-02  NBF=    58
 NBsUse=    58 1.00D-06 EigRej= -1.00D+00 NBFU=    58
 Precomputing XC quadrature grid using
 IXCGrd= 4 IRadAn=           7 IRanWt=          -1 IRanGd=           0 AccXCQ= 0.00D+00.
 Generated NRdTot=       0 NPtTot=           0 NUsed=           0 NTot=          32
 NSgBfM=    59    59    59    59    59 MxSgAt=     3 MxSgA2=     3.
 Leave Link  302 at Mon Apr 21 19:28:48 2025, MaxMem=   536870912 cpu:               2.6 elap:               0.4
 (Enter /home/szhao/Apps/g16/l303.exe)
 DipDrv:  MaxL=1.
 Leave Link  303 at Mon Apr 21 19:28:48 2025, MaxMem=   536870912 cpu:               0.5 elap:               0.3
 (Enter /home/szhao/Apps/g16/l401.exe)
 ExpMin= 3.48D-02 ExpMax= 7.75D+04 ExpMxC= 2.65D+03 IAcc=3 IRadAn=         7 AccDes= 0.00D+00
 Harris functional with IExCor= 1009 and IRadAn=       7 diagonalized for initial guess.
 HarFok:  IExCor= 1009 AccDes= 0.00D+00 IRadAn=         7 IDoV= 1 UseB2=F ITyADJ=14
 ICtDFT=  3500011 ScaDFX=  1.000000  1.000000  1.000000  1.000000
 FoFCou: FMM=F IPFlag=           0 FMFlag=      100000 FMFlg1=           0
         NFxFlg=           0 DoJE=T BraDBF=F KetDBF=T FulRan=T
         wScrn=  0.000000 ICntrl=       500 IOpCl=  0 I1Cent=   200000004 NGrid=           0
         NMat0=    1 NMatS0=      1 NMatT0=    0 NMatD0=    1 NMtDS0=    0 NMtDT0=    0
 Symmetry not used in FoFCou.
 Harris En= -379.514688262110    
 JPrj=0 DoOrth=F DoCkMO=F.
 Initial guess <Sx>= 0.0000 <Sy>= 0.0000 <Sz>= 0.0000 <S**2>=-0.0000 S=-0.0000
 Leave Link  401 at Mon Apr 21 19:28:49 2025, MaxMem=   536870912 cpu:               2.3 elap:               0.4
 (Enter /home/szhao/Apps/g16/l502.exe)
 Keep R1 and R2 ints in memory in canonical form, NReq=10036953.
 FoFCou: FMM=F IPFlag=           0 FMFlag=           0 FMFlg1=           0
         NFxFlg=           0 DoJE=F BraDBF=F KetDBF=F FulRan=T
         wScrn=  0.000000 ICntrl=       600 IOpCl=  0 I1Cent=           0 NGrid=           0
         NMat0=    1 NMatS0=   1711 NMatT0=    0 NMatD0=    1 NMtDS0=    0 NMtDT0=    0
 Symmetry not used in FoFCou.
 Two-electron integral symmetry not used.
 UHF open shell SCF:
 Using DIIS extrapolation, IDIIS=  1040.
 NGot=   536870912 LenX=   533933447 LenY=   533929406
 Requested convergence on RMS density matrix=1.00D-08 within 128 cycles.
 Requested convergence on MAX density matrix=1.00D-06.
 Requested convergence on             energy=1.00D-06.
 No special actions if energy rises.

 Cycle   1  Pass 1  IDiag  1:
 E= -378.363946187074    
 DIIS: error= 1.50D-01 at cycle   1 NSaved=   1.
 NSaved= 1 IEnMin= 1 EnMin= -378.363946187074     IErMin= 1 ErrMin= 1.50D-01
 ErrMax= 1.50D-01  0.00D+00 EMaxC= 1.00D-01 BMatC= 3.03D+00 BMatP= 3.03D+00
 IDIUse=3 WtCom= 0.00D+00 WtEn= 1.00D+00
 Coeff-Com:  0.100D+01
 Coeff-En:   0.100D+01
 Coeff:      0.100D+01
 Gap=    -0.623 Goal=   None    Shift=    0.000
 Gap=    -0.623 Goal=   None    Shift=    0.000
 GapD=   -0.623 DampG=0.250 DampE=0.250 DampFc=0.2500 IDamp=-1.
 Damping current iteration by 2.50D-01
 RMSDP=3.85D-02 MaxDP=6.49D-01              OVMax= 9.92D-01

 Cycle   2  Pass 1  IDiag  1:
 E= -378.917842206213     Delta-E=       -0.553896019139 Rises=F Damp=T
 DIIS: error= 1.91D-02 at cycle   2 NSaved=   2.
 NSaved= 2 IEnMin= 2 EnMin= -378.917842206213     IErMin= 2 ErrMin= 1.91D-02
 ErrMax= 1.91D-02  0.00D+00 EMaxC= 1.00D-01 BMatC= 1.56D-01 BMatP= 3.03D+00
 IDIUse=3 WtCom= 8.09D-01 WtEn= 1.91D-01
 Coeff-Com: -0.187D+00 0.119D+01
 Coeff-En:   0.148D+00 0.852D+00
 Coeff:     -0.123D+00 0.112D+01
 Gap=    -0.521 Goal=   None    Shift=    0.000
 Gap=    -0.521 Goal=   None    Shift=    0.000
 RMSDP=1.20D-02 MaxDP=1.45D-01 DE=-5.54D-01 OVMax= 8.72D-01

 Cycle   3  Pass 1  IDiag  1:
 E= -379.463090276338     Delta-E=       -0.545248070126 Rises=F Damp=F
 DIIS: error= 4.59D-02 at cycle   3 NSaved=   3.
 NSaved= 3 IEnMin= 3 EnMin= -379.463090276338     IErMin= 2 ErrMin= 1.91D-02
 ErrMax= 4.59D-02  0.00D+00 EMaxC= 1.00D-01 BMatC= 4.21D-01 BMatP= 1.56D-01
 IDIUse=2 WtCom= 0.00D+00 WtEn= 1.00D+00
 Coeff-En:   0.209D+00 0.000D+00 0.791D+00
 Coeff:      0.209D+00 0.000D+00 0.791D+00
 Gap=     0.117 Goal=   None    Shift=    0.000
 Gap=     0.117 Goal=   None    Shift=    0.000
 RMSDP=6.64D-03 MaxDP=1.05D-01 DE=-5.45D-01 OVMax= 2.68D-01

 Cycle   4  Pass 1  IDiag  1:
 E= -379.506392204264     Delta-E=       -0.043301927926 Rises=F Damp=F
 DIIS: error= 5.59D-02 at cycle   4 NSaved=   4.
 NSaved= 4 IEnMin= 4 EnMin= -379.506392204264     IErMin= 2 ErrMin= 1.91D-02
 ErrMax= 5.59D-02  0.00D+00 EMaxC= 1.00D-01 BMatC= 3.21D-01 BMatP= 1.56D-01
 IDIUse=2 WtCom= 0.00D+00 WtEn= 1.00D+00
 Coeff-En:   0.000D+00 0.000D+00 0.445D+00 0.555D+00
 Coeff:      0.000D+00 0.000D+00 0.445D+00 0.555D+00
 Gap=     0.109 Goal=   None    Shift=    0.000
 Gap=     0.109 Goal=   None    Shift=    0.000
 RMSDP=4.61D-03 MaxDP=8.26D-02 DE=-4.33D-02 OVMax= 2.36D-01

 Cycle   5  Pass 1  IDiag  1:
 E= -379.587684415721     Delta-E=       -0.081292211457 Rises=F Damp=F
 DIIS: error= 2.21D-02 at cycle   5 NSaved=   5.
 NSaved= 5 IEnMin= 5 EnMin= -379.587684415721     IErMin= 2 ErrMin= 1.91D-02
 ErrMax= 2.21D-02  0.00D+00 EMaxC= 1.00D-01 BMatC= 6.39D-02 BMatP= 1.56D-01
 IDIUse=3 WtCom= 7.79D-01 WtEn= 2.21D-01
 Coeff-Com:  0.140D-01-0.513D-01-0.770D-02 0.297D+00 0.748D+00
 Coeff-En:   0.000D+00 0.000D+00 0.000D+00 0.292D+00 0.708D+00
 Coeff:      0.109D-01-0.400D-01-0.600D-02 0.296D+00 0.739D+00
 Gap=     0.108 Goal=   None    Shift=    0.000
 Gap=     0.108 Goal=   None    Shift=    0.000
 RMSDP=2.25D-03 MaxDP=3.64D-02 DE=-8.13D-02 OVMax= 9.75D-02

 Cycle   6  Pass 1  IDiag  1:
 E= -379.609474289049     Delta-E=       -0.021789873328 Rises=F Damp=F
 DIIS: error= 1.04D-02 at cycle   6 NSaved=   6.
 NSaved= 6 IEnMin= 6 EnMin= -379.609474289049     IErMin= 6 ErrMin= 1.04D-02
 ErrMax= 1.04D-02  0.00D+00 EMaxC= 1.00D-01 BMatC= 1.02D-02 BMatP= 6.39D-02
 IDIUse=3 WtCom= 8.96D-01 WtEn= 1.04D-01
 Coeff-Com:  0.609D-02-0.683D-02-0.724D-01-0.114D+00 0.301D+00 0.886D+00
 Coeff-En:   0.000D+00 0.000D+00 0.000D+00 0.000D+00 0.227D+00 0.773D+00
 Coeff:      0.546D-02-0.612D-02-0.648D-01-0.102D+00 0.294D+00 0.874D+00
 Gap=     0.115 Goal=   None    Shift=    0.000
 Gap=     0.115 Goal=   None    Shift=    0.000
 RMSDP=1.13D-03 MaxDP=1.97D-02 DE=-2.18D-02 OVMax= 5.62D-02

 Cycle   7  Pass 1  IDiag  1:
 E= -379.613146646382     Delta-E=       -0.003672357333 Rises=F Damp=F
 DIIS: error= 4.55D-03 at cycle   7 NSaved=   7.
 NSaved= 7 IEnMin= 7 EnMin= -379.613146646382     IErMin= 7 ErrMin= 4.55D-03
 ErrMax= 4.55D-03  0.00D+00 EMaxC= 1.00D-01 BMatC= 2.60D-03 BMatP= 1.02D-02
 IDIUse=3 WtCom= 9.54D-01 WtEn= 4.55D-02
 Coeff-Com:  0.378D-02-0.279D-02-0.211D-01-0.158D-01-0.582D-01 0.212D+00
 Coeff-Com:  0.882D+00
 Coeff-En:   0.000D+00 0.000D+00 0.000D+00 0.000D+00 0.000D+00 0.251D+00
 Coeff-En:   0.749D+00
 Coeff:      0.361D-02-0.266D-02-0.201D-01-0.150D-01-0.555D-01 0.213D+00
 Coeff:      0.876D+00
 Gap=     0.114 Goal=   None    Shift=    0.000
 Gap=     0.114 Goal=   None    Shift=    0.000
 RMSDP=3.22D-04 MaxDP=3.56D-03 DE=-3.67D-03 OVMax= 1.41D-02

 Cycle   8  Pass 1  IDiag  1:
 E= -379.614138562529     Delta-E=       -0.000991916147 Rises=F Damp=F
 DIIS: error= 1.09D-03 at cycle   8 NSaved=   8.
 NSaved= 8 IEnMin= 8 EnMin= -379.614138562529     IErMin= 8 ErrMin= 1.09D-03
 ErrMax= 1.09D-03  0.00D+00 EMaxC= 1.00D-01 BMatC= 1.54D-04 BMatP= 2.60D-03
 IDIUse=3 WtCom= 9.89D-01 WtEn= 1.09D-02
 Coeff-Com: -0.103D-02 0.782D-03 0.357D-02 0.134D-01-0.395D-01-0.466D-01
 Coeff-Com: -0.103D+00 0.117D+01
 Coeff-En:   0.000D+00 0.000D+00 0.000D+00 0.000D+00 0.000D+00 0.000D+00
 Coeff-En:   0.000D+00 0.100D+01
 Coeff:     -0.102D-02 0.774D-03 0.353D-02 0.133D-01-0.391D-01-0.461D-01
 Coeff:     -0.102D+00 0.117D+01
 Gap=     0.113 Goal=   None    Shift=    0.000
 Gap=     0.113 Goal=   None    Shift=    0.000
 RMSDP=1.43D-04 MaxDP=1.70D-03 DE=-9.92D-04 OVMax= 6.17D-03

 Cycle   9  Pass 1  IDiag  1:
 E= -379.614203476340     Delta-E=       -0.000064913811 Rises=F Damp=F
 DIIS: error= 3.12D-04 at cycle   9 NSaved=   9.
 NSaved= 9 IEnMin= 9 EnMin= -379.614203476340     IErMin= 9 ErrMin= 3.12D-04
 ErrMax= 3.12D-04  0.00D+00 EMaxC= 1.00D-01 BMatC= 9.35D-06 BMatP= 1.54D-04
 IDIUse=3 WtCom= 9.97D-01 WtEn= 3.12D-03
 Coeff-Com:  0.368D-03-0.479D-03-0.634D-03-0.242D-02 0.107D-01-0.241D-01
 Coeff-Com: -0.489D-01 0.547D-02 0.106D+01
 Coeff-En:   0.000D+00 0.000D+00 0.000D+00 0.000D+00 0.000D+00 0.000D+00
 Coeff-En:   0.000D+00 0.000D+00 0.100D+01
 Coeff:      0.367D-03-0.478D-03-0.632D-03-0.241D-02 0.106D-01-0.241D-01
 Coeff:     -0.487D-01 0.545D-02 0.106D+01
 Gap=     0.113 Goal=   None    Shift=    0.000
 Gap=     0.113 Goal=   None    Shift=    0.000
 RMSDP=4.18D-05 MaxDP=5.64D-04 DE=-6.49D-05 OVMax= 1.91D-03

 Cycle  10  Pass 1  IDiag  1:
 E= -379.614206985314     Delta-E=       -0.000003508974 Rises=F Damp=F
 DIIS: error= 1.47D-04 at cycle  10 NSaved=  10.
 NSaved=10 IEnMin=10 EnMin= -379.614206985314     IErMin=10 ErrMin= 1.47D-04
 ErrMax= 1.47D-04  0.00D+00 EMaxC= 1.00D-01 BMatC= 2.22D-06 BMatP= 9.35D-06
 IDIUse=3 WtCom= 9.99D-01 WtEn= 1.47D-03
 Coeff-Com: -0.249D-05 0.458D-04-0.971D-04 0.158D-03 0.233D-02 0.655D-02
 Coeff-Com: -0.473D-02-0.597D-01 0.849D-01 0.970D+00
 Coeff-En:   0.000D+00 0.000D+00 0.000D+00 0.000D+00 0.000D+00 0.000D+00
 Coeff-En:   0.000D+00 0.000D+00 0.245D+00 0.755D+00
 Coeff:     -0.249D-05 0.457D-04-0.970D-04 0.157D-03 0.233D-02 0.654D-02
 Coeff:     -0.473D-02-0.596D-01 0.851D-01 0.970D+00
 Gap=     0.113 Goal=   None    Shift=    0.000
 Gap=     0.113 Goal=   None    Shift=    0.000
 RMSDP=1.23D-05 MaxDP=2.07D-04 DE=-3.51D-06 OVMax= 6.21D-04

 Cycle  11  Pass 1  IDiag  1:
 E= -379.614207877536     Delta-E=       -0.000000892222 Rises=F Damp=F
 DIIS: error= 2.43D-05 at cycle  11 NSaved=  11.
 NSaved=11 IEnMin=11 EnMin= -379.614207877536     IErMin=11 ErrMin= 2.43D-05
 ErrMax= 2.43D-05  0.00D+00 EMaxC= 1.00D-01 BMatC= 6.22D-08 BMatP= 2.22D-06
 IDIUse=1 WtCom= 1.00D+00 WtEn= 0.00D+00
 Coeff-Com: -0.501D-06-0.515D-05 0.375D-05-0.340D-04 0.324D-03-0.244D-03
 Coeff-Com: -0.118D-02 0.153D-02-0.455D-02 0.863D-01 0.918D+00
 Coeff:     -0.501D-06-0.515D-05 0.375D-05-0.340D-04 0.324D-03-0.244D-03
 Coeff:     -0.118D-02 0.153D-02-0.455D-02 0.863D-01 0.918D+00
 Gap=     0.113 Goal=   None    Shift=    0.000
 Gap=     0.113 Goal=   None    Shift=    0.000
 RMSDP=1.61D-06 MaxDP=2.75D-05 DE=-8.92D-07 OVMax= 8.20D-05

 Cycle  12  Pass 1  IDiag  1:
 E= -379.614207902360     Delta-E=       -0.000000024823 Rises=F Damp=F
 DIIS: error= 8.01D-07 at cycle  12 NSaved=  12.
 NSaved=12 IEnMin=12 EnMin= -379.614207902360     IErMin=12 ErrMin= 8.01D-07
 ErrMax= 8.01D-07  0.00D+00 EMaxC= 1.00D-01 BMatC= 1.26D-10 BMatP= 6.22D-08
 IDIUse=1 WtCom= 1.00D+00 WtEn= 0.00D+00
 Coeff-Com: -0.278D-05 0.831D-06 0.169D-04 0.407D-04-0.107D-03-0.265D-03
 Coeff-Com:  0.106D-03 0.268D-02-0.716D-02-0.366D-01-0.545D-01 0.110D+01
 Coeff:     -0.278D-05 0.831D-06 0.169D-04 0.407D-04-0.107D-03-0.265D-03
 Coeff:      0.106D-03 0.268D-02-0.716D-02-0.366D-01-0.545D-01 0.110D+01
 Gap=     0.113 Goal=   None    Shift=    0.000
 Gap=     0.113 Goal=   None    Shift=    0.000
 RMSDP=1.36D-07 MaxDP=1.10D-06 DE=-2.48D-08 OVMax= 4.58D-06

 Cycle  13  Pass 1  IDiag  1:
 E= -379.614207902350     Delta-E=        0.000000000010 Rises=F Damp=F
 DIIS: error= 1.29D-06 at cycle  13 NSaved=  13.
 NSaved=13 IEnMin=12 EnMin= -379.614207902360     IErMin=12 ErrMin= 8.01D-07
 ErrMax= 1.29D-06  0.00D+00 EMaxC= 1.00D-01 BMatC= 1.75D-10 BMatP= 1.26D-10
 IDIUse=1 WtCom= 1.00D+00 WtEn= 0.00D+00
 Coeff-Com:  0.198D-06 0.767D-07 0.167D-05 0.265D-05-0.157D-04-0.472D-04
 Coeff-Com:  0.146D-03 0.351D-03-0.774D-03-0.571D-02-0.294D-01 0.217D+00
 Coeff-Com:  0.818D+00
 Coeff:      0.198D-06 0.767D-07 0.167D-05 0.265D-05-0.157D-04-0.472D-04
 Coeff:      0.146D-03 0.351D-03-0.774D-03-0.571D-02-0.294D-01 0.217D+00
 Coeff:      0.818D+00
 Gap=     0.113 Goal=   None    Shift=    0.000
 Gap=     0.113 Goal=   None    Shift=    0.000
 RMSDP=9.58D-08 MaxDP=1.59D-06 DE= 1.00D-11 OVMax= 4.39D-06

 Cycle  14  Pass 1  IDiag  1:
 E= -379.614207902419     Delta-E=       -0.000000000069 Rises=F Damp=F
 DIIS: error= 9.14D-08 at cycle  14 NSaved=  14.
 NSaved=14 IEnMin=14 EnMin= -379.614207902419     IErMin=14 ErrMin= 9.14D-08
 ErrMax= 9.14D-08  0.00D+00 EMaxC= 1.00D-01 BMatC= 8.55D-13 BMatP= 1.26D-10
 IDIUse=1 WtCom= 1.00D+00 WtEn= 0.00D+00
 Coeff-Com: -0.743D-07 0.989D-08-0.186D-06 0.568D-06-0.493D-06 0.864D-05
 Coeff-Com: -0.951D-06-0.137D-04-0.122D-03 0.515D-03 0.104D-02-0.212D-01
 Coeff-Com:  0.336D-01 0.986D+00
 Coeff:     -0.743D-07 0.989D-08-0.186D-06 0.568D-06-0.493D-06 0.864D-05
 Coeff:     -0.951D-06-0.137D-04-0.122D-03 0.515D-03 0.104D-02-0.212D-01
 Coeff:      0.336D-01 0.986D+00
 Gap=     0.113 Goal=   None    Shift=    0.000
 Gap=     0.113 Goal=   None    Shift=    0.000
 RMSDP=9.91D-09 MaxDP=1.85D-07 DE=-6.92D-11 OVMax= 4.84D-07

 SCF Done:  E(UM062X) =  -379.614207902     A.U. after   14 cycles
            NFock= 14  Conv=0.99D-08     -V/T= 2.0021
 <Sx>= 0.0000 <Sy>= 0.0000 <Sz>= 0.0000 <S**2>=-0.0000 S=-0.0000
 <L.S>=  0.00000000000    
 KE= 3.788327216412D+02 PE=-9.426659813988D+02 EE= 1.633255016276D+02
 Annihilation of the first spin contaminant:
 S**2 before annihilation    -0.0000,   after     0.0000
 Leave Link  502 at Mon Apr 21 19:28:54 2025, MaxMem=   536870912 cpu:              38.8 elap:               5.1
 (Enter /home/szhao/Apps/g16/l601.exe)
 Copying SCF densities to generalized density rwf, IOpCl= 1 IROHF=0.

 **********************************************************************

            Population analysis using the SCF density.

 **********************************************************************

 Alpha  occ. eigenvalues --  -78.08971 -10.70234  -6.90716  -5.02531  -5.01717
 Alpha  occ. eigenvalues --   -5.01717  -0.76770  -0.61657  -0.41863  -0.25235
 Alpha  occ. eigenvalues --   -0.25235
 Alpha virt. eigenvalues --   -0.13904  -0.13904  -0.10898   0.01319   0.03987
 Alpha virt. eigenvalues --    0.05890   0.05890   0.07534   0.09104   0.09104
 Alpha virt. eigenvalues --    0.14428   0.19441   0.32582   0.32786   0.32786
 Alpha virt. eigenvalues --    0.43005   0.55340   0.55880   0.55880   0.60158
 Alpha virt. eigenvalues --    0.70997   0.70997   0.72513   0.72513   0.77604
 Alpha virt. eigenvalues --    0.87077   1.11711   1.11711   1.31325   1.31325
 Alpha virt. eigenvalues --    1.54772   1.55687   1.55687   1.59771   1.86521
 Alpha virt. eigenvalues --    1.86521   2.36406   2.54953   2.69223   2.69223
 Alpha virt. eigenvalues --    3.24440   6.75769  13.94961  13.94961  13.96962
 Alpha virt. eigenvalues --   23.56982 162.99813
  Beta  occ. eigenvalues --  -78.08971 -10.70234  -6.90716  -5.02531  -5.01717
  Beta  occ. eigenvalues --   -5.01717  -0.76770  -0.61657  -0.41863  -0.25235
  Beta  occ. eigenvalues --   -0.25235
  Beta virt. eigenvalues --   -0.13904  -0.13904  -0.10898   0.01319   0.03987
  Beta virt. eigenvalues --    0.05890   0.05890   0.07534   0.09104   0.09104
  Beta virt. eigenvalues --    0.14428   0.19441   0.32582   0.32786   0.32786
  Beta virt. eigenvalues --    0.43005   0.55340   0.55880   0.55880   0.60158
  Beta virt. eigenvalues --    0.70997   0.70997   0.72513   0.72513   0.77604
  Beta virt. eigenvalues --    0.87077   1.11711   1.11711   1.31325   1.31325
  Beta virt. eigenvalues --    1.54772   1.55687   1.55687   1.59771   1.86521
  Beta virt. eigenvalues --    1.86521   2.36406   2.54953   2.69223   2.69223
  Beta virt. eigenvalues --    3.24440   6.75769  13.94961  13.94961  13.96962
  Beta virt. eigenvalues --   23.56982 162.99813
          Condensed to atoms (all electrons):
               1          2          3
     1  C    5.787030   0.147235   0.279334
     2  P    0.147235  14.821153   0.001668
     3  H    0.279334   0.001668   0.535343
          Atomic-Atomic Spin Densities.
               1          2          3
     1  C    0.000000   0.000000   0.000000
     2  P    0.000000  -0.000000  -0.000000
     3  H    0.000000  -0.000000  -0.000000
 Mulliken charges and spin densities:
               1          2
     1  C   -0.213599   0.000000
     2  P    0.029944  -0.000000
     3  H    0.183655  -0.000000
 Sum of Mulliken charges =  -0.00000  -0.00000
 Mulliken charges and spin densities with hydrogens summed into heavy atoms:
               1          2
     1  C   -0.029944   0.000000
     2  P    0.029944  -0.000000
 Electronic spatial extent (au):  <R**2>=            233.6038
 Charge=             -0.0000 electrons
 Dipole moment (field-independent basis, Debye):
    X=             -1.8167    Y=              0.0000    Z=              0.0000  Tot=              1.8167
 Quadrupole moment (field-independent basis, Debye-Ang):
   XX=            -10.9142   YY=            -23.8349   ZZ=            -23.8349
   XY=              0.0000   XZ=              0.0000   YZ=             -0.0000
 Traceless Quadrupole moment (field-independent basis, Debye-Ang):
   XX=              8.6138   YY=             -4.3069   ZZ=             -4.3069
   XY=              0.0000   XZ=              0.0000   YZ=             -0.0000
 Octapole moment (field-independent basis, Debye-Ang**2):
  XXX=            -31.2322  YYY=              0.0000  ZZZ=              0.0000  XYY=            -12.5609
  XXY=              0.0000  XXZ=              0.0000  XZZ=            -12.5609  YZZ=              0.0000
  YYZ=              0.0000  XYZ=             -0.0000
 Hexadecapole moment (field-independent basis, Debye-Ang**3):
 XXXX=           -232.2961 YYYY=            -45.0262 ZZZZ=            -45.0262 XXXY=             -0.0000
 XXXZ=              0.0000 YYYX=              0.0000 YYYZ=             -0.0000 ZZZX=              0.0000
 ZZZY=             -0.0000 XXYY=            -63.2069 XXZZ=            -63.2069 YYZZ=            -15.0087
 XXYZ=             -0.0000 YYXZ=              0.0000 ZZXY=              0.0000
 N-N= 2.089355022769D+01 E-N=-9.426659768794D+02  KE= 3.788327216412D+02
                          Isotropic Fermi Contact Couplings
        Atom                 a.u.       MegaHertz       Gauss      10(-4) cm-1
     1  C(13)             -0.00000      -0.00000      -0.00000      -0.00000
     2  P(31)              0.00000       0.00000       0.00000       0.00000
     3  H(1)              -0.00000      -0.00000      -0.00000      -0.00000
 --------------------------------------------------------
       Center         ----  Spin Dipole Couplings  ----
                      3XX-RR        3YY-RR        3ZZ-RR
 --------------------------------------------------------
     1   Atom       -0.000000      0.000000      0.000000
     2   Atom        0.000000     -0.000000     -0.000000
     3   Atom        0.000000     -0.000000     -0.000000
 --------------------------------------------------------
                        XY            XZ            YZ
 --------------------------------------------------------
     1   Atom        0.000000     -0.000000     -0.000000
     2   Atom       -0.000000      0.000000      0.000000
     3   Atom        0.000000     -0.000000     -0.000000
 --------------------------------------------------------


 ---------------------------------------------------------------------------------
              Anisotropic Spin Dipole Couplings in Principal Axis System
 ---------------------------------------------------------------------------------

       Atom             a.u.   MegaHertz   Gauss  10(-4) cm-1        Axes

              Baa    -0.0000    -0.000    -0.000    -0.000  1.0000 -0.0000  0.0000
     1 C(13)  Bbb    -0.0000    -0.000    -0.000    -0.000 -0.0000  0.7042  0.7100
              Bcc     0.0000     0.000     0.000     0.000  0.0000  0.7100 -0.7042
 
              Baa    -0.0000    -0.000    -0.000    -0.000  0.0000  0.7124 -0.7018
     2 P(31)  Bbb     0.0000     0.000     0.000     0.000  0.0000  0.7018  0.7124
              Bcc     0.0000     0.000     0.000     0.000  1.0000 -0.0000  0.0000
 
              Baa    -0.0000    -0.000    -0.000    -0.000  0.0000  0.7041  0.7101
     3 H(1)   Bbb    -0.0000    -0.000    -0.000    -0.000 -0.0000  0.7101 -0.7041
              Bcc     0.0000     0.000     0.000     0.000  1.0000  0.0000 -0.0000
 

 ---------------------------------------------------------------------------------

 No NMR shielding tensors so no spin-rotation constants.
 Leave Link  601 at Mon Apr 21 19:28:56 2025, MaxMem=   536870912 cpu:               2.6 elap:               0.5
 (Enter /home/szhao/Apps/g16/l701.exe)
 ... and contract with generalized density number  0.
 Compute integral first derivatives.
 Leave Link  701 at Mon Apr 21 19:28:56 2025, MaxMem=   536870912 cpu:               1.4 elap:               0.3
 (Enter /home/szhao/Apps/g16/l702.exe)
 L702 exits ... SP integral derivatives will be done elsewhere.
 Leave Link  702 at Mon Apr 21 19:28:57 2025, MaxMem=   536870912 cpu:               0.3 elap:               0.1
 (Enter /home/szhao/Apps/g16/l703.exe)
 Integral derivatives from FoFJK, PRISM(SPDF).
 Compute integral first derivatives, UseDBF=F ICtDFT=           0.
 Calling FoFJK, ICntrl=      2127 FMM=F ISym2X=0 I1Cent= 0 IOpClX= 1 NMat=1 NMatS=1 NMatT=0.
 FoFJK:  IHMeth= 1 ICntrl=    2127 DoSepK=F KAlg= 0 I1Cent=           0 FoldK=F
 IRaf=         0 NMat=       1 IRICut=       1 DoRegI=T DoRafI=F ISym2E= 0 IDoP0=0 IntGTp=1.
 FoFCou: FMM=F IPFlag=           0 FMFlag=      100000 FMFlg1=         800
         NFxFlg=           0 DoJE=F BraDBF=F KetDBF=F FulRan=T
         wScrn=  0.000000 ICntrl=      2127 IOpCl=  1 I1Cent=           0 NGrid=           0
         NMat0=    1 NMatS0=      1 NMatT0=    0 NMatD0=    1 NMtDS0=    0 NMtDT0=    0
 Symmetry not used in FoFCou.
 Leave Link  703 at Mon Apr 21 19:28:58 2025, MaxMem=   536870912 cpu:               6.9 elap:               1.0
 (Enter /home/szhao/Apps/g16/l716.exe)
 Dipole        =-7.14759143D-01 1.67933186D-12 3.06333996D-14
 -------------------------------------------------------------------
 Center     Atomic                   Forces (Hartrees/Bohr)
 Number     Number              X              Y              Z
 -------------------------------------------------------------------
      1        6          -0.000000000   -0.000000000   -0.000000000
      2       15          -0.000000000   -0.000000000   -0.000000000
      3        1          -0.029135265   -0.000000000    0.000000000
 -------------------------------------------------------------------
 Cartesian Forces:  Max     0.029135265 RMS     0.009711755
 Leave Link  716 at Mon Apr 21 19:28:59 2025, MaxMem=   536870912 cpu:               0.8 elap:               0.2
 (Enter /home/szhao/Apps/g16/l103.exe)

 GradGradGradGradGradGradGradGradGradGradGradGradGradGradGradGradGradGrad
 Berny optimization.
 FormGI is forming the generalized inverse of G from B-inverse, IUseBI=4.
 Internal  Forces:  Max     0.029135265 RMS     0.013734496
 Search for a local minimum.
 Step number   1 out of a maximum of   20
 All quantities printed in internal units (Hartrees-Bohrs-Radians)
 RMS Force = .16821D-01 SwitMx=.10000D-02 MixMth= 1
 Mixed Optimization -- RFO/linear search
 Second derivative matrix not updated -- first step.
 The second derivative matrix:
                          X1        Y1        Z1        X2        Y2
           X1           0.50000
           Y1           0.00000   0.50000
           Z1           0.00000   0.00000   0.50000
           X2           0.00000   0.00000   0.00000   0.50000
           Y2           0.00000   0.00000   0.00000   0.00000   0.50000
           Z2           0.00000   0.00000   0.00000   0.00000   0.00000
           R1           0.00000   0.00000   0.00000   0.00000   0.00000
           A1           0.00000   0.00000   0.00000   0.00000   0.00000
           A2           0.00000   0.00000   0.00000   0.00000   0.00000
                          Z2        R1        A1        A2
           Z2           0.50000
           R1           0.00000   0.36799
           A1           0.00000   0.00000   0.00454
           A2           0.00000   0.00000   0.00000   0.00454
 ITU=  0
     Eigenvalues ---    0.00454   0.367991000.000001000.000001000.00000
     Eigenvalues --- 1000.000001000.000001000.000001000.00000
 RFO step:  Lambda=-2.29248713D-03 EMin= 4.53900404D-03
 Linear search not attempted -- first point.
 Iteration  1 RMS(Cart)=  0.02622808 RMS(Int)=  0.00000000
 Iteration  2 RMS(Cart)=  0.00000000 RMS(Int)=  0.00000000
 ITry= 1 IFail=0 DXMaxC= 7.87D-02 DCOld= 1.00D+10 DXMaxT= 3.00D-01 DXLimC= 3.00D+00 Rises=F
 Variable       Old X    -DE/DX   Delta X   Delta X   Delta X     New X
                                 (Linear)    (Quad)   (Total)
    X1       -2.81640  -0.02914   0.00000   0.00000   0.00000  -2.81640
    Y1        0.00000  -0.00000   0.00000   0.00000   0.00000   0.00000
    Z1        0.00000  -0.00000   0.00000   0.00000   0.00000   0.00000
    X2        2.81640  -0.00000   0.00000   0.00000   0.00000   2.81640
    Y2        0.00000   0.00000   0.00000   0.00000   0.00000   0.00000
    Z2        0.00000   0.00000   0.00000   0.00000   0.00000   0.00000
    R1        2.02851   0.02914   0.00000   0.07868   0.07868   2.10719
    A1        3.14159  -0.00000   0.00000   0.00000   0.00000   3.14159
    A2        3.14159  -0.00000   0.00000  -0.00000   0.00000   3.14159
         Item               Value     Threshold  Converged?
 Maximum Force            0.029135     0.000450     NO 
 RMS     Force            0.016821     0.000300     NO 
 Maximum Displacement     0.078684     0.001800     NO 
 RMS     Displacement     0.026228     0.001200     NO 
 Predicted change in Energy=-1.153340D-03
 Lowest energy point so far.  Saving SCF results.
 GradGradGradGradGradGradGradGradGradGradGradGradGradGradGradGradGradGrad

 Leave Link  103 at Mon Apr 21 19:28:59 2025, MaxMem=   536870912 cpu:               1.8 elap:               0.4
 (Enter /home/szhao/Apps/g16/l202.exe)
                          Input orientation:                          
 ---------------------------------------------------------------------
 Center     Atomic      Atomic             Coordinates (Angstroms)
 Number     Number       Type             X           Y           Z
 ---------------------------------------------------------------------
      1          6           0       -1.490377    0.000000    0.000000
      2         15           0        1.490377    0.000000    0.000000
      3          1           0       -2.605454   -0.000000    0.000000
 ---------------------------------------------------------------------
                    Distance matrix (angstroms):
                    1          2          3
     1  C    0.000000
     2  P    2.980754   0.000000
     3  H    1.115077   4.095831   0.000000
 Symmetry turned off by external request.
 Stoichiometry    CHP
 Framework group  C*V[C*(HCP)]
 Deg. of freedom     2
 Full point group                 C*V     NOp   4
 Rotational constants (GHZ):           0.0000000           5.7867241           5.7867241
 Leave Link  202 at Mon Apr 21 19:29:00 2025, MaxMem=   536870912 cpu:               0.2 elap:               0.1
 (Enter /home/szhao/Apps/g16/l301.exe)
 Standard basis: 6-311+G(d,p) (5D, 7F)
 Ernie: Thresh=  0.10000D-02 Tol=  0.10000D-05 Strict=F.
    58 basis functions,    94 primitive gaussians,    60 cartesian basis functions
    11 alpha electrons       11 beta electrons
       nuclear repulsion energy        20.7631981476 Hartrees.
 IExCor= 4336 DFT=T Ex+Corr=M062X ExCW=0 ScaHFX=  0.540000
 ScaDFX=  1.000000  1.000000  1.000000  1.000000 ScalE2=  1.000000  1.000000
 IRadAn=      7 IRanWt=     -1 IRanGd=            0 ICorTp=0 IEmpDi=  4
 NAtoms=    3 NActive=    3 NUniq=    3 SFac= 1.00D+00 NAtFMM=   60 NAOKFM=F Big=F
 Integral buffers will be    131072 words long.
 Raffenetti 2 integral format.
 Two-electron integral symmetry is turned off.
 Leave Link  301 at Mon Apr 21 19:29:01 2025, MaxMem=   536870912 cpu:               1.2 elap:               0.5
 (Enter /home/szhao/Apps/g16/l302.exe)
 NPDir=0 NMtPBC=     1 NCelOv=     1 NCel=       1 NClECP=     1 NCelD=      1
         NCelK=      1 NCelE2=     1 NClLst=     1 CellRange=     0.0.
 One-electron integrals computed using PRISM.
 NBasis=    58 RedAO= T EigKep=  1.26D-02  NBF=    58
 NBsUse=    58 1.00D-06 EigRej= -1.00D+00 NBFU=    58
 Precomputing XC quadrature grid using
 IXCGrd= 4 IRadAn=           7 IRanWt=          -1 IRanGd=           0 AccXCQ= 0.00D+00.
 Generated NRdTot=       0 NPtTot=           0 NUsed=           0 NTot=          32
 NSgBfM=    59    59    59    59    59 MxSgAt=     3 MxSgA2=     3.
 Leave Link  302 at Mon Apr 21 19:29:01 2025, MaxMem=   536870912 cpu:               1.9 elap:               0.4
 (Enter /home/szhao/Apps/g16/l303.exe)
 DipDrv:  MaxL=1.
 Leave Link  303 at Mon Apr 21 19:29:02 2025, MaxMem=   536870912 cpu:               0.6 elap:               0.1
 (Enter /home/szhao/Apps/g16/l401.exe)
 Initial guess from the checkpoint file:  "opt.chk"
 B after Tr=    -0.003577   -0.000000    0.000000
         Rot=    1.000000   -0.000000   -0.000000   -0.000000 Ang=   0.00 deg.
 Guess basis will be translated and rotated to current coordinates.
 JPrj=2 DoOrth=T DoCkMO=T.
 Initial guess <Sx>= 0.0000 <Sy>= 0.0000 <Sz>= 0.0000 <S**2>=-0.0000 S=-0.0000
 Generating alternative initial guess.
 ExpMin= 3.48D-02 ExpMax= 7.75D+04 ExpMxC= 2.65D+03 IAcc=3 IRadAn=         5 AccDes= 0.00D+00
 Harris functional with IExCor= 1009 and IRadAn=       5 diagonalized for initial guess.
 HarFok:  IExCor= 1009 AccDes= 0.00D+00 IRadAn=         5 IDoV= 1 UseB2=F ITyADJ=14
 ICtDFT=  3500011 ScaDFX=  1.000000  1.000000  1.000000  1.000000
 FoFCou: FMM=F IPFlag=           0 FMFlag=      100000 FMFlg1=           0
         NFxFlg=           0 DoJE=T BraDBF=F KetDBF=T FulRan=T
         wScrn=  0.000000 ICntrl=       500 IOpCl=  0 I1Cent=   200000004 NGrid=           0
         NMat0=    1 NMatS0=      1 NMatT0=    0 NMatD0=    1 NMtDS0=    0 NMtDT0=    0
 Symmetry not used in FoFCou.
 Harris En= -379.509021788629    
 Leave Link  401 at Mon Apr 21 19:29:03 2025, MaxMem=   536870912 cpu:               4.6 elap:               0.7
 (Enter /home/szhao/Apps/g16/l502.exe)
 Keep R1 and R2 ints in memory in canonical form, NReq=10036953.
 FoFCou: FMM=F IPFlag=           0 FMFlag=           0 FMFlg1=           0
         NFxFlg=           0 DoJE=F BraDBF=F KetDBF=F FulRan=T
         wScrn=  0.000000 ICntrl=       600 IOpCl=  0 I1Cent=           0 NGrid=           0
         NMat0=    1 NMatS0=   1711 NMatT0=    0 NMatD0=    1 NMtDS0=    0 NMtDT0=    0
 Symmetry not used in FoFCou.
 Two-electron integral symmetry not used.
 UHF open shell SCF:
 Using DIIS extrapolation, IDIIS=  1040.
 NGot=   536870912 LenX=   533933447 LenY=   533929406
 Requested convergence on RMS density matrix=1.00D-08 within 128 cycles.
 Requested convergence on MAX density matrix=1.00D-06.
 Requested convergence on             energy=1.00D-06.
 No special actions if energy rises.

 Cycle   1  Pass 1  IDiag  1:
 E= -379.615073343271    
 DIIS: error= 3.23D-03 at cycle   1 NSaved=   1.
 NSaved= 1 IEnMin= 1 EnMin= -379.615073343271     IErMin= 1 ErrMin= 3.23D-03
 ErrMax= 3.23D-03  0.00D+00 EMaxC= 1.00D-01 BMatC= 1.20D-03 BMatP= 1.20D-03
 IDIUse=3 WtCom= 9.68D-01 WtEn= 3.23D-02
 Coeff-Com:  0.100D+01
 Coeff-En:   0.100D+01
 Coeff:      0.100D+01
 Gap=     0.351 Goal=   None    Shift=    0.000
 Gap=     0.351 Goal=   None    Shift=    0.000
 GapD=    0.351 DampG=1.000 DampE=1.000 DampFc=1.0000 IDamp=-1.
 RMSDP=2.84D-04 MaxDP=3.49D-03              OVMax= 9.53D-03

 Cycle   2  Pass 1  IDiag  1:
 E= -379.615081340300     Delta-E=       -0.000007997029 Rises=F Damp=F
 DIIS: error= 2.67D-03 at cycle   2 NSaved=   2.
 NSaved= 2 IEnMin= 2 EnMin= -379.615081340300     IErMin= 2 ErrMin= 2.67D-03
 ErrMax= 2.67D-03  0.00D+00 EMaxC= 1.00D-01 BMatC= 7.34D-04 BMatP= 1.20D-03
 IDIUse=3 WtCom= 9.73D-01 WtEn= 2.67D-02
 Coeff-Com:  0.396D+00 0.604D+00
 Coeff-En:   0.487D+00 0.513D+00
 Coeff:      0.398D+00 0.602D+00
 Gap=     0.110 Goal=   None    Shift=    0.000
 Gap=     0.110 Goal=   None    Shift=    0.000
 RMSDP=7.56D-04 MaxDP=1.31D-02 DE=-8.00D-06 OVMax= 3.85D-02

 Cycle   3  Pass 1  IDiag  1:
 E= -379.612115766034     Delta-E=        0.002965574266 Rises=F Damp=F
 DIIS: error= 9.40D-03 at cycle   3 NSaved=   3.
 NSaved= 3 IEnMin= 2 EnMin= -379.615081340300     IErMin= 2 ErrMin= 2.67D-03
 ErrMax= 9.40D-03  0.00D+00 EMaxC= 1.00D-01 BMatC= 8.40D-03 BMatP= 7.34D-04
 IDIUse=3 WtCom= 9.35D-02 WtEn= 9.06D-01
 Coeff-Com: -0.346D-02 0.776D+00 0.228D+00
 Coeff-En:   0.000D+00 0.816D+00 0.184D+00
 Coeff:     -0.323D-03 0.812D+00 0.188D+00
 Gap=     0.112 Goal=   None    Shift=    0.000
 Gap=     0.112 Goal=   None    Shift=    0.000
 RMSDP=4.04D-04 MaxDP=7.29D-03 DE= 2.97D-03 OVMax= 2.06D-02

 Cycle   4  Pass 1  IDiag  1:
 E= -379.615062970296     Delta-E=       -0.002947204261 Rises=F Damp=F
 DIIS: error= 2.84D-03 at cycle   4 NSaved=   4.
 NSaved= 4 IEnMin= 2 EnMin= -379.615081340300     IErMin= 2 ErrMin= 2.67D-03
 ErrMax= 2.84D-03  0.00D+00 EMaxC= 1.00D-01 BMatC= 7.82D-04 BMatP= 7.34D-04
 IDIUse=3 WtCom= 9.72D-01 WtEn= 2.84D-02
 Coeff-Com: -0.132D-01 0.206D+00-0.266D+00 0.107D+01
 Coeff-En:   0.000D+00 0.509D+00 0.000D+00 0.491D+00
 Coeff:     -0.128D-01 0.214D+00-0.259D+00 0.106D+01
 Gap=     0.114 Goal=   None    Shift=    0.000
 Gap=     0.114 Goal=   None    Shift=    0.000
 RMSDP=1.89D-04 MaxDP=3.29D-03 DE=-2.95D-03 OVMax= 9.70D-03

 Cycle   5  Pass 1  IDiag  1:
 E= -379.615371012248     Delta-E=       -0.000308041952 Rises=F Damp=F
 DIIS: error= 1.35D-04 at cycle   5 NSaved=   5.
 NSaved= 5 IEnMin= 5 EnMin= -379.615371012248     IErMin= 5 ErrMin= 1.35D-04
 ErrMax= 1.35D-04  0.00D+00 EMaxC= 1.00D-01 BMatC= 2.04D-06 BMatP= 7.34D-04
 IDIUse=3 WtCom= 9.99D-01 WtEn= 1.35D-03
 Coeff-Com: -0.224D-02-0.200D-01-0.406D-01 0.159D+00 0.904D+00
 Coeff-En:   0.000D+00 0.000D+00 0.000D+00 0.000D+00 0.100D+01
 Coeff:     -0.224D-02-0.200D-01-0.405D-01 0.159D+00 0.904D+00
 Gap=     0.113 Goal=   None    Shift=    0.000
 Gap=     0.113 Goal=   None    Shift=    0.000
 RMSDP=7.81D-06 MaxDP=1.61D-04 DE=-3.08D-04 OVMax= 2.87D-04

 Cycle   6  Pass 1  IDiag  1:
 E= -379.615371728586     Delta-E=       -0.000000716339 Rises=F Damp=F
 DIIS: error= 3.67D-05 at cycle   6 NSaved=   6.
 NSaved= 6 IEnMin= 6 EnMin= -379.615371728586     IErMin= 6 ErrMin= 3.67D-05
 ErrMax= 3.67D-05  0.00D+00 EMaxC= 1.00D-01 BMatC= 1.45D-07 BMatP= 2.04D-06
 IDIUse=1 WtCom= 1.00D+00 WtEn= 0.00D+00
 Coeff-Com:  0.376D-03-0.121D-01 0.576D-02-0.148D-01 0.556D-01 0.965D+00
 Coeff:      0.376D-03-0.121D-01 0.576D-02-0.148D-01 0.556D-01 0.965D+00
 Gap=     0.113 Goal=   None    Shift=    0.000
 Gap=     0.113 Goal=   None    Shift=    0.000
 RMSDP=2.63D-06 MaxDP=4.05D-05 DE=-7.16D-07 OVMax= 1.01D-04

 Cycle   7  Pass 1  IDiag  1:
 E= -379.615371785613     Delta-E=       -0.000000057027 Rises=F Damp=F
 DIIS: error= 1.85D-06 at cycle   7 NSaved=   7.
 NSaved= 7 IEnMin= 7 EnMin= -379.615371785613     IErMin= 7 ErrMin= 1.85D-06
 ErrMax= 1.85D-06  0.00D+00 EMaxC= 1.00D-01 BMatC= 9.99D-10 BMatP= 1.45D-07
 IDIUse=1 WtCom= 1.00D+00 WtEn= 0.00D+00
 Coeff-Com: -0.135D-03 0.345D-02-0.312D-02 0.892D-02-0.483D-01-0.254D+00
 Coeff-Com:  0.129D+01
 Coeff:     -0.135D-03 0.345D-02-0.312D-02 0.892D-02-0.483D-01-0.254D+00
 Coeff:      0.129D+01
 Gap=     0.113 Goal=   None    Shift=    0.000
 Gap=     0.113 Goal=   None    Shift=    0.000
 RMSDP=6.15D-07 MaxDP=8.15D-06 DE=-5.70D-08 OVMax= 2.56D-05

 Cycle   8  Pass 1  IDiag  1:
 E= -379.615371785816     Delta-E=       -0.000000000202 Rises=F Damp=F
 DIIS: error= 3.61D-06 at cycle   8 NSaved=   8.
 NSaved= 8 IEnMin= 8 EnMin= -379.615371785816     IErMin= 7 ErrMin= 1.85D-06
 ErrMax= 3.61D-06  0.00D+00 EMaxC= 1.00D-01 BMatC= 1.37D-09 BMatP= 9.99D-10
 IDIUse=1 WtCom= 1.00D+00 WtEn= 0.00D+00
 Coeff-Com: -0.569D-04 0.114D-02-0.574D-03 0.265D-02-0.572D-02-0.109D+00
 Coeff-Com:  0.859D-01 0.103D+01
 Coeff:     -0.569D-04 0.114D-02-0.574D-03 0.265D-02-0.572D-02-0.109D+00
 Coeff:      0.859D-01 0.103D+01
 Gap=     0.113 Goal=   None    Shift=    0.000
 Gap=     0.113 Goal=   None    Shift=    0.000
 RMSDP=2.61D-07 MaxDP=3.71D-06 DE=-2.02D-10 OVMax= 9.57D-06

 Cycle   9  Pass 1  IDiag  1:
 E= -379.615371786367     Delta-E=       -0.000000000551 Rises=F Damp=F
 DIIS: error= 2.80D-07 at cycle   9 NSaved=   9.
 NSaved= 9 IEnMin= 9 EnMin= -379.615371786367     IErMin= 9 ErrMin= 2.80D-07
 ErrMax= 2.80D-07  0.00D+00 EMaxC= 1.00D-01 BMatC= 1.12D-11 BMatP= 9.99D-10
 IDIUse=1 WtCom= 1.00D+00 WtEn= 0.00D+00
 Coeff-Com: -0.438D-05-0.481D-04-0.358D-04 0.341D-03 0.220D-02 0.294D-02
 Coeff-Com: -0.644D-01 0.499D-01 0.101D+01
 Coeff:     -0.438D-05-0.481D-04-0.358D-04 0.341D-03 0.220D-02 0.294D-02
 Coeff:     -0.644D-01 0.499D-01 0.101D+01
 Gap=     0.113 Goal=   None    Shift=    0.000
 Gap=     0.113 Goal=   None    Shift=    0.000
 DSYEVD-2 returned Info=         117 IAlg= 4 N=    58 NDim=    58 NE2=     9205678 trying  DSYEV.
 RMSDP=3.31D-08 MaxDP=3.82D-07 DE=-5.51D-10 OVMax= 1.75D-06

 Cycle  10  Pass 1  IDiag  1:
 E= -379.615371786372     Delta-E=       -0.000000000005 Rises=F Damp=F
 DIIS: error= 2.68D-08 at cycle  10 NSaved=  10.
 NSaved=10 IEnMin=10 EnMin= -379.615371786372     IErMin=10 ErrMin= 2.68D-08
 ErrMax= 2.68D-08  0.00D+00 EMaxC= 1.00D-01 BMatC= 1.47D-13 BMatP= 1.12D-11
 IDIUse=1 WtCom= 1.00D+00 WtEn= 0.00D+00
 Coeff-Com:  0.978D-06-0.605D-04-0.420D-05 0.308D-04 0.956D-03 0.459D-02
 Coeff-Com: -0.222D-01-0.351D-01 0.236D+00 0.816D+00
 Coeff:      0.978D-06-0.605D-04-0.420D-05 0.308D-04 0.956D-03 0.459D-02
 Coeff:     -0.222D-01-0.351D-01 0.236D+00 0.816D+00
 Gap=     0.113 Goal=   None    Shift=    0.000
 Gap=     0.113 Goal=   None    Shift=    0.000
 RMSDP=5.97D-09 MaxDP=6.13D-08 DE=-4.95D-12 OVMax= 2.78D-07

 SCF Done:  E(UM062X) =  -379.615371786     A.U. after   10 cycles
            NFock= 10  Conv=0.60D-08     -V/T= 2.0022
 <Sx>= 0.0000 <Sy>= 0.0000 <Sz>= 0.0000 <S**2>=-0.0000 S=-0.0000
 <L.S>=  0.00000000000    
 KE= 3.787830746983D+02 PE=-9.423779094257D+02 EE= 1.632162647934D+02
 Annihilation of the first spin contaminant:
 S**2 before annihilation    -0.0000,   after     0.0000
 Leave Link  502 at Mon Apr 21 19:29:06 2025, MaxMem=   536870912 cpu:              27.2 elap:               3.6
 (Enter /home/szhao/Apps/g16/l701.exe)
 ... and contract with generalized density number  0.
 Compute integral first derivatives.
 Leave Link  701 at Mon Apr 21 19:29:07 2025, MaxMem=   536870912 cpu:               1.0 elap:               0.3
 (Enter /home/szhao/Apps/g16/l702.exe)
 L702 exits ... SP integral derivatives will be done elsewhere.
 Leave Link  702 at Mon Apr 21 19:29:07 2025, MaxMem=   536870912 cpu:               0.6 elap:               0.2
 (Enter /home/szhao/Apps/g16/l703.exe)
 Integral derivatives from FoFJK, PRISM(SPDF).
 Compute integral first derivatives, UseDBF=F ICtDFT=           0.
 Calling FoFJK, ICntrl=      2127 FMM=F ISym2X=0 I1Cent= 0 IOpClX= 1 NMat=1 NMatS=1 NMatT=0.
 FoFJK:  IHMeth= 1 ICntrl=    2127 DoSepK=F KAlg= 0 I1Cent=           0 FoldK=F
 IRaf=         0 NMat=       1 IRICut=       1 DoRegI=T DoRafI=F ISym2E= 0 IDoP0=0 IntGTp=1.
 FoFCou: FMM=F IPFlag=           0 FMFlag=      100000 FMFlg1=         800
         NFxFlg=           0 DoJE=F BraDBF=F KetDBF=F FulRan=T
         wScrn=  0.000000 ICntrl=      2127 IOpCl=  1 I1Cent=           0 NGrid=           0
         NMat0=    1 NMatS0=      1 NMatT0=    0 NMatD0=    1 NMtDS0=    0 NMtDT0=    0
 Symmetry not used in FoFCou.
 Leave Link  703 at Mon Apr 21 19:29:08 2025, MaxMem=   536870912 cpu:               6.1 elap:               0.8
 (Enter /home/szhao/Apps/g16/l716.exe)
 Dipole        =-7.11190961D-01-2.21556816D-11 3.38002232D-15
 -------------------------------------------------------------------
 Center     Atomic                   Forces (Hartrees/Bohr)
 Number     Number              X              Y              Z
 -------------------------------------------------------------------
      1        6          -0.000000000   -0.000000000   -0.000000000
      2       15          -0.000000000   -0.000000000   -0.000000000
      3        1          -0.001520060   -0.000000000    0.000000000
 -------------------------------------------------------------------
 Cartesian Forces:  Max     0.001520060 RMS     0.000506687
 Leave Link  716 at Mon Apr 21 19:29:09 2025, MaxMem=   536870912 cpu:               0.6 elap:               0.2
 (Enter /home/szhao/Apps/g16/l103.exe)

 GradGradGradGradGradGradGradGradGradGradGradGradGradGradGradGradGradGrad
 Berny optimization.
 Using GEDIIS/GDIIS optimizer.
 FormGI is forming the generalized inverse of G from B-inverse, IUseBI=4.
 Internal  Forces:  Max     0.001520060 RMS     0.000716563
 Search for a local minimum.
 Step number   2 out of a maximum of   20
 All quantities printed in internal units (Hartrees-Bohrs-Radians)
 RMS Force = .87761D-03 SwitMx=.10000D-02 MixMth= 2
 Mixed Optimization -- En-DIIS/RFO-DIIS
 Update second derivatives using D2CorX and points    1    2
 DE= -1.16D-03 DEPred=-1.15D-03 R= 1.01D+00
 TightC=F SS=  1.41D+00  RLast= 7.87D-02 DXNew= 5.0454D-01 2.3605D-01
 Trust test= 1.01D+00 RLast= 7.87D-02 DXMaxT set to 3.00D-01
 The second derivative matrix:
                          X1        Y1        Z1        X2        Y2
           X1           0.85096
           Y1          -0.00000   0.50000
           Z1           0.00000  -0.00000   0.50000
           X2           0.00000  -0.00000   0.00000   0.50000
           Y2           0.00000  -0.00000   0.00000   0.00000   0.50000
           Z2          -0.00000   0.00000  -0.00000  -0.00000  -0.00000
           R1          -0.35096   0.00000  -0.00000  -0.00000  -0.00000
           A1           0.00000  -0.00000   0.00000   0.00000   0.00000
           A2          -0.00000   0.00000  -0.00000  -0.00000  -0.00000
                          Z2        R1        A1        A2
           Z2           0.50000
           R1           0.00000   0.35096
           A1          -0.00000  -0.00000   0.00454
           A2           0.00000   0.00000  -0.00000   0.00454
 ITU=  1  0
 Use linear search instead of GDIIS.
     Eigenvalues ---    0.00454   0.350961000.000001000.000001000.00000
     Eigenvalues --- 1000.000001000.000001000.000001000.00000
 RFO step:  Lambda= 0.00000000D+00 EMin= 4.53900404D-03
 Quartic linear search produced a step of  0.06262.
 Iteration  1 RMS(Cart)=  0.00164246 RMS(Int)=  0.00000000
 Iteration  2 RMS(Cart)=  0.00000000 RMS(Int)=  0.00000000
 ITry= 1 IFail=0 DXMaxC= 4.93D-03 DCOld= 1.00D+10 DXMaxT= 3.00D-01 DXLimC= 3.00D+00 Rises=F
 Variable       Old X    -DE/DX   Delta X   Delta X   Delta X     New X
                                 (Linear)    (Quad)   (Total)
    X1       -2.81640  -0.00152   0.00000   0.00000   0.00000  -2.81640
    Y1        0.00000  -0.00000   0.00000   0.00000   0.00000   0.00000
    Z1        0.00000  -0.00000   0.00000   0.00000   0.00000   0.00000
    X2        2.81640   0.00000   0.00000   0.00000   0.00000   2.81640
    Y2        0.00000   0.00000   0.00000   0.00000   0.00000   0.00000
    Z2        0.00000   0.00000   0.00000   0.00000   0.00000   0.00000
    R1        2.10719   0.00152   0.00493   0.00000   0.00493   2.11212
    A1        3.14159  -0.00000   0.00000  -0.00000   0.00000   3.14159
    A2        3.14159  -0.00000   0.00000  -0.00000   0.00000   3.14159
         Item               Value     Threshold  Converged?
 Maximum Force            0.001520     0.000450     NO 
 RMS     Force            0.000878     0.000300     NO 
 Maximum Displacement     0.004927     0.001800     NO 
 RMS     Displacement     0.001642     0.001200     NO 
 Predicted change in Energy=-3.229395D-06
 Lowest energy point so far.  Saving SCF results.
 GradGradGradGradGradGradGradGradGradGradGradGradGradGradGradGradGradGrad

 Leave Link  103 at Mon Apr 21 19:29:09 2025, MaxMem=   536870912 cpu:               0.4 elap:               0.2
 (Enter /home/szhao/Apps/g16/l202.exe)
                          Input orientation:                          
 ---------------------------------------------------------------------
 Center     Atomic      Atomic             Coordinates (Angstroms)
 Number     Number       Type             X           Y           Z
 ---------------------------------------------------------------------
      1          6           0       -1.490377    0.000000    0.000000
      2         15           0        1.490377    0.000000    0.000000
      3          1           0       -2.608061   -0.000000    0.000000
 ---------------------------------------------------------------------
                    Distance matrix (angstroms):
                    1          2          3
     1  C    0.000000
     2  P    2.980754   0.000000
     3  H    1.117684   4.098438   0.000000
 Symmetry turned off by external request.
 Stoichiometry    CHP
 Framework group  C*V[C*(HCP)]
 Deg. of freedom     2
 Full point group                 C*V     NOp   4
 Rotational constants (GHZ):           0.0000000           5.7856134           5.7856134
 Leave Link  202 at Mon Apr 21 19:29:10 2025, MaxMem=   536870912 cpu:               0.3 elap:               0.2
 (Enter /home/szhao/Apps/g16/l301.exe)
 Standard basis: 6-311+G(d,p) (5D, 7F)
 Ernie: Thresh=  0.10000D-02 Tol=  0.10000D-05 Strict=F.
    58 basis functions,    94 primitive gaussians,    60 cartesian basis functions
    11 alpha electrons       11 beta electrons
       nuclear repulsion energy        20.7553224852 Hartrees.
 IExCor= 4336 DFT=T Ex+Corr=M062X ExCW=0 ScaHFX=  0.540000
 ScaDFX=  1.000000  1.000000  1.000000  1.000000 ScalE2=  1.000000  1.000000
 IRadAn=      7 IRanWt=     -1 IRanGd=            0 ICorTp=0 IEmpDi=  4
 NAtoms=    3 NActive=    3 NUniq=    3 SFac= 1.00D+00 NAtFMM=   60 NAOKFM=F Big=F
 Integral buffers will be    131072 words long.
 Raffenetti 2 integral format.
 Two-electron integral symmetry is turned off.
 Leave Link  301 at Mon Apr 21 19:29:10 2025, MaxMem=   536870912 cpu:               1.1 elap:               0.3
 (Enter /home/szhao/Apps/g16/l302.exe)
 NPDir=0 NMtPBC=     1 NCelOv=     1 NCel=       1 NClECP=     1 NCelD=      1
         NCelK=      1 NCelE2=     1 NClLst=     1 CellRange=     0.0.
 One-electron integrals computed using PRISM.
 NBasis=    58 RedAO= T EigKep=  1.26D-02  NBF=    58
 NBsUse=    58 1.00D-06 EigRej= -1.00D+00 NBFU=    58
 Precomputing XC quadrature grid using
 IXCGrd= 4 IRadAn=           7 IRanWt=          -1 IRanGd=           0 AccXCQ= 0.00D+00.
 Generated NRdTot=       0 NPtTot=           0 NUsed=           0 NTot=          32
 NSgBfM=    59    59    59    59    59 MxSgAt=     3 MxSgA2=     3.
 Leave Link  302 at Mon Apr 21 19:29:11 2025, MaxMem=   536870912 cpu:               1.8 elap:               0.3
 (Enter /home/szhao/Apps/g16/l303.exe)
 DipDrv:  MaxL=1.
 Leave Link  303 at Mon Apr 21 19:29:12 2025, MaxMem=   536870912 cpu:               0.5 elap:               0.1
 (Enter /home/szhao/Apps/g16/l401.exe)
 Initial guess from the checkpoint file:  "opt.chk"
 B after Tr=    -0.000224   -0.000000    0.000000
         Rot=    1.000000    0.000009   -0.000000   -0.000000 Ang=   0.00 deg.
 Guess basis will be translated and rotated to current coordinates.
 JPrj=2 DoOrth=T DoCkMO=T.
 Initial guess <Sx>= 0.0000 <Sy>= 0.0000 <Sz>= 0.0000 <S**2>=-0.0000 S=-0.0000
 Leave Link  401 at Mon Apr 21 19:29:12 2025, MaxMem=   536870912 cpu:               1.7 elap:               0.3
 (Enter /home/szhao/Apps/g16/l502.exe)
 Keep R1 and R2 ints in memory in canonical form, NReq=10036953.
 FoFCou: FMM=F IPFlag=           0 FMFlag=           0 FMFlg1=           0
         NFxFlg=           0 DoJE=F BraDBF=F KetDBF=F FulRan=T
         wScrn=  0.000000 ICntrl=       600 IOpCl=  0 I1Cent=           0 NGrid=           0
         NMat0=    1 NMatS0=   1711 NMatT0=    0 NMatD0=    1 NMtDS0=    0 NMtDT0=    0
 Symmetry not used in FoFCou.
 Two-electron integral symmetry not used.
 UHF open shell SCF:
 Using DIIS extrapolation, IDIIS=  1040.
 NGot=   536870912 LenX=   533933447 LenY=   533929406
 Requested convergence on RMS density matrix=1.00D-08 within 128 cycles.
 Requested convergence on MAX density matrix=1.00D-06.
 Requested convergence on             energy=1.00D-06.
 No special actions if energy rises.

 Cycle   1  Pass 1  IDiag  1:
 E= -379.615374395225    
 DIIS: error= 1.93D-04 at cycle   1 NSaved=   1.
 NSaved= 1 IEnMin= 1 EnMin= -379.615374395225     IErMin= 1 ErrMin= 1.93D-04
 ErrMax= 1.93D-04  0.00D+00 EMaxC= 1.00D-01 BMatC= 4.32D-06 BMatP= 4.32D-06
 IDIUse=3 WtCom= 9.98D-01 WtEn= 1.93D-03
 Coeff-Com:  0.100D+01
 Coeff-En:   0.100D+01
 Coeff:      0.100D+01
 Gap=     0.346 Goal=   None    Shift=    0.000
 Gap=     0.346 Goal=   None    Shift=    0.000
 RMSDP=1.74D-05 MaxDP=2.13D-04              OVMax= 5.92D-04

 Cycle   2  Pass 1  IDiag  1:
 E= -379.615374379420     Delta-E=        0.000000015805 Rises=F Damp=F
 DIIS: error= 1.68D-04 at cycle   2 NSaved=   2.
 NSaved= 2 IEnMin= 1 EnMin= -379.615374395225     IErMin= 2 ErrMin= 1.68D-04
 ErrMax= 1.68D-04  0.00D+00 EMaxC= 1.00D-01 BMatC= 2.89D-06 BMatP= 4.32D-06
 IDIUse=3 WtCom= 9.98D-01 WtEn= 1.68D-03
 Coeff-Com:  0.415D+00 0.585D+00
 Coeff-En:   0.506D+00 0.494D+00
 Coeff:      0.415D+00 0.585D+00
 Gap=     0.113 Goal=   None    Shift=    0.000
 Gap=     0.113 Goal=   None    Shift=    0.000
 RMSDP=4.50D-05 MaxDP=7.74D-04 DE= 1.58D-08 OVMax= 2.28D-03

 Cycle   3  Pass 1  IDiag  1:
 E= -379.615364575772     Delta-E=        0.000009803648 Rises=F Damp=F
 DIIS: error= 5.31D-04 at cycle   3 NSaved=   3.
 NSaved= 3 IEnMin= 1 EnMin= -379.615374395225     IErMin= 2 ErrMin= 1.68D-04
 ErrMax= 5.31D-04  0.00D+00 EMaxC= 1.00D-01 BMatC= 2.74D-05 BMatP= 2.89D-06
 IDIUse=3 WtCom= 3.03D-01 WtEn= 6.97D-01
 Coeff-Com: -0.382D-02 0.759D+00 0.245D+00
 Coeff-En:   0.000D+00 0.801D+00 0.199D+00
 Coeff:     -0.116D-02 0.788D+00 0.213D+00
 Gap=     0.113 Goal=   None    Shift=    0.000
 Gap=     0.113 Goal=   None    Shift=    0.000
 RMSDP=2.66D-05 MaxDP=4.77D-04 DE= 9.80D-06 OVMax= 1.35D-03

 Cycle   4  Pass 1  IDiag  1:
 E= -379.615374955563     Delta-E=       -0.000010379791 Rises=F Damp=F
 DIIS: error= 1.20D-04 at cycle   4 NSaved=   4.
 NSaved= 4 IEnMin= 4 EnMin= -379.615374955563     IErMin= 4 ErrMin= 1.20D-04
 ErrMax= 1.20D-04  0.00D+00 EMaxC= 1.00D-01 BMatC= 1.40D-06 BMatP= 2.89D-06
 IDIUse=3 WtCom= 9.99D-01 WtEn= 1.20D-03
 Coeff-Com: -0.140D-01 0.193D+00-0.158D+00 0.979D+00
 Coeff-En:   0.000D+00 0.396D+00 0.000D+00 0.604D+00
 Coeff:     -0.139D-01 0.193D+00-0.157D+00 0.978D+00
 Gap=     0.113 Goal=   None    Shift=    0.000
 Gap=     0.113 Goal=   None    Shift=    0.000
 RMSDP=7.92D-06 MaxDP=1.35D-04 DE=-1.04D-05 OVMax= 4.05D-04

 Cycle   5  Pass 1  IDiag  1:
 E= -379.615375511740     Delta-E=       -0.000000556177 Rises=F Damp=F
 DIIS: error= 3.23D-06 at cycle   5 NSaved=   5.
 NSaved= 5 IEnMin= 5 EnMin= -379.615375511740     IErMin= 5 ErrMin= 3.23D-06
 ErrMax= 3.23D-06  0.00D+00 EMaxC= 1.00D-01 BMatC= 1.76D-09 BMatP= 1.40D-06
 IDIUse=1 WtCom= 1.00D+00 WtEn= 0.00D+00
 Coeff-Com: -0.258D-02-0.184D-01-0.389D-01 0.173D+00 0.886D+00
 Coeff:     -0.258D-02-0.184D-01-0.389D-01 0.173D+00 0.886D+00
 Gap=     0.113 Goal=   None    Shift=    0.000
 DSYEVD-2 returned Info=         117 IAlg= 4 N=    58 NDim=    58 NE2=     9205678 trying  DSYEV.
 Gap=     0.113 Goal=   None    Shift=    0.000
 RMSDP=3.35D-07 MaxDP=8.83D-06 DE=-5.56D-07 OVMax= 1.05D-05

 Cycle   6  Pass 1  IDiag  1:
 E= -379.615375512322     Delta-E=       -0.000000000582 Rises=F Damp=F
 DIIS: error= 1.06D-06 at cycle   6 NSaved=   6.
 NSaved= 6 IEnMin= 6 EnMin= -379.615375512322     IErMin= 6 ErrMin= 1.06D-06
 ErrMax= 1.06D-06  0.00D+00 EMaxC= 1.00D-01 BMatC= 1.43D-10 BMatP= 1.76D-09
 IDIUse=1 WtCom= 1.00D+00 WtEn= 0.00D+00
 Coeff-Com:  0.542D-03-0.113D-01 0.439D-02-0.253D-01 0.220D-01 0.101D+01
 Coeff:      0.542D-03-0.113D-01 0.439D-02-0.253D-01 0.220D-01 0.101D+01
 Gap=     0.113 Goal=   None    Shift=    0.000
 Gap=     0.113 Goal=   None    Shift=    0.000
 RMSDP=1.10D-07 MaxDP=1.64D-06 DE=-5.82D-10 OVMax= 4.14D-06

 Cycle   7  Pass 1  IDiag  1:
 E= -379.615375512381     Delta-E=       -0.000000000059 Rises=F Damp=F
 DIIS: error= 2.21D-07 at cycle   7 NSaved=   7.
 NSaved= 7 IEnMin= 7 EnMin= -379.615375512381     IErMin= 7 ErrMin= 2.21D-07
 ErrMax= 2.21D-07  0.00D+00 EMaxC= 1.00D-01 BMatC= 7.96D-12 BMatP= 1.43D-10
 IDIUse=1 WtCom= 1.00D+00 WtEn= 0.00D+00
 Coeff-Com: -0.117D-03 0.293D-02 0.371D-03 0.208D-02-0.350D-01-0.239D+00
 Coeff-Com:  0.127D+01
 Coeff:     -0.117D-03 0.293D-02 0.371D-03 0.208D-02-0.350D-01-0.239D+00
 Coeff:      0.127D+01
 Gap=     0.113 Goal=   None    Shift=    0.000
 Gap=     0.113 Goal=   None    Shift=    0.000
 RMSDP=3.38D-08 MaxDP=4.71D-07 DE=-5.88D-11 OVMax= 1.58D-06

 Cycle   8  Pass 1  IDiag  1:
 E= -379.615375512384     Delta-E=       -0.000000000003 Rises=F Damp=F
 DIIS: error= 1.74D-07 at cycle   8 NSaved=   8.
 NSaved= 8 IEnMin= 8 EnMin= -379.615375512384     IErMin= 8 ErrMin= 1.74D-07
 ErrMax= 1.74D-07  0.00D+00 EMaxC= 1.00D-01 BMatC= 2.93D-12 BMatP= 7.96D-12
 IDIUse=1 WtCom= 1.00D+00 WtEn= 0.00D+00
 Coeff-Com: -0.476D-04 0.956D-03 0.811D-04 0.157D-02-0.544D-02-0.958D-01
 Coeff-Com:  0.787D-01 0.102D+01
 Coeff:     -0.476D-04 0.956D-03 0.811D-04 0.157D-02-0.544D-02-0.958D-01
 Coeff:      0.787D-01 0.102D+01
 Gap=     0.113 Goal=   None    Shift=    0.000
 Gap=     0.113 Goal=   None    Shift=    0.000
 RMSDP=1.44D-08 MaxDP=2.48D-07 DE=-2.84D-12 OVMax= 6.21D-07

 Cycle   9  Pass 1  IDiag  1:
 E= -379.615375512385     Delta-E=       -0.000000000001 Rises=F Damp=F
 DIIS: error= 1.71D-08 at cycle   9 NSaved=   9.
 NSaved= 9 IEnMin= 9 EnMin= -379.615375512385     IErMin= 9 ErrMin= 1.71D-08
 ErrMax= 1.71D-08  0.00D+00 EMaxC= 1.00D-01 BMatC= 2.32D-14 BMatP= 2.93D-12
 IDIUse=1 WtCom= 1.00D+00 WtEn= 0.00D+00
 Coeff-Com: -0.119D-04 0.127D-03-0.798D-04 0.667D-03 0.355D-03-0.124D-01
 Coeff-Com: -0.410D-01 0.209D+00 0.843D+00
 Coeff:     -0.119D-04 0.127D-03-0.798D-04 0.667D-03 0.355D-03-0.124D-01
 Coeff:     -0.410D-01 0.209D+00 0.843D+00
 Gap=     0.113 Goal=   None    Shift=    0.000
 Gap=     0.113 Goal=   None    Shift=    0.000
 RMSDP=6.34D-09 MaxDP=1.13D-07 DE=-1.14D-12 OVMax= 3.49D-07

 SCF Done:  E(UM062X) =  -379.615375512     A.U. after    9 cycles
            NFock=  9  Conv=0.63D-08     -V/T= 2.0022
 <Sx>= 0.0000 <Sy>= 0.0000 <Sz>= 0.0000 <S**2>= 0.0000 S= 0.0000
 <L.S>=  0.00000000000    
 KE= 3.787801684022D+02 PE=-9.423604295766D+02 EE= 1.632095631767D+02
 Annihilation of the first spin contaminant:
 S**2 before annihilation     0.0000,   after     0.0000
 Leave Link  502 at Mon Apr 21 19:29:15 2025, MaxMem=   536870912 cpu:              24.0 elap:               3.2
 (Enter /home/szhao/Apps/g16/l701.exe)
 ... and contract with generalized density number  0.
 Compute integral first derivatives.
 Leave Link  701 at Mon Apr 21 19:29:16 2025, MaxMem=   536870912 cpu:               1.2 elap:               0.2
 (Enter /home/szhao/Apps/g16/l702.exe)
 L702 exits ... SP integral derivatives will be done elsewhere.
 Leave Link  702 at Mon Apr 21 19:29:17 2025, MaxMem=   536870912 cpu:               0.4 elap:               0.1
 (Enter /home/szhao/Apps/g16/l703.exe)
 Integral derivatives from FoFJK, PRISM(SPDF).
 Compute integral first derivatives, UseDBF=F ICtDFT=           0.
 Calling FoFJK, ICntrl=      2127 FMM=F ISym2X=0 I1Cent= 0 IOpClX= 1 NMat=1 NMatS=1 NMatT=0.
 FoFJK:  IHMeth= 1 ICntrl=    2127 DoSepK=F KAlg= 0 I1Cent=           0 FoldK=F
 IRaf=         0 NMat=       1 IRICut=       1 DoRegI=T DoRafI=F ISym2E= 0 IDoP0=0 IntGTp=1.
 FoFCou: FMM=F IPFlag=           0 FMFlag=      100000 FMFlg1=         800
         NFxFlg=           0 DoJE=F BraDBF=F KetDBF=F FulRan=T
         wScrn=  0.000000 ICntrl=      2127 IOpCl=  1 I1Cent=           0 NGrid=           0
         NMat0=    1 NMatS0=      1 NMatT0=    0 NMatD0=    1 NMtDS0=    0 NMtDT0=    0
 Symmetry not used in FoFCou.
 Leave Link  703 at Mon Apr 21 19:29:18 2025, MaxMem=   536870912 cpu:               5.9 elap:               0.8
 (Enter /home/szhao/Apps/g16/l716.exe)
 Dipole        =-7.10897849D-01-2.91288651D-10-2.35029834D-13
 -------------------------------------------------------------------
 Center     Atomic                   Forces (Hartrees/Bohr)
 Number     Number              X              Y              Z
 -------------------------------------------------------------------
      1        6          -0.000000000   -0.000000000   -0.000000000
      2       15          -0.000000000   -0.000000000   -0.000000000
      3        1           0.000003970   -0.000000000    0.000000000
 -------------------------------------------------------------------
 Cartesian Forces:  Max     0.000003970 RMS     0.000001323
 Leave Link  716 at Mon Apr 21 19:29:18 2025, MaxMem=   536870912 cpu:               0.8 elap:               0.3
 (Enter /home/szhao/Apps/g16/l103.exe)

 GradGradGradGradGradGradGradGradGradGradGradGradGradGradGradGradGradGrad
 Berny optimization.
 Using GEDIIS/GDIIS optimizer.
 FormGI is forming the generalized inverse of G from B-inverse, IUseBI=4.
 Internal  Forces:  Max     0.000003970 RMS     0.000001872
 Search for a local minimum.
 Step number   3 out of a maximum of   20
 All quantities printed in internal units (Hartrees-Bohrs-Radians)
 RMS Force = .22922D-05 SwitMx=.10000D-02 MixMth= 2
 Mixed Optimization -- En-DIIS/RFO-DIIS
 Swapping is turned off.
 Update second derivatives using D2CorX and points    1    2    3
 DE= -3.73D-06 DEPred=-3.23D-06 R= 1.15D+00
 TightC=F SS=  1.41D+00  RLast= 4.93D-03 DXNew= 5.0454D-01 1.4782D-02
 Trust test= 1.15D+00 RLast= 4.93D-03 DXMaxT set to 3.00D-01
 The second derivative matrix:
                          X1        Y1        Z1        X2        Y2
           X1           0.80930
           Y1           0.00000   0.50000
           Z1           0.00000   0.00000   0.50000
           X2           0.00000   0.00000   0.00000   0.50000
           Y2          -0.00000  -0.00000  -0.00000  -0.00000   0.50000
           Z2          -0.00000  -0.00000  -0.00000  -0.00000   0.00000
           R1          -0.30930  -0.00000  -0.00000  -0.00000   0.00000
           A1          -0.00000  -0.00000  -0.00000  -0.00000   0.00000
           A2           0.00000   0.00000   0.00000   0.00000  -0.00000
                          Z2        R1        A1        A2
           Z2           0.50000
           R1           0.00000   0.30930
           A1           0.00000   0.00000   0.00454
           A2          -0.00000  -0.00000  -0.00000   0.00454
 ITU=  1  1  0
     Eigenvalues ---    0.00454   0.309301000.000001000.000001000.00000
     Eigenvalues --- 1000.000001000.000001000.000001000.00000
 En-DIIS/RFO-DIIS/Sim-DIIS IScMMF=       -3 using points:     3    2
 RFO step:  Lambda=-4.44482433D-11.
 NNeg= 0 NGDIIS= 2 SimSw=  2.50D-03 Rises=F DC= -3.73D-06 SmlDif=  1.00D-05
 NRisDI= 0 DoIntr=F SqrtH=F CThrHd= 10.0 CDAdj=  3.0
 RMS Error=  0.4278760949D-05 NUsed= 2 OKEnD=F EnDIS=F
 InvSVX:  RCond= 2.73D-05 Info=           0 Equed=N FErr=  8.91D-16 BErr=  6.22D-17
 DidBck=F Rises=F RFO-DIIS coefs:    0.99739    0.00261
 Iteration  1 RMS(Cart)=  0.00000428 RMS(Int)=  0.00000000
 Iteration  2 RMS(Cart)=  0.00000000 RMS(Int)=  0.00000000
 ITry= 1 IFail=0 DXMaxC= 1.28D-05 DCOld= 1.00D+10 DXMaxT= 3.00D-01 DXLimC= 3.00D+00 Rises=F
 Variable       Old X    -DE/DX   Delta X   Delta X   Delta X     New X
                                 (Linear)    (Quad)   (Total)
    X1       -2.81640   0.00000   0.00000   0.00000   0.00000  -2.81640
    Y1        0.00000   0.00000   0.00000   0.00000   0.00000   0.00000
    Z1        0.00000   0.00000   0.00000   0.00000   0.00000   0.00000
    X2        2.81640   0.00000   0.00000   0.00000   0.00000   2.81640
    Y2        0.00000  -0.00000   0.00000   0.00000   0.00000   0.00000
    Z2        0.00000  -0.00000   0.00000   0.00000   0.00000   0.00000
    R1        2.11212  -0.00000  -0.00001  -0.00000  -0.00001   2.11210
    A1        3.14159  -0.00000   0.00000  -0.00000   0.00000   3.14159
    A2        3.14159  -0.00000   0.00000  -0.00000   0.00000   3.14159
         Item               Value     Threshold  Converged?
 Maximum Force            0.000004     0.000450     YES
 RMS     Force            0.000002     0.000300     YES
 Maximum Displacement     0.000013     0.001800     YES
 RMS     Displacement     0.000004     0.001200     YES
 Predicted change in Energy=-2.548160D-11
 Optimization completed.
    -- Stationary point found.
                           ----------------------------
                           !   Optimized Parameters   !
                           ! (Angstroms and Degrees)  !
 --------------------------                            --------------------------
 ! Name  Definition              Value          Derivative Info.                !
 --------------------------------------------------------------------------------
 ! X1    R(1,-1)                -1.4904         -DE/DX =    0.0                 !
 ! Y1    R(1,-2)                 0.0            -DE/DX =    0.0                 !
 ! Z1    R(1,-3)                 0.0            -DE/DX =    0.0                 !
 ! X2    R(2,-1)                 1.4904         -DE/DX =    0.0                 !
 ! Y2    R(2,-2)                 0.0            -DE/DX =    0.0                 !
 ! Z2    R(2,-3)                 0.0            -DE/DX =    0.0                 !
 ! R1    R(1,3)                  1.1177         -DE/DX =    0.0                 !
 ! A1    L(2,1,3,-2,-1)        180.0            -DE/DX =    0.0                 !
 ! A2    L(2,1,3,-3,-2)        180.0            -DE/DX =    0.0                 !
 --------------------------------------------------------------------------------
 Lowest energy point so far.  Saving SCF results.
 Largest change from initial coordinates is atom    3       0.044 Angstoms.
 GradGradGradGradGradGradGradGradGradGradGradGradGradGradGradGradGradGrad

 Leave Link  103 at Mon Apr 21 19:29:19 2025, MaxMem=   536870912 cpu:               2.3 elap:               0.4
 (Enter /home/szhao/Apps/g16/l202.exe)
                          Input orientation:                          
 ---------------------------------------------------------------------
 Center     Atomic      Atomic             Coordinates (Angstroms)
 Number     Number       Type             X           Y           Z
 ---------------------------------------------------------------------
      1          6           0       -1.490377    0.000000    0.000000
      2         15           0        1.490377    0.000000    0.000000
      3          1           0       -2.608061   -0.000000    0.000000
 ---------------------------------------------------------------------
                    Distance matrix (angstroms):
                    1          2          3
     1  C    0.000000
     2  P    2.980754   0.000000
     3  H    1.117684   4.098438   0.000000
 Symmetry turned off by external request.
 Stoichiometry    CHP
 Framework group  C*V[C*(HCP)]
 Deg. of freedom     2
 Full point group                 C*V     NOp   4
 Rotational constants (GHZ):           0.0000000           5.7856134           5.7856134
 Leave Link  202 at Mon Apr 21 19:29:20 2025, MaxMem=   536870912 cpu:               0.5 elap:               0.2
 (Enter /home/szhao/Apps/g16/l601.exe)
 Copying SCF densities to generalized density rwf, IOpCl= 1 IROHF=0.

 **********************************************************************

            Population analysis using the SCF density.

 **********************************************************************

 Alpha  occ. eigenvalues --  -78.08960 -10.70710  -6.90709  -5.02526  -5.01709
 Alpha  occ. eigenvalues --   -5.01709  -0.75614  -0.61649  -0.41766  -0.25251
 Alpha  occ. eigenvalues --   -0.25251
 Alpha virt. eigenvalues --   -0.13906  -0.13906  -0.10970   0.01340   0.03989
 Alpha virt. eigenvalues --    0.05881   0.05881   0.07489   0.09090   0.09090
 Alpha virt. eigenvalues --    0.14330   0.18469   0.32612   0.32775   0.32775
 Alpha virt. eigenvalues --    0.43124   0.54683   0.55789   0.55789   0.59545
 Alpha virt. eigenvalues --    0.70979   0.70979   0.72512   0.72512   0.76557
 Alpha virt. eigenvalues --    0.87019   1.11161   1.11161   1.31258   1.31259
 Alpha virt. eigenvalues --    1.53410   1.55682   1.55682   1.59240   1.83210
 Alpha virt. eigenvalues --    1.83210   2.37237   2.49794   2.68603   2.68603
 Alpha virt. eigenvalues --    3.21512   6.75741  13.94967  13.94967  13.96941
 Alpha virt. eigenvalues --   23.50320 162.99787
  Beta  occ. eigenvalues --  -78.08960 -10.70710  -6.90709  -5.02526  -5.01709
  Beta  occ. eigenvalues --   -5.01709  -0.75614  -0.61649  -0.41766  -0.25251
  Beta  occ. eigenvalues --   -0.25251
  Beta virt. eigenvalues --   -0.13906  -0.13906  -0.10970   0.01340   0.03989
  Beta virt. eigenvalues --    0.05881   0.05881   0.07489   0.09090   0.09090
  Beta virt. eigenvalues --    0.14330   0.18469   0.32612   0.32775   0.32775
  Beta virt. eigenvalues --    0.43124   0.54683   0.55789   0.55789   0.59545
  Beta virt. eigenvalues --    0.70979   0.70979   0.72512   0.72512   0.76557
  Beta virt. eigenvalues --    0.87019   1.11161   1.11161   1.31258   1.31259
  Beta virt. eigenvalues --    1.53410   1.55682   1.55682   1.59240   1.83210
  Beta virt. eigenvalues --    1.83210   2.37237   2.49794   2.68603   2.68603
  Beta virt. eigenvalues --    3.21512   6.75741  13.94967  13.94967  13.96941
  Beta virt. eigenvalues --   23.50320 162.99787
          Condensed to atoms (all electrons):
               1          2          3
     1  C    5.790296   0.146490   0.275408
     2  P    0.146490  14.824826   0.001990
     3  H    0.275408   0.001990   0.537102
          Atomic-Atomic Spin Densities.
               1          2          3
     1  C    0.000002   0.000000   0.000000
     2  P    0.000000  -0.000003  -0.000000
     3  H    0.000000  -0.000000  -0.000000
 Mulliken charges and spin densities:
               1          2
     1  C   -0.212193   0.000003
     2  P    0.026693  -0.000003
     3  H    0.185500  -0.000000
 Sum of Mulliken charges =  -0.00000   0.00000
 Mulliken charges and spin densities with hydrogens summed into heavy atoms:
               1          2
     1  C   -0.026693   0.000003
     2  P    0.026693  -0.000003
 Electronic spatial extent (au):  <R**2>=            234.5479
 Charge=             -0.0000 electrons
 Dipole moment (field-independent basis, Debye):
    X=             -1.8069    Y=             -0.0000    Z=             -0.0000  Tot=              1.8069
 Quadrupole moment (field-independent basis, Debye-Ang):
   XX=            -10.9898   YY=            -23.8825   ZZ=            -23.8825
   XY=             -0.0000   XZ=             -0.0000   YZ=             -0.0000
 Traceless Quadrupole moment (field-independent basis, Debye-Ang):
   XX=              8.5951   YY=             -4.2975   ZZ=             -4.2975
   XY=             -0.0000   XZ=             -0.0000   YZ=             -0.0000
 Octapole moment (field-independent basis, Debye-Ang**2):
  XXX=            -30.9989  YYY=              0.0000  ZZZ=             -0.0000  XYY=            -12.4312
  XXY=             -0.0000  XXZ=             -0.0000  XZZ=            -12.4312  YZZ=              0.0000
  YYZ=             -0.0000  XYZ=             -0.0000
 Hexadecapole moment (field-independent basis, Debye-Ang**3):
 XXXX=           -233.6017 YYYY=            -45.0945 ZZZZ=            -45.0945 XXXY=             -0.0000
 XXXZ=             -0.0000 YYYX=             -0.0000 YYYZ=              0.0000 ZZZX=              0.0000
 ZZZY=              0.0000 XXYY=            -63.7477 XXZZ=            -63.7477 YYZZ=            -15.0315
 XXYZ=             -0.0000 YYXZ=              0.0000 ZZXY=             -0.0000
 N-N= 2.075532248525D+01 E-N=-9.423604298750D+02  KE= 3.787801684022D+02
                          Isotropic Fermi Contact Couplings
        Atom                 a.u.       MegaHertz       Gauss      10(-4) cm-1
     1  C(13)              0.00000       0.00002       0.00001       0.00001
     2  P(31)              0.00000       0.00012       0.00004       0.00004
     3  H(1)              -0.00000      -0.00002      -0.00001      -0.00001
 --------------------------------------------------------
       Center         ----  Spin Dipole Couplings  ----
                      3XX-RR        3YY-RR        3ZZ-RR
 --------------------------------------------------------
     1   Atom       -0.000001      0.000001      0.000001
     2   Atom        0.000004     -0.000002     -0.000002
     3   Atom        0.000000     -0.000000     -0.000000
 --------------------------------------------------------
                        XY            XZ            YZ
 --------------------------------------------------------
     1   Atom       -0.000000      0.000000     -0.000000
     2   Atom       -0.000000      0.000000      0.000000
     3   Atom        0.000000     -0.000000     -0.000000
 --------------------------------------------------------


 ---------------------------------------------------------------------------------
              Anisotropic Spin Dipole Couplings in Principal Axis System
 ---------------------------------------------------------------------------------

       Atom             a.u.   MegaHertz   Gauss  10(-4) cm-1        Axes

              Baa    -0.0000    -0.000    -0.000    -0.000  1.0000  0.0000 -0.0000
     1 C(13)  Bbb     0.0000     0.000     0.000     0.000  0.0000  0.7055  0.7087
              Bcc     0.0000     0.000     0.000     0.000 -0.0000  0.7087 -0.7055
 
              Baa    -0.0000    -0.000    -0.000    -0.000  0.0000  0.7087 -0.7055
     2 P(31)  Bbb    -0.0000    -0.000    -0.000    -0.000 -0.0000  0.7055  0.7087
              Bcc     0.0000     0.001     0.000     0.000  1.0000 -0.0000  0.0000
 
              Baa    -0.0000    -0.000    -0.000    -0.000  0.0000  0.7055  0.7087
     3 H(1)   Bbb    -0.0000    -0.000    -0.000    -0.000 -0.0000  0.7087 -0.7055
              Bcc     0.0000     0.000     0.000     0.000  1.0000  0.0000 -0.0000
 

 ---------------------------------------------------------------------------------

 No NMR shielding tensors so no spin-rotation constants.
 Leave Link  601 at Mon Apr 21 19:29:21 2025, MaxMem=   536870912 cpu:               2.7 elap:               0.4
 (Enter /home/szhao/Apps/g16/l9999.exe)
 1\1\GINC-NODE06\FOpt\UM062X\6-311+G(d,p)\C1H1P1\SZHAO\21-Apr-2025\0\\#
 p opt UM062X/6-311+G** nosymm int=superfine\\Title Card Required\\0,1\
 C,-1.490377,0.,0.\P,1.490377,0.,0.\H,-2.6080613671,-0.0000000005,0.\\V
 ersion=ES64L-G16RevA.03\HF=-379.6153755\S2=0.\S2-1=0.\S2A=0.\RMSD=6.34
 2e-09\RMSF=1.323e-06\Dipole=-0.7108978,0.,0.\Quadrupole=6.390233,-3.19
 51165,-3.1951165,0.,0.,0.\PG=C*V [C*(H1C1P1)]\\@


 ... UNTIL SCIENCE IS MIXED WITH EMOTION AND APPEALS TO THE HEART AND
 IMAGINATION , IT IS LIKE DEAD INORGANIC MATTER; AND WHEN IT IS SO MIXED
 AND SO TRANSFORMED IT IS LITERATURE.

                                  -- JOHN BURROUGHS
 Job cpu time:       0 days  0 hours  2 minutes 36.8 seconds.
 Elapsed time:       0 days  0 hours  0 minutes 25.2 seconds.
 File lengths (MBytes):  RWF=     17 Int=      0 D2E=      0 Chk=      2 Scr=      2
 Normal termination of Gaussian 16 at Mon Apr 21 19:29:21 2025.
