 Entering Gaussian System, Link 0=g16
 Initial command:
 /home/szhao/Apps/g16/l1.exe "/home/szhao/tmp/Gau-94461.inp" -scrdir="/home/szhao/tmp/"
 Default is to use a total of  16 processors:
                               16 via shared-memory
                                1 via Linda
 Entering Link 1 = /home/szhao/Apps/g16/l1.exe PID=     94463.
  
 Copyright (c) 1988,1990,1992,1993,1995,1998,2003,2009,2016,
            Gaussian, Inc.  All Rights Reserved.
  
 This is part of the Gaussian(R) 16 program.  It is based on
 the Gaussian(R) 09 system (copyright 2009, Gaussian, Inc.),
 the Gaussian(R) 03 system (copyright 2003, Gaussian, Inc.),
 the Gaussian(R) 98 system (copyright 1998, Gaussian, Inc.),
 the Gaussian(R) 94 system (copyright 1995, Gaussian, Inc.),
 the Gaussian 92(TM) system (copyright 1992, Gaussian, Inc.),
 the Gaussian 90(TM) system (copyright 1990, Gaussian, Inc.),
 the Gaussian 88(TM) system (copyright 1988, Gaussian, Inc.),
 the Gaussian 86(TM) system (copyright 1986, Carnegie Mellon
 University), and the Gaussian 82(TM) system (copyright 1983,
 Carnegie Mellon University). Gaussian is a federally registered
 trademark of Gaussian, Inc.
  
 This software contains proprietary and confidential information,
 including trade secrets, belonging to Gaussian, Inc.
  
 This software is provided under written license and may be
 used, copied, transmitted, or stored only in accord with that
 written license.
  
 The following legend is applicable only to US Government
 contracts under FAR:
  
                    RESTRICTED RIGHTS LEGEND
  
 Use, reproduction and disclosure by the US Government is
 subject to restrictions as set forth in subparagraphs (a)
 and (c) of the Commercial Computer Software - Restricted
 Rights clause in FAR 52.227-19.
  
 Gaussian, Inc.
 340 Quinnipiac St., Bldg. 40, Wallingford CT 06492
  
  
 ---------------------------------------------------------------
 Warning -- This program may not be used in any manner that
 competes with the business of Gaussian, Inc. or will provide
 assistance to any competitor of Gaussian, Inc.  The licensee
 of this program is prohibited from giving any competitor of
 Gaussian, Inc. access to this program.  By using this program,
 the user acknowledges that Gaussian, Inc. is engaged in the
 business of creating and licensing software in the field of
 computational chemistry and represents and warrants to the
 licensee that it is not a competitor of Gaussian, Inc. and that
 it will not use this program in any manner prohibited above.
 ---------------------------------------------------------------
  

 Cite this work as:
 Gaussian 16, Revision A.03,
 M. J. Frisch, G. W. Trucks, H. B. Schlegel, G. E. Scuseria, 
 M. A. Robb, J. R. Cheeseman, G. Scalmani, V. Barone, 
 G. A. Petersson, H. Nakatsuji, X. Li, M. Caricato, A. V. Marenich, 
 J. Bloino, B. G. Janesko, R. Gomperts, B. Mennucci, H. P. Hratchian, 
 J. V. Ortiz, A. F. Izmaylov, J. L. Sonnenberg, D. Williams-Young, 
 F. Ding, F. Lipparini, F. Egidi, J. Goings, B. Peng, A. Petrone, 
 T. Henderson, D. Ranasinghe, V. G. Zakrzewski, J. Gao, N. Rega, 
 G. Zheng, W. Liang, M. Hada, M. Ehara, K. Toyota, R. Fukuda, 
 J. Hasegawa, M. Ishida, T. Nakajima, Y. Honda, O. Kitao, H. Nakai, 
 T. Vreven, K. Throssell, J. A. Montgomery, Jr., J. E. Peralta, 
 F. Ogliaro, M. J. Bearpark, J. J. Heyd, E. N. Brothers, K. N. Kudin, 
 V. N. Staroverov, T. A. Keith, R. Kobayashi, J. Normand, 
 K. Raghavachari, A. P. Rendell, J. C. Burant, S. S. Iyengar, 
 J. Tomasi, M. Cossi, J. M. Millam, M. Klene, C. Adamo, R. Cammi, 
 J. W. Ochterski, R. L. Martin, K. Morokuma, O. Farkas, 
 J. B. Foresman, and D. J. Fox, Gaussian, Inc., Wallingford CT, 2016.
 
 ******************************************
 Gaussian 16:  ES64L-G16RevA.03 25-Dec-2016
                15-May-2025 
 ******************************************
 %chk=opt.chk
 %mem=4GB
 %nprocshared=8
 Will use up to    8 processors via shared memory.
 --------------------------------------------
 #p opt UM062X/6-311+G** nosymm int=superfine
 --------------------------------------------
 1/18=20,19=15,26=5,38=1/1,3;
 2/9=110,12=2,15=1,17=6,18=5,40=1/2;
 3/5=4,6=6,7=111,11=2,25=1,30=1,71=1,74=-55,75=-7,116=2/1,2,3;
 4//1;
 5/5=2,38=5/2;
 6/7=2,8=2,9=2,10=2,28=1/1;
 7/30=1/1,2,3,16;
 1/18=20,19=15,26=5/3(2);
 2/9=110,15=1/2;
 99//99;
 2/9=110,15=1/2;
 3/5=4,6=6,7=111,11=2,25=1,30=1,71=1,74=-55,75=-7,116=2/1,2,3;
 4/5=5,16=3,69=1/1;
 5/5=2,38=5/2;
 7/30=1/1,2,3,16;
 1/18=20,19=15,26=5/3(-5);
 2/9=110,15=1/2;
 6/7=2,8=2,9=2,10=2,19=2,28=1/1;
 99/9=1/99;
 Leave Link    1 at Thu May 15 14:27:35 2025, MaxMem=   536870912 cpu:               0.3 elap:               0.0
 (Enter /home/szhao/Apps/g16/l101.exe)
 -------------------
 Title Card Required
 -------------------
 Symbolic Z-matrix:
 Charge =  0 Multiplicity = 1
 N                    -1   -0.98654   0.        0. 
 N                    -1    0.98654   0.        0. 
 H                    0    -1.30239  -0.96125   0. 
 H                    0     1.30239   0.82259  -0.49735 
 H                    0    -1.37918   0.46934   0.80975 
 H                    0     1.37918   0.01733   0.93577 
 
 Add virtual bond connecting atoms N2         and N1         Dist= 3.73D+00.
 ITRead=  2  2  0  0  0  0
 MicOpt= -2 -2 -1 -1 -1 -1
 NAtoms=      6 NQM=        4 NQMF=       2 NMMI=      0 NMMIF=      0
                NMic=       0 NMicF=      0.
                    Isotopes and Nuclear Properties:
 (Nuclear quadrupole moments (NQMom) in fm**2, nuclear magnetic moments (NMagM)
  in nuclear magnetons)

  Atom         1           2           3           4           5           6
 IAtWgt=          14          14           1           1           1           1
 AtmWgt=  14.0030740  14.0030740   1.0078250   1.0078250   1.0078250   1.0078250
 NucSpn=           2           2           1           1           1           1
 AtZEff=  -0.0000000  -0.0000000  -0.0000000  -0.0000000  -0.0000000  -0.0000000
 NQMom=    2.0440000   2.0440000   0.0000000   0.0000000   0.0000000   0.0000000
 NMagM=    0.4037610   0.4037610   2.7928460   2.7928460   2.7928460   2.7928460
 AtZNuc=   7.0000000   7.0000000   1.0000000   1.0000000   1.0000000   1.0000000
 Leave Link  101 at Thu May 15 14:27:35 2025, MaxMem=   536870912 cpu:               2.1 elap:               0.3
 (Enter /home/szhao/Apps/g16/l103.exe)

 GradGradGradGradGradGradGradGradGradGradGradGradGradGradGradGradGradGrad
 Berny optimization.
 Initialization pass.
                           ----------------------------
                           !    Initial Parameters    !
                           ! (Angstroms and Degrees)  !
 --------------------------                            --------------------------
 ! Name  Definition              Value          Derivative Info.                !
 --------------------------------------------------------------------------------
 ! X1    R(1,-1)                -0.9865         Frozen                          !
 ! Y1    R(1,-2)                 0.0            Frozen                          !
 ! Z1    R(1,-3)                 0.0            Frozen                          !
 ! X2    R(2,-1)                 0.9865         Frozen                          !
 ! Y2    R(2,-2)                 0.0            Frozen                          !
 ! Z2    R(2,-3)                 0.0            Frozen                          !
 ! R1    R(1,3)                  1.0118         estimate D2E/DX2                !
 ! R2    R(1,5)                  1.015          estimate D2E/DX2                !
 ! R3    R(2,4)                  1.0118         estimate D2E/DX2                !
 ! R4    R(2,6)                  1.015          estimate D2E/DX2                !
 ! A1    A(2,1,3)              108.1896         estimate D2E/DX2                !
 ! A2    A(2,1,5)              112.759          estimate D2E/DX2                !
 ! A3    A(3,1,5)              108.5753         estimate D2E/DX2                !
 ! A4    A(1,2,4)              108.1895         estimate D2E/DX2                !
 ! A5    A(1,2,6)              112.7589         estimate D2E/DX2                !
 ! A6    A(4,2,6)              108.5754         estimate D2E/DX2                !
 ! D1    D(3,1,2,4)            148.842          estimate D2E/DX2                !
 ! D2    D(3,1,2,6)            -91.0611         estimate D2E/DX2                !
 ! D3    D(5,1,2,4)            -91.0611         estimate D2E/DX2                !
 ! D4    D(5,1,2,6)             29.0358         estimate D2E/DX2                !
 --------------------------------------------------------------------------------
 Trust Radius=3.00D-01 FncErr=1.00D-07 GrdErr=1.00D-07 EigMax=2.50D+02 EigMin=1.00D-04
 Number of steps in this run=     30 maximum allowed number of steps=    100.
 GradGradGradGradGradGradGradGradGradGradGradGradGradGradGradGradGradGrad

 Leave Link  103 at Thu May 15 14:27:35 2025, MaxMem=   536870912 cpu:               0.1 elap:               0.0
 (Enter /home/szhao/Apps/g16/l202.exe)
                          Input orientation:                          
 ---------------------------------------------------------------------
 Center     Atomic      Atomic             Coordinates (Angstroms)
 Number     Number       Type             X           Y           Z
 ---------------------------------------------------------------------
      1          7           0       -0.986540    0.000000    0.000000
      2          7           0        0.986540    0.000000    0.000000
      3          1           0       -1.302390   -0.961252    0.000000
      4          1           0        1.302388    0.822586   -0.497352
      5          1           0       -1.379182    0.469337    0.809750
      6          1           0        1.379180    0.017333    0.935772
 ---------------------------------------------------------------------
                    Distance matrix (angstroms):
                    1          2          3          4          5
     1  N    0.000000
     2  N    1.973080   0.000000
     3  H    1.011814   2.482581   0.000000
     4  H    2.482579   1.011813   3.195983   0.000000
     5  H    1.014957   2.544132   1.645654   3.004016   0.000000
     6  H    2.544131   1.014956   3.004017   1.645653   2.797990
                    6
     6  H    0.000000
 Symmetry turned off by external request.
 Stoichiometry    H4N2
 Framework group  C1[X(H4N2)]
 Deg. of freedom    12
 Full point group                 C1      NOp   1
 Rotational constants (GHZ):         145.2922659          13.9059465          13.9033587
 Leave Link  202 at Thu May 15 14:27:35 2025, MaxMem=   536870912 cpu:               0.0 elap:               0.0
 (Enter /home/szhao/Apps/g16/l301.exe)
 Standard basis: 6-311+G(d,p) (5D, 7F)
 Ernie: Thresh=  0.10000D-02 Tol=  0.10000D-05 Strict=F.
    68 basis functions,   104 primitive gaussians,    70 cartesian basis functions
     9 alpha electrons        9 beta electrons
       nuclear repulsion energy        35.0093297285 Hartrees.
 IExCor= 4336 DFT=T Ex+Corr=M062X ExCW=0 ScaHFX=  0.540000
 ScaDFX=  1.000000  1.000000  1.000000  1.000000 ScalE2=  1.000000  1.000000
 IRadAn=      7 IRanWt=     -1 IRanGd=            0 ICorTp=0 IEmpDi=  4
 NAtoms=    6 NActive=    6 NUniq=    6 SFac= 1.00D+00 NAtFMM=   60 NAOKFM=F Big=F
 Integral buffers will be    131072 words long.
 Raffenetti 2 integral format.
 Two-electron integral symmetry is turned off.
 Leave Link  301 at Thu May 15 14:27:35 2025, MaxMem=   536870912 cpu:               0.3 elap:               0.0
 (Enter /home/szhao/Apps/g16/l302.exe)
 NPDir=0 NMtPBC=     1 NCelOv=     1 NCel=       1 NClECP=     1 NCelD=      1
         NCelK=      1 NCelE2=     1 NClLst=     1 CellRange=     0.0.
 One-electron integrals computed using PRISM.
 NBasis=    68 RedAO= T EigKep=  1.65D-03  NBF=    68
 NBsUse=    68 1.00D-06 EigRej= -1.00D+00 NBFU=    68
 Precomputing XC quadrature grid using
 IXCGrd= 4 IRadAn=           7 IRanWt=          -1 IRanGd=           0 AccXCQ= 0.00D+00.
 Generated NRdTot=       0 NPtTot=           0 NUsed=           0 NTot=          32
 NSgBfM=    70    70    70    70    70 MxSgAt=     6 MxSgA2=     6.
 Leave Link  302 at Thu May 15 14:27:35 2025, MaxMem=   536870912 cpu:               1.0 elap:               0.1
 (Enter /home/szhao/Apps/g16/l303.exe)
 DipDrv:  MaxL=1.
 Leave Link  303 at Thu May 15 14:27:35 2025, MaxMem=   536870912 cpu:               0.3 elap:               0.1
 (Enter /home/szhao/Apps/g16/l401.exe)
 ExpMin= 6.39D-02 ExpMax= 6.29D+03 ExpMxC= 9.49D+02 IAcc=3 IRadAn=         7 AccDes= 0.00D+00
 Harris functional with IExCor= 1009 and IRadAn=       7 diagonalized for initial guess.
 HarFok:  IExCor= 1009 AccDes= 0.00D+00 IRadAn=         7 IDoV= 1 UseB2=F ITyADJ=14
 ICtDFT=  3500011 ScaDFX=  1.000000  1.000000  1.000000  1.000000
 FoFCou: FMM=F IPFlag=           0 FMFlag=      100000 FMFlg1=           0
         NFxFlg=           0 DoJE=T BraDBF=F KetDBF=T FulRan=T
         wScrn=  0.000000 ICntrl=       500 IOpCl=  0 I1Cent=   200000004 NGrid=           0
         NMat0=    1 NMatS0=      1 NMatT0=    0 NMatD0=    1 NMtDS0=    0 NMtDT0=    0
 Symmetry not used in FoFCou.
 Harris En= -111.729534431934    
 JPrj=0 DoOrth=F DoCkMO=F.
 Initial guess <Sx>= 0.0000 <Sy>= 0.0000 <Sz>= 0.0000 <S**2>= 0.0000 S= 0.0000
 Leave Link  401 at Thu May 15 14:27:36 2025, MaxMem=   536870912 cpu:               2.3 elap:               0.3
 (Enter /home/szhao/Apps/g16/l502.exe)
 Keep R1 and R2 ints in memory in canonical form, NReq=12681614.
 FoFCou: FMM=F IPFlag=           0 FMFlag=           0 FMFlg1=           0
         NFxFlg=           0 DoJE=F BraDBF=F KetDBF=F FulRan=T
         wScrn=  0.000000 ICntrl=       600 IOpCl=  0 I1Cent=           0 NGrid=           0
         NMat0=    1 NMatS0=   2346 NMatT0=    0 NMatD0=    1 NMtDS0=    0 NMtDT0=    0
 Symmetry not used in FoFCou.
 Two-electron integral symmetry not used.
 UHF open shell SCF:
 Using DIIS extrapolation, IDIIS=  1040.
 NGot=   536870912 LenX=   531353794 LenY=   531348453
 Requested convergence on RMS density matrix=1.00D-08 within 128 cycles.
 Requested convergence on MAX density matrix=1.00D-06.
 Requested convergence on             energy=1.00D-06.
 No special actions if energy rises.
 Integral accuracy reduced to 1.0D-05 until final iterations.

 Cycle   1  Pass 0  IDiag  1:
 E= -111.713732114593    
 DIIS: error= 3.30D-02 at cycle   1 NSaved=   1.
 NSaved= 1 IEnMin= 1 EnMin= -111.713732114593     IErMin= 1 ErrMin= 3.30D-02
 ErrMax= 3.30D-02  0.00D+00 EMaxC= 1.00D-01 BMatC= 3.18D-01 BMatP= 3.18D-01
 IDIUse=3 WtCom= 6.70D-01 WtEn= 3.30D-01
 Coeff-Com:  0.100D+01
 Coeff-En:   0.100D+01
 Coeff:      0.100D+01
 Gap=     0.304 Goal=   None    Shift=    0.000
 Gap=     0.304 Goal=   None    Shift=    0.000
 GapD=    0.304 DampG=1.000 DampE=0.500 DampFc=0.5000 IDamp=-1.
 Damping current iteration by 5.00D-01
 RMSDP=5.95D-03 MaxDP=7.01D-02              OVMax= 1.12D-01

 Cycle   2  Pass 0  IDiag  1:
 E= -111.739793362730     Delta-E=       -0.026061248137 Rises=F Damp=T
 DIIS: error= 1.35D-02 at cycle   2 NSaved=   2.
 NSaved= 2 IEnMin= 2 EnMin= -111.739793362730     IErMin= 2 ErrMin= 1.35D-02
 ErrMax= 1.35D-02  0.00D+00 EMaxC= 1.00D-01 BMatC= 2.60D-02 BMatP= 3.18D-01
 IDIUse=3 WtCom= 8.65D-01 WtEn= 1.35D-01
 Coeff-Com: -0.115D+00 0.112D+01
 Coeff-En:   0.000D+00 0.100D+01
 Coeff:     -0.998D-01 0.110D+01
 Gap=     0.305 Goal=   None    Shift=    0.000
 Gap=     0.305 Goal=   None    Shift=    0.000
 RMSDP=7.80D-04 MaxDP=1.02D-02 DE=-2.61D-02 OVMax= 5.95D-02

 Cycle   3  Pass 0  IDiag  1:
 E= -111.765283294305     Delta-E=       -0.025489931574 Rises=F Damp=F
 DIIS: error= 3.16D-03 at cycle   3 NSaved=   3.
 NSaved= 3 IEnMin= 3 EnMin= -111.765283294305     IErMin= 3 ErrMin= 3.16D-03
 ErrMax= 3.16D-03  0.00D+00 EMaxC= 1.00D-01 BMatC= 2.56D-03 BMatP= 2.60D-02
 IDIUse=3 WtCom= 9.68D-01 WtEn= 3.16D-02
 Coeff-Com: -0.846D-01 0.232D+00 0.852D+00
 Coeff-En:   0.000D+00 0.000D+00 0.100D+01
 Coeff:     -0.819D-01 0.225D+00 0.857D+00
 Gap=     0.288 Goal=   None    Shift=    0.000
 Gap=     0.288 Goal=   None    Shift=    0.000
 RMSDP=2.65D-04 MaxDP=3.12D-03 DE=-2.55D-02 OVMax= 6.86D-03

 Cycle   4  Pass 0  IDiag  1:
 E= -111.765831985435     Delta-E=       -0.000548691130 Rises=F Damp=F
 DIIS: error= 6.83D-04 at cycle   4 NSaved=   4.
 NSaved= 4 IEnMin= 4 EnMin= -111.765831985435     IErMin= 4 ErrMin= 6.83D-04
 ErrMax= 6.83D-04  0.00D+00 EMaxC= 1.00D-01 BMatC= 7.20D-05 BMatP= 2.56D-03
 IDIUse=3 WtCom= 9.93D-01 WtEn= 6.83D-03
 Coeff-Com: -0.163D-01 0.332D-01 0.227D+00 0.756D+00
 Coeff-En:   0.000D+00 0.000D+00 0.000D+00 0.100D+01
 Coeff:     -0.162D-01 0.330D-01 0.225D+00 0.758D+00
 Gap=     0.288 Goal=   None    Shift=    0.000
 Gap=     0.288 Goal=   None    Shift=    0.000
 RMSDP=4.19D-05 MaxDP=3.72D-04 DE=-5.49D-04 OVMax= 9.75D-04

 Cycle   5  Pass 0  IDiag  1:
 E= -111.765845767027     Delta-E=       -0.000013781592 Rises=F Damp=F
 DIIS: error= 6.41D-05 at cycle   5 NSaved=   5.
 NSaved= 5 IEnMin= 5 EnMin= -111.765845767027     IErMin= 5 ErrMin= 6.41D-05
 ErrMax= 6.41D-05  0.00D+00 EMaxC= 1.00D-01 BMatC= 5.35D-07 BMatP= 7.20D-05
 IDIUse=1 WtCom= 1.00D+00 WtEn= 0.00D+00
 Coeff-Com:  0.298D-02-0.643D-02-0.306D-01-0.111D+00 0.115D+01
 Coeff:      0.298D-02-0.643D-02-0.306D-01-0.111D+00 0.115D+01
 Gap=     0.288 Goal=   None    Shift=    0.000
 Gap=     0.288 Goal=   None    Shift=    0.000
 RMSDP=1.44D-05 MaxDP=1.36D-04 DE=-1.38D-05 OVMax= 7.60D-04

 Cycle   6  Pass 0  IDiag  1:
 E= -111.765846368173     Delta-E=       -0.000000601146 Rises=F Damp=F
 DIIS: error= 2.74D-05 at cycle   6 NSaved=   6.
 NSaved= 6 IEnMin= 6 EnMin= -111.765846368173     IErMin= 6 ErrMin= 2.74D-05
 ErrMax= 2.74D-05  0.00D+00 EMaxC= 1.00D-01 BMatC= 9.17D-08 BMatP= 5.35D-07
 IDIUse=1 WtCom= 1.00D+00 WtEn= 0.00D+00
 Coeff-Com:  0.591D-03-0.114D-02-0.922D-02-0.464D-01 0.669D-02 0.105D+01
 Coeff:      0.591D-03-0.114D-02-0.922D-02-0.464D-01 0.669D-02 0.105D+01
 Gap=     0.288 Goal=   None    Shift=    0.000
 Gap=     0.288 Goal=   None    Shift=    0.000
 RMSDP=5.35D-06 MaxDP=4.28D-05 DE=-6.01D-07 OVMax= 3.25D-04

 Initial convergence to 1.0D-05 achieved.  Increase integral accuracy.
 Cycle   7  Pass 1  IDiag  1:
 E= -111.765845481071     Delta-E=        0.000000887102 Rises=F Damp=F
 DIIS: error= 1.14D-05 at cycle   1 NSaved=   1.
 NSaved= 1 IEnMin= 1 EnMin= -111.765845481071     IErMin= 1 ErrMin= 1.14D-05
 ErrMax= 1.14D-05  0.00D+00 EMaxC= 1.00D-01 BMatC= 1.17D-08 BMatP= 1.17D-08
 IDIUse=1 WtCom= 1.00D+00 WtEn= 0.00D+00
 Coeff-Com:  0.100D+01
 Coeff:      0.100D+01
 Gap=     0.288 Goal=   None    Shift=    0.000
 Gap=     0.288 Goal=   None    Shift=    0.000
 RMSDP=5.35D-06 MaxDP=4.28D-05 DE= 8.87D-07 OVMax= 1.20D-04

 Cycle   8  Pass 1  IDiag  1:
 E= -111.765845496757     Delta-E=       -0.000000015686 Rises=F Damp=F
 DIIS: error= 5.61D-06 at cycle   2 NSaved=   2.
 NSaved= 2 IEnMin= 2 EnMin= -111.765845496757     IErMin= 2 ErrMin= 5.61D-06
 ErrMax= 5.61D-06  0.00D+00 EMaxC= 1.00D-01 BMatC= 3.04D-09 BMatP= 1.17D-08
 IDIUse=1 WtCom= 1.00D+00 WtEn= 0.00D+00
 Coeff-Com: -0.520D+00 0.152D+01
 Coeff:     -0.520D+00 0.152D+01
 Gap=     0.288 Goal=   None    Shift=    0.000
 Gap=     0.288 Goal=   None    Shift=    0.000
 RMSDP=1.67D-06 MaxDP=1.29D-05 DE=-1.57D-08 OVMax= 9.38D-05

 Cycle   9  Pass 1  IDiag  1:
 E= -111.765845501687     Delta-E=       -0.000000004930 Rises=F Damp=F
 DIIS: error= 3.67D-06 at cycle   3 NSaved=   3.
 NSaved= 3 IEnMin= 3 EnMin= -111.765845501687     IErMin= 3 ErrMin= 3.67D-06
 ErrMax= 3.67D-06  0.00D+00 EMaxC= 1.00D-01 BMatC= 1.77D-09 BMatP= 3.04D-09
 IDIUse=1 WtCom= 1.00D+00 WtEn= 0.00D+00
 Coeff-Com: -0.440D+00 0.855D+00 0.586D+00
 Coeff:     -0.440D+00 0.855D+00 0.586D+00
 Gap=     0.288 Goal=   None    Shift=    0.000
 Gap=     0.288 Goal=   None    Shift=    0.000
 RMSDP=5.19D-07 MaxDP=5.87D-06 DE=-4.93D-09 OVMax= 2.41D-05

 Cycle  10  Pass 1  IDiag  1:
 E= -111.765845502310     Delta-E=       -0.000000000623 Rises=F Damp=F
 DIIS: error= 1.91D-06 at cycle   4 NSaved=   4.
 NSaved= 4 IEnMin= 4 EnMin= -111.765845502310     IErMin= 4 ErrMin= 1.91D-06
 ErrMax= 1.91D-06  0.00D+00 EMaxC= 1.00D-01 BMatC= 3.85D-10 BMatP= 1.77D-09
 IDIUse=1 WtCom= 1.00D+00 WtEn= 0.00D+00
 Coeff-Com: -0.150D+00 0.172D+00 0.359D+00 0.618D+00
 Coeff:     -0.150D+00 0.172D+00 0.359D+00 0.618D+00
 Gap=     0.288 Goal=   None    Shift=    0.000
 Gap=     0.288 Goal=   None    Shift=    0.000
 RMSDP=2.07D-07 MaxDP=2.18D-06 DE=-6.23D-10 OVMax= 8.77D-06

 Cycle  11  Pass 1  IDiag  1:
 E= -111.765845502425     Delta-E=       -0.000000000114 Rises=F Damp=F
 DIIS: error= 2.44D-07 at cycle   5 NSaved=   5.
 NSaved= 5 IEnMin= 5 EnMin= -111.765845502425     IErMin= 5 ErrMin= 2.44D-07
 ErrMax= 2.44D-07  0.00D+00 EMaxC= 1.00D-01 BMatC= 1.80D-11 BMatP= 3.85D-10
 IDIUse=1 WtCom= 1.00D+00 WtEn= 0.00D+00
 Coeff-Com: -0.251D-01-0.194D-02 0.953D-01 0.256D+00 0.676D+00
 Coeff:     -0.251D-01-0.194D-02 0.953D-01 0.256D+00 0.676D+00
 Gap=     0.288 Goal=   None    Shift=    0.000
 Gap=     0.288 Goal=   None    Shift=    0.000
 RMSDP=3.39D-08 MaxDP=4.49D-07 DE=-1.14D-10 OVMax= 1.55D-06

 Cycle  12  Pass 1  IDiag  1:
 E= -111.765845502429     Delta-E=       -0.000000000005 Rises=F Damp=F
 DIIS: error= 5.89D-08 at cycle   6 NSaved=   6.
 NSaved= 6 IEnMin= 6 EnMin= -111.765845502429     IErMin= 6 ErrMin= 5.89D-08
 ErrMax= 5.89D-08  0.00D+00 EMaxC= 1.00D-01 BMatC= 9.59D-13 BMatP= 1.80D-11
 IDIUse=1 WtCom= 1.00D+00 WtEn= 0.00D+00
 Coeff-Com:  0.782D-02-0.173D-01-0.933D-02 0.959D-02 0.208D+00 0.802D+00
 Coeff:      0.782D-02-0.173D-01-0.933D-02 0.959D-02 0.208D+00 0.802D+00
 Gap=     0.288 Goal=   None    Shift=    0.000
 Gap=     0.288 Goal=   None    Shift=    0.000
 RMSDP=7.66D-09 MaxDP=9.53D-08 DE=-4.66D-12 OVMax= 2.96D-07

 SCF Done:  E(UM062X) =  -111.765845502     A.U. after   12 cycles
            NFock= 12  Conv=0.77D-08     -V/T= 2.0064
 <Sx>= 0.0000 <Sy>= 0.0000 <Sz>= 0.0000 <S**2>=-0.0000 S=-0.0000
 <L.S>=  0.00000000000    
 KE= 1.110535635900D+02 PE=-3.312875755467D+02 EE= 7.345883672572D+01
 Annihilation of the first spin contaminant:
 S**2 before annihilation    -0.0000,   after    -0.0000
 Leave Link  502 at Thu May 15 14:27:39 2025, MaxMem=   536870912 cpu:              28.3 elap:               3.6
 (Enter /home/szhao/Apps/g16/l601.exe)
 Copying SCF densities to generalized density rwf, IOpCl= 1 IROHF=0.

 **********************************************************************

            Population analysis using the SCF density.

 **********************************************************************

 Alpha  occ. eigenvalues --  -14.78091 -14.78084  -0.96422  -0.90421  -0.55053
 Alpha  occ. eigenvalues --   -0.55036  -0.44763  -0.35223  -0.32649
 Alpha virt. eigenvalues --   -0.03873   0.04540   0.08598   0.10825   0.11248
 Alpha virt. eigenvalues --    0.14798   0.14998   0.15496   0.18252   0.19755
 Alpha virt. eigenvalues --    0.23000   0.24695   0.25217   0.52281   0.54389
 Alpha virt. eigenvalues --    0.60190   0.62539   0.75958   0.76899   0.78347
 Alpha virt. eigenvalues --    0.81960   0.85925   0.89891   1.03177   1.17059
 Alpha virt. eigenvalues --    1.23699   1.24156   1.37134   1.38396   1.46077
 Alpha virt. eigenvalues --    1.65462   1.66062   1.85208   1.94447   1.97514
 Alpha virt. eigenvalues --    1.98894   2.05324   2.28746   2.37047   2.43696
 Alpha virt. eigenvalues --    2.48242   2.48392   2.58039   2.58606   2.63078
 Alpha virt. eigenvalues --    2.71433   2.75333   2.91583   2.95021   3.08751
 Alpha virt. eigenvalues --    3.10260   3.89816   3.91990   4.22006   4.32643
 Alpha virt. eigenvalues --    4.74300   4.74538  35.55962  35.57972
  Beta  occ. eigenvalues --  -14.78091 -14.78084  -0.96422  -0.90421  -0.55053
  Beta  occ. eigenvalues --   -0.55036  -0.44763  -0.35223  -0.32649
  Beta virt. eigenvalues --   -0.03873   0.04540   0.08598   0.10825   0.11248
  Beta virt. eigenvalues --    0.14798   0.14998   0.15496   0.18252   0.19755
  Beta virt. eigenvalues --    0.23000   0.24695   0.25217   0.52281   0.54389
  Beta virt. eigenvalues --    0.60190   0.62539   0.75958   0.76899   0.78347
  Beta virt. eigenvalues --    0.81960   0.85925   0.89891   1.03177   1.17059
  Beta virt. eigenvalues --    1.23699   1.24156   1.37134   1.38396   1.46077
  Beta virt. eigenvalues --    1.65462   1.66062   1.85208   1.94447   1.97514
  Beta virt. eigenvalues --    1.98894   2.05324   2.28746   2.37047   2.43696
  Beta virt. eigenvalues --    2.48242   2.48392   2.58039   2.58606   2.63078
  Beta virt. eigenvalues --    2.71433   2.75333   2.91583   2.95021   3.08751
  Beta virt. eigenvalues --    3.10260   3.89816   3.91990   4.22006   4.32643
  Beta virt. eigenvalues --    4.74300   4.74538  35.55962  35.57972
          Condensed to atoms (all electrons):
               1          2          3          4          5          6
     1  N    6.616278   0.210756   0.373262  -0.023999   0.366113  -0.026585
     2  N    0.210756   6.616278  -0.023999   0.373262  -0.026585   0.366113
     3  H    0.373262  -0.023999   0.426279   0.001501  -0.045154   0.000450
     4  H   -0.023999   0.373262   0.001501   0.426279   0.000450  -0.045155
     5  H    0.366113  -0.026585  -0.045154   0.000450   0.455325   0.001689
     6  H   -0.026585   0.366113   0.000450  -0.045155   0.001689   0.455325
          Atomic-Atomic Spin Densities.
               1          2          3          4          5          6
     1  N   -0.000000   0.000000   0.000000  -0.000000  -0.000000   0.000000
     2  N    0.000000   0.000000   0.000000  -0.000000   0.000000  -0.000000
     3  H    0.000000   0.000000   0.000000   0.000000   0.000000  -0.000000
     4  H   -0.000000  -0.000000   0.000000   0.000000   0.000000   0.000000
     5  H   -0.000000   0.000000   0.000000   0.000000  -0.000000   0.000000
     6  H    0.000000  -0.000000  -0.000000   0.000000   0.000000   0.000000
 Mulliken charges and spin densities:
               1          2
     1  N   -0.515824  -0.000000
     2  N   -0.515824   0.000000
     3  H    0.267662   0.000000
     4  H    0.267661   0.000000
     5  H    0.248163  -0.000000
     6  H    0.248163  -0.000000
 Sum of Mulliken charges =  -0.00000   0.00000
 Mulliken charges and spin densities with hydrogens summed into heavy atoms:
               1          2
     1  N   -0.000000  -0.000000
     2  N    0.000000   0.000000
 Electronic spatial extent (au):  <R**2>=            115.1614
 Charge=             -0.0000 electrons
 Dipole moment (field-independent basis, Debye):
    X=              0.0000    Y=              0.5660    Z=              2.0300  Tot=              2.1074
 Quadrupole moment (field-independent basis, Debye-Ang):
   XX=            -10.8711   YY=            -13.2563   ZZ=            -13.4632
   XY=              3.3159   XZ=             -0.9245   YZ=             -0.0626
 Traceless Quadrupole moment (field-independent basis, Debye-Ang):
   XX=              1.6591   YY=             -0.7261   ZZ=             -0.9330
   XY=              3.3159   XZ=             -0.9245   YZ=             -0.0626
 Octapole moment (field-independent basis, Debye-Ang**2):
  XXX=              0.0000  YYY=             -0.9820  ZZZ=             -0.1814  XYY=             -1.7377
  XXY=              1.1003  XXZ=              3.9464  XZZ=              1.7377  YZZ=              0.6564
  YYZ=             -0.9863  XYZ=             -2.8740
 Hexadecapole moment (field-independent basis, Debye-Ang**3):
 XXXX=            -97.8125 YYYY=            -20.2321 ZZZZ=            -20.7918 XXXY=              4.0469
 XXXZ=             -1.1283 YYYX=              1.0053 YYYZ=             -0.4076 ZZZX=              0.9850
 ZZZY=              0.2384 XXYY=            -18.8246 XXZZ=            -18.8375 YYZZ=             -7.0632
 XXYZ=             -0.0039 YYXZ=             -1.0080 ZZXY=             -0.9226
 N-N= 3.500932972849D+01 E-N=-3.312875717921D+02  KE= 1.110535635900D+02
                          Isotropic Fermi Contact Couplings
        Atom                 a.u.       MegaHertz       Gauss      10(-4) cm-1
     1  N(14)              0.00000       0.00000       0.00000       0.00000
     2  N(14)              0.00000       0.00000       0.00000       0.00000
     3  H(1)              -0.00000      -0.00000      -0.00000      -0.00000
     4  H(1)              -0.00000      -0.00000      -0.00000      -0.00000
     5  H(1)              -0.00000      -0.00000      -0.00000      -0.00000
     6  H(1)              -0.00000      -0.00000      -0.00000      -0.00000
 --------------------------------------------------------
       Center         ----  Spin Dipole Couplings  ----
                      3XX-RR        3YY-RR        3ZZ-RR
 --------------------------------------------------------
     1   Atom        0.000000      0.000000      0.000000
     2   Atom        0.000000      0.000000      0.000000
     3   Atom        0.000000      0.000000      0.000000
     4   Atom        0.000000      0.000000      0.000000
     5   Atom        0.000000      0.000000      0.000000
     6   Atom        0.000000      0.000000      0.000000
 --------------------------------------------------------
                        XY            XZ            YZ
 --------------------------------------------------------
     1   Atom        0.000000      0.000000      0.000000
     2   Atom        0.000000      0.000000      0.000000
     3   Atom        0.000000      0.000000      0.000000
     4   Atom        0.000000      0.000000      0.000000
     5   Atom        0.000000      0.000000      0.000000
     6   Atom        0.000000      0.000000      0.000000
 --------------------------------------------------------


 ---------------------------------------------------------------------------------
              Anisotropic Spin Dipole Couplings in Principal Axis System
 ---------------------------------------------------------------------------------

       Atom             a.u.   MegaHertz   Gauss  10(-4) cm-1        Axes

              Baa     0.0000     0.000     0.000     0.000  1.0000  0.0000  0.0000
     1 N(14)  Bbb     0.0000     0.000     0.000     0.000 -0.0000  1.0000  0.0000
              Bcc     0.0000     0.000     0.000     0.000  0.0000  0.0000  1.0000
 
              Baa     0.0000     0.000     0.000     0.000  1.0000  0.0000  0.0000
     2 N(14)  Bbb     0.0000     0.000     0.000     0.000 -0.0000  1.0000  0.0000
              Bcc     0.0000     0.000     0.000     0.000  0.0000  0.0000  1.0000
 
              Baa     0.0000     0.000     0.000     0.000  1.0000  0.0000  0.0000
     3 H(1)   Bbb     0.0000     0.000     0.000     0.000 -0.0000  1.0000  0.0000
              Bcc     0.0000     0.000     0.000     0.000  0.0000  0.0000  1.0000
 
              Baa     0.0000     0.000     0.000     0.000  1.0000  0.0000  0.0000
     4 H(1)   Bbb     0.0000     0.000     0.000     0.000 -0.0000  1.0000  0.0000
              Bcc     0.0000     0.000     0.000     0.000  0.0000  0.0000  1.0000
 
              Baa     0.0000     0.000     0.000     0.000  1.0000  0.0000  0.0000
     5 H(1)   Bbb     0.0000     0.000     0.000     0.000 -0.0000  1.0000  0.0000
              Bcc     0.0000     0.000     0.000     0.000  0.0000  0.0000  1.0000
 
              Baa     0.0000     0.000     0.000     0.000  1.0000  0.0000  0.0000
     6 H(1)   Bbb     0.0000     0.000     0.000     0.000 -0.0000  1.0000  0.0000
              Bcc     0.0000     0.000     0.000     0.000  0.0000  0.0000  1.0000
 

 ---------------------------------------------------------------------------------

 No NMR shielding tensors so no spin-rotation constants.
 Leave Link  601 at Thu May 15 14:27:39 2025, MaxMem=   536870912 cpu:               0.8 elap:               0.1
 (Enter /home/szhao/Apps/g16/l701.exe)
 ... and contract with generalized density number  0.
 Compute integral first derivatives.
 Leave Link  701 at Thu May 15 14:27:39 2025, MaxMem=   536870912 cpu:               0.8 elap:               0.1
 (Enter /home/szhao/Apps/g16/l702.exe)
 L702 exits ... SP integral derivatives will be done elsewhere.
 Leave Link  702 at Thu May 15 14:27:39 2025, MaxMem=   536870912 cpu:               0.2 elap:               0.0
 (Enter /home/szhao/Apps/g16/l703.exe)
 Integral derivatives from FoFJK, PRISM(SPDF).
 Compute integral first derivatives, UseDBF=F ICtDFT=           0.
 Calling FoFJK, ICntrl=      2127 FMM=F ISym2X=0 I1Cent= 0 IOpClX= 1 NMat=1 NMatS=1 NMatT=0.
 FoFJK:  IHMeth= 1 ICntrl=    2127 DoSepK=F KAlg= 0 I1Cent=           0 FoldK=F
 IRaf=         0 NMat=       1 IRICut=       1 DoRegI=T DoRafI=F ISym2E= 0 IDoP0=0 IntGTp=1.
 FoFCou: FMM=F IPFlag=           0 FMFlag=      100000 FMFlg1=         800
         NFxFlg=           0 DoJE=F BraDBF=F KetDBF=F FulRan=T
         wScrn=  0.000000 ICntrl=      2127 IOpCl=  1 I1Cent=           0 NGrid=           0
         NMat0=    1 NMatS0=      1 NMatT0=    0 NMatD0=    1 NMtDS0=    0 NMtDT0=    0
 Symmetry not used in FoFCou.
 Leave Link  703 at Thu May 15 14:27:40 2025, MaxMem=   536870912 cpu:               5.9 elap:               0.8
 (Enter /home/szhao/Apps/g16/l716.exe)
 Dipole        = 1.97674777D-06 2.22673186D-01 7.98648232D-01
 -------------------------------------------------------------------
 Center     Atomic                   Forces (Hartrees/Bohr)
 Number     Number              X              Y              Z
 -------------------------------------------------------------------
      1        7          -0.000000000   -0.000000000   -0.000000000
      2        7          -0.000000000   -0.000000000   -0.000000000
      3        1           0.017881046   -0.009882985    0.004695027
      4        1          -0.017882716    0.010887569   -0.001091619
      5        1           0.013052846    0.000450377    0.009385970
      6        1          -0.013057640    0.004479556    0.008265216
 -------------------------------------------------------------------
 Cartesian Forces:  Max     0.017882716 RMS     0.008808232
 Leave Link  716 at Thu May 15 14:27:40 2025, MaxMem=   536870912 cpu:               0.2 elap:               0.0
 (Enter /home/szhao/Apps/g16/l103.exe)

 GradGradGradGradGradGradGradGradGradGradGradGradGradGradGradGradGradGrad
 Berny optimization.
 FormGI is forming the generalized inverse of G from B-inverse, IUseBI=4.
 Internal  Forces:  Max     0.032669972 RMS     0.020162782
 Search for a local minimum.
 Step number   1 out of a maximum of   30
 All quantities printed in internal units (Hartrees-Bohrs-Radians)
 RMS Force = .17054D-01 SwitMx=.10000D-02 MixMth= 1
 Mixed Optimization -- RFO/linear search
 Second derivative matrix not updated -- first step.
 The second derivative matrix:
                          X1        Y1        Z1        X2        Y2
           X1           0.50000
           Y1           0.00000   0.50000
           Z1           0.00000   0.00000   0.50000
           X2           0.00000   0.00000   0.00000   0.50000
           Y2           0.00000   0.00000   0.00000   0.00000   0.50000
           Z2           0.00000   0.00000   0.00000   0.00000   0.00000
           R1           0.00000   0.00000   0.00000   0.00000   0.00000
           R2           0.00000   0.00000   0.00000   0.00000   0.00000
           R3           0.00000   0.00000   0.00000   0.00000   0.00000
           R4           0.00000   0.00000   0.00000   0.00000   0.00000
           A1           0.00000   0.00000   0.00000   0.00000   0.00000
           A2           0.00000   0.00000   0.00000   0.00000   0.00000
           A3           0.00000   0.00000   0.00000   0.00000   0.00000
           A4           0.00000   0.00000   0.00000   0.00000   0.00000
           A5           0.00000   0.00000   0.00000   0.00000   0.00000
           A6           0.00000   0.00000   0.00000   0.00000   0.00000
           D1           0.00000   0.00000   0.00000   0.00000   0.00000
           D2           0.00000   0.00000   0.00000   0.00000   0.00000
           D3           0.00000   0.00000   0.00000   0.00000   0.00000
           D4           0.00000   0.00000   0.00000   0.00000   0.00000
                          Z2        R1        R2        R3        R4
           Z2           0.50000
           R1           0.00000   0.45670
           R2           0.00000   0.00000   0.45152
           R3           0.00000   0.00000   0.00000   0.45670
           R4           0.00000   0.00000   0.00000   0.00000   0.45153
           A1           0.00000   0.00000   0.00000   0.00000   0.00000
           A2           0.00000   0.00000   0.00000   0.00000   0.00000
           A3           0.00000   0.00000   0.00000   0.00000   0.00000
           A4           0.00000   0.00000   0.00000   0.00000   0.00000
           A5           0.00000   0.00000   0.00000   0.00000   0.00000
           A6           0.00000   0.00000   0.00000   0.00000   0.00000
           D1           0.00000   0.00000   0.00000   0.00000   0.00000
           D2           0.00000   0.00000   0.00000   0.00000   0.00000
           D3           0.00000   0.00000   0.00000   0.00000   0.00000
           D4           0.00000   0.00000   0.00000   0.00000   0.00000
                          A1        A2        A3        A4        A5
           A1           0.16000
           A2           0.00000   0.16000
           A3           0.00000   0.00000   0.16000
           A4           0.00000   0.00000   0.00000   0.16000
           A5           0.00000   0.00000   0.00000   0.00000   0.16000
           A6           0.00000   0.00000   0.00000   0.00000   0.00000
           D1           0.00000   0.00000   0.00000   0.00000   0.00000
           D2           0.00000   0.00000   0.00000   0.00000   0.00000
           D3           0.00000   0.00000   0.00000   0.00000   0.00000
           D4           0.00000   0.00000   0.00000   0.00000   0.00000
                          A6        D1        D2        D3        D4
           A6           0.16000
           D1           0.00000   0.00230
           D2           0.00000   0.00000   0.00230
           D3           0.00000   0.00000   0.00000   0.00230
           D4           0.00000   0.00000   0.00000   0.00000   0.00230
 ITU=  0
     Eigenvalues ---    0.00230   0.04857   0.04857   0.16000   0.16000
     Eigenvalues ---    0.16000   0.16000   0.45152   0.45153   0.45670
     Eigenvalues ---    0.456701000.000001000.000001000.000001000.00000
     Eigenvalues --- 1000.000001000.000001000.000001000.000001000.00000
 RFO step:  Lambda=-2.89278522D-02 EMin= 2.30000000D-03
 Linear search not attempted -- first point.
 Maximum step size (   0.300) exceeded in Quadratic search.
    -- Step size scaled by   0.817
 Iteration  1 RMS(Cart)=  0.14716185 RMS(Int)=  0.01823274
 Iteration  2 RMS(Cart)=  0.01617595 RMS(Int)=  0.01109608
 Iteration  3 RMS(Cart)=  0.00036592 RMS(Int)=  0.01109426
 Iteration  4 RMS(Cart)=  0.00001163 RMS(Int)=  0.01109426
 Iteration  5 RMS(Cart)=  0.00000039 RMS(Int)=  0.01109426
 ITry= 1 IFail=0 DXMaxC= 3.25D-01 DCOld= 1.00D+10 DXMaxT= 3.00D-01 DXLimC= 3.00D+00 Rises=F
 Variable       Old X    -DE/DX   Delta X   Delta X   Delta X     New X
                                 (Linear)    (Quad)   (Total)
    X1       -1.86429   0.03093   0.00000   0.00000   0.00000  -1.86429
    Y1        0.00000  -0.02674   0.00000   0.00000   0.00000   0.00000
    Z1        0.00000   0.01890   0.00000   0.00000   0.00000   0.00000
    X2        1.86429  -0.03094   0.00000   0.00000   0.00000   1.86429
    Y2        0.00000   0.03267   0.00000   0.00000   0.00000   0.00000
    Z2        0.00000   0.00235   0.00000   0.00000   0.00000   0.00000
    R1        1.91205   0.00381   0.00000   0.00641   0.00641   1.91846
    R2        1.91799   0.00265   0.00000   0.00450   0.00450   1.92249
    R3        1.91205   0.00381   0.00000   0.00640   0.00640   1.91845
    R4        1.91799   0.00265   0.00000   0.00450   0.00450   1.92249
    A1        1.88826  -0.03123   0.00000  -0.16765  -0.17547   1.71279
    A2        1.96802  -0.02268   0.00000  -0.12815  -0.13394   1.83407
    A3        1.89500   0.01324   0.00000  -0.00303  -0.02760   1.86740
    A4        1.88826  -0.03123   0.00000  -0.16768  -0.17551   1.71275
    A5        1.96801  -0.02269   0.00000  -0.12821  -0.13400   1.83401
    A6        1.89500   0.01324   0.00000  -0.00307  -0.02766   1.86734
    D1        2.59778   0.01889   0.00000   0.20271   0.17965   2.77743
    D2       -1.58932   0.00022   0.00000   0.00576   0.00577  -1.58354
    D3       -1.58932   0.00023   0.00000   0.00587   0.00586  -1.58346
    D4        0.50677  -0.01845   0.00000  -0.19108  -0.16801   0.33876
         Item               Value     Threshold  Converged?
 Maximum Force            0.031234     0.000450     NO 
 RMS     Force            0.017054     0.000300     NO 
 Maximum Displacement     0.325440     0.001800     NO 
 RMS     Displacement     0.151604     0.001200     NO 
 Predicted change in Energy=-1.486062D-02
 Lowest energy point so far.  Saving SCF results.
 GradGradGradGradGradGradGradGradGradGradGradGradGradGradGradGradGradGrad

 Leave Link  103 at Thu May 15 14:27:40 2025, MaxMem=   536870912 cpu:               0.0 elap:               0.0
 (Enter /home/szhao/Apps/g16/l202.exe)
                          Input orientation:                          
 ---------------------------------------------------------------------
 Center     Atomic      Atomic             Coordinates (Angstroms)
 Number     Number       Type             X           Y           Z
 ---------------------------------------------------------------------
      1          7           0       -0.986540    0.000000    0.000000
      2          7           0        0.986540    0.000000    0.000000
      3          1           0       -1.130210   -1.000702    0.092707
      4          1           0        1.130173    0.902061   -0.443047
      5          1           0       -1.251298    0.421842    0.887092
      6          1           0        1.251238    0.103074    0.976876
 ---------------------------------------------------------------------
                    Distance matrix (angstroms):
                    1          2          3          4          5
     1  N    0.000000
     2  N    1.973080   0.000000
     3  H    1.015204   2.343209   0.000000
     4  H    2.343177   1.015202   3.002810   0.000000
     5  H    1.017340   2.443932   1.633812   2.769708   0.000000
     6  H    2.443882   1.017337   2.769724   1.633774   2.524353
                    6
     6  H    0.000000
 Symmetry turned off by external request.
 Stoichiometry    H4N2
 Framework group  C1[X(H4N2)]
 Deg. of freedom    12
 Full point group                 C1      NOp   1
 Rotational constants (GHZ):         133.2026389          14.4501231          14.4344015
 Leave Link  202 at Thu May 15 14:27:40 2025, MaxMem=   536870912 cpu:               0.0 elap:               0.0
 (Enter /home/szhao/Apps/g16/l301.exe)
 Standard basis: 6-311+G(d,p) (5D, 7F)
 Ernie: Thresh=  0.10000D-02 Tol=  0.10000D-05 Strict=F.
    68 basis functions,   104 primitive gaussians,    70 cartesian basis functions
     9 alpha electrons        9 beta electrons
       nuclear repulsion energy        35.3303564066 Hartrees.
 IExCor= 4336 DFT=T Ex+Corr=M062X ExCW=0 ScaHFX=  0.540000
 ScaDFX=  1.000000  1.000000  1.000000  1.000000 ScalE2=  1.000000  1.000000
 IRadAn=      7 IRanWt=     -1 IRanGd=            0 ICorTp=0 IEmpDi=  4
 NAtoms=    6 NActive=    6 NUniq=    6 SFac= 1.00D+00 NAtFMM=   60 NAOKFM=F Big=F
 Integral buffers will be    131072 words long.
 Raffenetti 2 integral format.
 Two-electron integral symmetry is turned off.
 Leave Link  301 at Thu May 15 14:27:40 2025, MaxMem=   536870912 cpu:               0.3 elap:               0.0
 (Enter /home/szhao/Apps/g16/l302.exe)
 NPDir=0 NMtPBC=     1 NCelOv=     1 NCel=       1 NClECP=     1 NCelD=      1
         NCelK=      1 NCelE2=     1 NClLst=     1 CellRange=     0.0.
 One-electron integrals computed using PRISM.
 NBasis=    68 RedAO= T EigKep=  1.12D-03  NBF=    68
 NBsUse=    68 1.00D-06 EigRej= -1.00D+00 NBFU=    68
 Precomputing XC quadrature grid using
 IXCGrd= 4 IRadAn=           7 IRanWt=          -1 IRanGd=           0 AccXCQ= 0.00D+00.
 Generated NRdTot=       0 NPtTot=           0 NUsed=           0 NTot=          32
 NSgBfM=    70    70    70    70    70 MxSgAt=     6 MxSgA2=     6.
 Leave Link  302 at Thu May 15 14:27:40 2025, MaxMem=   536870912 cpu:               0.9 elap:               0.1
 (Enter /home/szhao/Apps/g16/l303.exe)
 DipDrv:  MaxL=1.
 Leave Link  303 at Thu May 15 14:27:41 2025, MaxMem=   536870912 cpu:               0.2 elap:               0.0
 (Enter /home/szhao/Apps/g16/l401.exe)
 Initial guess from the checkpoint file:  "opt.chk"
 B after Tr=    -0.000009    0.007880    0.027964
         Rot=    0.999902    0.001289   -0.003761   -0.013432 Ang=   1.61 deg.
 Guess basis will be translated and rotated to current coordinates.
 JPrj=2 DoOrth=T DoCkMO=T.
 Initial guess <Sx>= 0.0000 <Sy>= 0.0000 <Sz>= 0.0000 <S**2>=-0.0000 S=-0.0000
 Generating alternative initial guess.
 ExpMin= 6.39D-02 ExpMax= 6.29D+03 ExpMxC= 9.49D+02 IAcc=3 IRadAn=         5 AccDes= 0.00D+00
 Harris functional with IExCor= 1009 and IRadAn=       5 diagonalized for initial guess.
 HarFok:  IExCor= 1009 AccDes= 0.00D+00 IRadAn=         5 IDoV= 1 UseB2=F ITyADJ=14
 ICtDFT=  3500011 ScaDFX=  1.000000  1.000000  1.000000  1.000000
 FoFCou: FMM=F IPFlag=           0 FMFlag=      100000 FMFlg1=           0
         NFxFlg=           0 DoJE=T BraDBF=F KetDBF=T FulRan=T
         wScrn=  0.000000 ICntrl=       500 IOpCl=  0 I1Cent=   200000004 NGrid=           0
         NMat0=    1 NMatS0=      1 NMatT0=    0 NMatD0=    1 NMtDS0=    0 NMtDT0=    0
 Symmetry not used in FoFCou.
 Harris En= -111.743328680566    
 Leave Link  401 at Thu May 15 14:27:41 2025, MaxMem=   536870912 cpu:               1.6 elap:               0.2
 (Enter /home/szhao/Apps/g16/l502.exe)
 Keep R1 and R2 ints in memory in canonical form, NReq=12681614.
 FoFCou: FMM=F IPFlag=           0 FMFlag=           0 FMFlg1=           0
         NFxFlg=           0 DoJE=F BraDBF=F KetDBF=F FulRan=T
         wScrn=  0.000000 ICntrl=       600 IOpCl=  0 I1Cent=           0 NGrid=           0
         NMat0=    1 NMatS0=   2346 NMatT0=    0 NMatD0=    1 NMtDS0=    0 NMtDT0=    0
 Symmetry not used in FoFCou.
 Two-electron integral symmetry not used.
 UHF open shell SCF:
 Using DIIS extrapolation, IDIIS=  1040.
 NGot=   536870912 LenX=   531353794 LenY=   531348453
 Requested convergence on RMS density matrix=1.00D-08 within 128 cycles.
 Requested convergence on MAX density matrix=1.00D-06.
 Requested convergence on             energy=1.00D-06.
 No special actions if energy rises.
 Integral accuracy reduced to 1.0D-05 until final iterations.

 Cycle   1  Pass 0  IDiag  1:
 E= -111.773919712394    
 DIIS: error= 1.01D-02 at cycle   1 NSaved=   1.
 NSaved= 1 IEnMin= 1 EnMin= -111.773919712394     IErMin= 1 ErrMin= 1.01D-02
 ErrMax= 1.01D-02  0.00D+00 EMaxC= 1.00D-01 BMatC= 2.66D-02 BMatP= 2.66D-02
 IDIUse=3 WtCom= 8.99D-01 WtEn= 1.01D-01
 Coeff-Com:  0.100D+01
 Coeff-En:   0.100D+01
 Coeff:      0.100D+01
 Recover alternate guess density for next cycle.
 RMSDP=2.65D-03 MaxDP=2.71D-02              OVMax= 0.00D+00

 Cycle   2  Pass 0  IDiag  1:
 E= -111.732785763100     Delta-E=        0.041133949294 Rises=F Damp=F
 Switch densities from cycles 1 and 2 for lowest energy.
 DIIS: error= 3.15D-02 at cycle   2 NSaved=   2.
 NSaved= 2 IEnMin= 1 EnMin= -111.773919712394     IErMin= 1 ErrMin= 1.01D-02
 ErrMax= 3.15D-02  0.00D+00 EMaxC= 1.00D+00 BMatC= 3.07D-01 BMatP= 2.66D-02
 IDIUse=1 WtCom= 1.00D+00 WtEn= 0.00D+00
 Coeff-Com:  0.963D+00 0.371D-01
 Coeff:      0.963D+00 0.371D-01
 Gap=     0.322 Goal=   None    Shift=    0.000
 Gap=     0.322 Goal=   None    Shift=    0.000
 RMSDP=2.54D-03 MaxDP=4.05D-02 DE= 4.11D-02 OVMax= 6.07D-02

 Cycle   3  Pass 0  IDiag  1:
 E= -111.782032220079     Delta-E=       -0.049246456980 Rises=F Damp=F
 DIIS: error= 2.34D-03 at cycle   3 NSaved=   3.
 NSaved= 3 IEnMin= 3 EnMin= -111.782032220079     IErMin= 3 ErrMin= 2.34D-03
 ErrMax= 2.34D-03  0.00D+00 EMaxC= 1.00D+00 BMatC= 1.82D-03 BMatP= 2.66D-02
 IDIUse=1 WtCom= 1.00D+00 WtEn= 0.00D+00
 Coeff-Com: -0.908D-01 0.641D-01 0.103D+01
 Coeff:     -0.908D-01 0.641D-01 0.103D+01
 Gap=     0.312 Goal=   None    Shift=    0.000
 Gap=     0.312 Goal=   None    Shift=    0.000
 RMSDP=4.23D-04 MaxDP=4.87D-03 DE=-4.92D-02 OVMax= 1.28D-02

 Cycle   4  Pass 0  IDiag  1:
 E= -111.782653263460     Delta-E=       -0.000621043381 Rises=F Damp=F
 DIIS: error= 6.71D-04 at cycle   4 NSaved=   4.
 NSaved= 4 IEnMin= 4 EnMin= -111.782653263460     IErMin= 4 ErrMin= 6.71D-04
 ErrMax= 6.71D-04  0.00D+00 EMaxC= 1.00D+00 BMatC= 8.59D-05 BMatP= 1.82D-03
 IDIUse=1 WtCom= 1.00D+00 WtEn= 0.00D+00
 Coeff-Com: -0.236D-01-0.309D-02 0.119D+00 0.908D+00
 Coeff:     -0.236D-01-0.309D-02 0.119D+00 0.908D+00
 Gap=     0.312 Goal=   None    Shift=    0.000
 Gap=     0.312 Goal=   None    Shift=    0.000
 RMSDP=1.08D-04 MaxDP=1.05D-03 DE=-6.21D-04 OVMax= 4.13D-03

 Cycle   5  Pass 0  IDiag  1:
 E= -111.782690487191     Delta-E=       -0.000037223731 Rises=F Damp=F
 DIIS: error= 2.23D-04 at cycle   5 NSaved=   5.
 NSaved= 5 IEnMin= 5 EnMin= -111.782690487191     IErMin= 5 ErrMin= 2.23D-04
 ErrMax= 2.23D-04  0.00D+00 EMaxC= 1.00D+00 BMatC= 6.81D-06 BMatP= 8.59D-05
 IDIUse=1 WtCom= 1.00D+00 WtEn= 0.00D+00
 Coeff-Com:  0.428D-02-0.578D-03-0.682D-01-0.123D+00 0.119D+01
 Coeff:      0.428D-02-0.578D-03-0.682D-01-0.123D+00 0.119D+01
 Gap=     0.312 Goal=   None    Shift=    0.000
 Gap=     0.312 Goal=   None    Shift=    0.000
 RMSDP=5.01D-05 MaxDP=3.89D-04 DE=-3.72D-05 OVMax= 2.60D-03

 Cycle   6  Pass 0  IDiag  1:
 E= -111.782696937363     Delta-E=       -0.000006450172 Rises=F Damp=F
 DIIS: error= 7.17D-05 at cycle   6 NSaved=   6.
 NSaved= 6 IEnMin= 6 EnMin= -111.782696937363     IErMin= 6 ErrMin= 7.17D-05
 ErrMax= 7.17D-05  0.00D+00 EMaxC= 1.00D+00 BMatC= 5.60D-07 BMatP= 6.81D-06
 IDIUse=1 WtCom= 1.00D+00 WtEn= 0.00D+00
 Coeff-Com:  0.275D-02 0.446D-04-0.155D-01-0.949D-01 0.148D+00 0.960D+00
 Coeff:      0.275D-02 0.446D-04-0.155D-01-0.949D-01 0.148D+00 0.960D+00
 Gap=     0.312 Goal=   None    Shift=    0.000
 Gap=     0.312 Goal=   None    Shift=    0.000
 RMSDP=1.45D-05 MaxDP=9.83D-05 DE=-6.45D-06 OVMax= 8.46D-04

 Cycle   7  Pass 0  IDiag  1:
 E= -111.782697532180     Delta-E=       -0.000000594817 Rises=F Damp=F
 DIIS: error= 1.98D-05 at cycle   7 NSaved=   7.
 NSaved= 7 IEnMin= 7 EnMin= -111.782697532180     IErMin= 7 ErrMin= 1.98D-05
 ErrMax= 1.98D-05  0.00D+00 EMaxC= 1.00D+00 BMatC= 6.72D-08 BMatP= 5.60D-07
 IDIUse=1 WtCom= 1.00D+00 WtEn= 0.00D+00
 Coeff-Com: -0.873D-03 0.618D-04 0.971D-02 0.239D-01-0.170D+00-0.105D+00
 Coeff-Com:  0.124D+01
 Coeff:     -0.873D-03 0.618D-04 0.971D-02 0.239D-01-0.170D+00-0.105D+00
 Coeff:      0.124D+01
 Gap=     0.312 Goal=   None    Shift=    0.000
 Gap=     0.312 Goal=   None    Shift=    0.000
 RMSDP=6.99D-06 MaxDP=5.13D-05 DE=-5.95D-07 OVMax= 3.68D-04

 Initial convergence to 1.0D-05 achieved.  Increase integral accuracy.
 Cycle   8  Pass 1  IDiag  1:
 E= -111.782696314996     Delta-E=        0.000001217185 Rises=F Damp=F
 DIIS: error= 7.05D-06 at cycle   1 NSaved=   1.
 NSaved= 1 IEnMin= 1 EnMin= -111.782696314996     IErMin= 1 ErrMin= 7.05D-06
 ErrMax= 7.05D-06  0.00D+00 EMaxC= 1.00D+00 BMatC= 6.62D-09 BMatP= 6.62D-09
 IDIUse=1 WtCom= 1.00D+00 WtEn= 0.00D+00
 Coeff-Com:  0.100D+01
 Coeff:      0.100D+01
 Gap=     0.312 Goal=   None    Shift=    0.000
 Gap=     0.312 Goal=   None    Shift=    0.000
 RMSDP=6.99D-06 MaxDP=5.13D-05 DE= 1.22D-06 OVMax= 4.09D-05

 Cycle   9  Pass 1  IDiag  1:
 E= -111.782696312544     Delta-E=        0.000000002452 Rises=F Damp=F
 DIIS: error= 1.41D-05 at cycle   2 NSaved=   2.
 NSaved= 2 IEnMin= 1 EnMin= -111.782696314996     IErMin= 1 ErrMin= 7.05D-06
 ErrMax= 1.41D-05  0.00D+00 EMaxC= 1.00D+00 BMatC= 1.94D-08 BMatP= 6.62D-09
 IDIUse=1 WtCom= 1.00D+00 WtEn= 0.00D+00
 Coeff-Com:  0.639D+00 0.361D+00
 Coeff:      0.639D+00 0.361D+00
 Gap=     0.312 Goal=   None    Shift=    0.000
 Gap=     0.312 Goal=   None    Shift=    0.000
 RMSDP=5.60D-07 MaxDP=7.65D-06 DE= 2.45D-09 OVMax= 2.64D-05

 Cycle  10  Pass 1  IDiag  1:
 E= -111.782696316868     Delta-E=       -0.000000004324 Rises=F Damp=F
 DIIS: error= 8.68D-07 at cycle   3 NSaved=   3.
 NSaved= 3 IEnMin= 3 EnMin= -111.782696316868     IErMin= 3 ErrMin= 8.68D-07
 ErrMax= 8.68D-07  0.00D+00 EMaxC= 1.00D+00 BMatC= 1.40D-10 BMatP= 6.62D-09
 IDIUse=1 WtCom= 1.00D+00 WtEn= 0.00D+00
 Coeff-Com:  0.115D-02 0.593D-01 0.940D+00
 Coeff:      0.115D-02 0.593D-01 0.940D+00
 Gap=     0.312 Goal=   None    Shift=    0.000
 Gap=     0.312 Goal=   None    Shift=    0.000
 RMSDP=1.64D-07 MaxDP=2.19D-06 DE=-4.32D-09 OVMax= 4.62D-06

 Cycle  11  Pass 1  IDiag  1:
 E= -111.782696316932     Delta-E=       -0.000000000063 Rises=F Damp=F
 DIIS: error= 1.83D-07 at cycle   4 NSaved=   4.
 NSaved= 4 IEnMin= 4 EnMin= -111.782696316932     IErMin= 4 ErrMin= 1.83D-07
 ErrMax= 1.83D-07  0.00D+00 EMaxC= 1.00D+00 BMatC= 7.18D-12 BMatP= 1.40D-10
 IDIUse=1 WtCom= 1.00D+00 WtEn= 0.00D+00
 Coeff-Com: -0.440D-01-0.256D-01 0.923D-02 0.106D+01
 Coeff:     -0.440D-01-0.256D-01 0.923D-02 0.106D+01
 Gap=     0.312 Goal=   None    Shift=    0.000
 Gap=     0.312 Goal=   None    Shift=    0.000
 RMSDP=7.88D-08 MaxDP=9.08D-07 DE=-6.33D-11 OVMax= 2.65D-06

 Cycle  12  Pass 1  IDiag  1:
 E= -111.782696316940     Delta-E=       -0.000000000008 Rises=F Damp=F
 DIIS: error= 8.30D-08 at cycle   5 NSaved=   5.
 NSaved= 5 IEnMin= 5 EnMin= -111.782696316940     IErMin= 5 ErrMin= 8.30D-08
 ErrMax= 8.30D-08  0.00D+00 EMaxC= 1.00D+00 BMatC= 1.14D-12 BMatP= 7.18D-12
 IDIUse=1 WtCom= 1.00D+00 WtEn= 0.00D+00
 Coeff-Com: -0.138D-02-0.752D-02-0.946D-01 0.147D+00 0.956D+00
 Coeff:     -0.138D-02-0.752D-02-0.946D-01 0.147D+00 0.956D+00
 Gap=     0.312 Goal=   None    Shift=    0.000
 Gap=     0.312 Goal=   None    Shift=    0.000
 RMSDP=1.97D-08 MaxDP=2.23D-07 DE=-8.24D-12 OVMax= 9.00D-07

 Cycle  13  Pass 1  IDiag  1:
 E= -111.782696316941     Delta-E=       -0.000000000001 Rises=F Damp=F
 DIIS: error= 3.37D-08 at cycle   6 NSaved=   6.
 NSaved= 6 IEnMin= 6 EnMin= -111.782696316941     IErMin= 6 ErrMin= 3.37D-08
 ErrMax= 3.37D-08  0.00D+00 EMaxC= 1.00D+00 BMatC= 2.28D-13 BMatP= 1.14D-12
 IDIUse=1 WtCom= 1.00D+00 WtEn= 0.00D+00
 Coeff-Com:  0.529D-02-0.405D-03-0.493D-01-0.392D-01 0.333D+00 0.751D+00
 Coeff:      0.529D-02-0.405D-03-0.493D-01-0.392D-01 0.333D+00 0.751D+00
 Gap=     0.312 Goal=   None    Shift=    0.000
 Gap=     0.312 Goal=   None    Shift=    0.000
 RMSDP=7.01D-09 MaxDP=8.52D-08 DE=-9.09D-13 OVMax= 3.20D-07

 SCF Done:  E(UM062X) =  -111.782696317     A.U. after   13 cycles
            NFock= 13  Conv=0.70D-08     -V/T= 2.0060
 <Sx>= 0.0000 <Sy>= 0.0000 <Sz>= 0.0000 <S**2>=-0.0000 S=-0.0000
 <L.S>=  0.00000000000    
 KE= 1.111107435714D+02 PE=-3.319549495960D+02 EE= 7.373115330101D+01
 Annihilation of the first spin contaminant:
 S**2 before annihilation    -0.0000,   after     0.0000
 Leave Link  502 at Thu May 15 14:27:44 2025, MaxMem=   536870912 cpu:              29.2 elap:               3.7
 (Enter /home/szhao/Apps/g16/l701.exe)
 ... and contract with generalized density number  0.
 Compute integral first derivatives.
 Leave Link  701 at Thu May 15 14:27:45 2025, MaxMem=   536870912 cpu:               0.6 elap:               0.1
 (Enter /home/szhao/Apps/g16/l702.exe)
 L702 exits ... SP integral derivatives will be done elsewhere.
 Leave Link  702 at Thu May 15 14:27:45 2025, MaxMem=   536870912 cpu:               0.2 elap:               0.0
 (Enter /home/szhao/Apps/g16/l703.exe)
 Integral derivatives from FoFJK, PRISM(SPDF).
 Compute integral first derivatives, UseDBF=F ICtDFT=           0.
 Calling FoFJK, ICntrl=      2127 FMM=F ISym2X=0 I1Cent= 0 IOpClX= 1 NMat=1 NMatS=1 NMatT=0.
 FoFJK:  IHMeth= 1 ICntrl=    2127 DoSepK=F KAlg= 0 I1Cent=           0 FoldK=F
 IRaf=         0 NMat=       1 IRICut=       1 DoRegI=T DoRafI=F ISym2E= 0 IDoP0=0 IntGTp=1.
 FoFCou: FMM=F IPFlag=           0 FMFlag=      100000 FMFlg1=         800
         NFxFlg=           0 DoJE=F BraDBF=F KetDBF=F FulRan=T
         wScrn=  0.000000 ICntrl=      2127 IOpCl=  1 I1Cent=           0 NGrid=           0
         NMat0=    1 NMatS0=      1 NMatT0=    0 NMatD0=    1 NMtDS0=    0 NMtDT0=    0
 Symmetry not used in FoFCou.
 Leave Link  703 at Thu May 15 14:27:45 2025, MaxMem=   536870912 cpu:               5.8 elap:               0.7
 (Enter /home/szhao/Apps/g16/l716.exe)
 Dipole        =-2.38261513D-05 2.61100240D-01 9.27145483D-01
 -------------------------------------------------------------------
 Center     Atomic                   Forces (Hartrees/Bohr)
 Number     Number              X              Y              Z
 -------------------------------------------------------------------
      1        7          -0.000000000   -0.000000000   -0.000000000
      2        7          -0.000000000   -0.000000000   -0.000000000
      3        1           0.005945861   -0.003872313    0.001446386
      4        1          -0.005944023    0.004061761   -0.000794240
      5        1           0.005875311   -0.000161305    0.005446101
      6        1          -0.005867910    0.002971872    0.004563936
 -------------------------------------------------------------------
 Cartesian Forces:  Max     0.005945861 RMS     0.003599378
 Leave Link  716 at Thu May 15 14:27:45 2025, MaxMem=   536870912 cpu:               0.2 elap:               0.0
 (Enter /home/szhao/Apps/g16/l103.exe)

 GradGradGradGradGradGradGradGradGradGradGradGradGradGradGradGradGradGrad
 Berny optimization.
 Using GEDIIS/GDIIS optimizer.
 FormGI is forming the generalized inverse of G from B-inverse, IUseBI=4.
 Internal  Forces:  Max     0.012874709 RMS     0.008142815
 Search for a local minimum.
 Step number   2 out of a maximum of   30
 All quantities printed in internal units (Hartrees-Bohrs-Radians)
 RMS Force = .71166D-02 SwitMx=.10000D-02 MixMth= 1
 Mixed Optimization -- RFO/linear search
 Update second derivatives using D2CorX and points    1    2
 DE= -1.69D-02 DEPred=-1.49D-02 R= 1.13D+00
 TightC=F SS=  1.41D+00  RLast= 4.00D-01 DXNew= 5.0454D-01 1.1989D+00
 Trust test= 1.13D+00 RLast= 4.00D-01 DXMaxT set to 5.05D-01
 The second derivative matrix:
                          X1        Y1        Z1        X2        Y2
           X1           0.52692
           Y1          -0.02384   0.52110
           Z1           0.01462  -0.01294   0.50793
           X2          -0.02694   0.02386  -0.01463   0.52697
           Y2           0.02797  -0.02476   0.01518  -0.02799   0.52905
           Z2           0.00031  -0.00027   0.00017  -0.00031   0.00032
           R1           0.00099  -0.00087   0.00054  -0.00099   0.00102
           R2          -0.00071   0.00063  -0.00039   0.00071  -0.00074
           R3           0.00097  -0.00086   0.00053  -0.00097   0.00101
           R4          -0.00072   0.00064  -0.00039   0.00072  -0.00075
           A1          -0.02743   0.02429  -0.01489   0.02745  -0.02850
           A2          -0.01382   0.01223  -0.00750   0.01383  -0.01435
           A3           0.01591  -0.01409   0.00864  -0.01593   0.01653
           A4          -0.02744   0.02429  -0.01490   0.02746  -0.02850
           A5          -0.01385   0.01226  -0.00752   0.01386  -0.01439
           A6           0.01591  -0.01408   0.00864  -0.01592   0.01652
           D1           0.02026  -0.01794   0.01100  -0.02027   0.02104
           D2           0.00120  -0.00106   0.00065  -0.00120   0.00124
           D3           0.00123  -0.00109   0.00067  -0.00123   0.00127
           D4          -0.01783   0.01579  -0.00968   0.01785  -0.01853
                          Z2        R1        R2        R3        R4
           Z2           0.50000
           R1           0.00001   0.45620
           R2          -0.00001  -0.00040   0.45129
           R3           0.00001  -0.00050  -0.00040   0.45620
           R4          -0.00001  -0.00040  -0.00024  -0.00040   0.45129
           A1          -0.00031   0.00412   0.00428   0.00413   0.00429
           A2          -0.00016   0.00340   0.00308   0.00341   0.00308
           A3           0.00018   0.00139   0.00014   0.00138   0.00013
           A4          -0.00031   0.00412   0.00429   0.00413   0.00429
           A5          -0.00016   0.00340   0.00308   0.00341   0.00309
           A6           0.00018   0.00139   0.00014   0.00138   0.00014
           D1           0.00023   0.00067  -0.00059   0.00066  -0.00059
           D2           0.00001   0.00004  -0.00003   0.00004  -0.00003
           D3           0.00001   0.00004  -0.00003   0.00004  -0.00003
           D4          -0.00020  -0.00058   0.00052  -0.00057   0.00053
                          A1        A2        A3        A4        A5
           A1           0.13880
           A2          -0.02344   0.13846
           A3          -0.02394  -0.01407   0.16819
           A4          -0.02120  -0.02344  -0.02395   0.13880
           A5          -0.02342  -0.02154  -0.01409  -0.02342   0.13846
           A6          -0.02395  -0.01408   0.00818  -0.02396  -0.01410
           D1          -0.01992  -0.00985   0.01209  -0.01992  -0.00987
           D2          -0.00120  -0.00060   0.00071  -0.00120  -0.00060
           D3          -0.00123  -0.00061   0.00073  -0.00123  -0.00061
           D4           0.01749   0.00864  -0.01065   0.01750   0.00866
                          A6        D1        D2        D3        D4
           A6           0.16818
           D1           0.01208   0.01753
           D2           0.00071   0.00090   0.00235
           D3           0.00073   0.00092   0.00005   0.00236
           D4          -0.01064  -0.01341  -0.00079  -0.00081   0.01410
 ITU=  1  0
 Use linear search instead of GDIIS.
     Eigenvalues ---    0.00230   0.06018   0.07045   0.12301   0.16000
     Eigenvalues ---    0.16000   0.16733   0.45131   0.45152   0.45602
     Eigenvalues ---    0.456701000.000001000.000001000.000001000.00000
     Eigenvalues --- 1000.000001000.000001000.000001000.000001000.00000
 RFO step:  Lambda=-1.81552384D-03 EMin= 2.30174017D-03
 Quartic linear search produced a step of  0.44701.
 Iteration  1 RMS(Cart)=  0.11356594 RMS(Int)=  0.04422104
 Iteration  2 RMS(Cart)=  0.04287081 RMS(Int)=  0.00827220
 Iteration  3 RMS(Cart)=  0.00140358 RMS(Int)=  0.00816445
 Iteration  4 RMS(Cart)=  0.00001306 RMS(Int)=  0.00816445
 Iteration  5 RMS(Cart)=  0.00000031 RMS(Int)=  0.00816445
 ITry= 1 IFail=0 DXMaxC= 3.28D-01 DCOld= 1.00D+10 DXMaxT= 5.05D-01 DXLimC= 3.00D+00 Rises=F
 Variable       Old X    -DE/DX   Delta X   Delta X   Delta X     New X
                                 (Linear)    (Quad)   (Total)
    X1       -1.86429   0.01182   0.00000   0.00000   0.00000  -1.86429
    Y1        0.00000  -0.00981   0.00000   0.00000   0.00000   0.00000
    Z1        0.00000   0.00852   0.00000   0.00000   0.00000   0.00000
    X2        1.86429  -0.01181   0.00000   0.00000   0.00000   1.86429
    Y2        0.00000   0.01282   0.00000   0.00000   0.00000   0.00000
    Z2        0.00000   0.00214   0.00000   0.00000   0.00000   0.00000
    R1        1.91846   0.00311   0.00286   0.00667   0.00953   1.92799
    R2        1.92249   0.00315   0.00201   0.00793   0.00994   1.93244
    R3        1.91845   0.00311   0.00286   0.00669   0.00955   1.92801
    R4        1.92249   0.00316   0.00201   0.00794   0.00996   1.93244
    A1        1.71279  -0.01176  -0.07844  -0.00707  -0.08875   1.62404
    A2        1.83407  -0.01287  -0.05987  -0.04482  -0.10653   1.72754
    A3        1.86740   0.00194  -0.01234   0.00983  -0.02073   1.84667
    A4        1.71275  -0.01175  -0.07845  -0.00700  -0.08869   1.62406
    A5        1.83401  -0.01286  -0.05990  -0.04464  -0.10637   1.72764
    A6        1.86734   0.00194  -0.01236   0.00999  -0.02058   1.84676
    D1        2.77743   0.00451   0.08030  -0.28117  -0.21877   2.55865
    D2       -1.58354  -0.00063   0.00258  -0.28409  -0.28152  -1.86506
    D3       -1.58346  -0.00064   0.00262  -0.28434  -0.28171  -1.86517
    D4        0.33876  -0.00579  -0.07510  -0.28726  -0.34445  -0.00570
         Item               Value     Threshold  Converged?
 Maximum Force            0.012875     0.000450     NO 
 RMS     Force            0.007117     0.000300     NO 
 Maximum Displacement     0.328415     0.001800     NO 
 RMS     Displacement     0.148287     0.001200     NO 
 Predicted change in Energy=-4.418134D-03
 Lowest energy point so far.  Saving SCF results.
 GradGradGradGradGradGradGradGradGradGradGradGradGradGradGradGradGradGrad

 Leave Link  103 at Thu May 15 14:27:45 2025, MaxMem=   536870912 cpu:               0.0 elap:               0.0
 (Enter /home/szhao/Apps/g16/l202.exe)
                          Input orientation:                          
 ---------------------------------------------------------------------
 Center     Atomic      Atomic             Coordinates (Angstroms)
 Number     Number       Type             X           Y           Z
 ---------------------------------------------------------------------
      1          7           0       -0.986540    0.000000    0.000000
      2          7           0        0.986540    0.000000    0.000000
      3          1           0       -1.040840   -1.018661   -0.016914
      4          1           0        1.040860    0.859746   -0.546636
      5          1           0       -1.146174    0.271329    0.972939
      6          1           0        1.146271    0.276864    0.971367
 ---------------------------------------------------------------------
                    Distance matrix (angstroms):
                    1          2          3          4          5
     1  N    0.000000
     2  N    1.973080   0.000000
     3  H    1.020247   2.268970   0.000000
     4  H    2.268992   1.020257   2.853505   0.000000
     5  H    1.022601   2.359809   1.629410   2.727354   0.000000
     6  H    2.359892   1.022606   2.727368   1.629477   2.292452
                    6
     6  H    0.000000
 Symmetry turned off by external request.
 Stoichiometry    H4N2
 Framework group  C1[X(H4N2)]
 Deg. of freedom    12
 Full point group                 C1      NOp   1
 Rotational constants (GHZ):         128.1340299          14.8603170          14.6945427
 Leave Link  202 at Thu May 15 14:27:45 2025, MaxMem=   536870912 cpu:               0.0 elap:               0.0
 (Enter /home/szhao/Apps/g16/l301.exe)
 Standard basis: 6-311+G(d,p) (5D, 7F)
 Ernie: Thresh=  0.10000D-02 Tol=  0.10000D-05 Strict=F.
    68 basis functions,   104 primitive gaussians,    70 cartesian basis functions
     9 alpha electrons        9 beta electrons
       nuclear repulsion energy        35.5062271022 Hartrees.
 IExCor= 4336 DFT=T Ex+Corr=M062X ExCW=0 ScaHFX=  0.540000
 ScaDFX=  1.000000  1.000000  1.000000  1.000000 ScalE2=  1.000000  1.000000
 IRadAn=      7 IRanWt=     -1 IRanGd=            0 ICorTp=0 IEmpDi=  4
 NAtoms=    6 NActive=    6 NUniq=    6 SFac= 1.00D+00 NAtFMM=   60 NAOKFM=F Big=F
 Integral buffers will be    131072 words long.
 Raffenetti 2 integral format.
 Two-electron integral symmetry is turned off.
 Leave Link  301 at Thu May 15 14:27:45 2025, MaxMem=   536870912 cpu:               0.1 elap:               0.0
 (Enter /home/szhao/Apps/g16/l302.exe)
 NPDir=0 NMtPBC=     1 NCelOv=     1 NCel=       1 NClECP=     1 NCelD=      1
         NCelK=      1 NCelE2=     1 NClLst=     1 CellRange=     0.0.
 One-electron integrals computed using PRISM.
 NBasis=    68 RedAO= T EigKep=  9.12D-04  NBF=    68
 NBsUse=    68 1.00D-06 EigRej= -1.00D+00 NBFU=    68
 Precomputing XC quadrature grid using
 IXCGrd= 4 IRadAn=           7 IRanWt=          -1 IRanGd=           0 AccXCQ= 0.00D+00.
 Generated NRdTot=       0 NPtTot=           0 NUsed=           0 NTot=          32
 NSgBfM=    70    70    70    70    70 MxSgAt=     6 MxSgA2=     6.
 Leave Link  302 at Thu May 15 14:27:46 2025, MaxMem=   536870912 cpu:               0.8 elap:               0.1
 (Enter /home/szhao/Apps/g16/l303.exe)
 DipDrv:  MaxL=1.
 Leave Link  303 at Thu May 15 14:27:46 2025, MaxMem=   536870912 cpu:               0.2 elap:               0.0
 (Enter /home/szhao/Apps/g16/l401.exe)
 Initial guess from the checkpoint file:  "opt.chk"
 B after Tr=     0.000021   -0.003940   -0.013934
         Rot=    0.999917    0.000178   -0.003498   -0.012390 Ang=   1.48 deg.
 Guess basis will be translated and rotated to current coordinates.
 JPrj=2 DoOrth=T DoCkMO=T.
 Initial guess <Sx>= 0.0000 <Sy>= 0.0000 <Sz>= 0.0000 <S**2>=-0.0000 S=-0.0000
 Generating alternative initial guess.
 ExpMin= 6.39D-02 ExpMax= 6.29D+03 ExpMxC= 9.49D+02 IAcc=3 IRadAn=         5 AccDes= 0.00D+00
 Harris functional with IExCor= 1009 and IRadAn=       5 diagonalized for initial guess.
 HarFok:  IExCor= 1009 AccDes= 0.00D+00 IRadAn=         5 IDoV= 1 UseB2=F ITyADJ=14
 ICtDFT=  3500011 ScaDFX=  1.000000  1.000000  1.000000  1.000000
 FoFCou: FMM=F IPFlag=           0 FMFlag=      100000 FMFlg1=           0
         NFxFlg=           0 DoJE=T BraDBF=F KetDBF=T FulRan=T
         wScrn=  0.000000 ICntrl=       500 IOpCl=  0 I1Cent=   200000004 NGrid=           0
         NMat0=    1 NMatS0=      1 NMatT0=    0 NMatD0=    1 NMtDS0=    0 NMtDT0=    0
 Symmetry not used in FoFCou.
 Harris En= -111.744968577034    
 Leave Link  401 at Thu May 15 14:27:46 2025, MaxMem=   536870912 cpu:               1.6 elap:               0.2
 (Enter /home/szhao/Apps/g16/l502.exe)
 Keep R1 and R2 ints in memory in canonical form, NReq=12681614.
 FoFCou: FMM=F IPFlag=           0 FMFlag=           0 FMFlg1=           0
         NFxFlg=           0 DoJE=F BraDBF=F KetDBF=F FulRan=T
         wScrn=  0.000000 ICntrl=       600 IOpCl=  0 I1Cent=           0 NGrid=           0
         NMat0=    1 NMatS0=   2346 NMatT0=    0 NMatD0=    1 NMtDS0=    0 NMtDT0=    0
 Symmetry not used in FoFCou.
 Two-electron integral symmetry not used.
 UHF open shell SCF:
 Using DIIS extrapolation, IDIIS=  1040.
 NGot=   536870912 LenX=   531353794 LenY=   531348453
 Requested convergence on RMS density matrix=1.00D-08 within 128 cycles.
 Requested convergence on MAX density matrix=1.00D-06.
 Requested convergence on             energy=1.00D-06.
 No special actions if energy rises.
 Integral accuracy reduced to 1.0D-05 until final iterations.

 Cycle   1  Pass 0  IDiag  1:
 E= -111.775178108303    
 DIIS: error= 1.22D-02 at cycle   1 NSaved=   1.
 NSaved= 1 IEnMin= 1 EnMin= -111.775178108303     IErMin= 1 ErrMin= 1.22D-02
 ErrMax= 1.22D-02  0.00D+00 EMaxC= 1.00D-01 BMatC= 3.09D-02 BMatP= 3.09D-02
 IDIUse=3 WtCom= 8.78D-01 WtEn= 1.22D-01
 Coeff-Com:  0.100D+01
 Coeff-En:   0.100D+01
 Coeff:      0.100D+01
 Recover alternate guess density for next cycle.
 RMSDP=3.53D-03 MaxDP=3.84D-02              OVMax= 0.00D+00

 Cycle   2  Pass 0  IDiag  1:
 E= -111.738913044620     Delta-E=        0.036265063683 Rises=F Damp=F
 Switch densities from cycles 1 and 2 for lowest energy.
 DIIS: error= 3.07D-02 at cycle   2 NSaved=   2.
 NSaved= 2 IEnMin= 1 EnMin= -111.775178108303     IErMin= 1 ErrMin= 1.22D-02
 ErrMax= 3.07D-02  0.00D+00 EMaxC= 1.00D+00 BMatC= 2.96D-01 BMatP= 3.09D-02
 IDIUse=1 WtCom= 1.00D+00 WtEn= 0.00D+00
 Coeff-Com:  0.939D+00 0.608D-01
 Coeff:      0.939D+00 0.608D-01
 Gap=     0.330 Goal=   None    Shift=    0.000
 Gap=     0.330 Goal=   None    Shift=    0.000
 RMSDP=1.58D-03 MaxDP=1.22D-02 DE= 3.63D-02 OVMax= 5.72D-02

 Cycle   3  Pass 0  IDiag  1:
 E= -111.785585182042     Delta-E=       -0.046672137422 Rises=F Damp=F
 DIIS: error= 3.23D-03 at cycle   3 NSaved=   3.
 NSaved= 3 IEnMin= 3 EnMin= -111.785585182042     IErMin= 3 ErrMin= 3.23D-03
 ErrMax= 3.23D-03  0.00D+00 EMaxC= 1.00D+00 BMatC= 2.80D-03 BMatP= 3.09D-02
 IDIUse=1 WtCom= 1.00D+00 WtEn= 0.00D+00
 Coeff-Com: -0.103D+00 0.777D-01 0.103D+01
 Coeff:     -0.103D+00 0.777D-01 0.103D+01
 Gap=     0.318 Goal=   None    Shift=    0.000
 Gap=     0.318 Goal=   None    Shift=    0.000
 RMSDP=5.60D-04 MaxDP=6.30D-03 DE=-4.67D-02 OVMax= 1.13D-02

 Cycle   4  Pass 0  IDiag  1:
 E= -111.786379670946     Delta-E=       -0.000794488903 Rises=F Damp=F
 DIIS: error= 7.83D-04 at cycle   4 NSaved=   4.
 NSaved= 4 IEnMin= 4 EnMin= -111.786379670946     IErMin= 4 ErrMin= 7.83D-04
 ErrMax= 7.83D-04  0.00D+00 EMaxC= 1.00D+00 BMatC= 1.47D-04 BMatP= 2.80D-03
 IDIUse=1 WtCom= 1.00D+00 WtEn= 0.00D+00
 Coeff-Com: -0.314D-01-0.138D-02 0.172D+00 0.861D+00
 Coeff:     -0.314D-01-0.138D-02 0.172D+00 0.861D+00
 Gap=     0.318 Goal=   None    Shift=    0.000
 Gap=     0.318 Goal=   None    Shift=    0.000
 RMSDP=1.07D-04 MaxDP=9.36D-04 DE=-7.94D-04 OVMax= 2.92D-03

 Cycle   5  Pass 0  IDiag  1:
 E= -111.786421277433     Delta-E=       -0.000041606488 Rises=F Damp=F
 DIIS: error= 1.63D-04 at cycle   5 NSaved=   5.
 NSaved= 5 IEnMin= 5 EnMin= -111.786421277433     IErMin= 5 ErrMin= 1.63D-04
 ErrMax= 1.63D-04  0.00D+00 EMaxC= 1.00D+00 BMatC= 6.02D-06 BMatP= 1.47D-04
 IDIUse=1 WtCom= 1.00D+00 WtEn= 0.00D+00
 Coeff-Com: -0.780D-03-0.150D-02-0.259D-01 0.792D-01 0.949D+00
 Coeff:     -0.780D-03-0.150D-02-0.259D-01 0.792D-01 0.949D+00
 Gap=     0.318 Goal=   None    Shift=    0.000
 Gap=     0.318 Goal=   None    Shift=    0.000
 RMSDP=3.09D-05 MaxDP=2.31D-04 DE=-4.16D-05 OVMax= 9.89D-04

 Cycle   6  Pass 0  IDiag  1:
 E= -111.786423958625     Delta-E=       -0.000002681192 Rises=F Damp=F
 DIIS: error= 4.87D-05 at cycle   6 NSaved=   6.
 NSaved= 6 IEnMin= 6 EnMin= -111.786423958625     IErMin= 6 ErrMin= 4.87D-05
 ErrMax= 4.87D-05  0.00D+00 EMaxC= 1.00D+00 BMatC= 2.81D-07 BMatP= 6.02D-06
 IDIUse=1 WtCom= 1.00D+00 WtEn= 0.00D+00
 Coeff-Com:  0.235D-02-0.658D-04-0.161D-01-0.558D-01 0.478D-01 0.102D+01
 Coeff:      0.235D-02-0.658D-04-0.161D-01-0.558D-01 0.478D-01 0.102D+01
 Gap=     0.318 Goal=   None    Shift=    0.000
 Gap=     0.318 Goal=   None    Shift=    0.000
 RMSDP=1.19D-05 MaxDP=7.54D-05 DE=-2.68D-06 OVMax= 5.67D-04

 Cycle   7  Pass 0  IDiag  1:
 E= -111.786424279612     Delta-E=       -0.000000320987 Rises=F Damp=F
 DIIS: error= 1.65D-05 at cycle   7 NSaved=   7.
 NSaved= 7 IEnMin= 7 EnMin= -111.786424279612     IErMin= 7 ErrMin= 1.65D-05
 ErrMax= 1.65D-05  0.00D+00 EMaxC= 1.00D+00 BMatC= 3.80D-08 BMatP= 2.81D-07
 IDIUse=1 WtCom= 1.00D+00 WtEn= 0.00D+00
 Coeff-Com: -0.476D-03 0.114D-03 0.558D-02 0.788D-02-0.994D-01-0.814D-01
 Coeff-Com:  0.117D+01
 Coeff:     -0.476D-03 0.114D-03 0.558D-02 0.788D-02-0.994D-01-0.814D-01
 Coeff:      0.117D+01
 Gap=     0.318 Goal=   None    Shift=    0.000
 Gap=     0.318 Goal=   None    Shift=    0.000
 RMSDP=3.30D-06 MaxDP=2.19D-05 DE=-3.21D-07 OVMax= 2.04D-04

 Initial convergence to 1.0D-05 achieved.  Increase integral accuracy.
 Cycle   8  Pass 1  IDiag  1:
 E= -111.786424260925     Delta-E=        0.000000018688 Rises=F Damp=F
 DIIS: error= 1.06D-05 at cycle   1 NSaved=   1.
 NSaved= 1 IEnMin= 1 EnMin= -111.786424260925     IErMin= 1 ErrMin= 1.06D-05
 ErrMax= 1.06D-05  0.00D+00 EMaxC= 1.00D+00 BMatC= 1.35D-08 BMatP= 1.35D-08
 IDIUse=1 WtCom= 1.00D+00 WtEn= 0.00D+00
 Coeff-Com:  0.100D+01
 Coeff:      0.100D+01
 Gap=     0.318 Goal=   None    Shift=    0.000
 Gap=     0.318 Goal=   None    Shift=    0.000
 RMSDP=3.30D-06 MaxDP=2.19D-05 DE= 1.87D-08 OVMax= 5.84D-05

 Cycle   9  Pass 1  IDiag  1:
 E= -111.786424255205     Delta-E=        0.000000005720 Rises=F Damp=F
 DIIS: error= 2.18D-05 at cycle   2 NSaved=   2.
 NSaved= 2 IEnMin= 1 EnMin= -111.786424260925     IErMin= 1 ErrMin= 1.06D-05
 ErrMax= 2.18D-05  0.00D+00 EMaxC= 1.00D+00 BMatC= 4.48D-08 BMatP= 1.35D-08
 IDIUse=1 WtCom= 1.00D+00 WtEn= 0.00D+00
 Coeff-Com:  0.653D+00 0.347D+00
 Coeff:      0.653D+00 0.347D+00
 Gap=     0.318 Goal=   None    Shift=    0.000
 Gap=     0.318 Goal=   None    Shift=    0.000
 RMSDP=7.96D-07 MaxDP=1.15D-05 DE= 5.72D-09 OVMax= 3.87D-05

 Cycle  10  Pass 1  IDiag  1:
 E= -111.786424265277     Delta-E=       -0.000000010072 Rises=F Damp=F
 DIIS: error= 1.40D-06 at cycle   3 NSaved=   3.
 NSaved= 3 IEnMin= 3 EnMin= -111.786424265277     IErMin= 3 ErrMin= 1.40D-06
 ErrMax= 1.40D-06  0.00D+00 EMaxC= 1.00D+00 BMatC= 2.13D-10 BMatP= 1.35D-08
 IDIUse=1 WtCom= 1.00D+00 WtEn= 0.00D+00
 Coeff-Com: -0.208D+00-0.628D-01 0.127D+01
 Coeff:     -0.208D+00-0.628D-01 0.127D+01
 Gap=     0.318 Goal=   None    Shift=    0.000
 Gap=     0.318 Goal=   None    Shift=    0.000
 RMSDP=2.89D-07 MaxDP=2.18D-06 DE=-1.01D-08 OVMax= 1.71D-05

 Cycle  11  Pass 1  IDiag  1:
 E= -111.786424265525     Delta-E=       -0.000000000247 Rises=F Damp=F
 DIIS: error= 3.28D-07 at cycle   4 NSaved=   4.
 NSaved= 4 IEnMin= 4 EnMin= -111.786424265525     IErMin= 4 ErrMin= 3.28D-07
 ErrMax= 3.28D-07  0.00D+00 EMaxC= 1.00D+00 BMatC= 2.07D-11 BMatP= 2.13D-10
 IDIUse=1 WtCom= 1.00D+00 WtEn= 0.00D+00
 Coeff-Com: -0.817D-01-0.419D-01 0.518D-01 0.107D+01
 Coeff:     -0.817D-01-0.419D-01 0.518D-01 0.107D+01
 Gap=     0.318 Goal=   None    Shift=    0.000
 Gap=     0.318 Goal=   None    Shift=    0.000
 RMSDP=9.00D-08 MaxDP=7.02D-07 DE=-2.47D-10 OVMax= 5.62D-06

 Cycle  12  Pass 1  IDiag  1:
 E= -111.786424265545     Delta-E=       -0.000000000020 Rises=F Damp=F
 DIIS: error= 6.43D-08 at cycle   5 NSaved=   5.
 NSaved= 5 IEnMin= 5 EnMin= -111.786424265545     IErMin= 5 ErrMin= 6.43D-08
 ErrMax= 6.43D-08  0.00D+00 EMaxC= 1.00D+00 BMatC= 6.94D-13 BMatP= 2.07D-11
 IDIUse=1 WtCom= 1.00D+00 WtEn= 0.00D+00
 Coeff-Com:  0.471D-02-0.150D-03-0.605D-01 0.109D+00 0.947D+00
 Coeff:      0.471D-02-0.150D-03-0.605D-01 0.109D+00 0.947D+00
 Gap=     0.318 Goal=   None    Shift=    0.000
 Gap=     0.318 Goal=   None    Shift=    0.000
 RMSDP=1.43D-08 MaxDP=1.14D-07 DE=-2.05D-11 OVMax= 7.39D-07

 Cycle  13  Pass 1  IDiag  1:
 E= -111.786424265546     Delta-E=       -0.000000000001 Rises=F Damp=F
 DIIS: error= 3.05D-08 at cycle   6 NSaved=   6.
 NSaved= 6 IEnMin= 6 EnMin= -111.786424265546     IErMin= 6 ErrMin= 3.05D-08
 ErrMax= 3.05D-08  0.00D+00 EMaxC= 1.00D+00 BMatC= 2.28D-13 BMatP= 6.94D-13
 IDIUse=1 WtCom= 1.00D+00 WtEn= 0.00D+00
 Coeff-Com:  0.456D-02 0.132D-02-0.260D-01-0.920D-02 0.398D+00 0.631D+00
 Coeff:      0.456D-02 0.132D-02-0.260D-01-0.920D-02 0.398D+00 0.631D+00
 Gap=     0.318 Goal=   None    Shift=    0.000
 Gap=     0.318 Goal=   None    Shift=    0.000
 RMSDP=3.86D-09 MaxDP=4.21D-08 DE=-6.25D-13 OVMax= 1.32D-07

 SCF Done:  E(UM062X) =  -111.786424266     A.U. after   13 cycles
            NFock= 13  Conv=0.39D-08     -V/T= 2.0060
 <Sx>= 0.0000 <Sy>= 0.0000 <Sz>= 0.0000 <S**2>=-0.0000 S=-0.0000
 <L.S>=  0.00000000000    
 KE= 1.111204288139D+02 PE=-3.323021215149D+02 EE= 7.388904133325D+01
 Annihilation of the first spin contaminant:
 S**2 before annihilation    -0.0000,   after     0.0000
 Leave Link  502 at Thu May 15 14:27:50 2025, MaxMem=   536870912 cpu:              29.1 elap:               3.7
 (Enter /home/szhao/Apps/g16/l701.exe)
 ... and contract with generalized density number  0.
 Compute integral first derivatives.
 Leave Link  701 at Thu May 15 14:27:50 2025, MaxMem=   536870912 cpu:               0.5 elap:               0.1
 (Enter /home/szhao/Apps/g16/l702.exe)
 L702 exits ... SP integral derivatives will be done elsewhere.
 Leave Link  702 at Thu May 15 14:27:50 2025, MaxMem=   536870912 cpu:               0.2 elap:               0.0
 (Enter /home/szhao/Apps/g16/l703.exe)
 Integral derivatives from FoFJK, PRISM(SPDF).
 Compute integral first derivatives, UseDBF=F ICtDFT=           0.
 Calling FoFJK, ICntrl=      2127 FMM=F ISym2X=0 I1Cent= 0 IOpClX= 1 NMat=1 NMatS=1 NMatT=0.
 FoFJK:  IHMeth= 1 ICntrl=    2127 DoSepK=F KAlg= 0 I1Cent=           0 FoldK=F
 IRaf=         0 NMat=       1 IRICut=       1 DoRegI=T DoRafI=F ISym2E= 0 IDoP0=0 IntGTp=1.
 FoFCou: FMM=F IPFlag=           0 FMFlag=      100000 FMFlg1=         800
         NFxFlg=           0 DoJE=F BraDBF=F KetDBF=F FulRan=T
         wScrn=  0.000000 ICntrl=      2127 IOpCl=  1 I1Cent=           0 NGrid=           0
[...]
           A1           0.00063   0.00380   0.00479   0.00394   0.00504
           A2           0.00049   0.00704   0.00446   0.00704   0.00487
           A3           0.00738   0.00565   0.00130   0.00532   0.00145
           A4           0.00145   0.00435   0.00523   0.00446   0.00551
           A5          -0.00075   0.00606   0.00376   0.00609   0.00411
           A6           0.00806   0.00579   0.00141   0.00542   0.00159
           D1          -0.00113  -0.00148  -0.00556  -0.00178  -0.00574
           D2           0.00034   0.00039  -0.00016   0.00045  -0.00013
           D3           0.00016  -0.00015  -0.00051  -0.00014  -0.00051
           D4           0.00163   0.00172   0.00489   0.00209   0.00510
                          A1        A2        A3        A4        A5
           A1           0.14355
           A2           0.01071   0.14945
           A3          -0.02049  -0.01448   0.14983
           A4          -0.01693   0.01024  -0.02123   0.14253
           A5           0.01068  -0.01005  -0.01375   0.01029   0.15033
           A6          -0.02072  -0.01519  -0.01073  -0.02150  -0.01439
           D1          -0.01579  -0.01616   0.00098  -0.01591  -0.01590
           D2           0.00150  -0.00132  -0.00018   0.00152  -0.00140
           D3           0.00090  -0.00218  -0.00048   0.00091  -0.00219
           D4           0.01819   0.01266  -0.00163   0.01834   0.01231
                          A6        D1        D2        D3        D4
           A6           0.14858
           D1           0.00096   0.01039
           D2          -0.00016  -0.00047   0.00214
           D3          -0.00053  -0.00012  -0.00026   0.00199
           D4          -0.00164  -0.00868   0.00004  -0.00045   0.01058
 ITU=  0  1  1  1  1  1  1  1  0
     Eigenvalues ---    0.00097   0.07377   0.08011   0.11219   0.15983
     Eigenvalues ---    0.15999   0.16518   0.44805   0.45153   0.45469
     Eigenvalues ---    0.456771000.000001000.000001000.000001000.00000
     Eigenvalues --- 1000.000001000.000001000.000001000.000001000.00000
 En-DIIS/RFO-DIIS/Sim-DIIS IScMMF=       -3 using points:     9    8    7    6
 RFO step:  Lambda=-1.11997549D-09.
 NNeg= 0 NGDIIS= 4 SimSw=  2.50D-01 Rises=F DC= -1.67D-07 SmlDif=  1.00D-05
 NRisDI= 0 DoIntr=F SqrtH=F CThrHd= 10.0 CDAdj=  3.0
 RMS Error=  0.1100952019D-03 NUsed= 4 OKEnD=F EnDIS=F
 InvSVX:  RCond= 3.18D-08 Info=           0 Equed=N FErr=  2.68D-13 BErr=  5.03D-17
 DIIS inversion failure, remove point   4.
 InvSVX:  RCond= 4.38D-08 Info=           0 Equed=N FErr=  2.06D-13 BErr=  8.23D-17
 DIIS inversion failure, remove point   3.
 InvSVX:  RCond= 2.07D-04 Info=           0 Equed=N FErr=  9.21D-16 BErr=  3.66D-17
 RFO-DIIS uses    2 points instead of    4
 DidBck=F Rises=F RFO-DIIS coefs:    0.96548    0.03452    0.00000    0.00000
 Iteration  1 RMS(Cart)=  0.00010939 RMS(Int)=  0.00000001
 Iteration  2 RMS(Cart)=  0.00000001 RMS(Int)=  0.00000000
 ITry= 1 IFail=0 DXMaxC= 2.49D-04 DCOld= 1.00D+10 DXMaxT= 2.40D+00 DXLimC= 3.00D+00 Rises=F
 Variable       Old X    -DE/DX   Delta X   Delta X   Delta X     New X
                                 (Linear)    (Quad)   (Total)
    X1       -1.86429  -0.00000  -0.00000   0.00000   0.00000  -1.86429
    Y1        0.00000   0.00001   0.00000   0.00000   0.00000   0.00000
    Z1        0.00000  -0.00000   0.00000   0.00000   0.00000   0.00000
    X2        1.86429   0.00000   0.00000   0.00000   0.00000   1.86429
    Y2        0.00000  -0.00001   0.00000   0.00000   0.00000   0.00000
    Z2        0.00000   0.00000   0.00000   0.00000   0.00000   0.00000
    R1        1.93237  -0.00000  -0.00000  -0.00001  -0.00001   1.93236
    R2        1.93238  -0.00000  -0.00000  -0.00001  -0.00001   1.93237
    R3        1.93238  -0.00000  -0.00000  -0.00001  -0.00001   1.93237
    R4        1.93237  -0.00000  -0.00000  -0.00001  -0.00001   1.93236
    A1        1.63915  -0.00000  -0.00000  -0.00001  -0.00001   1.63913
    A2        1.63917   0.00001  -0.00003   0.00008   0.00005   1.63922
    A3        1.79586   0.00000  -0.00001   0.00005   0.00004   1.79590
    A4        1.63924  -0.00000  -0.00000  -0.00001  -0.00001   1.63923
    A5        1.63908   0.00001  -0.00003   0.00007   0.00004   1.63912
    A6        1.79586   0.00000  -0.00002   0.00005   0.00003   1.79590
    D1        1.34018  -0.00000  -0.00022  -0.00006  -0.00028   1.33990
    D2       -3.14126  -0.00000  -0.00023  -0.00001  -0.00024  -3.14150
    D3       -3.14126  -0.00000  -0.00023  -0.00001  -0.00024  -3.14150
    D4       -1.33951   0.00000  -0.00025   0.00005  -0.00020  -1.33971
         Item               Value     Threshold  Converged?
 Maximum Force            0.000008     0.000450     YES
 RMS     Force            0.000004     0.000300     YES
 Maximum Displacement     0.000249     0.001800     YES
 RMS     Displacement     0.000109     0.001200     YES
 Predicted change in Energy=-9.146163D-10
 Optimization completed.
    -- Stationary point found.
                           ----------------------------
                           !   Optimized Parameters   !
                           ! (Angstroms and Degrees)  !
 --------------------------                            --------------------------
 ! Name  Definition              Value          Derivative Info.                !
 --------------------------------------------------------------------------------
 ! X1    R(1,-1)                -0.9865         -DE/DX =    0.0                 !
 ! Y1    R(1,-2)                 0.0            -DE/DX =    0.0                 !
 ! Z1    R(1,-3)                 0.0            -DE/DX =    0.0                 !
 ! X2    R(2,-1)                 0.9865         -DE/DX =    0.0                 !
 ! Y2    R(2,-2)                 0.0            -DE/DX =    0.0                 !
 ! Z2    R(2,-3)                 0.0            -DE/DX =    0.0                 !
 ! R1    R(1,3)                  1.0226         -DE/DX =    0.0                 !
 ! R2    R(1,5)                  1.0226         -DE/DX =    0.0                 !
 ! R3    R(2,4)                  1.0226         -DE/DX =    0.0                 !
 ! R4    R(2,6)                  1.0226         -DE/DX =    0.0                 !
 ! A1    A(2,1,3)               93.9162         -DE/DX =    0.0                 !
 ! A2    A(2,1,5)               93.9173         -DE/DX =    0.0                 !
 ! A3    A(3,1,5)              102.8953         -DE/DX =    0.0                 !
 ! A4    A(1,2,4)               93.9216         -DE/DX =    0.0                 !
 ! A5    A(1,2,6)               93.9123         -DE/DX =    0.0                 !
 ! A6    A(4,2,6)              102.8955         -DE/DX =    0.0                 !
 ! D1    D(3,1,2,4)             76.7864         -DE/DX =    0.0                 !
 ! D2    D(3,1,2,6)           -179.9809         -DE/DX =    0.0                 !
 ! D3    D(5,1,2,4)           -179.981          -DE/DX =    0.0                 !
 ! D4    D(5,1,2,6)            -76.7483         -DE/DX =    0.0                 !
 --------------------------------------------------------------------------------
 Lowest energy point so far.  Saving SCF results.
 Largest change from initial coordinates is atom    5       0.919 Angstoms.
 GradGradGradGradGradGradGradGradGradGradGradGradGradGradGradGradGradGrad

 Leave Link  103 at Thu May 15 14:28:19 2025, MaxMem=   536870912 cpu:               0.0 elap:               0.0
 (Enter /home/szhao/Apps/g16/l202.exe)
                          Input orientation:                          
 ---------------------------------------------------------------------
 Center     Atomic      Atomic             Coordinates (Angstroms)
 Number     Number       Type             X           Y           Z
 ---------------------------------------------------------------------
      1          7           0       -0.986540    0.000000    0.000000
      2          7           0        0.986540    0.000000    0.000000
      3          1           0       -1.056378   -0.815564   -0.612879
      4          1           0        1.056475    0.410229   -0.934065
      5          1           0       -1.056399   -0.409922    0.934205
      6          1           0        1.056309    0.815365    0.613155
 ---------------------------------------------------------------------
                    Distance matrix (angstroms):
                    1          2          3          4          5
     1  N    0.000000
     2  N    1.973080   0.000000
     3  H    1.022567   2.283480   0.000000
     4  H    2.283566   1.022573   2.463712   0.000000
     5  H    1.022573   2.283501   1.599379   2.937229   0.000000
     6  H    2.283421   1.022569   2.937096   1.599382   2.463318
                    6
     6  H    0.000000
 Symmetry turned off by external request.
 Stoichiometry    H4N2
 Framework group  C1[X(H4N2)]
 Deg. of freedom    12
 Full point group                 C1      NOp   1
 Rotational constants (GHZ):         127.7467638          15.1430355          14.6174567
 Leave Link  202 at Thu May 15 14:28:19 2025, MaxMem=   536870912 cpu:               0.0 elap:               0.0
 (Enter /home/szhao/Apps/g16/l601.exe)
 Copying SCF densities to generalized density rwf, IOpCl= 1 IROHF=0.

 **********************************************************************

            Population analysis using the SCF density.

 **********************************************************************

 Alpha  occ. eigenvalues --  -14.78507 -14.78500  -0.97933  -0.90074  -0.56337
 Alpha  occ. eigenvalues --   -0.51535  -0.41758  -0.41354  -0.33650
 Alpha virt. eigenvalues --   -0.02641   0.04532   0.08118   0.08848   0.12052
 Alpha virt. eigenvalues --    0.13362   0.13533   0.15550   0.16096   0.21541
 Alpha virt. eigenvalues --    0.22768   0.26917   0.28107   0.51587   0.52302
 Alpha virt. eigenvalues --    0.63059   0.63121   0.76677   0.77843   0.81429
 Alpha virt. eigenvalues --    0.83088   0.83282   0.91574   1.00252   1.16888
 Alpha virt. eigenvalues --    1.25538   1.28532   1.29804   1.33538   1.57009
 Alpha virt. eigenvalues --    1.61381   1.67895   1.68231   1.91942   1.93355
 Alpha virt. eigenvalues --    1.93573   2.19248   2.29769   2.35330   2.40245
 Alpha virt. eigenvalues --    2.45446   2.49895   2.59279   2.63089   2.66388
 Alpha virt. eigenvalues --    2.68118   2.79983   2.91668   2.99864   3.10209
 Alpha virt. eigenvalues --    3.13195   3.92526   3.96111   4.31615   4.37121
 Alpha virt. eigenvalues --    4.64784   4.69238  35.52176  35.56972
  Beta  occ. eigenvalues --  -14.78507 -14.78500  -0.97933  -0.90074  -0.56337
  Beta  occ. eigenvalues --   -0.51535  -0.41758  -0.41354  -0.33650
  Beta virt. eigenvalues --   -0.02641   0.04532   0.08118   0.08848   0.12052
  Beta virt. eigenvalues --    0.13362   0.13533   0.15550   0.16096   0.21541
  Beta virt. eigenvalues --    0.22768   0.26917   0.28107   0.51587   0.52302
  Beta virt. eigenvalues --    0.63059   0.63121   0.76677   0.77843   0.81429
  Beta virt. eigenvalues --    0.83088   0.83282   0.91574   1.00252   1.16888
  Beta virt. eigenvalues --    1.25538   1.28532   1.29804   1.33538   1.57009
  Beta virt. eigenvalues --    1.61381   1.67895   1.68231   1.91942   1.93355
  Beta virt. eigenvalues --    1.93573   2.19248   2.29769   2.35330   2.40245
  Beta virt. eigenvalues --    2.45446   2.49895   2.59279   2.63089   2.66388
  Beta virt. eigenvalues --    2.68118   2.79983   2.91668   2.99864   3.10209
  Beta virt. eigenvalues --    3.13195   3.92526   3.96111   4.31615   4.37121
  Beta virt. eigenvalues --    4.64784   4.69238  35.52176  35.56972
          Condensed to atoms (all electrons):
               1          2          3          4          5          6
     1  N    6.668750   0.160861   0.367476  -0.021178   0.367484  -0.021186
     2  N    0.160861   6.668751  -0.021181   0.367476  -0.021183   0.367483
     3  H    0.367476  -0.021181   0.441894  -0.003279  -0.047374   0.001350
     4  H   -0.021178   0.367476  -0.003279   0.441889   0.001350  -0.047374
     5  H    0.367484  -0.021183  -0.047374   0.001350   0.441910  -0.003280
     6  H   -0.021186   0.367483   0.001350  -0.047374  -0.003280   0.441915
          Atomic-Atomic Spin Densities.
               1          2          3          4          5          6
     1  N    0.000000   0.000000  -0.000000  -0.000000  -0.000000   0.000000
     2  N    0.000000   0.000000  -0.000000  -0.000000   0.000000  -0.000000
     3  H   -0.000000  -0.000000  -0.000000  -0.000000   0.000000  -0.000000
     4  H   -0.000000  -0.000000  -0.000000  -0.000000  -0.000000   0.000000
     5  H   -0.000000   0.000000   0.000000  -0.000000   0.000000  -0.000000
     6  H    0.000000  -0.000000  -0.000000   0.000000  -0.000000   0.000000
 Mulliken charges and spin densities:
               1          2
     1  N   -0.522207   0.000000
     2  N   -0.522207   0.000000
     3  H    0.261113  -0.000000
     4  H    0.261116  -0.000000
     5  H    0.261094  -0.000000
     6  H    0.261091  -0.000000
 Sum of Mulliken charges =  -0.00000   0.00000
 Mulliken charges and spin densities with hydrogens summed into heavy atoms:
               1          2
     1  N    0.000000   0.000000
     2  N   -0.000000  -0.000000
 Electronic spatial extent (au):  <R**2>=            109.5338
 Charge=             -0.0000 electrons
 Dipole moment (field-independent basis, Debye):
    X=              0.0000    Y=              0.0001    Z=              0.0006  Tot=              0.0006
 Quadrupole moment (field-independent basis, Debye-Ang):
   XX=            -15.2843   YY=            -13.9780   ZZ=            -11.1808
   XY=              4.8681   XZ=             -1.2759   YZ=              0.7870
 Traceless Quadrupole moment (field-independent basis, Debye-Ang):
   XX=             -1.8033   YY=             -0.4970   ZZ=              2.3002
   XY=              4.8681   XZ=             -1.2759   YZ=              0.7870
 Octapole moment (field-independent basis, Debye-Ang**2):
  XXX=              0.0000  YYY=             -0.0006  ZZZ=              0.0003  XYY=             -0.0003
  XXY=              0.0001  XXZ=              0.0002  XZZ=              0.0003  YZZ=              0.0005
  YYZ=             -0.0006  XYZ=             -0.0006
 Hexadecapole moment (field-independent basis, Debye-Ang**3):
 XXXX=           -105.6407 YYYY=            -21.6268 ZZZZ=            -18.2382 XXXY=              4.0830
 XXXZ=             -1.0708 YYYX=             -0.7915 YYYZ=              1.2636 ZZZX=             -1.1722
 ZZZY=             -0.3101 XXYY=            -20.6111 XXZZ=            -17.3568 YYZZ=             -6.0071
 XXYZ=              0.9152 YYXZ=              1.0565 ZZXY=              1.2324
 N-N= 3.557205222128D+01 E-N=-3.324513187616D+02  KE= 1.111304724448D+02
                          Isotropic Fermi Contact Couplings
        Atom                 a.u.       MegaHertz       Gauss      10(-4) cm-1
     1  N(14)             -0.00000      -0.00000      -0.00000      -0.00000
     2  N(14)              0.00000       0.00000       0.00000       0.00000
     3  H(1)              -0.00000      -0.00000      -0.00000      -0.00000
     4  H(1)              -0.00000      -0.00000      -0.00000      -0.00000
     5  H(1)              -0.00000      -0.00000      -0.00000      -0.00000
     6  H(1)              -0.00000      -0.00000      -0.00000      -0.00000
 --------------------------------------------------------
       Center         ----  Spin Dipole Couplings  ----
                      3XX-RR        3YY-RR        3ZZ-RR
 --------------------------------------------------------
     1   Atom        0.000000      0.000000      0.000000
     2   Atom        0.000000      0.000000      0.000000
     3   Atom        0.000000      0.000000      0.000000
     4   Atom        0.000000      0.000000      0.000000
     5   Atom        0.000000      0.000000      0.000000
     6   Atom        0.000000      0.000000      0.000000
 --------------------------------------------------------
                        XY            XZ            YZ
 --------------------------------------------------------
     1   Atom        0.000000      0.000000      0.000000
     2   Atom        0.000000      0.000000      0.000000
     3   Atom        0.000000      0.000000      0.000000
     4   Atom        0.000000      0.000000      0.000000
     5   Atom        0.000000      0.000000      0.000000
     6   Atom        0.000000      0.000000      0.000000
 --------------------------------------------------------


 ---------------------------------------------------------------------------------
              Anisotropic Spin Dipole Couplings in Principal Axis System
 ---------------------------------------------------------------------------------

       Atom             a.u.   MegaHertz   Gauss  10(-4) cm-1        Axes

              Baa     0.0000     0.000     0.000     0.000  1.0000  0.0000  0.0000
     1 N(14)  Bbb     0.0000     0.000     0.000     0.000 -0.0000  1.0000  0.0000
              Bcc     0.0000     0.000     0.000     0.000  0.0000  0.0000  1.0000
 
              Baa     0.0000     0.000     0.000     0.000  1.0000  0.0000  0.0000
     2 N(14)  Bbb     0.0000     0.000     0.000     0.000 -0.0000  1.0000  0.0000
              Bcc     0.0000     0.000     0.000     0.000  0.0000  0.0000  1.0000
 
              Baa     0.0000     0.000     0.000     0.000  1.0000  0.0000  0.0000
     3 H(1)   Bbb     0.0000     0.000     0.000     0.000 -0.0000  1.0000  0.0000
              Bcc     0.0000     0.000     0.000     0.000  0.0000  0.0000  1.0000
 
              Baa     0.0000     0.000     0.000     0.000  1.0000  0.0000  0.0000
     4 H(1)   Bbb     0.0000     0.000     0.000     0.000 -0.0000  1.0000  0.0000
              Bcc     0.0000     0.000     0.000     0.000  0.0000  0.0000  1.0000
 
              Baa     0.0000     0.000     0.000     0.000  1.0000  0.0000  0.0000
     5 H(1)   Bbb     0.0000     0.000     0.000     0.000 -0.0000  1.0000  0.0000
              Bcc     0.0000     0.000     0.000     0.000  0.0000  0.0000  1.0000
 
              Baa     0.0000     0.000     0.000     0.000  1.0000  0.0000  0.0000
     6 H(1)   Bbb     0.0000     0.000     0.000     0.000 -0.0000  1.0000  0.0000
              Bcc     0.0000     0.000     0.000     0.000  0.0000  0.0000  1.0000
 

 ---------------------------------------------------------------------------------

 No NMR shielding tensors so no spin-rotation constants.
 Leave Link  601 at Thu May 15 14:28:19 2025, MaxMem=   536870912 cpu:               0.8 elap:               0.1
 (Enter /home/szhao/Apps/g16/l9999.exe)
 1\1\GINC-NODE01\FOpt\UM062X\6-311+G(d,p)\H4N2\SZHAO\15-May-2025\0\\#p 
 opt UM062X/6-311+G** nosymm int=superfine\\Title Card Required\\0,1\N,
 -0.98654,0.,0.\N,0.98654,0.,0.\H,-1.0563779713,-0.8155641132,-0.612878
 7331\H,1.0564753322,0.4102286879,-0.9340645942\H,-1.0563990517,-0.4099
 216563,0.9342050456\H,1.0563089317,0.8153649243,0.6131547413\\Version=
 ES64L-G16RevA.03\HF=-111.7887281\S2=0.\S2-1=0.\S2A=0.\RMSD=2.783e-09\R
 MSF=2.545e-06\Dipole=0.0000028,0.0000579,0.0002247\Quadrupole=-1.34068
 41,-0.3694855,1.7101696,3.619309,-0.9485918,0.5851183\PG=C01 [X(H4N2)]
 \\@


 THE SCIENTIFIC THEORIST IS NOT TO BE ENVIED. FOR NATURE, OR MORE
 PRECISELY EXPERIMENT, IS AN INEXORABLE AND NOT VERY FRIENDLY JUDGE OF HIS
 WORK.  IT NEVER SAYS "YES" TO A THEORY. IN THE MOST FAVORABLE CASES
 IT SAYS "MAYBE", AND IN THE GREAT MAJORITY OF CASES SIMPLY "NO"...
 PROBABLY EVERY THEORY WILL SOME DAY EXPERIENCE ITS "NO" - MOST
 THEORIES, SOON AFTER CONCEPTION.  -- A.EINSTEIN, NOV 11, 1922.
 Job cpu time:       0 days  0 hours  5 minutes 40.0 seconds.
 Elapsed time:       0 days  0 hours  0 minutes 43.7 seconds.
 File lengths (MBytes):  RWF=     10 Int=      0 D2E=      0 Chk=      2 Scr=      1
 Normal termination of Gaussian 16 at Thu May 15 14:28:19 2025.
