 Entering Gaussian System, Link 0=g16
 Initial command:
 /home/szhao/Apps/g16/l1.exe "/home/szhao/tmp/Gau-166785.inp" -scrdir="/home/szhao/tmp/"
 Default is to use a total of  16 processors:
                               16 via shared-memory
                                1 via Linda
 Entering Link 1 = /home/szhao/Apps/g16/l1.exe PID=    166786.
  
 Copyright (c) 1988,1990,1992,1993,1995,1998,2003,2009,2016,
            Gaussian, Inc.  All Rights Reserved.
  
 This is part of the Gaussian(R) 16 program.  It is based on
 the Gaussian(R) 09 system (copyright 2009, Gaussian, Inc.),
 the Gaussian(R) 03 system (copyright 2003, Gaussian, Inc.),
 the Gaussian(R) 98 system (copyright 1998, Gaussian, Inc.),
 the Gaussian(R) 94 system (copyright 1995, Gaussian, Inc.),
 the Gaussian 92(TM) system (copyright 1992, Gaussian, Inc.),
 the Gaussian 90(TM) system (copyright 1990, Gaussian, Inc.),
 the Gaussian 88(TM) system (copyright 1988, Gaussian, Inc.),
 the Gaussian 86(TM) system (copyright 1986, Carnegie Mellon
 University), and the Gaussian 82(TM) system (copyright 1983,
 Carnegie Mellon University). Gaussian is a federally registered
 trademark of Gaussian, Inc.
  
 This software contains proprietary and confidential information,
 including trade secrets, belonging to Gaussian, Inc.
  
 This software is provided under written license and may be
 used, copied, transmitted, or stored only in accord with that
 written license.
  
 The following legend is applicable only to US Government
 contracts under FAR:
  
                    RESTRICTED RIGHTS LEGEND
  
 Use, reproduction and disclosure by the US Government is
 subject to restrictions as set forth in subparagraphs (a)
 and (c) of the Commercial Computer Software - Restricted
 Rights clause in FAR 52.227-19.
  
 Gaussian, Inc.
 340 Quinnipiac St., Bldg. 40, Wallingford CT 06492
  
  
 ---------------------------------------------------------------
 Warning -- This program may not be used in any manner that
 competes with the business of Gaussian, Inc. or will provide
 assistance to any competitor of Gaussian, Inc.  The licensee
 of this program is prohibited from giving any competitor of
 Gaussian, Inc. access to this program.  By using this program,
 the user acknowledges that Gaussian, Inc. is engaged in the
 business of creating and licensing software in the field of
 computational chemistry and represents and warrants to the
 licensee that it is not a competitor of Gaussian, Inc. and that
 it will not use this program in any manner prohibited above.
 ---------------------------------------------------------------
  

 Cite this work as:
 Gaussian 16, Revision A.03,
 M. J. Frisch, G. W. Trucks, H. B. Schlegel, G. E. Scuseria, 
 M. A. Robb, J. R. Cheeseman, G. Scalmani, V. Barone, 
 G. A. Petersson, H. Nakatsuji, X. Li, M. Caricato, A. V. Marenich, 
 J. Bloino, B. G. Janesko, R. Gomperts, B. Mennucci, H. P. Hratchian, 
 J. V. Ortiz, A. F. Izmaylov, J. L. Sonnenberg, D. Williams-Young, 
 F. Ding, F. Lipparini, F. Egidi, J. Goings, B. Peng, A. Petrone, 
 T. Henderson, D. Ranasinghe, V. G. Zakrzewski, J. Gao, N. Rega, 
 G. Zheng, W. Liang, M. Hada, M. Ehara, K. Toyota, R. Fukuda, 
 J. Hasegawa, M. Ishida, T. Nakajima, Y. Honda, O. Kitao, H. Nakai, 
 T. Vreven, K. Throssell, J. A. Montgomery, Jr., J. E. Peralta, 
 F. Ogliaro, M. J. Bearpark, J. J. Heyd, E. N. Brothers, K. N. Kudin, 
 V. N. Staroverov, T. A. Keith, R. Kobayashi, J. Normand, 
 K. Raghavachari, A. P. Rendell, J. C. Burant, S. S. Iyengar, 
 J. Tomasi, M. Cossi, J. M. Millam, M. Klene, C. Adamo, R. Cammi, 
 J. W. Ochterski, R. L. Martin, K. Morokuma, O. Farkas, 
 J. B. Foresman, and D. J. Fox, Gaussian, Inc., Wallingford CT, 2016.
 
 ******************************************
 Gaussian 16:  ES64L-G16RevA.03 25-Dec-2016
                21-Apr-2025 
 ******************************************
 %chk=opt.chk
 %mem=4GB
 %nprocshared=8
 Will use up to    8 processors via shared memory.
 --------------------------------------------
 #p opt UM062X/6-311+G** nosymm int=superfine
 --------------------------------------------
 1/18=20,19=15,26=5,38=1/1,3;
 2/9=110,12=2,15=1,17=6,18=5,40=1/2;
 3/5=4,6=6,7=111,11=2,25=1,30=1,71=1,74=-55,75=-7,116=2/1,2,3;
 4//1;
 5/5=2,38=5/2;
 6/7=2,8=2,9=2,10=2,28=1/1;
 7/30=1/1,2,3,16;
 1/18=20,19=15,26=5/3(2);
 2/9=110,15=1/2;
 99//99;
 2/9=110,15=1/2;
 3/5=4,6=6,7=111,11=2,25=1,30=1,71=1,74=-55,75=-7,116=2/1,2,3;
 4/5=5,16=3,69=1/1;
 5/5=2,38=5/2;
 7/30=1/1,2,3,16;
 1/18=20,19=15,26=5/3(-5);
 2/9=110,15=1/2;
 6/7=2,8=2,9=2,10=2,19=2,28=1/1;
 99/9=1/99;
 Leave Link    1 at Mon Apr 21 17:34:25 2025, MaxMem=   536870912 cpu:               1.3 elap:               0.2
 (Enter /home/szhao/Apps/g16/l101.exe)
 -------------------
 Title Card Required
 -------------------
 Symbolic Z-matrix:
 Charge =  0 Multiplicity = 1
 B                    -1   -0.90243   0.        0. 
 N                    -1    0.90243   0.        0. 
 H                    0     1.266    -0.94931   0. 
 H                    0    -1.21102  -0.58328   1.01025 
 H                    0     1.26601   0.47465  -0.82212 
 H                    0     1.266     0.47465   0.82213 
 H                    0    -1.21102   1.16654   0.00002 
 H                    0    -1.21104  -0.58326  -1.01026 
 
 Add virtual bond connecting atoms N2         and B1         Dist= 3.41D+00.
 ITRead=  2  2  0  0  0  0  0  0
 MicOpt= -2 -2 -1 -1 -1 -1 -1 -1
 NAtoms=      8 NQM=        6 NQMF=       2 NMMI=      0 NMMIF=      0
                NMic=       0 NMicF=      0.
                    Isotopes and Nuclear Properties:
 (Nuclear quadrupole moments (NQMom) in fm**2, nuclear magnetic moments (NMagM)
  in nuclear magnetons)

  Atom         1           2           3           4           5           6           7           8
 IAtWgt=          11          14           1           1           1           1           1           1
 AtmWgt=  11.0093053  14.0030740   1.0078250   1.0078250   1.0078250   1.0078250   1.0078250   1.0078250
 NucSpn=           3           2           1           1           1           1           1           1
 AtZEff=  -0.0000000  -0.0000000  -0.0000000  -0.0000000  -0.0000000  -0.0000000  -0.0000000  -0.0000000
 NQMom=    4.0590000   2.0440000   0.0000000   0.0000000   0.0000000   0.0000000   0.0000000   0.0000000
 NMagM=    2.6886370   0.4037610   2.7928460   2.7928460   2.7928460   2.7928460   2.7928460   2.7928460
 AtZNuc=   5.0000000   7.0000000   1.0000000   1.0000000   1.0000000   1.0000000   1.0000000   1.0000000
 Leave Link  101 at Mon Apr 21 17:34:25 2025, MaxMem=   536870912 cpu:               3.1 elap:               0.4
 (Enter /home/szhao/Apps/g16/l103.exe)

 GradGradGradGradGradGradGradGradGradGradGradGradGradGradGradGradGradGrad
 Berny optimization.
 Initialization pass.
                           ----------------------------
                           !    Initial Parameters    !
                           ! (Angstroms and Degrees)  !
 --------------------------                            --------------------------
 ! Name  Definition              Value          Derivative Info.                !
 --------------------------------------------------------------------------------
 ! X1    R(1,-1)                -0.9024         Frozen                          !
 ! Y1    R(1,-2)                 0.0            Frozen                          !
 ! Z1    R(1,-3)                 0.0            Frozen                          !
 ! X2    R(2,-1)                 0.9024         Frozen                          !
 ! Y2    R(2,-2)                 0.0            Frozen                          !
 ! Z2    R(2,-3)                 0.0            Frozen                          !
 ! R1    R(1,4)                  1.2067         estimate D2E/DX2                !
 ! R2    R(1,7)                  1.2067         estimate D2E/DX2                !
 ! R3    R(1,8)                  1.2067         estimate D2E/DX2                !
 ! R4    R(2,3)                  1.0166         estimate D2E/DX2                !
 ! R5    R(2,5)                  1.0166         estimate D2E/DX2                !
 ! R6    R(2,6)                  1.0166         estimate D2E/DX2                !
 ! A1    A(2,1,4)              104.8171         estimate D2E/DX2                !
 ! A2    A(2,1,7)              104.8171         estimate D2E/DX2                !
 ! A3    A(2,1,8)              104.8181         estimate D2E/DX2                !
 ! A4    A(4,1,7)              113.6963         estimate D2E/DX2                !
 ! A5    A(4,1,8)              113.6969         estimate D2E/DX2                !
 ! A6    A(7,1,8)              113.697          estimate D2E/DX2                !
 ! A7    A(1,2,3)              110.9562         estimate D2E/DX2                !
 ! A8    A(1,2,5)              110.9567         estimate D2E/DX2                !
 ! A9    A(1,2,6)              110.9558         estimate D2E/DX2                !
 ! A10   A(3,2,5)              107.946          estimate D2E/DX2                !
 ! A11   A(3,2,6)              107.9463         estimate D2E/DX2                !
 ! A12   A(5,2,6)              107.9465         estimate D2E/DX2                !
 ! D1    D(4,1,2,3)             59.9997         estimate D2E/DX2                !
 ! D2    D(4,1,2,5)            179.9997         estimate D2E/DX2                !
 ! D3    D(4,1,2,6)            -60.0            estimate D2E/DX2                !
 ! D4    D(7,1,2,3)            179.999          estimate D2E/DX2                !
 ! D5    D(7,1,2,5)            -60.001          estimate D2E/DX2                !
 ! D6    D(7,1,2,6)             59.9992         estimate D2E/DX2                !
 ! D7    D(8,1,2,3)            -60.0006         estimate D2E/DX2                !
 ! D8    D(8,1,2,5)             59.9994         estimate D2E/DX2                !
 ! D9    D(8,1,2,6)            179.9996         estimate D2E/DX2                !
 --------------------------------------------------------------------------------
 Trust Radius=3.00D-01 FncErr=1.00D-07 GrdErr=1.00D-07 EigMax=2.50D+02 EigMin=1.00D-04
 Number of steps in this run=     43 maximum allowed number of steps=    100.
 GradGradGradGradGradGradGradGradGradGradGradGradGradGradGradGradGradGrad

 Leave Link  103 at Mon Apr 21 17:34:25 2025, MaxMem=   536870912 cpu:               0.3 elap:               0.1
 (Enter /home/szhao/Apps/g16/l202.exe)
                          Input orientation:                          
 ---------------------------------------------------------------------
 Center     Atomic      Atomic             Coordinates (Angstroms)
 Number     Number       Type             X           Y           Z
 ---------------------------------------------------------------------
      1          5           0       -0.902429    0.000000    0.000000
      2          7           0        0.902429    0.000000    0.000000
      3          1           0        1.266003   -0.949310    0.000000
      4          1           0       -1.211016   -0.583277    1.010254
      5          1           0        1.266010    0.474654   -0.822125
      6          1           0        1.265996    0.474653    0.822130
      7          1           0       -1.211016    1.166545    0.000020
      8          1           0       -1.211035   -0.583258   -1.010257
 ---------------------------------------------------------------------
                    Distance matrix (angstroms):
                    1          2          3          4          5
     1  B    0.000000
     2  N    1.804858   0.000000
     3  H    2.367126   1.016551   0.000000
     4  H    1.206670   2.414017   2.700041   0.000000
     5  H    2.367132   1.016551   1.644251   3.257682   0.000000
     6  H    2.367120   1.016550   1.644253   2.700036   1.644255
     7  H    1.206670   2.414017   3.257678   2.020507   2.700055
     8  H    1.206668   2.414030   2.700062   2.020511   2.700060
                    6          7          8
     6  H    0.000000
     7  H    2.700031   0.000000
     8  H    3.257683   2.020512   0.000000
 Symmetry turned off by external request.
 This structure is nearly, but not quite of a higher symmetry.
 Consider Symm=Loose if the higher symmetry is desired.
 Stoichiometry    BH6N
 Framework group  C1[X(BH6N)]
 Deg. of freedom    18
 Full point group                 C1      NOp   1
 Rotational constants (GHZ):          73.8952231          15.4058531          15.4058437
 Leave Link  202 at Mon Apr 21 17:34:26 2025, MaxMem=   536870912 cpu:               0.4 elap:               0.1
 (Enter /home/szhao/Apps/g16/l301.exe)
 Standard basis: 6-311+G(d,p) (5D, 7F)
 Ernie: Thresh=  0.10000D-02 Tol=  0.10000D-05 Strict=F.
    80 basis functions,   120 primitive gaussians,    82 cartesian basis functions
     9 alpha electrons        9 beta electrons
       nuclear repulsion energy        39.1429659154 Hartrees.
 IExCor= 4336 DFT=T Ex+Corr=M062X ExCW=0 ScaHFX=  0.540000
 ScaDFX=  1.000000  1.000000  1.000000  1.000000 ScalE2=  1.000000  1.000000
 IRadAn=      7 IRanWt=     -1 IRanGd=            0 ICorTp=0 IEmpDi=  4
 NAtoms=    8 NActive=    8 NUniq=    8 SFac= 1.00D+00 NAtFMM=   60 NAOKFM=F Big=F
 Integral buffers will be    131072 words long.
 Raffenetti 2 integral format.
 Two-electron integral symmetry is turned off.
 Leave Link  301 at Mon Apr 21 17:34:26 2025, MaxMem=   536870912 cpu:               0.6 elap:               0.1
 (Enter /home/szhao/Apps/g16/l302.exe)
 NPDir=0 NMtPBC=     1 NCelOv=     1 NCel=       1 NClECP=     1 NCelD=      1
         NCelK=      1 NCelE2=     1 NClLst=     1 CellRange=     0.0.
 One-electron integrals computed using PRISM.
 NBasis=    80 RedAO= T EigKep=  1.07D-03  NBF=    80
 NBsUse=    80 1.00D-06 EigRej= -1.00D+00 NBFU=    80
 Precomputing XC quadrature grid using
 IXCGrd= 4 IRadAn=           7 IRanWt=          -1 IRanGd=           0 AccXCQ= 0.00D+00.
 Generated NRdTot=       0 NPtTot=           0 NUsed=           0 NTot=          32
 NSgBfM=    82    82    82    82    82 MxSgAt=     8 MxSgA2=     8.
 Leave Link  302 at Mon Apr 21 17:34:26 2025, MaxMem=   536870912 cpu:               2.2 elap:               0.4
 (Enter /home/szhao/Apps/g16/l303.exe)
 DipDrv:  MaxL=1.
 Leave Link  303 at Mon Apr 21 17:34:27 2025, MaxMem=   536870912 cpu:               0.8 elap:               0.2
 (Enter /home/szhao/Apps/g16/l401.exe)
 ExpMin= 3.15D-02 ExpMax= 6.29D+03 ExpMxC= 9.49D+02 IAcc=3 IRadAn=         7 AccDes= 0.00D+00
 Harris functional with IExCor= 1009 and IRadAn=       7 diagonalized for initial guess.
 HarFok:  IExCor= 1009 AccDes= 0.00D+00 IRadAn=         7 IDoV= 1 UseB2=F ITyADJ=14
 ICtDFT=  3500011 ScaDFX=  1.000000  1.000000  1.000000  1.000000
 FoFCou: FMM=F IPFlag=           0 FMFlag=      100000 FMFlg1=           0
         NFxFlg=           0 DoJE=T BraDBF=F KetDBF=T FulRan=T
         wScrn=  0.000000 ICntrl=       500 IOpCl=  0 I1Cent=   200000004 NGrid=           0
         NMat0=    1 NMatS0=      1 NMatT0=    0 NMatD0=    1 NMtDS0=    0 NMtDT0=    0
 Symmetry not used in FoFCou.
 Harris En= -83.2043208822136    
 JPrj=0 DoOrth=F DoCkMO=F.
 Initial guess <Sx>= 0.0000 <Sy>= 0.0000 <Sz>= 0.0000 <S**2>=-0.0000 S=-0.0000
 Leave Link  401 at Mon Apr 21 17:34:27 2025, MaxMem=   536870912 cpu:               5.4 elap:               0.8
 (Enter /home/szhao/Apps/g16/l502.exe)
 Keep R1 and R2 ints in memory in canonical form, NReq=17776582.
 FoFCou: FMM=F IPFlag=           0 FMFlag=           0 FMFlg1=           0
         NFxFlg=           0 DoJE=F BraDBF=F KetDBF=F FulRan=T
         wScrn=  0.000000 ICntrl=       600 IOpCl=  0 I1Cent=           0 NGrid=           0
         NMat0=    1 NMatS0=   3240 NMatT0=    0 NMatD0=    1 NMtDS0=    0 NMtDT0=    0
 Symmetry not used in FoFCou.
 Two-electron integral symmetry not used.
 UHF open shell SCF:
 Using DIIS extrapolation, IDIIS=  1040.
 NGot=   536870912 LenX=   526355138 LenY=   526347973
 Requested convergence on RMS density matrix=1.00D-08 within 128 cycles.
 Requested convergence on MAX density matrix=1.00D-06.
 Requested convergence on             energy=1.00D-06.
 No special actions if energy rises.

 Cycle   1  Pass 1  IDiag  1:
 E= -83.0888284873089    
 DIIS: error= 4.08D-02 at cycle   1 NSaved=   1.
 NSaved= 1 IEnMin= 1 EnMin= -83.0888284873089     IErMin= 1 ErrMin= 4.08D-02
 ErrMax= 4.08D-02  0.00D+00 EMaxC= 1.00D-01 BMatC= 3.72D-01 BMatP= 3.72D-01
 IDIUse=3 WtCom= 5.92D-01 WtEn= 4.08D-01
 Coeff-Com:  0.100D+01
 Coeff-En:   0.100D+01
 Coeff:      0.100D+01
 Gap=     0.344 Goal=   None    Shift=    0.000
 Gap=     0.344 Goal=   None    Shift=    0.000
 GapD=    0.344 DampG=1.000 DampE=0.500 DampFc=0.5000 IDamp=-1.
 Damping current iteration by 5.00D-01
 RMSDP=5.33D-03 MaxDP=1.06D-01              OVMax= 1.49D-01

 Cycle   2  Pass 1  IDiag  1:
 E= -83.1398664914657     Delta-E=       -0.051038004157 Rises=F Damp=T
 DIIS: error= 1.10D-02 at cycle   2 NSaved=   2.
 NSaved= 2 IEnMin= 2 EnMin= -83.1398664914657     IErMin= 2 ErrMin= 1.10D-02
 ErrMax= 1.10D-02  0.00D+00 EMaxC= 1.00D-01 BMatC= 2.93D-02 BMatP= 3.72D-01
 IDIUse=3 WtCom= 8.90D-01 WtEn= 1.10D-01
 Coeff-Com: -0.200D+00 0.120D+01
 Coeff-En:   0.000D+00 0.100D+01
 Coeff:     -0.178D+00 0.118D+01
 Gap=     0.313 Goal=   None    Shift=    0.000
 Gap=     0.313 Goal=   None    Shift=    0.000
 RMSDP=1.19D-03 MaxDP=1.27D-02 DE=-5.10D-02 OVMax= 5.88D-02

 Cycle   3  Pass 1  IDiag  1:
 E= -83.1840669077167     Delta-E=       -0.044200416251 Rises=F Damp=F
 DIIS: error= 4.70D-03 at cycle   3 NSaved=   3.
 NSaved= 3 IEnMin= 3 EnMin= -83.1840669077167     IErMin= 3 ErrMin= 4.70D-03
 ErrMax= 4.70D-03  0.00D+00 EMaxC= 1.00D-01 BMatC= 5.42D-03 BMatP= 2.93D-02
 IDIUse=3 WtCom= 9.53D-01 WtEn= 4.70D-02
 Coeff-Com: -0.112D+00 0.370D+00 0.742D+00
 Coeff-En:   0.000D+00 0.000D+00 0.100D+01
 Coeff:     -0.107D+00 0.353D+00 0.754D+00
 Gap=     0.330 Goal=   None    Shift=    0.000
 Gap=     0.330 Goal=   None    Shift=    0.000
 RMSDP=3.09D-04 MaxDP=8.46D-03 DE=-4.42D-02 OVMax= 1.19D-02

 Cycle   4  Pass 1  IDiag  1:
 E= -83.1850369787860     Delta-E=       -0.000970071069 Rises=F Damp=F
 DIIS: error= 2.42D-03 at cycle   4 NSaved=   4.
 NSaved= 4 IEnMin= 4 EnMin= -83.1850369787860     IErMin= 4 ErrMin= 2.42D-03
 ErrMax= 2.42D-03  0.00D+00 EMaxC= 1.00D-01 BMatC= 7.79D-04 BMatP= 5.42D-03
 IDIUse=3 WtCom= 9.76D-01 WtEn= 2.42D-02
 Coeff-Com: -0.283D-01 0.667D-01 0.316D+00 0.645D+00
 Coeff-En:   0.000D+00 0.000D+00 0.151D-01 0.985D+00
 Coeff:     -0.276D-01 0.651D-01 0.309D+00 0.653D+00
 Gap=     0.326 Goal=   None    Shift=    0.000
 Gap=     0.326 Goal=   None    Shift=    0.000
 RMSDP=1.07D-04 MaxDP=2.71D-03 DE=-9.70D-04 OVMax= 5.22D-03

 Cycle   5  Pass 1  IDiag  1:
 E= -83.1852220338330     Delta-E=       -0.000185055047 Rises=F Damp=F
 DIIS: error= 1.96D-04 at cycle   5 NSaved=   5.
 NSaved= 5 IEnMin= 5 EnMin= -83.1852220338330     IErMin= 5 ErrMin= 1.96D-04
 ErrMax= 1.96D-04  0.00D+00 EMaxC= 1.00D-01 BMatC= 7.34D-06 BMatP= 7.79D-04
 IDIUse=3 WtCom= 9.98D-01 WtEn= 1.96D-03
 Coeff-Com:  0.589D-03-0.525D-02 0.993D-02 0.870D-01 0.908D+00
 Coeff-En:   0.000D+00 0.000D+00 0.000D+00 0.000D+00 0.100D+01
 Coeff:      0.588D-03-0.524D-02 0.991D-02 0.869D-01 0.908D+00
 Gap=     0.326 Goal=   None    Shift=    0.000
 Gap=     0.326 Goal=   None    Shift=    0.000
 RMSDP=2.09D-05 MaxDP=3.19D-04 DE=-1.85D-04 OVMax= 7.04D-04

 Cycle   6  Pass 1  IDiag  1:
 E= -83.1852245605462     Delta-E=       -0.000002526713 Rises=F Damp=F
 DIIS: error= 3.21D-05 at cycle   6 NSaved=   6.
 NSaved= 6 IEnMin= 6 EnMin= -83.1852245605462     IErMin= 6 ErrMin= 3.21D-05
 ErrMax= 3.21D-05  0.00D+00 EMaxC= 1.00D-01 BMatC= 3.00D-07 BMatP= 7.34D-06
 IDIUse=1 WtCom= 1.00D+00 WtEn= 0.00D+00
 Coeff-Com:  0.161D-02-0.373D-02-0.199D-01-0.350D-01-0.191D-02 0.106D+01
 Coeff:      0.161D-02-0.373D-02-0.199D-01-0.350D-01-0.191D-02 0.106D+01
 Gap=     0.326 Goal=   None    Shift=    0.000
 Gap=     0.326 Goal=   None    Shift=    0.000
 RMSDP=5.67D-06 MaxDP=7.63D-05 DE=-2.53D-06 OVMax= 1.94D-04

 Cycle   7  Pass 1  IDiag  1:
 E= -83.1852246917004     Delta-E=       -0.000000131154 Rises=F Damp=F
 DIIS: error= 4.56D-06 at cycle   7 NSaved=   7.
 NSaved= 7 IEnMin= 7 EnMin= -83.1852246917004     IErMin= 7 ErrMin= 4.56D-06
 ErrMax= 4.56D-06  0.00D+00 EMaxC= 1.00D-01 BMatC= 4.11D-09 BMatP= 3.00D-07
 IDIUse=1 WtCom= 1.00D+00 WtEn= 0.00D+00
 Coeff-Com:  0.306D-05 0.242D-04-0.993D-03-0.148D-02-0.108D-01 0.467D-01
 Coeff-Com:  0.967D+00
 Coeff:      0.306D-05 0.242D-04-0.993D-03-0.148D-02-0.108D-01 0.467D-01
 Coeff:      0.967D+00
 Gap=     0.326 Goal=   None    Shift=    0.000
 Gap=     0.326 Goal=   None    Shift=    0.000
 RMSDP=6.17D-07 MaxDP=8.13D-06 DE=-1.31D-07 OVMax= 1.22D-05

 Cycle   8  Pass 1  IDiag  1:
 E= -83.1852246930492     Delta-E=       -0.000000001349 Rises=F Damp=F
 DIIS: error= 5.75D-07 at cycle   8 NSaved=   8.
 NSaved= 8 IEnMin= 8 EnMin= -83.1852246930492     IErMin= 8 ErrMin= 5.75D-07
 ErrMax= 5.75D-07  0.00D+00 EMaxC= 1.00D-01 BMatC= 6.83D-11 BMatP= 4.11D-09
 IDIUse=1 WtCom= 1.00D+00 WtEn= 0.00D+00
 Coeff-Com: -0.288D-04 0.651D-04 0.311D-03 0.527D-03-0.746D-03-0.235D-01
 Coeff-Com:  0.294D-01 0.994D+00
 Coeff:     -0.288D-04 0.651D-04 0.311D-03 0.527D-03-0.746D-03-0.235D-01
 Coeff:      0.294D-01 0.994D+00
 Gap=     0.326 Goal=   None    Shift=    0.000
 Gap=     0.326 Goal=   None    Shift=    0.000
 RMSDP=1.36D-07 MaxDP=1.67D-06 DE=-1.35D-09 OVMax= 4.25D-06

 Cycle   9  Pass 1  IDiag  1:
 E= -83.1852246930858     Delta-E=       -0.000000000037 Rises=F Damp=F
 DIIS: error= 6.09D-08 at cycle   9 NSaved=   9.
 NSaved= 9 IEnMin= 9 EnMin= -83.1852246930858     IErMin= 9 ErrMin= 6.09D-08
 ErrMax= 6.09D-08  0.00D+00 EMaxC= 1.00D-01 BMatC= 1.12D-12 BMatP= 6.83D-11
 IDIUse=1 WtCom= 1.00D+00 WtEn= 0.00D+00
 Coeff-Com:  0.197D-05-0.480D-05-0.747D-06 0.853D-05 0.417D-03 0.701D-04
 Coeff-Com: -0.175D-01-0.613D-01 0.108D+01
 Coeff:      0.197D-05-0.480D-05-0.747D-06 0.853D-05 0.417D-03 0.701D-04
 Coeff:     -0.175D-01-0.613D-01 0.108D+01
 Gap=     0.326 Goal=   None    Shift=    0.000
 Gap=     0.326 Goal=   None    Shift=    0.000
 RMSDP=1.88D-08 MaxDP=2.06D-07 DE=-3.67D-11 OVMax= 3.93D-07

 Cycle  10  Pass 1  IDiag  1:
 E= -83.1852246930862     Delta-E=       -0.000000000000 Rises=F Damp=F
 DIIS: error= 8.90D-09 at cycle  10 NSaved=  10.
 NSaved=10 IEnMin=10 EnMin= -83.1852246930862     IErMin=10 ErrMin= 8.90D-09
 ErrMax= 8.90D-09  0.00D+00 EMaxC= 1.00D-01 BMatC= 1.92D-14 BMatP= 1.12D-12
 IDIUse=1 WtCom= 1.00D+00 WtEn= 0.00D+00
 Coeff-Com:  0.546D-06-0.114D-05-0.359D-05-0.378D-05 0.488D-05 0.227D-03
 Coeff-Com: -0.128D-03-0.106D-01-0.174D-01 0.103D+01
 Coeff:      0.546D-06-0.114D-05-0.359D-05-0.378D-05 0.488D-05 0.227D-03
 Coeff:     -0.128D-03-0.106D-01-0.174D-01 0.103D+01
 Gap=     0.326 Goal=   None    Shift=    0.000
 Gap=     0.326 Goal=   None    Shift=    0.000
 RMSDP=1.24D-09 MaxDP=2.90D-08 DE=-3.41D-13 OVMax= 4.04D-08

 SCF Done:  E(UM062X) =  -83.1852246931     A.U. after   10 cycles
            NFock= 10  Conv=0.12D-08     -V/T= 2.0059
 <Sx>= 0.0000 <Sy>= 0.0000 <Sz>= 0.0000 <S**2>=-0.0000 S=-0.0000
 <L.S>=  0.00000000000    
 KE= 8.269825048486D+01 PE=-2.706878907029D+02 EE= 6.566144960958D+01
 Annihilation of the first spin contaminant:
 S**2 before annihilation    -0.0000,   after    -0.0000
 Leave Link  502 at Mon Apr 21 17:34:38 2025, MaxMem=   536870912 cpu:              81.0 elap:              10.5
 (Enter /home/szhao/Apps/g16/l601.exe)
 Copying SCF densities to generalized density rwf, IOpCl= 1 IROHF=0.

 **********************************************************************

            Population analysis using the SCF density.

 **********************************************************************

 Alpha  occ. eigenvalues --  -14.81654  -6.97746  -1.04303  -0.61369  -0.61368
 Alpha  occ. eigenvalues --   -0.57403  -0.41955  -0.33917  -0.33917
 Alpha virt. eigenvalues --   -0.01288   0.04363   0.04363   0.04896   0.08250
 Alpha virt. eigenvalues --    0.10961   0.10961   0.14715   0.15194   0.15195
 Alpha virt. eigenvalues --    0.18563   0.20880   0.20881   0.25050   0.31218
 Alpha virt. eigenvalues --    0.37617   0.37617   0.44363   0.49388   0.49388
 Alpha virt. eigenvalues --    0.58735   0.60960   0.60960   0.62509   0.71835
 Alpha virt. eigenvalues --    0.72313   0.72313   0.81219   0.89437   0.89437
 Alpha virt. eigenvalues --    1.18077   1.22067   1.22068   1.24137   1.24137
 Alpha virt. eigenvalues --    1.27693   1.47948   1.50330   1.69140   1.69140
 Alpha virt. eigenvalues --    1.72496   1.74598   1.74598   1.85204   1.85204
 Alpha virt. eigenvalues --    1.88239   2.09734   2.09735   2.15812   2.15812
 Alpha virt. eigenvalues --    2.22273   2.23334   2.42697   2.47029   2.47029
 Alpha virt. eigenvalues --    2.61909   2.61910   2.69688   2.69689   2.77505
 Alpha virt. eigenvalues --    2.77505   2.80013   2.86550   3.02813   3.05156
 Alpha virt. eigenvalues --    3.05157   4.25853   4.73815   4.73815  14.69897
 Alpha virt. eigenvalues --   35.63427
  Beta  occ. eigenvalues --  -14.81654  -6.97746  -1.04303  -0.61369  -0.61368
  Beta  occ. eigenvalues --   -0.57403  -0.41955  -0.33917  -0.33917
  Beta virt. eigenvalues --   -0.01288   0.04363   0.04363   0.04896   0.08250
  Beta virt. eigenvalues --    0.10961   0.10961   0.14715   0.15194   0.15195
  Beta virt. eigenvalues --    0.18563   0.20880   0.20881   0.25050   0.31218
  Beta virt. eigenvalues --    0.37617   0.37617   0.44363   0.49388   0.49388
  Beta virt. eigenvalues --    0.58735   0.60960   0.60960   0.62509   0.71835
  Beta virt. eigenvalues --    0.72313   0.72313   0.81219   0.89437   0.89437
  Beta virt. eigenvalues --    1.18077   1.22067   1.22068   1.24137   1.24137
  Beta virt. eigenvalues --    1.27693   1.47948   1.50330   1.69140   1.69140
  Beta virt. eigenvalues --    1.72496   1.74598   1.74598   1.85204   1.85204
  Beta virt. eigenvalues --    1.88239   2.09734   2.09735   2.15812   2.15812
  Beta virt. eigenvalues --    2.22273   2.23334   2.42697   2.47029   2.47029
  Beta virt. eigenvalues --    2.61909   2.61910   2.69688   2.69689   2.77505
  Beta virt. eigenvalues --    2.77505   2.80013   2.86550   3.02813   3.05156
  Beta virt. eigenvalues --    3.05157   4.25853   4.73815   4.73815  14.69897
  Beta virt. eigenvalues --   35.63427
          Condensed to atoms (all electrons):
               1          2          3          4          5          6
     1  B    3.839783   0.028077  -0.010755   0.446703  -0.010754  -0.010756
     2  N    0.028077   6.652690   0.343556  -0.036365   0.343555   0.343558
     3  H   -0.010755   0.343556   0.414922  -0.004161  -0.023948  -0.023948
     4  H    0.446703  -0.036365  -0.004161   0.694417   0.005619  -0.004161
     5  H   -0.010754   0.343555  -0.023948   0.005619   0.414922  -0.023948
     6  H   -0.010756   0.343558  -0.023948  -0.004161  -0.023948   0.414919
     7  H    0.446704  -0.036366   0.005619  -0.029262  -0.004161  -0.004161
     8  H    0.446703  -0.036365  -0.004161  -0.029261  -0.004161   0.005619
               7          8
     1  B    0.446704   0.446703
     2  N   -0.036366  -0.036365
     3  H    0.005619  -0.004161
     4  H   -0.029262  -0.029261
     5  H   -0.004161  -0.004161
     6  H   -0.004161   0.005619
     7  H    0.694416  -0.029261
     8  H   -0.029261   0.694412
          Atomic-Atomic Spin Densities.
               1          2          3          4          5          6
     1  B    0.000000  -0.000000   0.000000  -0.000000  -0.000000  -0.000000
     2  N   -0.000000  -0.000000  -0.000000   0.000000   0.000000  -0.000000
     3  H    0.000000  -0.000000   0.000000   0.000000   0.000000   0.000000
     4  H   -0.000000   0.000000   0.000000  -0.000000   0.000000   0.000000
     5  H   -0.000000   0.000000   0.000000   0.000000   0.000000   0.000000
     6  H   -0.000000  -0.000000   0.000000   0.000000   0.000000  -0.000000
     7  H    0.000000   0.000000  -0.000000  -0.000000   0.000000  -0.000000
     8  H   -0.000000   0.000000  -0.000000   0.000000  -0.000000   0.000000
               7          8
     1  B    0.000000  -0.000000
     2  N    0.000000   0.000000
     3  H   -0.000000  -0.000000
     4  H   -0.000000   0.000000
     5  H    0.000000  -0.000000
     6  H   -0.000000   0.000000
     7  H    0.000000  -0.000000
     8  H   -0.000000  -0.000000
 Mulliken charges and spin densities:
               1          2
     1  B   -0.175705  -0.000000
     2  N   -0.602340  -0.000000
     3  H    0.302875   0.000000
     4  H   -0.043528  -0.000000
     5  H    0.302875   0.000000
     6  H    0.302877  -0.000000
     7  H   -0.043527   0.000000
     8  H   -0.043526  -0.000000
 Sum of Mulliken charges =  -0.00000  -0.00000
 Mulliken charges and spin densities with hydrogens summed into heavy atoms:
               1          2
     1  B   -0.306287  -0.000000
     2  N    0.306287  -0.000000
 Electronic spatial extent (au):  <R**2>=            127.4593
 Charge=             -0.0000 electrons
 Dipole moment (field-independent basis, Debye):
    X=              5.2175    Y=             -0.0000    Z=             -0.0000  Tot=              5.2175
 Quadrupole moment (field-independent basis, Debye-Ang):
   XX=            -15.2733   YY=            -16.2009   ZZ=            -16.2008
   XY=              0.0000   XZ=              0.0000   YZ=              0.0000
 Traceless Quadrupole moment (field-independent basis, Debye-Ang):
   XX=              0.6184   YY=             -0.3092   ZZ=             -0.3092
   XY=              0.0000   XZ=              0.0000   YZ=              0.0000
 Octapole moment (field-independent basis, Debye-Ang**2):
  XXX=             13.8738  YYY=             -1.5687  ZZZ=             -0.0001  XYY=              7.0702
  XXY=             -0.0000  XXZ=             -0.0001  XZZ=              7.0703  YZZ=              1.5686
  YYZ=             -0.0001  XYZ=             -0.0000
 Hexadecapole moment (field-independent basis, Debye-Ang**3):
 XXXX=           -119.3044 YYYY=            -38.2644 ZZZZ=            -38.2644 XXXY=              0.0000
 XXXZ=             -0.0001 YYYX=             -1.3025 YYYZ=              0.0000 ZZZX=              0.0001
 ZZZY=              0.0000 XXYY=            -25.4934 XXZZ=            -25.4934 YYZZ=            -12.7548
 XXYZ=             -0.0000 YYXZ=              0.0000 ZZXY=              1.3025
 N-N= 3.914296591537D+01 E-N=-2.706878910659D+02  KE= 8.269825048486D+01
                          Isotropic Fermi Contact Couplings
        Atom                 a.u.       MegaHertz       Gauss      10(-4) cm-1
     1  B(11)              0.00000       0.00000       0.00000       0.00000
     2  N(14)             -0.00000      -0.00000      -0.00000      -0.00000
     3  H(1)              -0.00000      -0.00000      -0.00000      -0.00000
     4  H(1)              -0.00000      -0.00000      -0.00000      -0.00000
     5  H(1)               0.00000       0.00000       0.00000       0.00000
     6  H(1)              -0.00000      -0.00000      -0.00000      -0.00000
     7  H(1)               0.00000       0.00000       0.00000       0.00000
     8  H(1)               0.00000       0.00000       0.00000       0.00000
 --------------------------------------------------------
       Center         ----  Spin Dipole Couplings  ----
                      3XX-RR        3YY-RR        3ZZ-RR
 --------------------------------------------------------
     1   Atom        0.000000      0.000000      0.000000
     2   Atom        0.000000      0.000000      0.000000
     3   Atom        0.000000      0.000000      0.000000
     4   Atom        0.000000      0.000000      0.000000
     5   Atom        0.000000      0.000000      0.000000
     6   Atom        0.000000      0.000000      0.000000
     7   Atom        0.000000      0.000000      0.000000
     8   Atom        0.000000      0.000000      0.000000
 --------------------------------------------------------
                        XY            XZ            YZ
 --------------------------------------------------------
     1   Atom        0.000000      0.000000      0.000000
     2   Atom        0.000000      0.000000      0.000000
     3   Atom        0.000000      0.000000      0.000000
     4   Atom        0.000000      0.000000      0.000000
     5   Atom        0.000000      0.000000      0.000000
     6   Atom        0.000000      0.000000      0.000000
     7   Atom        0.000000      0.000000      0.000000
     8   Atom        0.000000      0.000000      0.000000
 --------------------------------------------------------


 ---------------------------------------------------------------------------------
              Anisotropic Spin Dipole Couplings in Principal Axis System
 ---------------------------------------------------------------------------------

       Atom             a.u.   MegaHertz   Gauss  10(-4) cm-1        Axes

              Baa     0.0000     0.000     0.000     0.000  1.0000  0.0000  0.0000
     1 B(11)  Bbb     0.0000     0.000     0.000     0.000 -0.0000  1.0000  0.0000
              Bcc     0.0000     0.000     0.000     0.000  0.0000  0.0000  1.0000
 
              Baa     0.0000     0.000     0.000     0.000  1.0000  0.0000  0.0000
     2 N(14)  Bbb     0.0000     0.000     0.000     0.000 -0.0000  1.0000  0.0000
              Bcc     0.0000     0.000     0.000     0.000  0.0000  0.0000  1.0000
 
              Baa     0.0000     0.000     0.000     0.000  1.0000  0.0000  0.0000
     3 H(1)   Bbb     0.0000     0.000     0.000     0.000 -0.0000  1.0000  0.0000
              Bcc     0.0000     0.000     0.000     0.000  0.0000  0.0000  1.0000
 
              Baa     0.0000     0.000     0.000     0.000  1.0000  0.0000  0.0000
     4 H(1)   Bbb     0.0000     0.000     0.000     0.000 -0.0000  1.0000  0.0000
              Bcc     0.0000     0.000     0.000     0.000  0.0000  0.0000  1.0000
 
              Baa     0.0000     0.000     0.000     0.000  1.0000  0.0000  0.0000
     5 H(1)   Bbb     0.0000     0.000     0.000     0.000 -0.0000  1.0000  0.0000
              Bcc     0.0000     0.000     0.000     0.000  0.0000  0.0000  1.0000
 
              Baa     0.0000     0.000     0.000     0.000  1.0000  0.0000  0.0000
     6 H(1)   Bbb     0.0000     0.000     0.000     0.000 -0.0000  1.0000  0.0000
              Bcc     0.0000     0.000     0.000     0.000  0.0000  0.0000  1.0000
 
              Baa     0.0000     0.000     0.000     0.000  1.0000  0.0000  0.0000
     7 H(1)   Bbb     0.0000     0.000     0.000     0.000 -0.0000  1.0000  0.0000
              Bcc     0.0000     0.000     0.000     0.000  0.0000  0.0000  1.0000
 
              Baa     0.0000     0.000     0.000     0.000  1.0000  0.0000  0.0000
     8 H(1)   Bbb     0.0000     0.000     0.000     0.000 -0.0000  1.0000  0.0000
              Bcc     0.0000     0.000     0.000     0.000  0.0000  0.0000  1.0000
 

 ---------------------------------------------------------------------------------

 No NMR shielding tensors so no spin-rotation constants.
 Leave Link  601 at Mon Apr 21 17:34:38 2025, MaxMem=   536870912 cpu:               1.3 elap:               0.2
 (Enter /home/szhao/Apps/g16/l701.exe)
 ... and contract with generalized density number  0.
 Compute integral first derivatives.
 Leave Link  701 at Mon Apr 21 17:34:39 2025, MaxMem=   536870912 cpu:               1.4 elap:               0.2
 (Enter /home/szhao/Apps/g16/l702.exe)
 L702 exits ... SP integral derivatives will be done elsewhere.
 Leave Link  702 at Mon Apr 21 17:34:39 2025, MaxMem=   536870912 cpu:               0.4 elap:               0.1
 (Enter /home/szhao/Apps/g16/l703.exe)
 Integral derivatives from FoFJK, PRISM(SPDF).
 Compute integral first derivatives, UseDBF=F ICtDFT=           0.
 Calling FoFJK, ICntrl=      2127 FMM=F ISym2X=0 I1Cent= 0 IOpClX= 1 NMat=1 NMatS=1 NMatT=0.
 FoFJK:  IHMeth= 1 ICntrl=    2127 DoSepK=F KAlg= 0 I1Cent=           0 FoldK=F
 IRaf=         0 NMat=       1 IRICut=       1 DoRegI=T DoRafI=F ISym2E= 0 IDoP0=0 IntGTp=1.
 FoFCou: FMM=F IPFlag=           0 FMFlag=      100000 FMFlg1=         800
         NFxFlg=           0 DoJE=F BraDBF=F KetDBF=F FulRan=T
         wScrn=  0.000000 ICntrl=      2127 IOpCl=  1 I1Cent=           0 NGrid=           0
         NMat0=    1 NMatS0=      1 NMatT0=    0 NMatD0=    1 NMtDS0=    0 NMtDT0=    0
 Symmetry not used in FoFCou.
 Leave Link  703 at Mon Apr 21 17:34:41 2025, MaxMem=   536870912 cpu:              15.9 elap:               2.0
 (Enter /home/szhao/Apps/g16/l716.exe)
 Dipole        = 2.05271052D+00-4.33447106D-06-4.15680457D-06
 -------------------------------------------------------------------
 Center     Atomic                   Forces (Hartrees/Bohr)
 Number     Number              X              Y              Z
 -------------------------------------------------------------------
      1        5          -0.000000000   -0.000000000   -0.000000000
      2        7          -0.000000000   -0.000000000   -0.000000000
      3        1          -0.001773333    0.000304557    0.000000305
      4        1           0.004444679    0.000154926   -0.000269891
      5        1          -0.001774476   -0.000150240    0.000262835
      6        1          -0.001773798   -0.000150295   -0.000262223
      7        1           0.004444373   -0.000311372   -0.000000426
      8        1           0.004445094    0.000154883    0.000269067
 -------------------------------------------------------------------
 Cartesian Forces:  Max     0.004445094 RMS     0.001698924
 Leave Link  716 at Mon Apr 21 17:34:41 2025, MaxMem=   536870912 cpu:               0.6 elap:               0.1
 (Enter /home/szhao/Apps/g16/l103.exe)

 GradGradGradGradGradGradGradGradGradGradGradGradGradGradGradGradGradGrad
 Berny optimization.
 FormGI is forming the generalized inverse of G from B-inverse, IUseBI=4.
 Internal  Forces:  Max     0.013334147 RMS     0.003459511
 Search for a local minimum.
 Step number   1 out of a maximum of   43
 All quantities printed in internal units (Hartrees-Bohrs-Radians)
 RMS Force = .26446D-02 SwitMx=.10000D-02 MixMth= 1
 Mixed Optimization -- RFO/linear search
 Second derivative matrix not updated -- first step.
 ITU=  0
     Eigenvalues ---    0.00230   0.05440   0.05440   0.06564   0.06564
     Eigenvalues ---    0.16000   0.16000   0.16000   0.16000   0.16000
     Eigenvalues ---    0.16000   0.24185   0.24185   0.24185   0.44893
     Eigenvalues ---    0.44893   0.448931000.000001000.000001000.00000
     Eigenvalues --- 1000.000001000.000001000.000001000.000001000.00000
     Eigenvalues --- 1000.000001000.000001000.000001000.000001000.00000
     Eigenvalues --- 1000.000001000.000001000.00000
 RFO step:  Lambda=-1.14877203D-03 EMin= 2.30000000D-03
 Linear search not attempted -- first point.
 Iteration  1 RMS(Cart)=  0.02535775 RMS(Int)=  0.00066979
 Iteration  2 RMS(Cart)=  0.00067111 RMS(Int)=  0.00041862
 Iteration  3 RMS(Cart)=  0.00000113 RMS(Int)=  0.00041862
 Iteration  4 RMS(Cart)=  0.00000000 RMS(Int)=  0.00041862
 ITry= 1 IFail=0 DXMaxC= 8.29D-02 DCOld= 1.00D+10 DXMaxT= 3.00D-01 DXLimC= 3.00D+00 Rises=F
 Variable       Old X    -DE/DX   Delta X   Delta X   Delta X     New X
                                 (Linear)    (Quad)   (Total)
    X1       -1.70534   0.01333   0.00000   0.00000   0.00000  -1.70534
    Y1        0.00000  -0.00000   0.00000   0.00000   0.00000   0.00000
    Z1        0.00000  -0.00000   0.00000   0.00000   0.00000   0.00000
    X2        1.70534  -0.00532   0.00000   0.00000   0.00000   1.70534
    Y2        0.00000   0.00001   0.00000   0.00000   0.00000   0.00000
    Z2        0.00000   0.00000   0.00000   0.00000   0.00000   0.00000
    R1        2.28028  -0.00144   0.00000  -0.00592  -0.00592   2.27436
    R2        2.28028  -0.00144   0.00000  -0.00592  -0.00592   2.27436
    R3        2.28027  -0.00144   0.00000  -0.00591  -0.00591   2.27436
    R4        1.92100  -0.00092   0.00000  -0.00204  -0.00204   1.91896
    R5        1.92100  -0.00092   0.00000  -0.00204  -0.00204   1.91897
    R6        1.92100  -0.00092   0.00000  -0.00204  -0.00204   1.91896
    A1        1.82940  -0.00581   0.00000  -0.03603  -0.03684   1.79257
    A2        1.82940  -0.00581   0.00000  -0.03603  -0.03683   1.79257
    A3        1.82942  -0.00581   0.00000  -0.03604  -0.03685   1.79257
    A4        1.98438   0.00470   0.00000   0.02919   0.02806   2.01244
    A5        1.98439   0.00470   0.00000   0.02918   0.02805   2.01244
    A6        1.98439   0.00470   0.00000   0.02919   0.02806   2.01244
    A7        1.93655  -0.00141   0.00000  -0.00873  -0.00877   1.92778
    A8        1.93656  -0.00141   0.00000  -0.00876  -0.00880   1.92776
    A9        1.93654  -0.00141   0.00000  -0.00876  -0.00879   1.92775
   A10        1.88401   0.00149   0.00000   0.00922   0.00919   1.89320
   A11        1.88402   0.00148   0.00000   0.00922   0.00918   1.89320
   A12        1.88402   0.00148   0.00000   0.00920   0.00917   1.89319
    D1        1.04719  -0.00000   0.00000  -0.00001  -0.00001   1.04719
    D2        3.14159   0.00000   0.00000   0.00001   0.00001  -3.14159
    D3       -1.04720  -0.00000   0.00000  -0.00002  -0.00002  -1.04721
    D4        3.14158   0.00000   0.00000   0.00001   0.00001   3.14158
    D5       -1.04722   0.00000   0.00000   0.00002   0.00002  -1.04720
    D6        1.04718  -0.00000   0.00000  -0.00000  -0.00000   1.04718
    D7       -1.04721   0.00000   0.00000   0.00000   0.00000  -1.04720
    D8        1.04719   0.00000   0.00000   0.00002   0.00002   1.04721
    D9        3.14159  -0.00000   0.00000  -0.00001  -0.00001   3.14158
         Item               Value     Threshold  Converged?
 Maximum Force            0.005808     0.000450     NO 
 RMS     Force            0.002645     0.000300     NO 
 Maximum Displacement     0.082908     0.001800     NO 
 RMS     Displacement     0.025869     0.001200     NO 
 Predicted change in Energy=-5.779605D-04
 Lowest energy point so far.  Saving SCF results.
 GradGradGradGradGradGradGradGradGradGradGradGradGradGradGradGradGradGrad

 Leave Link  103 at Mon Apr 21 17:34:42 2025, MaxMem=   536870912 cpu:               1.3 elap:               0.2
 (Enter /home/szhao/Apps/g16/l202.exe)
                          Input orientation:                          
 ---------------------------------------------------------------------
 Center     Atomic      Atomic             Coordinates (Angstroms)
 Number     Number       Type             X           Y           Z
 ---------------------------------------------------------------------
      1          5           0       -0.902429    0.000000    0.000000
      2          7           0        0.902429    0.000000    0.000000
      3          1           0        1.257286   -0.951450   -0.000000
      4          1           0       -1.167155   -0.587043    1.016763
      5          1           0        1.257268    0.475741   -0.823981
      6          1           0        1.257256    0.475736    0.823988
      7          1           0       -1.167164    1.174063    0.000014
      8          1           0       -1.167163   -0.587025   -1.016771
 ---------------------------------------------------------------------
                    Distance matrix (angstroms):
                    1          2          3          4          5
     1  B    0.000000
     2  N    1.804858   0.000000
     3  H    2.360006   1.015471   0.000000
     4  H    1.203539   2.379413   2.654151   0.000000
     5  H    2.359993   1.015473   1.647974   3.224232   0.000000
     6  H    2.359984   1.015472   1.647974   2.654135   1.647969
     7  H    1.203539   2.379419   3.224246   2.033537   2.654146
     8  H    1.203538   2.379418   2.654163   2.033534   2.654148
                    6          7          8
     6  H    0.000000
     7  H    2.654130   0.000000
     8  H    3.224230   2.033539   0.000000
 Symmetry turned off by external request.
 Stoichiometry    BH6N
 Framework group  C1[X(BH6N)]
 Deg. of freedom    18
 Full point group                 C1      NOp   1
 Rotational constants (GHZ):          73.1935566          15.5812164          15.5812067
 Leave Link  202 at Mon Apr 21 17:34:42 2025, MaxMem=   536870912 cpu:               0.4 elap:               0.1
 (Enter /home/szhao/Apps/g16/l301.exe)
 Standard basis: 6-311+G(d,p) (5D, 7F)
 Ernie: Thresh=  0.10000D-02 Tol=  0.10000D-05 Strict=F.
    80 basis functions,   120 primitive gaussians,    82 cartesian basis functions
     9 alpha electrons        9 beta electrons
       nuclear repulsion energy        39.2669508149 Hartrees.
 IExCor= 4336 DFT=T Ex+Corr=M062X ExCW=0 ScaHFX=  0.540000
 ScaDFX=  1.000000  1.000000  1.000000  1.000000 ScalE2=  1.000000  1.000000
 IRadAn=      7 IRanWt=     -1 IRanGd=            0 ICorTp=0 IEmpDi=  4
 NAtoms=    8 NActive=    8 NUniq=    8 SFac= 1.00D+00 NAtFMM=   60 NAOKFM=F Big=F
 Integral buffers will be    131072 words long.
 Raffenetti 2 integral format.
 Two-electron integral symmetry is turned off.
 Leave Link  301 at Mon Apr 21 17:34:42 2025, MaxMem=   536870912 cpu:               0.5 elap:               0.1
 (Enter /home/szhao/Apps/g16/l302.exe)
 NPDir=0 NMtPBC=     1 NCelOv=     1 NCel=       1 NClECP=     1 NCelD=      1
         NCelK=      1 NCelE2=     1 NClLst=     1 CellRange=     0.0.
 One-electron integrals computed using PRISM.
 NBasis=    80 RedAO= T EigKep=  1.06D-03  NBF=    80
 NBsUse=    80 1.00D-06 EigRej= -1.00D+00 NBFU=    80
 Precomputing XC quadrature grid using
 IXCGrd= 4 IRadAn=           7 IRanWt=          -1 IRanGd=           0 AccXCQ= 0.00D+00.
 Generated NRdTot=       0 NPtTot=           0 NUsed=           0 NTot=          32
 NSgBfM=    82    82    82    82    82 MxSgAt=     8 MxSgA2=     8.
 Leave Link  302 at Mon Apr 21 17:34:42 2025, MaxMem=   536870912 cpu:               1.6 elap:               0.3
 (Enter /home/szhao/Apps/g16/l303.exe)
 DipDrv:  MaxL=1.
 Leave Link  303 at Mon Apr 21 17:34:43 2025, MaxMem=   536870912 cpu:               0.7 elap:               0.1
 (Enter /home/szhao/Apps/g16/l401.exe)
 Initial guess from the checkpoint file:  "opt.chk"
 B after Tr=     0.011064    0.000001   -0.000001
         Rot=    1.000000    0.000000    0.000001   -0.000002 Ang=   0.00 deg.
 Guess basis will be translated and rotated to current coordinates.
 JPrj=2 DoOrth=T DoCkMO=T.
 Initial guess <Sx>= 0.0000 <Sy>= 0.0000 <Sz>= 0.0000 <S**2>=-0.0000 S=-0.0000
 Generating alternative initial guess.
 ExpMin= 3.15D-02 ExpMax= 6.29D+03 ExpMxC= 9.49D+02 IAcc=3 IRadAn=         5 AccDes= 0.00D+00
 Harris functional with IExCor= 1009 and IRadAn=       5 diagonalized for initial guess.
 HarFok:  IExCor= 1009 AccDes= 0.00D+00 IRadAn=         5 IDoV= 1 UseB2=F ITyADJ=14
 ICtDFT=  3500011 ScaDFX=  1.000000  1.000000  1.000000  1.000000
 FoFCou: FMM=F IPFlag=           0 FMFlag=      100000 FMFlg1=           0
         NFxFlg=           0 DoJE=T BraDBF=F KetDBF=T FulRan=T
         wScrn=  0.000000 ICntrl=       500 IOpCl=  0 I1Cent=   200000004 NGrid=           0
         NMat0=    1 NMatS0=      1 NMatT0=    0 NMatD0=    1 NMtDS0=    0 NMtDT0=    0
 Symmetry not used in FoFCou.
 Harris En= -83.2042841687120    
 Leave Link  401 at Mon Apr 21 17:34:43 2025, MaxMem=   536870912 cpu:               3.6 elap:               0.5
 (Enter /home/szhao/Apps/g16/l502.exe)
 Keep R1 and R2 ints in memory in canonical form, NReq=17776582.
 FoFCou: FMM=F IPFlag=           0 FMFlag=           0 FMFlg1=           0
         NFxFlg=           0 DoJE=F BraDBF=F KetDBF=F FulRan=T
         wScrn=  0.000000 ICntrl=       600 IOpCl=  0 I1Cent=           0 NGrid=           0
         NMat0=    1 NMatS0=   3240 NMatT0=    0 NMatD0=    1 NMtDS0=    0 NMtDT0=    0
 Symmetry not used in FoFCou.
 Two-electron integral symmetry not used.
 UHF open shell SCF:
 Using DIIS extrapolation, IDIIS=  1040.
 NGot=   536870912 LenX=   526355138 LenY=   526347973
 Requested convergence on RMS density matrix=1.00D-08 within 128 cycles.
 Requested convergence on MAX density matrix=1.00D-06.
 Requested convergence on             energy=1.00D-06.
 No special actions if energy rises.

 Cycle   1  Pass 1  IDiag  1:
 E= -83.1857713024125    
 DIIS: error= 1.22D-03 at cycle   1 NSaved=   1.
 NSaved= 1 IEnMin= 1 EnMin= -83.1857713024125     IErMin= 1 ErrMin= 1.22D-03
 ErrMax= 1.22D-03  0.00D+00 EMaxC= 1.00D-01 BMatC= 3.24D-04 BMatP= 3.24D-04
 IDIUse=3 WtCom= 9.88D-01 WtEn= 1.22D-02
 Coeff-Com:  0.100D+01
 Coeff-En:   0.100D+01
 Coeff:      0.100D+01
 Gap=     0.510 Goal=   None    Shift=    0.000
 Gap=     0.510 Goal=   None    Shift=    0.000
 GapD=    0.510 DampG=2.000 DampE=1.000 DampFc=2.0000 IDamp=-1.
 RMSDP=1.00D-04 MaxDP=8.72D-04              OVMax= 3.81D-03

 Cycle   2  Pass 1  IDiag  1:
 E= -83.1858776872717     Delta-E=       -0.000106384859 Rises=F Damp=F
 DIIS: error= 3.53D-04 at cycle   2 NSaved=   2.
 NSaved= 2 IEnMin= 2 EnMin= -83.1858776872717     IErMin= 2 ErrMin= 3.53D-04
 ErrMax= 3.53D-04  0.00D+00 EMaxC= 1.00D-01 BMatC= 1.13D-05 BMatP= 3.24D-04
 IDIUse=3 WtCom= 9.96D-01 WtEn= 3.53D-03
 Coeff-Com: -0.218D-01 0.102D+01
 Coeff-En:   0.000D+00 0.100D+01
 Coeff:     -0.218D-01 0.102D+01
 Gap=     0.331 Goal=   None    Shift=    0.000
 Gap=     0.331 Goal=   None    Shift=    0.000
 RMSDP=3.27D-05 MaxDP=4.05D-04 DE=-1.06D-04 OVMax= 1.06D-03

 Cycle   3  Pass 1  IDiag  1:
 E= -83.1858809906967     Delta-E=       -0.000003303425 Rises=F Damp=F
 DIIS: error= 7.98D-05 at cycle   3 NSaved=   3.
 NSaved= 3 IEnMin= 3 EnMin= -83.1858809906967     IErMin= 3 ErrMin= 7.98D-05
 ErrMax= 7.98D-05  0.00D+00 EMaxC= 1.00D-01 BMatC= 1.67D-06 BMatP= 1.13D-05
 IDIUse=1 WtCom= 1.00D+00 WtEn= 0.00D+00
 Coeff-Com: -0.289D-01 0.240D+00 0.789D+00
 Coeff:     -0.289D-01 0.240D+00 0.789D+00
 Gap=     0.331 Goal=   None    Shift=    0.000
 Gap=     0.331 Goal=   None    Shift=    0.000
 RMSDP=6.76D-06 MaxDP=2.27D-04 DE=-3.30D-06 OVMax= 2.87D-04

 Cycle   4  Pass 1  IDiag  1:
 E= -83.1858814861396     Delta-E=       -0.000000495443 Rises=F Damp=F
 DIIS: error= 2.76D-05 at cycle   4 NSaved=   4.
 NSaved= 4 IEnMin= 4 EnMin= -83.1858814861396     IErMin= 4 ErrMin= 2.76D-05
 ErrMax= 2.76D-05  0.00D+00 EMaxC= 1.00D-01 BMatC= 9.50D-08 BMatP= 1.67D-06
 IDIUse=1 WtCom= 1.00D+00 WtEn= 0.00D+00
 Coeff-Com: -0.307D-02-0.121D-01 0.164D+00 0.852D+00
 Coeff:     -0.307D-02-0.121D-01 0.164D+00 0.852D+00
 Gap=     0.331 Goal=   None    Shift=    0.000
 Gap=     0.331 Goal=   None    Shift=    0.000
 RMSDP=2.72D-06 MaxDP=4.36D-05 DE=-4.95D-07 OVMax= 1.07D-04

 Cycle   5  Pass 1  IDiag  1:
 E= -83.1858815201944     Delta-E=       -0.000000034055 Rises=F Damp=F
 DIIS: error= 4.13D-06 at cycle   5 NSaved=   5.
 NSaved= 5 IEnMin= 5 EnMin= -83.1858815201944     IErMin= 5 ErrMin= 4.13D-06
 ErrMax= 4.13D-06  0.00D+00 EMaxC= 1.00D-01 BMatC= 4.62D-09 BMatP= 9.50D-08
 IDIUse=1 WtCom= 1.00D+00 WtEn= 0.00D+00
 Coeff-Com:  0.930D-03-0.162D-01-0.139D-01 0.156D+00 0.873D+00
 Coeff:      0.930D-03-0.162D-01-0.139D-01 0.156D+00 0.873D+00
 Gap=     0.331 Goal=   None    Shift=    0.000
 Gap=     0.331 Goal=   None    Shift=    0.000
 RMSDP=5.12D-07 MaxDP=9.14D-06 DE=-3.41D-08 OVMax= 1.58D-05

 Cycle   6  Pass 1  IDiag  1:
 E= -83.1858815215634     Delta-E=       -0.000000001369 Rises=F Damp=F
 DIIS: error= 2.35D-06 at cycle   6 NSaved=   6.
 NSaved= 6 IEnMin= 6 EnMin= -83.1858815215634     IErMin= 6 ErrMin= 2.35D-06
 ErrMax= 2.35D-06  0.00D+00 EMaxC= 1.00D-01 BMatC= 8.90D-10 BMatP= 4.62D-09
 IDIUse=1 WtCom= 1.00D+00 WtEn= 0.00D+00
 Coeff-Com:  0.608D-03-0.734D-02-0.139D-01 0.329D-01 0.382D+00 0.605D+00
 Coeff:      0.608D-03-0.734D-02-0.139D-01 0.329D-01 0.382D+00 0.605D+00
 Gap=     0.331 Goal=   None    Shift=    0.000
 Gap=     0.331 Goal=   None    Shift=    0.000
 RMSDP=1.22D-07 MaxDP=3.51D-06 DE=-1.37D-09 OVMax= 5.61D-06

 Cycle   7  Pass 1  IDiag  1:
 E= -83.1858815217494     Delta-E=       -0.000000000186 Rises=F Damp=F
 DIIS: error= 3.39D-07 at cycle   7 NSaved=   7.
 NSaved= 7 IEnMin= 7 EnMin= -83.1858815217494     IErMin= 7 ErrMin= 3.39D-07
 ErrMax= 3.39D-07  0.00D+00 EMaxC= 1.00D-01 BMatC= 3.56D-11 BMatP= 8.90D-10
 IDIUse=1 WtCom= 1.00D+00 WtEn= 0.00D+00
 Coeff-Com:  0.417D-04 0.431D-04-0.206D-02-0.103D-01-0.619D-02 0.154D+00
 Coeff-Com:  0.865D+00
 Coeff:      0.417D-04 0.431D-04-0.206D-02-0.103D-01-0.619D-02 0.154D+00
 Coeff:      0.865D+00
 Gap=     0.331 Goal=   None    Shift=    0.000
 Gap=     0.331 Goal=   None    Shift=    0.000
 RMSDP=4.09D-08 MaxDP=5.12D-07 DE=-1.86D-10 OVMax= 1.20D-06

 Cycle   8  Pass 1  IDiag  1:
 E= -83.1858815217587     Delta-E=       -0.000000000009 Rises=F Damp=F
 DIIS: error= 4.43D-08 at cycle   8 NSaved=   8.
 NSaved= 8 IEnMin= 8 EnMin= -83.1858815217587     IErMin= 8 ErrMin= 4.43D-08
 ErrMax= 4.43D-08  0.00D+00 EMaxC= 1.00D-01 BMatC= 4.09D-13 BMatP= 3.56D-11
 IDIUse=1 WtCom= 1.00D+00 WtEn= 0.00D+00
 Coeff-Com: -0.227D-04 0.344D-03 0.471D-03-0.185D-02-0.183D-01-0.139D-01
 Coeff-Com:  0.473D-01 0.986D+00
 Coeff:     -0.227D-04 0.344D-03 0.471D-03-0.185D-02-0.183D-01-0.139D-01
 Coeff:      0.473D-01 0.986D+00
 Gap=     0.331 Goal=   None    Shift=    0.000
 Gap=     0.331 Goal=   None    Shift=    0.000
 RMSDP=7.57D-09 MaxDP=1.13D-07 DE=-9.36D-12 OVMax= 2.60D-07

 SCF Done:  E(UM062X) =  -83.1858815218     A.U. after    8 cycles
            NFock=  8  Conv=0.76D-08     -V/T= 2.0056
 <Sx>= 0.0000 <Sy>= 0.0000 <Sz>= 0.0000 <S**2>=-0.0000 S=-0.0000
 <L.S>=  0.00000000000    
 KE= 8.272300800035D+01 PE=-2.709720505570D+02 EE= 6.579621021995D+01
 Annihilation of the first spin contaminant:
 S**2 before annihilation    -0.0000,   after     0.0000
 Leave Link  502 at Mon Apr 21 17:34:52 2025, MaxMem=   536870912 cpu:              65.8 elap:               8.7
 (Enter /home/szhao/Apps/g16/l701.exe)
 ... and contract with generalized density number  0.
 Compute integral first derivatives.
 Leave Link  701 at Mon Apr 21 17:34:53 2025, MaxMem=   536870912 cpu:               1.3 elap:               0.2
 (Enter /home/szhao/Apps/g16/l702.exe)
 L702 exits ... SP integral derivatives will be done elsewhere.
 Leave Link  702 at Mon Apr 21 17:34:53 2025, MaxMem=   536870912 cpu:               0.4 elap:               0.1
 (Enter /home/szhao/Apps/g16/l703.exe)
 Integral derivatives from FoFJK, PRISM(SPDF).
 Compute integral first derivatives, UseDBF=F ICtDFT=           0.
 Calling FoFJK, ICntrl=      2127 FMM=F ISym2X=0 I1Cent= 0 IOpClX= 1 NMat=1 NMatS=1 NMatT=0.
 FoFJK:  IHMeth= 1 ICntrl=    2127 DoSepK=F KAlg= 0 I1Cent=           0 FoldK=F
 IRaf=         0 NMat=       1 IRICut=       1 DoRegI=T DoRafI=F ISym2E= 0 IDoP0=0 IntGTp=1.
 FoFCou: FMM=F IPFlag=           0 FMFlag=      100000 FMFlg1=         800
         NFxFlg=           0 DoJE=F BraDBF=F KetDBF=F FulRan=T
         wScrn=  0.000000 ICntrl=      2127 IOpCl=  1 I1Cent=           0 NGrid=           0
         NMat0=    1 NMatS0=      1 NMatT0=    0 NMatD0=    1 NMtDS0=    0 NMtDT0=    0
 Symmetry not used in FoFCou.
 Leave Link  703 at Mon Apr 21 17:34:55 2025, MaxMem=   536870912 cpu:              13.8 elap:               1.8
 (Enter /home/szhao/Apps/g16/l716.exe)
 Dipole        = 1.99384394D+00 1.47347562D-05 3.58208929D-07
 -------------------------------------------------------------------
 Center     Atomic                   Forces (Hartrees/Bohr)
 Number     Number              X              Y              Z
 -------------------------------------------------------------------
      1        5          -0.000000000   -0.000000000   -0.000000000
      2        7          -0.000000000   -0.000000000   -0.000000000
      3        1          -0.000581018    0.000187418    0.000000027
      4        1           0.000478188    0.000073627   -0.000125900
      5        1          -0.000583103   -0.000092636    0.000162164
      6        1          -0.000582749   -0.000092702   -0.000162153
      7        1           0.000478807   -0.000145567   -0.000000163
      8        1           0.000478282    0.000073596    0.000125594
 -------------------------------------------------------------------
 Cartesian Forces:  Max     0.000583103 RMS     0.000279315
 Leave Link  716 at Mon Apr 21 17:34:55 2025, MaxMem=   536870912 cpu:               0.6 elap:               0.1
 (Enter /home/szhao/Apps/g16/l103.exe)

 GradGradGradGradGradGradGradGradGradGradGradGradGradGradGradGradGradGrad
 Berny optimization.
 Using GEDIIS/GDIIS optimizer.
 FormGI is forming the generalized inverse of G from B-inverse, IUseBI=4.
 Internal  Forces:  Max     0.001746870 RMS     0.000519331
 Search for a local minimum.
 Step number   2 out of a maximum of   43
 All quantities printed in internal units (Hartrees-Bohrs-Radians)
 RMS Force = .37459D-03 SwitMx=.10000D-02 MixMth= 2
 Mixed Optimization -- En-DIIS/RFO-DIIS
 Update second derivatives using D2CorX and points    1    2
 DE= -6.57D-04 DEPred=-5.78D-04 R= 1.14D+00
 TightC=F SS=  1.41D+00  RLast= 8.39D-02 DXNew= 5.0454D-01 2.5162D-01
 Trust test= 1.14D+00 RLast= 8.39D-02 DXMaxT set to 3.00D-01
 ITU=  1  0
 Use linear search instead of GDIIS.
     Eigenvalues ---    0.00230   0.05533   0.05533   0.06924   0.06924
     Eigenvalues ---    0.13865   0.16000   0.16000   0.16000   0.16000
     Eigenvalues ---    0.16361   0.24093   0.24185   0.24185   0.44779
     Eigenvalues ---    0.44893   0.448931000.000001000.000001000.00000
     Eigenvalues --- 1000.000001000.000001000.000001000.000001000.00000
     Eigenvalues --- 1000.000001000.000001000.000001000.000001000.00000
     Eigenvalues --- 1000.000001000.000001000.00000
 RFO step:  Lambda=-4.63732527D-06 EMin= 2.30000000D-03
 Quartic linear search produced a step of  0.13157.
 Iteration  1 RMS(Cart)=  0.00353288 RMS(Int)=  0.00006624
 Iteration  2 RMS(Cart)=  0.00000969 RMS(Int)=  0.00006575
 Iteration  3 RMS(Cart)=  0.00000000 RMS(Int)=  0.00006575
 ITry= 1 IFail=0 DXMaxC= 1.01D-02 DCOld= 1.00D+10 DXMaxT= 3.00D-01 DXLimC= 3.00D+00 Rises=F
 Variable       Old X    -DE/DX   Delta X   Delta X   Delta X     New X
                                 (Linear)    (Quad)   (Total)
    X1       -1.70534   0.00144   0.00000   0.00000   0.00000  -1.70534
    Y1        0.00000   0.00000   0.00000   0.00000   0.00000   0.00000
    Z1        0.00000  -0.00000   0.00000   0.00000   0.00000   0.00000
    X2        1.70534  -0.00175   0.00000   0.00000   0.00000   1.70534
    Y2        0.00000   0.00000   0.00000   0.00000   0.00000   0.00000
    Z2        0.00000   0.00000   0.00000   0.00000   0.00000   0.00000
    R1        2.27436  -0.00025  -0.00078  -0.00036  -0.00114   2.27322
    R2        2.27436  -0.00025  -0.00078  -0.00036  -0.00114   2.27322
    R3        2.27436  -0.00025  -0.00078  -0.00036  -0.00114   2.27322
    R4        1.91896  -0.00038  -0.00027  -0.00069  -0.00096   1.91801
    R5        1.91897  -0.00038  -0.00027  -0.00069  -0.00096   1.91801
    R6        1.91896  -0.00038  -0.00027  -0.00069  -0.00096   1.91801
    A1        1.79257  -0.00066  -0.00485   0.00057  -0.00440   1.78817
    A2        1.79257  -0.00066  -0.00485   0.00055  -0.00442   1.78816
    A3        1.79257  -0.00066  -0.00485   0.00057  -0.00440   1.78817
    A4        2.01244   0.00047   0.00369  -0.00041   0.00311   2.01555
    A5        2.01244   0.00047   0.00369  -0.00039   0.00312   2.01556
    A6        2.01244   0.00047   0.00369  -0.00041   0.00310   2.01555
    A7        1.92778  -0.00044  -0.00115  -0.00191  -0.00307   1.92471
    A8        1.92776  -0.00045  -0.00116  -0.00194  -0.00311   1.92465
    A9        1.92775  -0.00045  -0.00116  -0.00194  -0.00310   1.92465
   A10        1.89320   0.00046   0.00121   0.00200   0.00320   1.89640
   A11        1.89320   0.00046   0.00121   0.00200   0.00320   1.89640
   A12        1.89319   0.00046   0.00121   0.00199   0.00319   1.89637
    D1        1.04719   0.00000  -0.00000   0.00001   0.00001   1.04720
    D2       -3.14159   0.00000   0.00000   0.00002   0.00002  -3.14157
    D3       -1.04721  -0.00000  -0.00000  -0.00000  -0.00000  -1.04722
    D4        3.14158   0.00000   0.00000   0.00000   0.00000   3.14158
    D5       -1.04720   0.00000   0.00000   0.00001   0.00001  -1.04718
    D6        1.04718  -0.00000  -0.00000  -0.00001  -0.00001   1.04717
    D7       -1.04720  -0.00000   0.00000  -0.00001  -0.00001  -1.04721
    D8        1.04721   0.00000   0.00000   0.00000   0.00001   1.04721
    D9        3.14158  -0.00000  -0.00000  -0.00002  -0.00002   3.14156
         Item               Value     Threshold  Converged?
 Maximum Force            0.000657     0.000450     NO 
 RMS     Force            0.000375     0.000300     NO 
 Maximum Displacement     0.010050     0.001800     NO 
 RMS     Displacement     0.003540     0.001200     NO 
 Predicted change in Energy=-1.249095D-05
 Lowest energy point so far.  Saving SCF results.
 GradGradGradGradGradGradGradGradGradGradGradGradGradGradGradGradGradGrad

 Leave Link  103 at Mon Apr 21 17:34:55 2025, MaxMem=   536870912 cpu:               1.3 elap:               0.2
 (Enter /home/szhao/Apps/g16/l202.exe)
                          Input orientation:                          
 ---------------------------------------------------------------------
 Center     Atomic      Atomic             Coordinates (Angstroms)
 Number     Number       Type             X           Y           Z
 ---------------------------------------------------------------------
      1          5           0       -0.902429    0.000000    0.000000
      2          7           0        0.902429    0.000000    0.000000
      3          1           0        1.254188   -0.952061   -0.000002
      4          1           0       -1.161856   -0.587317    1.017256
      5          1           0        1.254135    0.476063   -0.824515
      6          1           0        1.254128    0.476057    0.824522
      7          1           0       -1.161845    1.174631    0.000011
      8          1           0       -1.161860   -0.587300   -1.017265
 ---------------------------------------------------------------------
                    Distance matrix (angstroms):
                    1          2          3          4          5
     1  B    0.000000
     2  N    1.804858   0.000000
     3  H    2.357417   1.014965   0.000000
     4  H    1.202936   2.375084   2.646718   0.000000
     5  H    2.357378   1.014967   1.649048   3.218681   0.000000
     6  H    2.357372   1.014967   1.649048   2.646675   1.649036
     7  H    1.202936   2.375076   3.218701   2.034514   2.646659
     8  H    1.202935   2.375087   2.646726   2.034521   2.646682
                    6          7          8
     6  H    0.000000
     7  H    2.646648   0.000000
     8  H    3.218680   2.034515   0.000000
 Symmetry turned off by external request.
 Stoichiometry    BH6N
 Framework group  C1[X(BH6N)]
 Deg. of freedom    18
 Full point group                 C1      NOp   1
 Rotational constants (GHZ):          73.1132763          15.6093848          15.6093801
 Leave Link  202 at Mon Apr 21 17:34:56 2025, MaxMem=   536870912 cpu:               0.3 elap:               0.1
 (Enter /home/szhao/Apps/g16/l301.exe)
 Standard basis: 6-311+G(d,p) (5D, 7F)
 Ernie: Thresh=  0.10000D-02 Tol=  0.10000D-05 Strict=F.
    80 basis functions,   120 primitive gaussians,    82 cartesian basis functions
     9 alpha electrons        9 beta electrons
       nuclear repulsion energy        39.2911684375 Hartrees.
 IExCor= 4336 DFT=T Ex+Corr=M062X ExCW=0 ScaHFX=  0.540000
 ScaDFX=  1.000000  1.000000  1.000000  1.000000 ScalE2=  1.000000  1.000000
 IRadAn=      7 IRanWt=     -1 IRanGd=            0 ICorTp=0 IEmpDi=  4
 NAtoms=    8 NActive=    8 NUniq=    8 SFac= 1.00D+00 NAtFMM=   60 NAOKFM=F Big=F
 Integral buffers will be    131072 words long.
 Raffenetti 2 integral format.
 Two-electron integral symmetry is turned off.
 Leave Link  301 at Mon Apr 21 17:34:56 2025, MaxMem=   536870912 cpu:               0.8 elap:               0.1
 (Enter /home/szhao/Apps/g16/l302.exe)
 NPDir=0 NMtPBC=     1 NCelOv=     1 NCel=       1 NClECP=     1 NCelD=      1
         NCelK=      1 NCelE2=     1 NClLst=     1 CellRange=     0.0.
 One-electron integrals computed using PRISM.
 NBasis=    80 RedAO= T EigKep=  1.05D-03  NBF=    80
 NBsUse=    80 1.00D-06 EigRej= -1.00D+00 NBFU=    80
 Precomputing XC quadrature grid using
 IXCGrd= 4 IRadAn=           7 IRanWt=          -1 IRanGd=           0 AccXCQ= 0.00D+00.
 Generated NRdTot=       0 NPtTot=           0 NUsed=           0 NTot=          32
 NSgBfM=    82    82    82    82    82 MxSgAt=     8 MxSgA2=     8.
 Leave Link  302 at Mon Apr 21 17:34:56 2025, MaxMem=   536870912 cpu:               1.9 elap:               0.3
 (Enter /home/szhao/Apps/g16/l303.exe)
 DipDrv:  MaxL=1.
 Leave Link  303 at Mon Apr 21 17:34:56 2025, MaxMem=   536870912 cpu:               0.5 elap:               0.1
 (Enter /home/szhao/Apps/g16/l401.exe)
 Initial guess from the checkpoint file:  "opt.chk"
 B after Tr=     0.000689    0.000005   -0.000001
         Rot=    1.000000    0.000000    0.000000   -0.000001 Ang=   0.00 deg.
 Guess basis will be translated and rotated to current coordinates.
 JPrj=2 DoOrth=T DoCkMO=T.
 Initial guess <Sx>= 0.0000 <Sy>= 0.0000 <Sz>= 0.0000 <S**2>=-0.0000 S=-0.0000
 Leave Link  401 at Mon Apr 21 17:34:57 2025, MaxMem=   536870912 cpu:               1.3 elap:               0.3
 (Enter /home/szhao/Apps/g16/l502.exe)
 Keep R1 and R2 ints in memory in canonical form, NReq=17776582.
 FoFCou: FMM=F IPFlag=           0 FMFlag=           0 FMFlg1=           0
         NFxFlg=           0 DoJE=F BraDBF=F KetDBF=F FulRan=T
         wScrn=  0.000000 ICntrl=       600 IOpCl=  0 I1Cent=           0 NGrid=           0
         NMat0=    1 NMatS0=   3240 NMatT0=    0 NMatD0=    1 NMtDS0=    0 NMtDT0=    0
 Symmetry not used in FoFCou.
 Two-electron integral symmetry not used.
 UHF open shell SCF:
 Using DIIS extrapolation, IDIIS=  1040.
 NGot=   536870912 LenX=   526355138 LenY=   526347973
 Requested convergence on RMS density matrix=1.00D-08 within 128 cycles.
 Requested convergence on MAX density matrix=1.00D-06.
 Requested convergence on             energy=1.00D-06.
 No special actions if energy rises.

 Cycle   1  Pass 1  IDiag  1:
 E= -83.1858911317934    
 DIIS: error= 2.45D-04 at cycle   1 NSaved=   1.
 NSaved= 1 IEnMin= 1 EnMin= -83.1858911317934     IErMin= 1 ErrMin= 2.45D-04
 ErrMax= 2.45D-04  0.00D+00 EMaxC= 1.00D-01 BMatC= 1.15D-05 BMatP= 1.15D-05
 IDIUse=3 WtCom= 9.98D-01 WtEn= 2.45D-03
 Coeff-Com:  0.100D+01
 Coeff-En:   0.100D+01
 Coeff:      0.100D+01
 Gap=     0.512 Goal=   None    Shift=    0.000
 Gap=     0.512 Goal=   None    Shift=    0.000
 RMSDP=1.84D-05 MaxDP=2.01D-04              OVMax= 5.99D-04

 Cycle   2  Pass 1  IDiag  1:
 E= -83.1858942494543     Delta-E=       -0.000003117661 Rises=F Damp=F
 DIIS: error= 6.87D-05 at cycle   2 NSaved=   2.
 NSaved= 2 IEnMin= 2 EnMin= -83.1858942494543     IErMin= 2 ErrMin= 6.87D-05
 ErrMax= 6.87D-05  0.00D+00 EMaxC= 1.00D-01 BMatC= 4.54D-07 BMatP= 1.15D-05
 IDIUse=1 WtCom= 1.00D+00 WtEn= 0.00D+00
 Coeff-Com: -0.198D-01 0.102D+01
 Coeff:     -0.198D-01 0.102D+01
 Gap=     0.331 Goal=   None    Shift=    0.000
 Gap=     0.331 Goal=   None    Shift=    0.000
 RMSDP=6.32D-06 MaxDP=1.02D-04 DE=-3.12D-06 OVMax= 2.08D-04

 Cycle   3  Pass 1  IDiag  1:
 E= -83.1858943285736     Delta-E=       -0.000000079119 Rises=F Damp=F
 DIIS: error= 4.03D-05 at cycle   3 NSaved=   3.
 NSaved= 3 IEnMin= 3 EnMin= -83.1858943285736     IErMin= 3 ErrMin= 4.03D-05
 ErrMax= 4.03D-05  0.00D+00 EMaxC= 1.00D-01 BMatC= 2.70D-07 BMatP= 4.54D-07
 IDIUse=1 WtCom= 1.00D+00 WtEn= 0.00D+00
 Coeff-Com: -0.436D-01 0.452D+00 0.592D+00
 Coeff:     -0.436D-01 0.452D+00 0.592D+00
 Gap=     0.331 Goal=   None    Shift=    0.000
 Gap=     0.331 Goal=   None    Shift=    0.000
 RMSDP=2.00D-06 MaxDP=4.78D-05 DE=-7.91D-08 OVMax= 6.71D-05

 Cycle   4  Pass 1  IDiag  1:
 E= -83.1858943863691     Delta-E=       -0.000000057796 Rises=F Damp=F
 DIIS: error= 7.84D-06 at cycle   4 NSaved=   4.
 NSaved= 4 IEnMin= 4 EnMin= -83.1858943863691     IErMin= 4 ErrMin= 7.84D-06
 ErrMax= 7.84D-06  0.00D+00 EMaxC= 1.00D-01 BMatC= 9.50D-09 BMatP= 2.70D-07
 IDIUse=1 WtCom= 1.00D+00 WtEn= 0.00D+00
 Coeff-Com: -0.128D-01 0.754D-01 0.186D+00 0.751D+00
 Coeff:     -0.128D-01 0.754D-01 0.186D+00 0.751D+00
 Gap=     0.331 Goal=   None    Shift=    0.000
 Gap=     0.331 Goal=   None    Shift=    0.000
 RMSDP=3.91D-07 MaxDP=1.32D-05 DE=-5.78D-08 OVMax= 1.51D-05

 Cycle   5  Pass 1  IDiag  1:
 E= -83.1858943882145     Delta-E=       -0.000000001845 Rises=F Damp=F
 DIIS: error= 1.78D-06 at cycle   5 NSaved=   5.
 NSaved= 5 IEnMin= 5 EnMin= -83.1858943882145     IErMin= 5 ErrMin= 1.78D-06
 ErrMax= 1.78D-06  0.00D+00 EMaxC= 1.00D-01 BMatC= 5.51D-10 BMatP= 9.50D-09
 IDIUse=1 WtCom= 1.00D+00 WtEn= 0.00D+00
 Coeff-Com:  0.330D-03-0.177D-01 0.746D-03 0.197D+00 0.820D+00
 Coeff:      0.330D-03-0.177D-01 0.746D-03 0.197D+00 0.820D+00
 Gap=     0.331 Goal=   None    Shift=    0.000
 Gap=     0.331 Goal=   None    Shift=    0.000
 RMSDP=1.87D-07 MaxDP=3.06D-06 DE=-1.85D-09 OVMax= 6.49D-06

 Cycle   6  Pass 1  IDiag  1:
 E= -83.1858943883822     Delta-E=       -0.000000000168 Rises=F Damp=F
 DIIS: error= 2.57D-07 at cycle   6 NSaved=   6.
 NSaved= 6 IEnMin= 6 EnMin= -83.1858943883822     IErMin= 6 ErrMin= 2.57D-07
 ErrMax= 2.57D-07  0.00D+00 EMaxC= 1.00D-01 BMatC= 2.04D-11 BMatP= 5.51D-10
 IDIUse=1 WtCom= 1.00D+00 WtEn= 0.00D+00
 Coeff-Com:  0.643D-03-0.752D-02-0.834D-02-0.132D-02 0.180D+00 0.836D+00
 Coeff:      0.643D-03-0.752D-02-0.834D-02-0.132D-02 0.180D+00 0.836D+00
 Gap=     0.331 Goal=   None    Shift=    0.000
 Gap=     0.331 Goal=   None    Shift=    0.000
 RMSDP=3.36D-08 MaxDP=7.33D-07 DE=-1.68D-10 OVMax= 1.09D-06

 Cycle   7  Pass 1  IDiag  1:
 E= -83.1858943883889     Delta-E=       -0.000000000007 Rises=F Damp=F
 DIIS: error= 3.32D-08 at cycle   7 NSaved=   7.
 NSaved= 7 IEnMin= 7 EnMin= -83.1858943883889     IErMin= 7 ErrMin= 3.32D-08
 ErrMax= 3.32D-08  0.00D+00 EMaxC= 1.00D-01 BMatC= 2.22D-13 BMatP= 2.04D-11
 IDIUse=1 WtCom= 1.00D+00 WtEn= 0.00D+00
 Coeff-Com:  0.997D-05 0.238D-03-0.466D-03-0.773D-02-0.190D-01 0.205D-01
 Coeff-Com:  0.101D+01
 Coeff:      0.997D-05 0.238D-03-0.466D-03-0.773D-02-0.190D-01 0.205D-01
 Coeff:      0.101D+01
 Gap=     0.331 Goal=   None    Shift=    0.000
 Gap=     0.331 Goal=   None    Shift=    0.000
 RMSDP=6.62D-09 MaxDP=9.27D-08 DE=-6.74D-12 OVMax= 2.28D-07

 SCF Done:  E(UM062X) =  -83.1858943884     A.U. after    7 cycles
            NFock=  7  Conv=0.66D-08     -V/T= 2.0055
 <Sx>= 0.0000 <Sy>= 0.0000 <Sz>= 0.0000 <S**2>=-0.0000 S=-0.0000
 <L.S>=  0.00000000000    
 KE= 8.272822131256D+01 PE=-2.710260360149D+02 EE= 6.582075187641D+01
 Annihilation of the first spin contaminant:
 S**2 before annihilation    -0.0000,   after    -0.0000
 Leave Link  502 at Mon Apr 21 17:35:05 2025, MaxMem=   536870912 cpu:              60.3 elap:               7.9
 (Enter /home/szhao/Apps/g16/l701.exe)
 ... and contract with generalized density number  0.
 Compute integral first derivatives.
 Leave Link  701 at Mon Apr 21 17:35:05 2025, MaxMem=   536870912 cpu:               1.7 elap:               0.3
 (Enter /home/szhao/Apps/g16/l702.exe)
 L702 exits ... SP integral derivatives will be done elsewhere.
 Leave Link  702 at Mon Apr 21 17:35:05 2025, MaxMem=   536870912 cpu:               0.6 elap:               0.1
 (Enter /home/szhao/Apps/g16/l703.exe)
 Integral derivatives from FoFJK, PRISM(SPDF).
 Compute integral first derivatives, UseDBF=F ICtDFT=           0.
 Calling FoFJK, ICntrl=      2127 FMM=F ISym2X=0 I1Cent= 0 IOpClX= 1 NMat=1 NMatS=1 NMatT=0.
 FoFJK:  IHMeth= 1 ICntrl=    2127 DoSepK=F KAlg= 0 I1Cent=           0 FoldK=F
 IRaf=         0 NMat=       1 IRICut=       1 DoRegI=T DoRafI=F ISym2E= 0 IDoP0=0 IntGTp=1.
 FoFCou: FMM=F IPFlag=           0 FMFlag=      100000 FMFlg1=         800
         NFxFlg=           0 DoJE=F BraDBF=F KetDBF=F FulRan=T
         wScrn=  0.000000 ICntrl=      2127 IOpCl=  1 I1Cent=           0 NGrid=           0
         NMat0=    1 NMatS0=      1 NMatT0=    0 NMatD0=    1 NMtDS0=    0 NMtDT0=    0
 Symmetry not used in FoFCou.
 Leave Link  703 at Mon Apr 21 17:35:07 2025, MaxMem=   536870912 cpu:              12.9 elap:               1.7
 (Enter /home/szhao/Apps/g16/l716.exe)
 Dipole        = 1.98441847D+00 2.16384048D-05 8.77836346D-07
 -------------------------------------------------------------------
 Center     Atomic                   Forces (Hartrees/Bohr)
 Number     Number              X              Y              Z
 -------------------------------------------------------------------
      1        5          -0.000000000   -0.000000000   -0.000000000
      2        7          -0.000000000   -0.000000000   -0.000000000
      3        1          -0.000175448    0.000011253   -0.000000009
      4        1          -0.000030315   -0.000000160    0.000001098
      5        1          -0.000177338   -0.000005047    0.000009212
      6        1          -0.000177131   -0.000005105   -0.000009274
      7        1          -0.000029865    0.000001575   -0.000000075
      8        1          -0.000030274   -0.000000154   -0.000001188
 -------------------------------------------------------------------
 Cartesian Forces:  Max     0.000177338 RMS     0.000063472
 Leave Link  716 at Mon Apr 21 17:35:08 2025, MaxMem=   536870912 cpu:               0.5 elap:               0.1
 (Enter /home/szhao/Apps/g16/l103.exe)

 GradGradGradGradGradGradGradGradGradGradGradGradGradGradGradGradGradGrad
 Berny optimization.
 Using GEDIIS/GDIIS optimizer.
 FormGI is forming the generalized inverse of G from B-inverse, IUseBI=4.
 Internal  Forces:  Max     0.000529918 RMS     0.000117277
 Search for a local minimum.
 Step number   3 out of a maximum of   43
 All quantities printed in internal units (Hartrees-Bohrs-Radians)
 RMS Force = .78144D-04 SwitMx=.10000D-02 MixMth= 2
 Mixed Optimization -- En-DIIS/RFO-DIIS
 Swapping is turned off.
 Update second derivatives using D2CorX and points    1    2    3
 DE= -1.29D-05 DEPred=-1.25D-05 R= 1.03D+00
 TightC=F SS=  1.41D+00  RLast= 1.24D-02 DXNew= 5.0454D-01 3.7138D-02
 Trust test= 1.03D+00 RLast= 1.24D-02 DXMaxT set to 3.00D-01
 ITU=  1  1  0
     Eigenvalues ---    0.00230   0.05566   0.05566   0.06965   0.06965
     Eigenvalues ---    0.11883   0.16000   0.16000   0.16000   0.16000
     Eigenvalues ---    0.18907   0.24185   0.24185   0.24293   0.44303
     Eigenvalues ---    0.44893   0.448931000.000001000.000001000.00000
     Eigenvalues --- 1000.000001000.000001000.000001000.000001000.00000
     Eigenvalues --- 1000.000001000.000001000.000001000.000001000.00000
     Eigenvalues --- 1000.000001000.000001000.00000
 En-DIIS/RFO-DIIS/Sim-DIIS IScMMF=       -3 using points:     3    2
 RFO step:  Lambda=-1.15068349D-06.
 NNeg= 0 NGDIIS= 2 SimSw=  2.50D-03 Rises=F DC= -1.29D-05 SmlDif=  1.00D-05
 NRisDI= 0 DoIntr=F SqrtH=F CThrHd= 10.0 CDAdj=  3.0
 RMS Error=  0.5123309348D-03 NUsed= 2 OKEnD=T EnDIS=F
 InvSVX:  RCond= 3.83D-05 Info=           0 Equed=N FErr=  1.25D-15 BErr=  1.65D-17
 DidBck=F Rises=F RFO-DIIS coefs:    1.14404   -0.14404
 Iteration  1 RMS(Cart)=  0.00068279 RMS(Int)=  0.00000122
 Iteration  2 RMS(Cart)=  0.00000052 RMS(Int)=  0.00000113
 ITry= 1 IFail=0 DXMaxC= 2.21D-03 DCOld= 1.00D+10 DXMaxT= 3.00D-01 DXLimC= 3.00D+00 Rises=F
 Variable       Old X    -DE/DX   Delta X   Delta X   Delta X     New X
                                 (Linear)    (Quad)   (Total)
    X1       -1.70534  -0.00009   0.00000   0.00000   0.00000  -1.70534
    Y1        0.00000   0.00000   0.00000   0.00000   0.00000   0.00000
    Z1        0.00000  -0.00000   0.00000   0.00000   0.00000   0.00000
    X2        1.70534  -0.00053  -0.00000   0.00000   0.00000   1.70534
    Y2        0.00000   0.00000   0.00000   0.00000   0.00000   0.00000
    Z2        0.00000  -0.00000   0.00000   0.00000   0.00000   0.00000
    R1        2.27322   0.00001  -0.00016   0.00014  -0.00003   2.27319
    R2        2.27322   0.00001  -0.00016   0.00014  -0.00002   2.27320
    R3        2.27322   0.00001  -0.00016   0.00014  -0.00002   2.27319
    R4        1.91801  -0.00007  -0.00014  -0.00008  -0.00022   1.91779
    R5        1.91801  -0.00007  -0.00014  -0.00008  -0.00022   1.91779
    R6        1.91801  -0.00007  -0.00014  -0.00008  -0.00022   1.91779
    A1        1.78817   0.00005  -0.00063   0.00070   0.00006   1.78823
    A2        1.78816   0.00004  -0.00064   0.00069   0.00005   1.78820
    A3        1.78817   0.00004  -0.00063   0.00069   0.00006   1.78823
    A4        2.01555  -0.00003   0.00045  -0.00049  -0.00004   2.01551
    A5        2.01556  -0.00003   0.00045  -0.00048  -0.00003   2.01552
    A6        2.01555  -0.00003   0.00045  -0.00049  -0.00004   2.01551
    A7        1.92471  -0.00015  -0.00044  -0.00071  -0.00116   1.92356
    A8        1.92465  -0.00015  -0.00045  -0.00074  -0.00118   1.92347
    A9        1.92465  -0.00015  -0.00045  -0.00073  -0.00118   1.92347
   A10        1.89640   0.00016   0.00046   0.00075   0.00121   1.89760
   A11        1.89640   0.00015   0.00046   0.00075   0.00121   1.89760
   A12        1.89637   0.00016   0.00046   0.00075   0.00120   1.89758
    D1        1.04720   0.00000   0.00000   0.00001   0.00001   1.04720
    D2       -3.14157   0.00000   0.00000   0.00001   0.00001  -3.14156
    D3       -1.04722  -0.00000  -0.00000  -0.00000  -0.00000  -1.04722
    D4        3.14158   0.00000   0.00000   0.00000   0.00000   3.14159
    D5       -1.04718   0.00000   0.00000   0.00001   0.00001  -1.04717
    D6        1.04717  -0.00000  -0.00000  -0.00000  -0.00000   1.04717
    D7       -1.04721  -0.00000  -0.00000  -0.00000  -0.00000  -1.04721
    D8        1.04721   0.00000   0.00000   0.00000   0.00001   1.04722
    D9        3.14156  -0.00000  -0.00000  -0.00001  -0.00001   3.14155
         Item               Value     Threshold  Converged?
 Maximum Force            0.000156     0.000450     YES
 RMS     Force            0.000078     0.000300     YES
 Maximum Displacement     0.002207     0.001800     NO 
 RMS     Displacement     0.000683     0.001200     YES
 Predicted change in Energy=-5.752004D-07
 Lowest energy point so far.  Saving SCF results.
 GradGradGradGradGradGradGradGradGradGradGradGradGradGradGradGradGradGrad

 Leave Link  103 at Mon Apr 21 17:35:08 2025, MaxMem=   536870912 cpu:               0.6 elap:               0.1
 (Enter /home/szhao/Apps/g16/l202.exe)
                          Input orientation:                          
 ---------------------------------------------------------------------
 Center     Atomic      Atomic             Coordinates (Angstroms)
 Number     Number       Type             X           Y           Z
 ---------------------------------------------------------------------
      1          5           0       -0.902429    0.000000    0.000000
      2          7           0        0.902429    0.000000    0.000000
      3          1           0        1.253048   -0.952358   -0.000004
      4          1           0       -1.161923   -0.587298    1.017235
      5          1           0        1.252967    0.476224   -0.824777
      6          1           0        1.252962    0.476216    0.824784
      7          1           0       -1.161898    1.174607    0.000009
      8          1           0       -1.161925   -0.587283   -1.017242
 ---------------------------------------------------------------------
                    Distance matrix (angstroms):
                    1          2          3          4          5
     1  B    0.000000
     2  N    1.804858   0.000000
     3  H    2.356495   1.014850   0.000000
     4  H    1.202922   2.375128   2.645776   0.000000
     5  H    2.356434   1.014852   1.649575   3.218040   0.000000
     6  H    2.356430   1.014852   1.649575   2.645708   1.649562
     7  H    1.202924   2.375110   3.218066   2.034467   2.645673
     8  H    1.202922   2.375130   2.645780   2.034477   2.645713
                    6          7          8
     6  H    0.000000
[...]
    A7        1.92356  -0.00004  -0.00051   0.00001  -0.00051   1.92305
    A8        1.92347  -0.00005  -0.00053  -0.00000  -0.00053   1.92294
    A9        1.92347  -0.00005  -0.00053  -0.00000  -0.00053   1.92293
   A10        1.89760   0.00005   0.00054  -0.00000   0.00054   1.89814
   A11        1.89760   0.00005   0.00054  -0.00000   0.00054   1.89814
   A12        1.89758   0.00005   0.00054  -0.00000   0.00054   1.89812
    D1        1.04720   0.00000   0.00000   0.00000   0.00001   1.04721
    D2       -3.14156   0.00000   0.00001   0.00000   0.00001  -3.14154
    D3       -1.04722  -0.00000  -0.00000  -0.00000  -0.00000  -1.04722
    D4        3.14159   0.00000   0.00000   0.00000   0.00000   3.14159
    D5       -1.04717   0.00000   0.00001   0.00000   0.00001  -1.04716
    D6        1.04717  -0.00000  -0.00000  -0.00000  -0.00000   1.04716
    D7       -1.04721  -0.00000  -0.00000  -0.00000  -0.00000  -1.04721
    D8        1.04722   0.00000   0.00000   0.00000   0.00000   1.04722
    D9        3.14155  -0.00000  -0.00000  -0.00000  -0.00001   3.14154
         Item               Value     Threshold  Converged?
 Maximum Force            0.000047     0.000450     YES
 RMS     Force            0.000029     0.000300     YES
 Maximum Displacement     0.000993     0.001800     YES
 RMS     Displacement     0.000371     0.001200     YES
 Predicted change in Energy=-1.046503D-07
 Optimization completed.
    -- Stationary point found.
                           ----------------------------
                           !   Optimized Parameters   !
                           ! (Angstroms and Degrees)  !
 --------------------------                            --------------------------
 ! Name  Definition              Value          Derivative Info.                !
 --------------------------------------------------------------------------------
 ! X1    R(1,-1)                -0.9024         -DE/DX =   -0.0001              !
 ! Y1    R(1,-2)                 0.0            -DE/DX =    0.0                 !
 ! Z1    R(1,-3)                 0.0            -DE/DX =    0.0                 !
 ! X2    R(2,-1)                 0.9024         -DE/DX =   -0.0002              !
 ! Y2    R(2,-2)                 0.0            -DE/DX =    0.0                 !
 ! Z2    R(2,-3)                 0.0            -DE/DX =    0.0                 !
 ! R1    R(1,4)                  1.2029         -DE/DX =    0.0                 !
 ! R2    R(1,7)                  1.2029         -DE/DX =    0.0                 !
 ! R3    R(1,8)                  1.2029         -DE/DX =    0.0                 !
 ! R4    R(2,3)                  1.0148         -DE/DX =    0.0                 !
 ! R5    R(2,5)                  1.0149         -DE/DX =    0.0                 !
 ! R6    R(2,6)                  1.0149         -DE/DX =    0.0                 !
 ! A1    A(2,1,4)              102.4577         -DE/DX =    0.0                 !
 ! A2    A(2,1,7)              102.4565         -DE/DX =    0.0                 !
 ! A3    A(2,1,8)              102.4579         -DE/DX =    0.0                 !
 ! A4    A(4,1,7)              115.48           -DE/DX =    0.0                 !
 ! A5    A(4,1,8)              115.481          -DE/DX =    0.0                 !
 ! A6    A(7,1,8)              115.48           -DE/DX =    0.0                 !
 ! A7    A(1,2,3)              110.2116         -DE/DX =    0.0                 !
 ! A8    A(1,2,5)              110.2067         -DE/DX =    0.0                 !
 ! A9    A(1,2,6)              110.2064         -DE/DX =    0.0                 !
 ! A10   A(3,2,5)              108.7247         -DE/DX =    0.0                 !
 ! A11   A(3,2,6)              108.7247         -DE/DX =    0.0                 !
 ! A12   A(5,2,6)              108.7232         -DE/DX =    0.0                 !
 ! D1    D(4,1,2,3)             60.0004         -DE/DX =    0.0                 !
 ! D2    D(4,1,2,5)           -179.9979         -DE/DX =    0.0                 !
 ! D3    D(4,1,2,6)            -60.0012         -DE/DX =    0.0                 !
 ! D4    D(7,1,2,3)            179.9998         -DE/DX =    0.0                 !
 ! D5    D(7,1,2,5)            -59.9984         -DE/DX =    0.0                 !
 ! D6    D(7,1,2,6)             59.9982         -DE/DX =    0.0                 !
 ! D7    D(8,1,2,3)            -60.0007         -DE/DX =    0.0                 !
 ! D8    D(8,1,2,5)             60.0011         -DE/DX =    0.0                 !
 ! D9    D(8,1,2,6)            179.9977         -DE/DX =    0.0                 !
 --------------------------------------------------------------------------------
 Lowest energy point so far.  Saving SCF results.
 Largest change from initial coordinates is atom    7       0.050 Angstoms.
 GradGradGradGradGradGradGradGradGradGradGradGradGradGradGradGradGradGrad

 Leave Link  103 at Mon Apr 21 17:35:20 2025, MaxMem=   536870912 cpu:               0.7 elap:               0.1
 (Enter /home/szhao/Apps/g16/l202.exe)
                          Input orientation:                          
 ---------------------------------------------------------------------
 Center     Atomic      Atomic             Coordinates (Angstroms)
 Number     Number       Type             X           Y           Z
 ---------------------------------------------------------------------
      1          5           0       -0.902429    0.000000    0.000000
      2          7           0        0.902429    0.000000    0.000000
      3          1           0        1.253048   -0.952358   -0.000004
      4          1           0       -1.161923   -0.587298    1.017235
      5          1           0        1.252967    0.476224   -0.824777
      6          1           0        1.252962    0.476216    0.824784
      7          1           0       -1.161898    1.174607    0.000009
      8          1           0       -1.161925   -0.587283   -1.017242
 ---------------------------------------------------------------------
                    Distance matrix (angstroms):
                    1          2          3          4          5
     1  B    0.000000
     2  N    1.804858   0.000000
     3  H    2.356495   1.014850   0.000000
     4  H    1.202922   2.375128   2.645776   0.000000
     5  H    2.356434   1.014852   1.649575   3.218040   0.000000
     6  H    2.356430   1.014852   1.649575   2.645708   1.649562
     7  H    1.202924   2.375110   3.218066   2.034467   2.645673
     8  H    1.202922   2.375130   2.645780   2.034477   2.645713
                    6          7          8
     6  H    0.000000
     7  H    2.645668   0.000000
     8  H    3.218039   2.034467   0.000000
 Symmetry turned off by external request.
 Stoichiometry    BH6N
 Framework group  C1[X(BH6N)]
 Deg. of freedom    18
 Full point group                 C1      NOp   1
 Rotational constants (GHZ):          73.0967844          15.6126875          15.6126861
 Leave Link  202 at Mon Apr 21 17:35:20 2025, MaxMem=   536870912 cpu:               0.2 elap:               0.1
 (Enter /home/szhao/Apps/g16/l601.exe)
 Copying SCF densities to generalized density rwf, IOpCl= 1 IROHF=0.

 **********************************************************************

            Population analysis using the SCF density.

 **********************************************************************

 Alpha  occ. eigenvalues --  -14.81244  -6.97696  -1.04048  -0.61319  -0.61318
 Alpha  occ. eigenvalues --   -0.57447  -0.41296  -0.34304  -0.34304
 Alpha virt. eigenvalues --   -0.01154   0.04344   0.04344   0.04887   0.08366
 Alpha virt. eigenvalues --    0.10994   0.10994   0.14700   0.15277   0.15277
 Alpha virt. eigenvalues --    0.18387   0.21124   0.21124   0.25151   0.31467
 Alpha virt. eigenvalues --    0.37428   0.37428   0.44545   0.49722   0.49722
 Alpha virt. eigenvalues --    0.58375   0.61256   0.61256   0.62184   0.71619
 Alpha virt. eigenvalues --    0.72164   0.72164   0.81712   0.89401   0.89403
 Alpha virt. eigenvalues --    1.18481   1.22827   1.22827   1.23866   1.23868
 Alpha virt. eigenvalues --    1.28238   1.47233   1.50151   1.70640   1.71658
 Alpha virt. eigenvalues --    1.71660   1.75042   1.75043   1.85673   1.85674
 Alpha virt. eigenvalues --    1.87714   2.08491   2.08491   2.15984   2.15984
 Alpha virt. eigenvalues --    2.20566   2.23546   2.43022   2.46043   2.46045
 Alpha virt. eigenvalues --    2.60552   2.60553   2.71483   2.71484   2.79563
 Alpha virt. eigenvalues --    2.79564   2.79837   2.87665   3.04482   3.06652
 Alpha virt. eigenvalues --    3.06653   4.25207   4.75265   4.75267  14.69773
 Alpha virt. eigenvalues --   35.64151
  Beta  occ. eigenvalues --  -14.81244  -6.97696  -1.04048  -0.61319  -0.61318
  Beta  occ. eigenvalues --   -0.57447  -0.41296  -0.34304  -0.34304
  Beta virt. eigenvalues --   -0.01154   0.04344   0.04344   0.04887   0.08366
  Beta virt. eigenvalues --    0.10994   0.10994   0.14700   0.15277   0.15277
  Beta virt. eigenvalues --    0.18387   0.21124   0.21124   0.25151   0.31467
  Beta virt. eigenvalues --    0.37428   0.37428   0.44545   0.49722   0.49722
  Beta virt. eigenvalues --    0.58375   0.61256   0.61256   0.62184   0.71619
  Beta virt. eigenvalues --    0.72164   0.72164   0.81712   0.89401   0.89403
  Beta virt. eigenvalues --    1.18481   1.22827   1.22827   1.23866   1.23868
  Beta virt. eigenvalues --    1.28238   1.47233   1.50151   1.70640   1.71658
  Beta virt. eigenvalues --    1.71660   1.75042   1.75043   1.85673   1.85674
  Beta virt. eigenvalues --    1.87714   2.08491   2.08491   2.15984   2.15984
  Beta virt. eigenvalues --    2.20566   2.23546   2.43022   2.46043   2.46045
  Beta virt. eigenvalues --    2.60552   2.60553   2.71483   2.71484   2.79563
  Beta virt. eigenvalues --    2.79564   2.79837   2.87665   3.04482   3.06652
  Beta virt. eigenvalues --    3.06653   4.25207   4.75265   4.75267  14.69773
  Beta virt. eigenvalues --   35.64151
          Condensed to atoms (all electrons):
               1          2          3          4          5          6
     1  B    3.832865   0.019955  -0.010483   0.448959  -0.010488  -0.010489
     2  N    0.019955   6.666265   0.343638  -0.040077   0.343647   0.343647
     3  H   -0.010483   0.343638   0.414936  -0.004430  -0.023689  -0.023689
     4  H    0.448959  -0.040077  -0.004430   0.697599   0.006046  -0.004430
     5  H   -0.010488   0.343647  -0.023689   0.006046   0.414931  -0.023690
     6  H   -0.010489   0.343647  -0.023689  -0.004430  -0.023690   0.414931
     7  H    0.448955  -0.040074   0.006047  -0.028312  -0.004431  -0.004431
     8  H    0.448960  -0.040077  -0.004430  -0.028307  -0.004430   0.006046
               7          8
     1  B    0.448955   0.448960
     2  N   -0.040074  -0.040077
     3  H    0.006047  -0.004430
     4  H   -0.028312  -0.028307
     5  H   -0.004431  -0.004430
     6  H   -0.004431   0.006046
     7  H    0.697609  -0.028311
     8  H   -0.028311   0.697598
          Atomic-Atomic Spin Densities.
               1          2          3          4          5          6
     1  B    0.000000  -0.000000   0.000000   0.000000   0.000000  -0.000000
     2  N   -0.000000  -0.000000  -0.000000  -0.000000  -0.000000   0.000000
     3  H    0.000000  -0.000000   0.000000   0.000000   0.000000   0.000000
     4  H    0.000000  -0.000000   0.000000   0.000000   0.000000   0.000000
     5  H    0.000000  -0.000000   0.000000   0.000000  -0.000000  -0.000000
     6  H   -0.000000   0.000000   0.000000   0.000000  -0.000000  -0.000000
     7  H    0.000000  -0.000000   0.000000   0.000000   0.000000   0.000000
     8  H   -0.000000  -0.000000  -0.000000   0.000000   0.000000   0.000000
               7          8
     1  B    0.000000  -0.000000
     2  N   -0.000000  -0.000000
     3  H    0.000000  -0.000000
     4  H    0.000000   0.000000
     5  H    0.000000   0.000000
     6  H    0.000000   0.000000
     7  H    0.000000   0.000000
     8  H    0.000000   0.000000
 Mulliken charges and spin densities:
               1          2
     1  B   -0.168234   0.000000
     2  N   -0.596924  -0.000000
     3  H    0.302100   0.000000
     4  H   -0.047049   0.000000
     5  H    0.302104   0.000000
     6  H    0.302104   0.000000
     7  H   -0.047052   0.000000
     8  H   -0.047049   0.000000
 Sum of Mulliken charges =  -0.00000   0.00000
 Mulliken charges and spin densities with hydrogens summed into heavy atoms:
               1          2
     1  B   -0.309384   0.000000
     2  N    0.309384  -0.000000
 Electronic spatial extent (au):  <R**2>=            126.0510
 Charge=             -0.0000 electrons
 Dipole moment (field-independent basis, Debye):
    X=              5.0408    Y=              0.0001    Z=              0.0000  Tot=              5.0408
 Quadrupole moment (field-independent basis, Debye-Ang):
   XX=            -15.3213   YY=            -16.1274   ZZ=            -16.1274
   XY=             -0.0000   XZ=             -0.0000   YZ=              0.0000
 Traceless Quadrupole moment (field-independent basis, Debye-Ang):
   XX=              0.5374   YY=             -0.2687   ZZ=             -0.2687
   XY=             -0.0000   XZ=             -0.0000   YZ=              0.0000
 Octapole moment (field-independent basis, Debye-Ang**2):
  XXX=             12.6981  YYY=             -1.5720  ZZZ=              0.0000  XYY=              6.8465
  XXY=             -0.0003  XXZ=             -0.0000  XZZ=              6.8463  YZZ=              1.5718
  YYZ=             -0.0000  XYZ=             -0.0000
 Hexadecapole moment (field-independent basis, Debye-Ang**3):
 XXXX=           -117.0330 YYYY=            -38.1520 ZZZZ=            -38.1519 XXXY=             -0.0007
 XXXZ=             -0.0000 YYYX=             -1.2821 YYYZ=             -0.0000 ZZZX=              0.0000
 ZZZY=              0.0000 XXYY=            -25.1176 XXZZ=            -25.1181 YYZZ=            -12.7172
 XXYZ=             -0.0000 YYXZ=             -0.0000 ZZXY=              1.2822
 N-N= 3.929398637314D+01 E-N=-2.710318157786D+02  KE= 8.272863497233D+01
                          Isotropic Fermi Contact Couplings
        Atom                 a.u.       MegaHertz       Gauss      10(-4) cm-1
     1  B(11)             -0.00000      -0.00000      -0.00000      -0.00000
     2  N(14)             -0.00000      -0.00000      -0.00000      -0.00000
     3  H(1)              -0.00000      -0.00000      -0.00000      -0.00000
     4  H(1)               0.00000       0.00000       0.00000       0.00000
     5  H(1)               0.00000       0.00000       0.00000       0.00000
     6  H(1)               0.00000       0.00000       0.00000       0.00000
     7  H(1)               0.00000       0.00000       0.00000       0.00000
     8  H(1)               0.00000       0.00000       0.00000       0.00000
 --------------------------------------------------------
       Center         ----  Spin Dipole Couplings  ----
                      3XX-RR        3YY-RR        3ZZ-RR
 --------------------------------------------------------
     1   Atom        0.000000      0.000000      0.000000
     2   Atom        0.000000      0.000000      0.000000
     3   Atom        0.000000      0.000000      0.000000
     4   Atom        0.000000      0.000000      0.000000
     5   Atom        0.000000      0.000000      0.000000
     6   Atom        0.000000      0.000000      0.000000
     7   Atom        0.000000      0.000000      0.000000
     8   Atom        0.000000      0.000000      0.000000
 --------------------------------------------------------
                        XY            XZ            YZ
 --------------------------------------------------------
     1   Atom        0.000000      0.000000      0.000000
     2   Atom        0.000000      0.000000      0.000000
     3   Atom        0.000000      0.000000      0.000000
     4   Atom        0.000000      0.000000      0.000000
     5   Atom        0.000000      0.000000      0.000000
     6   Atom        0.000000      0.000000      0.000000
     7   Atom        0.000000      0.000000      0.000000
     8   Atom        0.000000      0.000000      0.000000
 --------------------------------------------------------


 ---------------------------------------------------------------------------------
              Anisotropic Spin Dipole Couplings in Principal Axis System
 ---------------------------------------------------------------------------------

       Atom             a.u.   MegaHertz   Gauss  10(-4) cm-1        Axes

              Baa     0.0000     0.000     0.000     0.000  1.0000  0.0000  0.0000
     1 B(11)  Bbb     0.0000     0.000     0.000     0.000 -0.0000  1.0000  0.0000
              Bcc     0.0000     0.000     0.000     0.000  0.0000  0.0000  1.0000
 
              Baa     0.0000     0.000     0.000     0.000  1.0000  0.0000  0.0000
     2 N(14)  Bbb     0.0000     0.000     0.000     0.000 -0.0000  1.0000  0.0000
              Bcc     0.0000     0.000     0.000     0.000  0.0000  0.0000  1.0000
 
              Baa     0.0000     0.000     0.000     0.000  1.0000  0.0000  0.0000
     3 H(1)   Bbb     0.0000     0.000     0.000     0.000 -0.0000  1.0000  0.0000
              Bcc     0.0000     0.000     0.000     0.000  0.0000  0.0000  1.0000
 
              Baa     0.0000     0.000     0.000     0.000  1.0000  0.0000  0.0000
     4 H(1)   Bbb     0.0000     0.000     0.000     0.000 -0.0000  1.0000  0.0000
              Bcc     0.0000     0.000     0.000     0.000  0.0000  0.0000  1.0000
 
              Baa     0.0000     0.000     0.000     0.000  1.0000  0.0000  0.0000
     5 H(1)   Bbb     0.0000     0.000     0.000     0.000 -0.0000  1.0000  0.0000
              Bcc     0.0000     0.000     0.000     0.000  0.0000  0.0000  1.0000
 
              Baa     0.0000     0.000     0.000     0.000  1.0000  0.0000  0.0000
     6 H(1)   Bbb     0.0000     0.000     0.000     0.000 -0.0000  1.0000  0.0000
              Bcc     0.0000     0.000     0.000     0.000  0.0000  0.0000  1.0000
 
              Baa     0.0000     0.000     0.000     0.000  1.0000  0.0000  0.0000
     7 H(1)   Bbb     0.0000     0.000     0.000     0.000 -0.0000  1.0000  0.0000
              Bcc     0.0000     0.000     0.000     0.000  0.0000  0.0000  1.0000
 
              Baa     0.0000     0.000     0.000     0.000  1.0000  0.0000  0.0000
     8 H(1)   Bbb     0.0000     0.000     0.000     0.000 -0.0000  1.0000  0.0000
              Bcc     0.0000     0.000     0.000     0.000  0.0000  0.0000  1.0000
 

 ---------------------------------------------------------------------------------

 No NMR shielding tensors so no spin-rotation constants.
 Leave Link  601 at Mon Apr 21 17:35:20 2025, MaxMem=   536870912 cpu:               1.2 elap:               0.2
 (Enter /home/szhao/Apps/g16/l9999.exe)
 1\1\GINC-NODE06\FOpt\UM062X\6-311+G(d,p)\B1H6N1\SZHAO\21-Apr-2025\0\\#
 p opt UM062X/6-311+G** nosymm int=superfine\\Title Card Required\\0,1\
 B,-0.90242901,0.,0.\N,0.90242901,0.,0.\H,1.2530480505,-0.9523582958,-0
 .0000038127\H,-1.1619229246,-0.5872975885,1.0172345882\H,1.2529671532,
 0.4762239818,-0.8247773999\H,1.2529624682,0.4762155198,0.8247843033\H,
 -1.1618984407,1.1746068359,0.0000093038\H,-1.1619252206,-0.5872829386,
 -1.0172422803\\Version=ES64L-G16RevA.03\HF=-83.1858951\S2=0.\S2-1=0.\S
 2A=0.\RMSD=8.230e-09\RMSF=2.201e-05\Dipole=1.9832153,0.0000263,0.00000
 07\Quadrupole=0.3995603,-0.1997621,-0.1997982,-0.0000165,-0.0000012,0.
 0000006\PG=C01 [X(B1H6N1)]\\@


 WE STILL HAVE JUDGEMENT HERE,
 THAT WE TEACH BUT BLOODY INSTRUCTIONS,
 WHICH, BEING TAUGHT,
 RETURN TO PLAGUE THE INVENTOR.
           MACBETH ACT I, SCENE VII
 Job cpu time:       0 days  0 hours  6 minutes  6.2 seconds.
 Elapsed time:       0 days  0 hours  0 minutes 50.1 seconds.
 File lengths (MBytes):  RWF=     22 Int=      0 D2E=      0 Chk=      3 Scr=      2
 Normal termination of Gaussian 16 at Mon Apr 21 17:35:21 2025.
