Title Card Required                                                     
FOpt      UM062X                                                      6-311+G(d,p)        
Number of atoms                            I                4
Info1-9                                    I   N=           9
          14          14           0           0           0         100
           2          18        -502
Full Title                                 C   N=           2
Title Card Required     
Route                                      C   N=           8
#p opt UM062X/6-311+G** nosymm int=superfine SCF=(MaxCycle=2
00,NoVarAcc,noincfock) guess=read   
Charge                                     I                0
Multiplicity                               I                1
Number of electrons                        I               26
Number of alpha electrons                  I               13
Number of beta electrons                   I               13
Number of basis functions                  I               64
Number of independent functions            I               64
Number of point charges in /Mol/           I                0
Number of translation vectors              I                0
Atomic numbers                             I   N=           4
           8          16           1           1
Nuclear charges                            R   N=           4
  8.00000000E+00  1.60000000E+01  1.00000000E+00  1.00000000E+00
Current cartesian coordinates              R   N=          12
 -2.90263161E+00  0.00000000E+00  0.00000000E+00  2.90263161E+00  0.00000000E+00
  0.00000000E+00 -4.72926654E+00  7.29582715E-02 -2.15747852E-02  5.46303089E+00
  4.07168838E-04 -2.34298196E-02
Number of symbols in /Mol/                 I                0
Force Field                                I                0
Atom Types                                 C   N=           4
                                                
Int Atom Types                             I   N=           4
           0           0           0           0
MM charges                                 R   N=           4
  0.00000000E+00  0.00000000E+00  0.00000000E+00  0.00000000E+00
Integer atomic weights                     I   N=           4
          16          32           1           1
Real atomic weights                        R   N=           4
  1.59949146E+01  3.19720718E+01  1.00782504E+00  1.00782504E+00
Atom fragment info                         I   N=           4
           0           0           0           0
Atom residue num                           I   N=           4
           0           0           0           0
Nuclear spins                              I   N=           4
           0           0           1           1
Nuclear ZEff                               R   N=           4
 -5.60000000E+00 -1.36000000E+01 -1.00000000E+00 -1.00000000E+00
Nuclear ZNuc                               R   N=           4
  8.00000000E+00  1.60000000E+01  1.00000000E+00  1.00000000E+00
Nuclear QMom                               R   N=           4
  0.00000000E+00  0.00000000E+00  0.00000000E+00  0.00000000E+00
Nuclear GFac                               R   N=           4
  0.00000000E+00  0.00000000E+00  2.79284600E+00  2.79284600E+00
MicOpt                                     I   N=           4
          -2          -2          -1          -1
Number of residues                         I                0
Number of secondary structures             I                0
Redundant internal dimensions              I   N=           4
          12           8           4           0
Redundant internal coordinate indices      I   N=          48
           1          -1           0           0           1          -2
           0           0           1          -3           0           0
           2          -1           0           0           2          -2
           0           0           2          -3           0           0
           1           3           0           0           2           4
           0           0           2           1           3          -5
           1           2           4          -5           2           1
           3          -7           1           2           4          -7
Redundant internal coordinates             R   N=          12
 -2.90263161E+00  0.00000000E+00  0.00000000E+00  2.90263161E+00  0.00000000E+00
  0.00000000E+00  1.82821868E+00  2.56050651E+00  3.18151279E+00  3.14143363E+00
  3.15340332E+00  3.13244206E+00
ZRed-IntVec                                I   N=          12
          -1          -1          -1          -1          -1          -1
           0           0           0           0           0           0
ZRed-FPVec                                 R   N=          12
  0.00000000E+00  0.00000000E+00  0.00000000E+00  0.00000000E+00  0.00000000E+00
  0.00000000E+00  0.00000000E+00  0.00000000E+00  0.00000000E+00  0.00000000E+00
  0.00000000E+00  0.00000000E+00
ZRed-Constraint1                           R   N=          12
 -2.90263161E+00  0.00000000E+00  0.00000000E+00  2.90263161E+00  0.00000000E+00
  0.00000000E+00  1.83597177E+00  2.59721753E+00  3.14071774E+00  3.14233270E+00
  3.14159263E+00  3.14158686E+00
ZRed-Constraint2                           R   N=          12
 -2.90263161E+00  0.00000000E+00  0.00000000E+00  2.90263161E+00  0.00000000E+00
  0.00000000E+00  0.00000000E+00  0.00000000E+00  0.00000000E+00  0.00000000E+00
  0.00000000E+00  0.00000000E+00
Number of contracted shells                I               27
Number of primitive shells                 I               49
Pure/Cartesian d shells                    I                0
Pure/Cartesian f shells                    I                0
Highest angular momentum                   I                2
Largest degree of contraction              I                6
Shell types                                I   N=          27
           0          -1          -1          -1          -1          -2
           0           0           0           0           0           0
          -1           1           1           1           1           1
          -2           0           0           0           1           0
           0           0           1
Number of primitives per shell             I   N=          27
           6           3           1           1           1           1
           6           3           1           1           1           1
           1           4           2           1           1           1
           1           3           1           1           1           3
           1           1           1
Shell to atom map                          I   N=          27
           1           1           1           1           1           1
           2           2           2           2           2           2
           2           2           2           2           2           2
           2           3           3           3           3           4
           4           4           4
Primitive exponents                        R   N=          49
  8.58850000E+03  1.29723000E+03  2.99296000E+02  8.73771000E+01  2.56789000E+01
  3.74004000E+00  4.21175000E+01  9.62837000E+00  2.85332000E+00  9.05661000E-01
  2.55611000E-01  8.45000000E-02  1.29200000E+00  9.34134000E+04  1.39617000E+04
  3.16991000E+03  9.02456000E+02  2.97158000E+02  1.08702000E+02  1.08702000E+02
  4.31553000E+01  1.81079000E+01  5.56009000E+00  2.13183000E+00  4.20403000E-01
  1.36045000E-01  4.05000000E-02  4.95040000E+02  1.17221000E+02  3.77749000E+01
  1.40584000E+01  5.56574000E+00  2.26297000E+00  8.07994000E-01  2.77460000E-01
  7.71410000E-02  6.50000000E-01  3.38650000E+01  5.09479000E+00  1.15879000E+00
  3.25840000E-01  1.02741000E-01  7.50000000E-01  3.38650000E+01  5.09479000E+00
  1.15879000E+00  3.25840000E-01  1.02741000E-01  7.50000000E-01
Contraction coefficients                   R   N=          49
  1.89515008E-03  1.43859006E-02  7.07320031E-02  2.40001011E-01  5.94797026E-01
  2.80802012E-01  1.13889012E-01  9.20811101E-01 -3.27447036E-03  1.00000000E+00
  1.00000000E+00  1.00000000E+00  1.00000000E+00  7.42999957E-04  5.79299966E-03
  2.99539983E-02  1.19027993E-01  3.68431979E-01  5.77298966E-01  1.43186060E-01
  6.24465262E-01  2.83366119E-01  1.00000000E+00  1.00000000E+00  1.00000000E+00
  1.00000000E+00  1.00000000E+00  8.30900251E-03  6.40240194E-02  2.77614084E-01
  7.45076225E-01  6.13711672E-01  4.43817763E-01  1.00000000E+00  1.00000000E+00
  1.00000000E+00  1.00000000E+00  2.54938145E-02  1.90373109E-01  8.52161486E-01
  1.00000000E+00  1.00000000E+00  1.00000000E+00  2.54938145E-02  1.90373109E-01
  8.52161486E-01  1.00000000E+00  1.00000000E+00  1.00000000E+00
P(S=P) Contraction coefficients            R   N=          49
  0.00000000E+00  0.00000000E+00  0.00000000E+00  0.00000000E+00  0.00000000E+00
  0.00000000E+00  3.65113974E-02  2.37152983E-01  8.19701941E-01  1.00000000E+00
  1.00000000E+00  1.00000000E+00  0.00000000E+00  0.00000000E+00  0.00000000E+00
  0.00000000E+00  0.00000000E+00  0.00000000E+00  0.00000000E+00  0.00000000E+00
  0.00000000E+00  0.00000000E+00  0.00000000E+00  0.00000000E+00  0.00000000E+00
  0.00000000E+00  1.00000000E+00  0.00000000E+00  0.00000000E+00  0.00000000E+00
  0.00000000E+00  0.00000000E+00  0.00000000E+00  0.00000000E+00  0.00000000E+00
  0.00000000E+00  0.00000000E+00  0.00000000E+00  0.00000000E+00  0.00000000E+00
  0.00000000E+00  0.00000000E+00  0.00000000E+00  0.00000000E+00  0.00000000E+00
  0.00000000E+00  0.00000000E+00  0.00000000E+00  0.00000000E+00
Coordinates of each shell                  R   N=          81
 -2.90263161E+00  0.00000000E+00  0.00000000E+00 -2.90263161E+00  0.00000000E+00
  0.00000000E+00 -2.90263161E+00  0.00000000E+00  0.00000000E+00 -2.90263161E+00
  0.00000000E+00  0.00000000E+00 -2.90263161E+00  0.00000000E+00  0.00000000E+00
 -2.90263161E+00  0.00000000E+00  0.00000000E+00  2.90263161E+00  0.00000000E+00
  0.00000000E+00  2.90263161E+00  0.00000000E+00  0.00000000E+00  2.90263161E+00
  0.00000000E+00  0.00000000E+00  2.90263161E+00  0.00000000E+00  0.00000000E+00
  2.90263161E+00  0.00000000E+00  0.00000000E+00  2.90263161E+00  0.00000000E+00
  0.00000000E+00  2.90263161E+00  0.00000000E+00  0.00000000E+00  2.90263161E+00
  0.00000000E+00  0.00000000E+00  2.90263161E+00  0.00000000E+00  0.00000000E+00
  2.90263161E+00  0.00000000E+00  0.00000000E+00  2.90263161E+00  0.00000000E+00
  0.00000000E+00  2.90263161E+00  0.00000000E+00  0.00000000E+00  2.90263161E+00
  0.00000000E+00  0.00000000E+00 -4.72926654E+00  7.29582715E-02 -2.15747852E-02
 -4.72926654E+00  7.29582715E-02 -2.15747852E-02 -4.72926654E+00  7.29582715E-02
 -2.15747852E-02 -4.72926654E+00  7.29582715E-02 -2.15747852E-02  5.46303089E+00
  4.07168838E-04 -2.34298196E-02  5.46303089E+00  4.07168838E-04 -2.34298196E-02
  5.46303089E+00  4.07168838E-04 -2.34298196E-02  5.46303089E+00  4.07168838E-04
 -2.34298196E-02
Num ILSW                                   I              100
ILSW                                       I   N=         100
           1           0           0           0           0           0
           0           0           0           0        4336          -1
           7           0           0           0           0           0
           0           0           0           0           1           0
           1           1           0           0           0           0
           0           0      100000           0          -1           0
           0           0           0           0           0           0
           0           0           0           1           0           0
           0 -2000000000           1           0           0           0
           0           0           4          52           0           0
           0           0          55           0           0           0
           0           0           0           4           0           1
           0           0           0           0           0           0
           0           0           0           0           0           0
           0           0           0           0           0           0
           0           0           0           0           0           0
           0           0           0           0
Num RLSW                                   I               52
RLSW                                       R   N=          52
  1.00000000E+00  1.00000000E+00  1.00000000E+00  1.00000000E+00  5.40000000E-01
  0.00000000E+00  0.00000000E+00  1.00000000E+00  0.00000000E+00  0.00000000E+00
  0.00000000E+00  0.00000000E+00  1.00000000E+00  0.00000000E+00  0.00000000E+00
  0.00000000E+00  0.00000000E+00  1.00000000E+00  0.00000000E+00  0.00000000E+00
  0.00000000E+00  0.00000000E+00  1.00000000E+00  0.00000000E+00  0.00000000E+00
  0.00000000E+00  0.00000000E+00  1.00000000E+00  0.00000000E+00  0.00000000E+00
  0.00000000E+00  0.00000000E+00  1.00000000E+00  0.00000000E+00  0.00000000E+00
  0.00000000E+00  0.00000000E+00  0.00000000E+00  1.00000000E+00  1.00000000E+00
 -8.88086685E-01  1.00000000E+00  0.00000000E+00  0.00000000E+00  0.00000000E+00
  0.00000000E+00  0.00000000E+00  0.00000000E+00  0.00000000E+00  0.00000000E+00
  0.00000000E+00  0.00000000E+00
MxBond                                     I                2
NBond                                      I   N=           4
           2           2           1           1
IBond                                      I   N=           8
           2           3           1           4           1           0
           2           0
RBond                                      R   N=           8
  1.00000000E-01  1.00000000E+00  1.00000000E-01  1.00000000E+00  1.00000000E+00
  0.00000000E+00  1.00000000E+00  0.00000000E+00
Virial Ratio                               R      2.001316063194206E+00
SCF Energy                                 R     -4.743388469208753E+02
Total Energy                               R     -4.743388469208753E+02
S**2                                       R      1.243449787580175E-14
S**2 after annihilation                    R      7.887024366936916E-13
RMS Force                                  R      7.079739757879834E-04
RMS Density                                R      9.303216853425551E-10
Job Status                                 I                3
Nuclear derivative order                   I                1
External E-field                           R   N=          35
  0.00000000E+00  0.00000000E+00  0.00000000E+00  0.00000000E+00  0.00000000E+00
  0.00000000E+00  0.00000000E+00  0.00000000E+00  0.00000000E+00  0.00000000E+00
  0.00000000E+00  0.00000000E+00  0.00000000E+00  0.00000000E+00  0.00000000E+00
  0.00000000E+00  0.00000000E+00  0.00000000E+00  0.00000000E+00  0.00000000E+00
  0.00000000E+00  0.00000000E+00  0.00000000E+00  0.00000000E+00  0.00000000E+00
  0.00000000E+00  0.00000000E+00  0.00000000E+00  0.00000000E+00  0.00000000E+00
  0.00000000E+00  0.00000000E+00  0.00000000E+00  0.00000000E+00  0.00000000E+00
IOpCl                                      I                1
IROHF                                      I                0
Alpha Orbital Energies                     R   N=          64
 -8.99628229E+01 -1.96412151E+01 -8.32521453E+00 -6.24852472E+00 -6.24370706E+00
 -6.23619159E+00 -1.06242695E+00 -8.27471930E-01 -5.16155118E-01 -4.75052860E-01
 -3.97877613E-01 -3.56756549E-01 -3.00155449E-01 -2.08501595E-01  1.68759810E-02
  5.09127393E-02  5.59731708E-02  6.03835836E-02  7.71913938E-02  1.30454263E-01
  2.00730304E-01  2.08242746E-01  2.40354140E-01  3.08944301E-01  3.37462903E-01
  3.50279179E-01  3.94617843E-01  4.34668717E-01  5.68258059E-01  6.32361063E-01
  7.08136432E-01  7.34030133E-01  7.86837035E-01  7.98760515E-01  9.81490061E-01
  1.08082513E+00  1.08729279E+00  1.10100854E+00  1.40607978E+00  1.41508085E+00
  1.45101449E+00  1.46388205E+00  1.46941364E+00  1.67157267E+00  1.67533484E+00
  1.69594045E+00  2.09374074E+00  2.09769556E+00  2.49537182E+00  2.53427821E+00
  2.89413745E+00  2.91280432E+00  3.18358133E+00  3.21299536E+00  3.87347295E+00
  5.03013909E+00  5.07726426E+00  5.59409973E+00  7.84720980E+00  1.74208109E+01
  1.74209869E+01  1.74935910E+01  4.99141089E+01  1.89111201E+02
Beta Orbital Energies                      R   N=          64
 -8.99628229E+01 -1.96412150E+01 -8.32521454E+00 -6.24852457E+00 -6.24370707E+00
 -6.23619182E+00 -1.06242673E+00 -8.27472013E-01 -5.16155028E-01 -4.75052864E-01
 -3.97873433E-01 -3.56757879E-01 -3.00156532E-01 -2.08502697E-01  1.68759318E-02
  5.09126465E-02  5.59731910E-02  6.03835682E-02  7.71914034E-02  1.30454349E-01
  2.00730281E-01  2.08243337E-01  2.40354327E-01  3.08944322E-01  3.37462936E-01
  3.50279149E-01  3.94617844E-01  4.34668693E-01  5.68258112E-01  6.32361005E-01
  7.08136539E-01  7.34029891E-01  7.86836732E-01  7.98760636E-01  9.81489974E-01
  1.08082513E+00  1.08729215E+00  1.10100950E+00  1.40607967E+00  1.41508095E+00
  1.45101454E+00  1.46388195E+00  1.46941373E+00  1.67157298E+00  1.67533424E+00
  1.69594042E+00  2.09374074E+00  2.09769555E+00  2.49537180E+00  2.53427819E+00
  2.89413886E+00  2.91280329E+00  3.18358103E+00  3.21299589E+00  3.87347305E+00
  5.03013884E+00  5.07726523E+00  5.59409985E+00  7.84720979E+00  1.74208112E+01
  1.74209865E+01  1.74935910E+01  4.99141088E+01  1.89111201E+02
Alpha MO coefficients                      R   N=        4096
 -6.17371376E-07  3.29751363E-06  3.52924007E-06  4.74495696E-08  8.50117117E-09
 -1.66535841E-05 -8.47156550E-06 -2.31983877E-07 -1.49055516E-08  2.75012571E-05
  1.27564856E-05  1.06657706E-07  1.77539644E-07 -3.34211765E-04  1.44449906E-04
 -6.00282624E-06  1.31130867E-06  1.28281333E-06 -9.75528734E-08 -1.63160233E-08
 -2.11526555E-06  3.01915842E-07  4.10786110E-01  6.54411706E-01  1.53514954E-02
 -4.35073198E-03  1.62625609E-03 -9.69786873E-04  1.74671677E-04 -9.00719012E-05
  4.11781053E-07 -5.79936820E-08  8.35140487E-05 -7.12502667E-08 -2.36249525E-07
 -2.62557302E-05 -3.13434893E-08  1.21002999E-07 -8.27430308E-06  1.63158590E-07
  1.22033750E-07  1.75620788E-04 -3.90007147E-07 -1.58552607E-06 -1.29896440E-04
  8.65011603E-07  1.56263983E-06 -3.89631018E-05 -1.31540596E-06 -1.99030902E-06
  7.80356477E-05 -1.15692388E-07 -1.92327237E-06  3.76016929E-06  2.87840286E-04
  8.97746646E-06 -6.78945020E-07  2.30562367E-07  3.74668858E-05 -2.47820153E-04
  3.39460939E-04  1.68287812E-04 -5.33349626E-08 -1.52309743E-06  5.52858328E-01
  4.69669584E-01 -1.23053101E-03  5.05310633E-05 -1.23293045E-05  8.11689356E-03
  1.94713131E-04 -5.14265444E-06  6.57433912E-07 -3.18432876E-03 -5.89391836E-04
  1.43619946E-05 -4.55216252E-06  1.31582176E-03  1.53099638E-03 -2.93916829E-05
  1.02281527E-05 -1.06945697E-04  4.09195463E-06  9.02695661E-06  1.36545361E-04
 -1.06827610E-05 -1.76486380E-07  2.51305482E-06 -2.08494616E-05  4.68646168E-05
 -1.08285065E-04  4.27802779E-04 -4.11574983E-04  4.44081190E-04  3.23610855E-06
 -1.83024604E-06 -1.13747875E-07  3.54983355E-08 -5.56087366E-08  2.53908085E-07
 -1.03936063E-07 -1.71695519E-08 -1.31647029E-05  4.76078298E-07 -1.23835457E-07
  4.61657093E-05 -1.33057319E-06  7.32409738E-07  9.36631295E-04  2.70999691E-06
 -5.37986328E-06  1.06508725E-05 -5.56056629E-07  8.42999188E-07 -2.28980816E-05
 -5.32202773E-07  7.35242255E-05 -3.18155370E-04  1.16059038E-03 -4.72382403E-04
  1.65794850E-05 -4.91269327E-06 -2.04960210E-05  8.98225609E-05 -1.02316158E-03
  2.94522720E-05 -3.30735087E-07 -7.80594244E-07  6.01126620E-06  3.14954256E-05
  3.33017504E-05  3.67086551E-07  2.24067060E-07 -2.39909657E-04 -1.12673026E-04
 -2.38604763E-06  1.55746218E-08  4.43642631E-04  2.41364147E-04  4.79866086E-07
  2.67140059E-06 -4.59563072E-03  1.89113789E-03 -8.02116530E-05  1.77695739E-05
  8.21584169E-06 -9.33947777E-07  1.03585617E-06 -1.94857353E-05  3.21588691E-06
 -1.19756320E-01 -3.20472652E-01  5.15983915E-01  5.98938486E-01  4.31856893E-02
 -1.58281414E-02  2.91151055E-03 -1.32542539E-03  6.02174137E-06 -1.14595427E-06
  2.09969496E-03 -3.10638738E-06 -1.63889058E-06  4.75567458E-03 -7.64607376E-06
 -3.33630319E-06  4.48273910E-04  6.70921427E-07  2.76750306E-06  1.89195465E-03
 -4.58442011E-06 -1.88848727E-05 -1.56827618E-03  1.09473855E-05  2.10195251E-05
 -1.66995205E-05 -1.13157884E-05 -2.12446135E-04  1.15501788E-03 -2.84525229E-06
 -2.20154578E-05  7.71718959E-05  3.83137496E-03  1.01303338E-04 -8.46246188E-06
  2.83592109E-06  2.82679114E-04 -2.49733222E-03  4.40607066E-03  1.63237407E-03
 -7.41498132E-07 -1.45084962E-05  1.67324188E-08  1.16561973E-07  1.62066651E-07
  1.34556942E-06 -7.42637203E-06 -1.79258346E-06 -1.48965807E-06 -9.49898724E-06
  5.22641075E-05  9.52495064E-06  1.46301286E-06  2.57094493E-05 -1.40524685E-04
  1.40665969E-05 -1.93849038E-05 -1.97352645E-05  1.11085676E-04 -3.82544098E-07
 -6.11256954E-06 -2.40002244E-07  7.38657289E-07  1.06076195E-06  5.30438333E-06
  1.45515795E-05 -2.73045990E-05 -2.11462758E-05 -1.54790966E-07 -2.85443664E-06
  1.67943977E-06 -1.62243073E-05  4.19476144E-04 -2.29599905E-03  2.59943157E-03
 -6.80660791E-02  3.72652620E-01  4.86512730E-03 -1.27388038E-01  6.97432423E-01
  3.76700940E-04 -9.86333705E-03  5.40012552E-02 -5.44857281E-05  1.34817580E-03
 -7.37882173E-03  2.13890580E-05 -7.87494803E-04  4.30956443E-03 -2.21053469E-06
  5.80534307E-04 -6.56607585E-07  2.21994970E-06 -1.05721276E-04 -1.14570442E-07
 -2.31210022E-06 -2.85110555E-05 -2.91069139E-06 -4.53066369E-06  2.53920707E-05
 -1.32819116E-06  2.70254597E-06  6.96904003E-06 -2.43538666E-06 -1.32202231E-05
  7.21505284E-05 -2.93261175E-07  2.22956980E-06 -1.63864624E-05 -1.04861762E-07
 -7.41596832E-08 -5.01542762E-05  3.90610577E-05  4.80219979E-07  9.08730441E-08
  1.57078905E-04  1.89287395E-05  4.89540689E-06 -2.40700040E-06 -7.74671755E-04
  1.73997491E-03 -3.63862358E-05  1.39570073E-05 -1.82643127E-05  3.77281826E-07
 -3.71304898E-07  3.33721451E-05 -1.13014896E-06  8.23721616E-04  2.22921980E-03
 -3.94746288E-03 -3.98897917E-03  6.89489213E-04  7.72940597E-04  3.73618832E-04
 -2.23443281E-03  3.38340266E-06  1.13071044E-05  3.79397846E-01 -8.19357564E-05
 -2.66152789E-03  7.08869507E-01 -1.53379736E-04 -4.97265727E-03  5.41138975E-02
 -1.07881354E-05 -3.79764555E-04 -7.43054894E-03 -4.15998500E-07  5.02738760E-05
  6.41391617E-03  3.80893859E-06 -3.98210291E-05 -3.45638749E-04 -6.92633563E-06
 -1.25857789E-05  6.66928899E-04 -1.61919898E-06  2.14009283E-05 -1.37669114E-04
  1.73975518E-03 -3.38785935E-05 -4.52670405E-06  1.00886111E-06  5.39781099E-04
  2.65293001E-04 -2.59063205E-03  6.24896294E-04 -1.84303292E-07 -6.63486663E-06
 -8.92955744E-09 -4.45125776E-08 -4.81143883E-07 -9.48107490E-06 -1.73829386E-06
  1.09586198E-06  2.49680852E-06  4.48023338E-05  8.22362808E-06 -9.01093215E-06
 -4.54629366E-07 -1.34850484E-04 -2.46171227E-05 -3.50341134E-05  4.14330698E-05
  1.02656309E-04  1.93509062E-05  6.66422572E-07 -1.21770355E-06  3.01775146E-08
 -6.89316402E-07 -6.45736409E-06 -1.22110352E-07 -3.63199579E-07  8.91097588E-07
 -1.46754993E-07  1.77590543E-06  7.74219009E-07 -7.24492637E-07 -8.66133804E-06
 -2.11735458E-03 -3.86627753E-04  5.60119933E-04  3.74057784E-01  6.83187170E-02
  1.04440148E-03  6.97639294E-01  1.27418352E-01  7.75126420E-05  5.11460680E-02
  9.34157001E-03 -1.35085086E-05 -6.87489030E-03 -1.25522623E-03  3.43967652E-05
  3.97935714E-03  7.26363159E-04  2.43276990E-07  8.74954861E-05 -4.01129475E-07
  1.00511009E-06  4.77426607E-04  2.27093691E-07  3.51122850E-06  5.73489721E-05
  4.34680446E-06  2.36328690E-05  4.41952650E-06  7.08756679E-08  9.45462811E-07
 -1.76496888E-05  5.55677982E-09  8.92171206E-05  1.62401840E-05 -1.18303618E-01
 -1.94967929E-01 -4.60825603E-02  1.90499298E-03 -5.53988112E-04  5.70173672E-01
 -7.46648343E-02  3.04658813E-03 -8.78933100E-04  4.21269449E-01 -1.90462754E-02
  1.05271870E-03 -3.06095712E-04  2.06116237E-03 -2.29394760E-02  4.41765856E-04
 -1.49640792E-04 -1.44959378E-03  9.63047348E-05 -1.55939856E-03  1.06454267E-02
 -8.24995062E-04  1.89165432E-04  5.30941733E-04 -1.06070249E-03 -2.19860592E-03
  4.22814142E-03 -3.76420069E-03  4.59801455E-03 -5.77310455E-03 -1.82885470E-05
  4.16393202E-06  3.59269703E-04  1.86533605E-06 -1.11493071E-05  6.23973889E-04
  4.77197402E-06 -2.17974359E-05 -2.73458659E-04 -1.32305380E-05  3.23008652E-05
 -3.12404427E-03  1.39170101E-05  6.37518217E-05 -1.55058835E-02 -7.40367669E-05
  1.32446860E-04 -7.61042896E-04 -4.07688829E-06  9.22626270E-05  8.30956699E-04
  1.96495243E-06  1.10861923E-01  9.68907463E-02 -1.77897015E-02  2.64429447E-02
 -1.04739328E-03  3.08148541E-04  2.18239123E-04 -3.67103747E-04  1.57406684E-02
 -3.99204715E-04  2.12079263E-06  7.60910798E-06  7.26693344E-04  1.15693140E-03
  3.74023877E-03 -5.67686910E-05  5.52252437E-05 -2.66243371E-03  6.02962848E-03
 -8.32512544E-05  8.38322060E-05 -5.67542165E-03  1.86539852E-03 -3.60554676E-05
  5.16575066E-05  1.76777757E-02 -4.06670735E-03  2.41807527E-04 -3.06034584E-05
 -9.25663058E-05 -1.86295265E-06  6.33493982E-05 -1.72081107E-04  1.94900444E-05
  3.32919769E-02  9.45974533E-02 -1.98477263E-01 -3.67507240E-01  6.64930685E-01
  4.12667622E-01 -1.33342070E-02  7.02435714E-03 -3.02400823E-05 -1.04053792E-05
 -1.75838933E-02  9.47468948E-07  1.39691763E-04 -3.50358602E-02  2.61836059E-06
  2.76625558E-04  4.77290364E-02 -6.13786767E-06 -3.74793721E-04  6.94712739E-02
 -6.27144525E-06 -5.07477843E-04  1.37303899E-02 -4.91768245E-06 -1.19004392E-04
 -1.39479663E-03 -2.47048712E-04 -3.96824483E-03  2.34527866E-02 -2.32508437E-05
 -2.90420456E-03 -3.19027622E-03 -1.19326339E-02 -6.41150670E-04  3.88678353E-05
 -7.52086075E-06  1.00816940E-01  1.35224185E-01 -2.16040283E-03 -2.29859682E-02
 -3.29112994E-06  2.08019305E-04 -3.32895053E-02 -5.56809375E-02  2.23733815E-01
 -8.18014443E-03  2.50802586E-03  1.67942195E-01  3.21603384E-01 -1.17746313E-02
  3.61146788E-03  2.45916523E-01  2.30514802E-01 -8.00476382E-03  2.48458360E-03
  6.50628032E-02  2.69964000E-03 -3.40920982E-04  8.37911082E-05  9.12393844E-03
 -3.66218561E-04 -3.81737574E-04 -1.36816712E-02  1.13654515E-03  4.19772214E-03
  1.19865536E-02 -2.57170402E-02 -4.72197875E-02  8.63659343E-02  1.00162511E-01
  1.06782730E-02  7.72798568E-03 -1.20461133E-04  5.06929176E-06  3.49968125E-02
  4.98500433E-05 -2.85767170E-04  6.81098043E-02  9.40559358E-05 -5.56567408E-04
 -9.74828931E-02 -1.21497373E-04  7.98740178E-04 -1.74836404E-01 -3.22304886E-04
  1.43129124E-03 -6.02256148E-02 -4.52291764E-05  3.43133609E-04  9.89816997E-03
  3.10466168E-04 -5.07124305E-04 -1.44670997E-02  2.71853964E-05 -1.49406580E-01
 -2.18683544E-01 -9.79567058E-02 -2.46093758E-02  1.01596059E-03 -2.84107537E-04
 -6.52325328E-02 -1.15998852E-01 -3.92219048E-02  1.10226967E-02 -1.82582694E-06
 -1.02970129E-04 -1.98816217E-02 -3.34030902E-02  1.11041284E-01 -5.91583117E-03
  1.28164748E-03  1.03490848E-01  1.59769900E-01 -8.57317371E-03  1.87281277E-03
  1.32962246E-01  1.06877208E-01 -6.23860389E-03  1.20686658E-03  1.82016048E-02
  7.09497142E-02 -2.17276286E-03  6.41642231E-04  5.33467955E-03 -1.91202703E-04
 -2.93701682E-04 -7.62599712E-03  6.28744447E-04 -1.23452421E-02 -3.52613299E-02
  7.57047176E-02  1.39101757E-01 -2.59345245E-01 -2.88405455E-01 -3.34588495E-02
 -1.72875142E-02  1.03042339E-04  1.11069651E-04 -7.36868823E-02  3.38902265E-05
  6.96789825E-04 -1.43877138E-01  6.13778621E-05  1.36050387E-03  2.12440532E-01
 -7.02219194E-05 -1.98354606E-03  3.54591098E-01 -2.77318733E-04 -3.41821886E-03
  1.25220187E-01  7.38055474E-05 -1.00040040E-03 -3.11931458E-02 -7.74820152E-04
  1.98214064E-03  4.35502314E-02  3.76205305E-05 -7.41989039E-02 -1.21081586E-01
  1.74174629E-02 -1.16978011E-02  2.75799154E-04 -1.32758129E-04  1.43783154E-01
  2.74960131E-01  1.16062063E-01 -2.45767067E-02 -1.24537141E-05  2.29149559E-04
  1.98014139E-05  2.80507714E-05  1.10894107E-02  2.93334341E-01  5.39850840E-02
  1.67481644E-06  1.63120989E-02  4.30003260E-01  7.91391203E-02 -9.42984253E-04
  1.44331075E-02  3.94045949E-01  7.25125240E-02 -2.45453405E-03  9.60823993E-03
  9.37445469E-02  1.73282217E-02 -6.90610521E-05 -2.43657616E-03 -5.36290711E-05
 -1.08072802E-03 -1.31855362E-02 -1.45484649E-04 -4.16377808E-04  9.00860898E-04
  1.63440752E-03 -3.09427782E-03 -2.92034202E-03 -6.32930071E-04 -1.10309525E-03
 -4.69540888E-03 -8.63918395E-04 -5.20140221E-04 -1.37845322E-02 -2.51202430E-03
 -1.04478606E-03 -2.64248164E-02 -4.81508384E-03  1.79990518E-03  3.78156806E-02
  6.88823069E-03  1.51943911E-03  8.25889379E-02  1.50642594E-02  6.40001858E-03
  3.76217371E-02  6.83263177E-03 -4.42400798E-04 -8.49007039E-06  2.20007985E-05
  6.08487936E-04  8.85559084E-06 -2.21465950E-05 -5.14207813E-04  6.80031683E-03
  1.32801684E-03  3.47074269E-02  6.38888847E-03  1.19923513E-03  3.00816068E-03
 -2.07589370E-03 -2.43660700E-04  2.59273560E-03  4.75463207E-04 -5.29099103E-05
 -9.01550044E-05 -1.47749530E-03 -4.58376617E-02 -8.45433548E-03  2.82365537E-04
 -2.12553575E-03 -6.77365064E-02 -1.24930729E-02  5.58717954E-04 -2.71950921E-03
 -6.00872862E-02 -1.10986328E-02 -4.60292954E-03  3.77847377E-03 -2.47329991E-02
 -4.48131278E-03  1.14817636E-05  4.77279140E-04  8.28120991E-06  1.71733629E-04
  2.58163264E-03  1.60430740E-05  4.56383955E-05 -9.63444365E-05 -1.90215620E-04
  3.97589687E-04  5.43275526E-04 -1.53065103E-05 -4.75170375E-04 -5.39199609E-02
 -9.85802829E-03 -1.02369944E-04 -1.00586679E-01 -1.83710252E-02 -1.96141733E-04
 -1.93803456E-01 -3.53967946E-02  2.81720954E-04  2.85173108E-01  5.20871767E-02
  6.01992174E-04  5.88061009E-01  1.07397465E-01  2.60407099E-03  3.26030056E-01
  5.95306546E-02  3.56456322E-05  3.63144914E-03 -8.90282234E-05 -4.98572611E-05
  1.98451516E-02 -1.67551092E-04 -1.26562678E-03  6.67695267E-03 -2.96373467E-04
 -5.68544309E-03 -1.05034141E-03 -1.43701978E-04 -3.07231749E-04 -1.61145073E-03
  5.81022976E-05  2.18667804E-02  3.99310192E-03 -1.64535190E-06 -6.11119195E-06
  4.21273135E-03  4.03187114E-02 -2.19935747E-01  7.62603733E-05  6.35359771E-03