Title Card Required                                                     
FOpt      UM062X                                                      6-311+G(d,p)        
Number of atoms                            I                6
Info1-9                                    I   N=           9
          15          15           0           0           0         110
           2          18        -502
Full Title                                 C   N=           2
Title Card Required     
Route                                      C   N=           5
#p opt UM062X/6-311+G** nosymm int=superfine SCF=NoVarAcc   
Charge                                     I                1
Multiplicity                               I                2
Number of electrons                        I               15
Number of alpha electrons                  I                8
Number of beta electrons                   I                7
Number of basis functions                  I               68
Number of independent functions            I               68
Number of point charges in /Mol/           I                0
Number of translation vectors              I                0
Atomic numbers                             I   N=           6
           6           6           1           1           1           1
Nuclear charges                            R   N=           6
  6.00000000E+00  6.00000000E+00  1.00000000E+00  1.00000000E+00  1.00000000E+00
  1.00000000E+00
Current cartesian coordinates              R   N=          18
 -2.79873541E+00  0.00000000E+00  0.00000000E+00  2.79873541E+00  0.00000000E+00
  0.00000000E+00 -3.51474898E+00 -1.92323648E+00 -3.50902982E-07 -3.51471627E+00
  1.92325031E+00 -3.50990687E-07  3.51475077E+00  1.92323554E+00  3.68431559E-07
  3.51471807E+00 -1.92324937E+00  3.68357409E-07
Number of symbols in /Mol/                 I                0
Force Field                                I                0
Atom Types                                 C   N=           6
                                                            
            
Int Atom Types                             I   N=           6
           0           0           0           0           0           0
MM charges                                 R   N=           6
  0.00000000E+00  0.00000000E+00  0.00000000E+00  0.00000000E+00  0.00000000E+00
  0.00000000E+00
Integer atomic weights                     I   N=           6
          12          12           1           1           1           1
Real atomic weights                        R   N=           6
  1.20000000E+01  1.20000000E+01  1.00782504E+00  1.00782504E+00  1.00782504E+00
  1.00782504E+00
Atom fragment info                         I   N=           6
           0           0           0           0           0           0
Atom residue num                           I   N=           6
           0           0           0           0           0           0
Nuclear spins                              I   N=           6
           0           0           1           1           1           1
Nuclear ZEff                               R   N=           6
 -3.60000000E+00 -3.60000000E+00 -1.00000000E+00 -1.00000000E+00 -1.00000000E+00
 -1.00000000E+00
Nuclear ZNuc                               R   N=           6
  6.00000000E+00  6.00000000E+00  1.00000000E+00  1.00000000E+00  1.00000000E+00
  1.00000000E+00
Nuclear QMom                               R   N=           6
  0.00000000E+00  0.00000000E+00  0.00000000E+00  0.00000000E+00  0.00000000E+00
  0.00000000E+00
Nuclear GFac                               R   N=           6
  0.00000000E+00  0.00000000E+00  2.79284600E+00  2.79284600E+00  2.79284600E+00
  2.79284600E+00
MicOpt                                     I   N=           6
          -2          -2          -1          -1          -1          -1
Number of residues                         I                0
Number of secondary structures             I                0
Redundant internal dimensions              I   N=           4
          20          10           6           4
Redundant internal coordinate indices      I   N=          80
           1          -1           0           0           1          -2
           0           0           1          -3           0           0
           2          -1           0           0           2          -2
           0           0           2          -3           0           0
           1           3           0           0           1           4
           0           0           2           5           0           0
           2           6           0           0           2           1
           3           0           2           1           4           0
           3           1           4           0           1           2
           5           0           1           2           6           0
           5           2           6           0           3           1
           2           5           3           1           2           6
           4           1           2           5           4           1
           2           6
Redundant internal coordinates             R   N=          20
 -2.79873541E+00  0.00000000E+00  0.00000000E+00  2.79873541E+00  0.00000000E+00
  0.00000000E+00  2.05219735E+00  2.05219890E+00  2.05219710E+00  2.05219865E+00
  1.92719441E+00  1.92717712E+00  2.42881378E+00  1.92719539E+00  1.92717810E+00
  2.42881182E+00 -3.14159264E+00 -3.74312898E-07  3.74312898E-07  3.14159264E+00
ZRed-IntVec                                I   N=          20
          -1          -1          -1          -1          -1          -1
           0           0           0           0           0           0
           0           0           0           0           0           0
           0           0
ZRed-FPVec                                 R   N=          20
  0.00000000E+00  0.00000000E+00  0.00000000E+00  0.00000000E+00  0.00000000E+00
  0.00000000E+00  0.00000000E+00  0.00000000E+00  0.00000000E+00  0.00000000E+00
  0.00000000E+00  0.00000000E+00  0.00000000E+00  0.00000000E+00  0.00000000E+00
  0.00000000E+00  0.00000000E+00  0.00000000E+00  0.00000000E+00  0.00000000E+00
ZRed-Constraint1                           R   N=          20
 -2.79873541E+00  0.00000000E+00  0.00000000E+00  2.79873541E+00  0.00000000E+00
  0.00000000E+00  2.05067934E+00  2.05048469E+00  2.05067934E+00  2.05048469E+00
  1.98162443E+00  1.98155420E+00  2.32000667E+00  1.98162443E+00  1.98155420E+00
  2.32000667E+00  3.14159265E+00  0.00000000E+00  0.00000000E+00  3.14159265E+00
ZRed-Constraint2                           R   N=          20
 -2.79873541E+00  0.00000000E+00  0.00000000E+00  2.79873541E+00  0.00000000E+00
  0.00000000E+00  0.00000000E+00  0.00000000E+00  0.00000000E+00  0.00000000E+00
  0.00000000E+00  0.00000000E+00  0.00000000E+00  0.00000000E+00  0.00000000E+00
  0.00000000E+00  0.00000000E+00  0.00000000E+00  0.00000000E+00  0.00000000E+00
Number of contracted shells                I               28
Number of primitive shells                 I               50
Pure/Cartesian d shells                    I                0
Pure/Cartesian f shells                    I                0
Highest angular momentum                   I                2
Largest degree of contraction              I                6
Shell types                                I   N=          28
           0          -1          -1          -1          -1          -2
           0          -1          -1          -1          -1          -2
           0           0           0           1           0           0
           0           1           0           0           0           1
           0           0           0           1
Number of primitives per shell             I   N=          28
           6           3           1           1           1           1
           6           3           1           1           1           1
           3           1           1           1           3           1
           1           1           3           1           1           1
           3           1           1           1
Shell to atom map                          I   N=          28
           1           1           1           1           1           1
           2           2           2           2           2           2
           3           3           3           3           4           4
           4           4           5           5           5           5
           6           6           6           6
Primitive exponents                        R   N=          50
  4.56324000E+03  6.82024000E+02  1.54973000E+02  4.44553000E+01  1.30290000E+01
  1.82773000E+00  2.09642000E+01  4.80331000E+00  1.45933000E+00  4.83456000E-01
  1.45585000E-01  4.38000000E-02  6.26000000E-01  4.56324000E+03  6.82024000E+02
  1.54973000E+02  4.44553000E+01  1.30290000E+01  1.82773000E+00  2.09642000E+01
  4.80331000E+00  1.45933000E+00  4.83456000E-01  1.45585000E-01  4.38000000E-02
  6.26000000E-01  3.38650000E+01  5.09479000E+00  1.15879000E+00  3.25840000E-01
  1.02741000E-01  7.50000000E-01  3.38650000E+01  5.09479000E+00  1.15879000E+00
  3.25840000E-01  1.02741000E-01  7.50000000E-01  3.38650000E+01  5.09479000E+00
  1.15879000E+00  3.25840000E-01  1.02741000E-01  7.50000000E-01  3.38650000E+01
  5.09479000E+00  1.15879000E+00  3.25840000E-01  1.02741000E-01  7.50000000E-01
Contraction coefficients                   R   N=          50
  1.96665025E-03  1.52306019E-02  7.61269097E-02  2.60801033E-01  6.16462078E-01
  2.21006028E-01  1.14660081E-01  9.19999648E-01 -3.03068213E-03  1.00000000E+00
  1.00000000E+00  1.00000000E+00  1.00000000E+00  1.96665025E-03  1.52306019E-02
  7.61269097E-02  2.60801033E-01  6.16462078E-01  2.21006028E-01  1.14660081E-01
  9.19999648E-01 -3.03068213E-03  1.00000000E+00  1.00000000E+00  1.00000000E+00
  1.00000000E+00  2.54938145E-02  1.90373109E-01  8.52161486E-01  1.00000000E+00
  1.00000000E+00  1.00000000E+00  2.54938145E-02  1.90373109E-01  8.52161486E-01
  1.00000000E+00  1.00000000E+00  1.00000000E+00  2.54938145E-02  1.90373109E-01
  8.52161486E-01  1.00000000E+00  1.00000000E+00  1.00000000E+00  2.54938145E-02
  1.90373109E-01  8.52161486E-01  1.00000000E+00  1.00000000E+00  1.00000000E+00
P(S=P) Contraction coefficients            R   N=          50
  0.00000000E+00  0.00000000E+00  0.00000000E+00  0.00000000E+00  0.00000000E+00
  0.00000000E+00  4.02486927E-02  2.37593957E-01  8.15853851E-01  1.00000000E+00
  1.00000000E+00  1.00000000E+00  0.00000000E+00  0.00000000E+00  0.00000000E+00
  0.00000000E+00  0.00000000E+00  0.00000000E+00  0.00000000E+00  4.02486927E-02
  2.37593957E-01  8.15853851E-01  1.00000000E+00  1.00000000E+00  1.00000000E+00
  0.00000000E+00  0.00000000E+00  0.00000000E+00  0.00000000E+00  0.00000000E+00
  0.00000000E+00  0.00000000E+00  0.00000000E+00  0.00000000E+00  0.00000000E+00
  0.00000000E+00  0.00000000E+00  0.00000000E+00  0.00000000E+00  0.00000000E+00
  0.00000000E+00  0.00000000E+00  0.00000000E+00  0.00000000E+00  0.00000000E+00
  0.00000000E+00  0.00000000E+00  0.00000000E+00  0.00000000E+00  0.00000000E+00
Coordinates of each shell                  R   N=          84
 -2.79873541E+00  0.00000000E+00  0.00000000E+00 -2.79873541E+00  0.00000000E+00
  0.00000000E+00 -2.79873541E+00  0.00000000E+00  0.00000000E+00 -2.79873541E+00
  0.00000000E+00  0.00000000E+00 -2.79873541E+00  0.00000000E+00  0.00000000E+00
 -2.79873541E+00  0.00000000E+00  0.00000000E+00  2.79873541E+00  0.00000000E+00
  0.00000000E+00  2.79873541E+00  0.00000000E+00  0.00000000E+00  2.79873541E+00
  0.00000000E+00  0.00000000E+00  2.79873541E+00  0.00000000E+00  0.00000000E+00
  2.79873541E+00  0.00000000E+00  0.00000000E+00  2.79873541E+00  0.00000000E+00
  0.00000000E+00 -3.51474898E+00 -1.92323648E+00 -3.50902982E-07 -3.51474898E+00
 -1.92323648E+00 -3.50902982E-07 -3.51474898E+00 -1.92323648E+00 -3.50902982E-07
 -3.51474898E+00 -1.92323648E+00 -3.50902982E-07 -3.51471627E+00  1.92325031E+00
 -3.50990687E-07 -3.51471627E+00  1.92325031E+00 -3.50990687E-07 -3.51471627E+00
  1.92325031E+00 -3.50990687E-07 -3.51471627E+00  1.92325031E+00 -3.50990687E-07
  3.51475077E+00  1.92323554E+00  3.68431559E-07  3.51475077E+00  1.92323554E+00
  3.68431559E-07  3.51475077E+00  1.92323554E+00  3.68431559E-07  3.51475077E+00
  1.92323554E+00  3.68431559E-07  3.51471807E+00 -1.92324937E+00  3.68357409E-07
  3.51471807E+00 -1.92324937E+00  3.68357409E-07  3.51471807E+00 -1.92324937E+00
  3.68357409E-07  3.51471807E+00 -1.92324937E+00  3.68357409E-07
Num ILSW                                   I              100
ILSW                                       I   N=         100
           1           0           0           1           2           0
           0           0           0           0        4336          -1
           7           0           0           0           2           0
           0           0           0           0           1           0
           1           1           0           0           0           0
           0           0      100000           0          -1           0
           0           0           0           0           0           0
           0           0           0           1           0           0
           0 -2000000000           1           0           0           0
           0           0           4          52           0           0
           0           0          55           0           0           0
           0           0           0           6           0           1
           0           0           0           0           0           0
           0           0           0           0           0           0
           0           0           0           0           0           0
           0           0           0           0           0           0
           0           0           0           0
Num RLSW                                   I               52
RLSW                                       R   N=          52
  1.00000000E+00  1.00000000E+00  1.00000000E+00  1.00000000E+00  5.40000000E-01
  0.00000000E+00  0.00000000E+00  1.00000000E+00  0.00000000E+00  0.00000000E+00
  0.00000000E+00  0.00000000E+00  1.00000000E+00  0.00000000E+00  0.00000000E+00
  0.00000000E+00  0.00000000E+00  1.00000000E+00  0.00000000E+00  0.00000000E+00
  0.00000000E+00  0.00000000E+00  1.00000000E+00  0.00000000E+00  0.00000000E+00
  0.00000000E+00  0.00000000E+00  1.00000000E+00  0.00000000E+00  0.00000000E+00
  0.00000000E+00  0.00000000E+00  1.00000000E+00  0.00000000E+00  0.00000000E+00
  0.00000000E+00  0.00000000E+00  0.00000000E+00  1.00000000E+00  1.00000000E+00
  0.00000000E+00  1.00000000E+00  0.00000000E+00  0.00000000E+00  0.00000000E+00
  0.00000000E+00  0.00000000E+00  0.00000000E+00  0.00000000E+00  0.00000000E+00
  0.00000000E+00  0.00000000E+00
MxBond                                     I                3
NBond                                      I   N=           6
           3           3           1           1           1           1
IBond                                      I   N=          18
           2           3           4           1           5           6
           1           0           0           1           0           0
           2           0           0           2           0           0
RBond                                      R   N=          18
  1.00000000E-01  1.00000000E+00  1.00000000E+00  1.00000000E-01  1.00000000E+00
  1.00000000E+00  1.00000000E+00  0.00000000E+00  0.00000000E+00  1.00000000E+00
  0.00000000E+00  0.00000000E+00  1.00000000E+00  0.00000000E+00  0.00000000E+00
  1.00000000E+00  0.00000000E+00  0.00000000E+00
Virial Ratio                               R      2.008170581717369E+00
SCF Energy                                 R     -7.789845459187021E+01
Total Energy                               R     -7.789845459187021E+01
S**2                                       R      7.524190495986893E-01
S**2 after annihilation                    R      7.500046026558137E-01
RMS Force                                  R      1.290185258442580E-05
RMS Density                                R      7.278535076266181E-09
Job Status                                 I                1
Nuclear derivative order                   I                1
External E-field                           R   N=          35
  0.00000000E+00  0.00000000E+00  0.00000000E+00  0.00000000E+00  0.00000000E+00
  0.00000000E+00  0.00000000E+00  0.00000000E+00  0.00000000E+00  0.00000000E+00
  0.00000000E+00  0.00000000E+00  0.00000000E+00  0.00000000E+00  0.00000000E+00
  0.00000000E+00  0.00000000E+00  0.00000000E+00  0.00000000E+00  0.00000000E+00
  0.00000000E+00  0.00000000E+00  0.00000000E+00  0.00000000E+00  0.00000000E+00
  0.00000000E+00  0.00000000E+00  0.00000000E+00  0.00000000E+00  0.00000000E+00
  0.00000000E+00  0.00000000E+00  0.00000000E+00  0.00000000E+00  0.00000000E+00
IOpCl                                      I                1
IROHF                                      I                0
Alpha Orbital Energies                     R   N=          68
 -1.09175483E+01 -1.09175020E+01 -1.02214144E+00 -1.00883069E+00 -7.92180813E-01
 -7.87887006E-01 -5.55777978E-01 -5.03202275E-01 -3.96623660E-01 -3.65560150E-01
 -1.31118613E-01 -1.05691718E-01 -1.04833510E-01 -7.60048764E-02 -7.46601767E-02
 -6.27512229E-02 -4.74047600E-02 -4.47900362E-02 -3.01510897E-02  1.58699833E-02
  1.86503759E-02  9.31539593E-02  2.09594149E-01  2.20225013E-01  2.39956021E-01
  3.32938916E-01  3.40437331E-01  3.60834709E-01  3.85622313E-01  4.27462571E-01
  4.46459271E-01  4.57869228E-01  5.21034132E-01  5.79912127E-01  8.07974037E-01
  8.09220957E-01  9.98511224E-01  1.00337328E+00  1.03582454E+00  1.05281066E+00
  1.11292553E+00  1.13109372E+00  1.26851403E+00  1.27223231E+00  1.44805761E+00
  1.44817217E+00  1.60679667E+00  1.62296522E+00  1.62783168E+00  1.66845777E+00
  1.80438410E+00  1.80537903E+00  2.15149636E+00  2.21848578E+00  2.24450468E+00
  2.28526330E+00  2.31841806E+00  2.37856808E+00  2.44998920E+00  2.45150327E+00
  2.46205530E+00  2.47369827E+00  2.73157728E+00  2.74144200E+00  3.35915559E+00
  3.38156031E+00  2.35136155E+01  2.35216782E+01
Beta Orbital Energies                      R   N=          68
 -1.09148893E+01 -1.09148622E+01 -9.94302703E-01 -9.83508150E-01 -7.88572627E-01
 -7.84398837E-01 -5.36058949E-01 -3.43703058E-01 -3.14799227E-01 -2.94660560E-01
 -1.41313257E-01 -1.08640589E-01 -1.08575087E-01 -7.43176482E-02 -7.34251152E-02
 -6.30121849E-02 -4.29841618E-02 -3.86471735E-02 -3.49472263E-02 -9.15071313E-04
  2.07337069E-02  1.02286723E-01  2.04361339E-01  2.22932358E-01  2.44368819E-01
  3.39277969E-01  3.42938271E-01  3.47716201E-01  3.83952491E-01  4.36938357E-01
  4.55416811E-01  4.72661652E-01  5.34993583E-01  5.81955269E-01  8.36899804E-01
  8.37106650E-01  1.02904063E+00  1.03039740E+00  1.05787594E+00  1.06962882E+00
  1.12563489E+00  1.15856341E+00  1.29958922E+00  1.30380516E+00  1.46131491E+00
  1.46237817E+00  1.61454198E+00  1.63308868E+00  1.63661307E+00  1.67774325E+00
  1.81821736E+00  1.81899720E+00  2.18426522E+00  2.25346559E+00  2.26547581E+00
  2.30280006E+00  2.33469041E+00  2.39203172E+00  2.48029553E+00  2.49074249E+00
  2.49651963E+00  2.51686694E+00  2.75926347E+00  2.77155650E+00  3.39399263E+00
  3.41676981E+00  2.35257147E+01  2.35338292E+01
Alpha MO coefficients                      R   N=        4624
  3.98966015E-01  3.28112279E-01  4.58288487E-04 -3.98598431E-09 -3.57898572E-10
  7.81764440E-03 -1.40322675E-03  1.81642209E-09 -5.84467345E-10 -1.77311213E-03
  2.77611930E-04  1.36823680E-08  3.11796728E-11 -5.66033563E-04  1.61728275E-04
  1.24244244E-08  1.49565164E-10 -9.19029541E-04 -7.35370903E-11 -7.04789489E-14
 -1.25952250E-03  2.39328916E-08  3.99018345E-01  3.28155314E-01 -4.58339824E-04
  3.98650437E-09  3.44596326E-10  7.81868234E-03  1.40339865E-03 -1.81631551E-09
  6.20918999E-10 -1.77341032E-03 -2.77610807E-04 -1.36813240E-08 -3.63901385E-11
 -5.66072524E-04 -1.61784005E-04 -1.24242488E-08 -1.53610008E-10 -9.19142602E-04
 -6.52375513E-11  5.09700512E-14 -1.25968329E-03  2.39361933E-08  7.77703380E-05
 -2.35071949E-03  1.49534753E-03 -6.42733806E-04 -1.40560032E-03 -3.57441761E-10
  7.77731398E-05 -2.35071238E-03  1.49530602E-03 -6.42709114E-04  1.40560611E-03
 -3.57501224E-10  7.77810901E-05 -2.35101592E-03  1.49555550E-03  6.42812776E-04
  1.40577820E-03  3.72722029E-10  7.77838921E-05 -2.35100881E-03  1.49551399E-03
  6.42788080E-04 -1.40578399E-03  3.72662236E-10  3.99022759E-01  3.28153804E-01
  4.06850466E-04 -4.23236660E-09 -3.51622457E-10  7.90565039E-03 -1.29014832E-03
  2.16903219E-09 -5.94080687E-10 -2.24908488E-03 -3.39436865E-06 -7.80649539E-09
  9.08149104E-11 -2.97373397E-04  4.14241776E-04 -1.68808288E-09  1.05260750E-10
 -8.74171793E-04 -7.54144311E-11 -6.57221473E-14 -1.24162405E-03  2.45530311E-08
 -3.98970431E-01 -3.28110768E-01  4.06788504E-04 -4.23181065E-09 -3.38360091E-10
 -7.90462584E-03 -1.28996777E-03  2.16841469E-09 -6.29154938E-10  2.24885383E-03
 -3.43012322E-06 -7.80823354E-09  9.62965156E-11  2.97300153E-04  4.14221397E-04
 -1.68961264E-09  1.12521278E-10  8.74050061E-04  6.71077597E-11 -4.92891939E-14
  1.24145719E-03 -2.45499783E-08  7.80532513E-05 -2.26110516E-03  1.57569827E-03
 -5.94643664E-04 -1.36439067E-03 -3.51105994E-10  7.80543633E-05 -2.26108417E-03
  1.57569707E-03 -5.94616939E-04  1.36439358E-03 -3.51162274E-10 -7.80436157E-05
  2.26079764E-03 -1.57550359E-03 -5.94560622E-04 -1.36420557E-03 -3.65833738E-10
 -7.80447275E-05  2.26077665E-03 -1.57550240E-03 -5.94533899E-04  1.36420848E-03
 -3.65774330E-10 -8.06199258E-02 -1.31577382E-01 -2.02144829E-02  4.07375837E-08
 -7.63798776E-09  3.70535703E-01 -2.94568233E-02  9.66222694E-08 -1.95108285E-08
  2.47251499E-01 -6.03409336E-03 -3.16837906E-08 -3.86574746E-09  1.14938127E-03
 -1.70297664E-03 -1.21555617E-07 -3.58157868E-09 -4.13450174E-03 -7.43113869E-09
 -2.07110610E-13 -8.12559988E-03  1.60262124E-07 -8.06205921E-02 -1.31578473E-01
  2.02147723E-02 -4.07330775E-08  8.11427594E-09  3.70538777E-01  2.94573029E-02
 -9.66181468E-08  2.01508151E-08  2.47253487E-01  6.03425813E-03  3.16849816E-08
  4.17394478E-09  1.14922921E-03  1.70306973E-03  1.21555783E-07  3.62600453E-09
 -4.13450176E-03 -7.39884047E-09  1.24846668E-13 -8.12568178E-03  1.60263951E-07
  7.40944427E-02  8.34369172E-02 -5.57576176E-03  3.38321052E-03  1.20054692E-02
  7.98844916E-10  7.40942194E-02  8.34366369E-02 -5.57546373E-03  3.38299559E-03
 -1.20054920E-02  7.99318421E-10  7.40950991E-02  8.34376480E-02 -5.57578882E-03
 -3.38324265E-03 -1.20055720E-02 -8.79198095E-10  7.40948757E-02  8.34373677E-02
 -5.57549079E-03 -3.38302771E-03  1.20055948E-02 -8.78887534E-10 -8.04410853E-02
 -1.31310118E-01 -2.99558502E-02  4.12985674E-08 -1.02828762E-08  3.70435111E-01
 -4.69856602E-02  1.05612058E-07 -2.32699089E-08  2.45327732E-01 -1.45144964E-02
  1.63568211E-07 -5.99391486E-09 -1.03912892E-02 -6.73042019E-03  1.66133165E-08
 -6.67088721E-10 -4.56980334E-03 -6.87924143E-09 -2.53117436E-13 -9.98382607E-03
  1.70988283E-07  8.04404077E-02  1.31309014E-01 -2.99557470E-02  4.12931064E-08
 -1.07852252E-08 -3.70431992E-01 -4.69855503E-02  1.05605966E-07 -2.39637746E-08
 -2.45325613E-01 -1.45144835E-02  1.63566824E-07 -6.29257017E-09  1.03913007E-02
 -6.73041851E-03  1.66141904E-08 -7.23528178E-10  4.56973464E-03  6.83843408E-09
 -1.54404173E-13  9.98375443E-03 -1.70987298E-07  7.72673174E-02  8.77990310E-02
 -3.60646088E-03  2.76921022E-03  1.21709624E-02  5.73802419E-10  7.72670084E-02
  8.77985408E-02 -3.60651459E-03  2.76896083E-03 -1.21709540E-02  5.74285370E-10
 -7.72667228E-02 -8.77983449E-02  3.60641403E-03  2.76918908E-03  1.21708654E-02
  6.54865550E-10 -7.72664138E-02 -8.77978547E-02  3.60646774E-03  2.76893969E-03
 -1.21708571E-02  6.54530850E-10 -8.94305997E-08 -1.49021913E-07  1.25738373E-06
  1.61687781E-01 -3.62346664E-12  4.35841905E-07  1.71314440E-06  2.28594799E-01
 -5.11815186E-12  4.51051775E-07  9.05426002E-07  1.20788945E-01 -2.52967051E-12
  2.60259159E-07  1.38022113E-07  2.69260018E-03 -9.79939269E-14  2.05943685E-09
  2.02697623E-13 -7.59818717E-09 -2.34987587E-07 -1.30738123E-02  8.94322127E-08
  1.49024694E-07  1.25737595E-06  1.61686892E-01  2.81695226E-12 -4.35850599E-07
  1.71313312E-06  2.28593579E-01  3.71262372E-12 -4.51062335E-07  9.05418903E-07
  1.20788239E-01  1.89353247E-12 -2.60259690E-07  1.38021393E-07  2.69252344E-03
  7.75399660E-14 -2.05955325E-09  3.31436429E-13  7.86669959E-09  2.34986952E-07
  1.30737744E-02 -1.06760022E-01 -1.46312461E-01 -1.57276028E-02 -7.50235899E-03
 -1.26584632E-02 -3.04146613E-09  1.06760193E-01  1.46312725E-01  1.57275484E-02
  7.50212323E-03 -1.26586178E-02  3.04199097E-09  1.06759424E-01  1.46311627E-01
  1.57275916E-02 -7.50233011E-03 -1.26583699E-02 -3.20422433E-09 -1.06759596E-01
 -1.46311892E-01 -1.57275372E-02  7.50209435E-03 -1.26585245E-02  3.20380110E-09
  4.92997198E-08  8.33270415E-08 -1.51931473E-06 -1.62904885E-01  3.62832988E-12
 -2.50129320E-07 -2.11505395E-06 -2.29429256E-01  5.14396858E-12 -2.76787875E-07
 -1.21043524E-06 -1.26285575E-01  2.61975598E-12  2.18832249E-08 -9.83034102E-08
 -8.89417456E-03  1.00864779E-13 -8.82873767E-09 -1.89623940E-13  7.92235553E-09
  2.13609119E-07  1.42583122E-02  4.93024038E-08  8.33316091E-08  1.51932215E-06
  1.62905791E-01  3.06865469E-12 -2.50143253E-07  2.11506303E-06  2.29430568E-01
  4.07001735E-12 -2.76803730E-07  1.21044002E-06  1.26286222E-01  2.31089178E-12
  2.18814441E-08  9.83038075E-08  8.89416534E-03  1.13519009E-13 -8.82887392E-09
  3.31626001E-13  8.19792563E-09  2.13611250E-07  1.42584274E-02  1.07916621E-01
  1.47346022E-01  1.01756180E-02  7.22360738E-03  1.26932320E-02  3.01857672E-09
 -1.07916559E-01 -1.47345913E-01 -1.01757804E-02 -7.22338471E-03  1.26933592E-02
 -3.01910107E-09  1.07917211E-01  1.47346821E-01  1.01757540E-02 -7.22366090E-03
 -1.26932788E-02 -3.18101660E-09 -1.07917149E-01 -1.47346712E-01 -1.01759164E-02
  7.22343823E-03 -1.26934060E-02  3.18061561E-09  1.43870556E-02  2.38364148E-02
 -1.76318674E-01  1.72228340E-06 -1.42803463E-07 -6.26062418E-02 -2.72861998E-01
  2.65804888E-06 -2.00489254E-07 -1.55068051E-01 -2.56921804E-01  1.64861516E-06
 -1.94985538E-07 -1.58424081E-02 -9.99836220E-03 -6.49842763E-08 -7.33112276E-09
 -3.61450216E-03  1.54070711E-08 -3.11744759E-13 -4.97957900E-03  2.61254090E-08
  1.43872330E-02  2.38367196E-02  1.76319580E-01 -1.72228966E-06  1.45070433E-07
 -6.26072066E-02  2.72863192E-01 -2.65805904E-06  2.04003751E-07 -1.55069165E-01
  2.56923019E-01 -1.64862484E-06  1.97822404E-07 -1.58425354E-02  9.99844462E-03
  6.49839693E-08  7.47831706E-09 -3.61457075E-03  1.55164655E-08  2.41119236E-13
 -4.97949691E-03  2.61247570E-08  4.17524759E-02  7.59502381E-02  2.34712256E-02
 -8.67555472E-03  8.13446218E-03 -9.55066971E-09  4.17528029E-02  7.59513491E-02
  2.34721877E-02 -8.67567668E-03 -8.13439897E-03 -9.55026234E-09  4.17526748E-02
  7.59505841E-02  2.34713036E-02  8.67558203E-03 -8.13452181E-03  9.63115283E-09
  4.17530018E-02  7.59516951E-02  2.34722657E-02  8.67570399E-03  8.13445860E-03
  9.63146616E-09 -3.38426701E-08 -5.79895767E-08  1.55895852E-07  3.41290528E-12
  1.95744810E-01  1.81796447E-07  2.09223989E-07  5.55228735E-12  3.10707404E-01
  2.40913926E-07  2.27781860E-07  1.01983132E-11  3.07076607E-01  5.37662187E-09
  1.01254539E-08  4.52007974E-12  2.24272745E-02  5.22565694E-09 -8.51082415E-04
  1.31171551E-08 -7.53765685E-09 -4.76357686E-13  3.41663255E-08  5.85515595E-08
  1.53375076E-07 -4.87129038E-12  1.95744038E-01 -1.83737508E-07  2.05232268E-07
 -9.00100339E-12  3.10706295E-01 -2.42633297E-07  2.23793254E-07 -1.27956050E-11
  3.07075443E-01 -5.09688818E-09  9.79084747E-09 -4.45330549E-12  2.24272059E-02
 -5.24183029E-09  8.51056407E-04 -1.31168892E-08  7.43114233E-09 -7.62657845E-13
 -4.43475851E-08 -8.23435310E-08 -2.47357883E-08  6.90105887E-09 -1.22293187E-08
  1.46419705E-02 -4.43470766E-08 -8.23448630E-08 -2.47474348E-08  6.90092890E-09
  1.22303134E-08  1.46419644E-02  4.47466868E-08  8.28519000E-08  2.49187042E-08
  6.68325488E-09 -1.22550959E-08  1.46419012E-02  4.47462806E-08  8.28469627E-08
  2.49072882E-08  6.68405587E-09  1.22529137E-08  1.46418951E-02  1.17005654E-09
  3.57418707E-09  1.15237363E-07 -5.42943731E-12 -2.02751834E-01 -2.56829964E-08
  2.08780644E-07 -9.06469486E-12 -3.21612532E-01  3.16171692E-08  1.91123392E-07
 -1.16200975E-11 -3.15126388E-01  1.30375200E-08  2.14493655E-08 -2.20684137E-12
 -3.47405441E-02  4.61920993E-09  9.67957732E-03 -2.05068093E-08  5.58580600E-09
  3.64374056E-13  2.15052574E-09  5.23607111E-09 -1.12729967E-07 -2.51065937E-12
  2.02752489E-01 -3.08337739E-08 -2.05058458E-07 -5.70486292E-12  3.21613683E-01
  2.40131024E-08 -1.87798655E-07 -9.32818858E-12  3.15127461E-01  1.27516370E-08
 -2.11484819E-08 -1.81139761E-12  3.47406716E-02  4.38955680E-09  9.67958858E-03
 -2.05066792E-08  5.53627048E-09 -7.62034250E-13 -8.05052010E-09 -1.42189232E-08
 -1.22834314E-08  8.43026558E-09  1.56193063E-09 -1.65492485E-02 -8.05025927E-09
 -1.42172682E-08 -1.22767243E-08  8.43037038E-09 -1.56328469E-09 -1.65491998E-02
 -6.56608442E-09 -1.15710872E-08 -1.09679472E-08 -8.32130566E-09 -1.81308940E-09
  1.65492922E-02 -6.56688626E-09 -1.15777509E-08 -1.09768142E-08 -8.32072861E-09
  1.81095886E-09  1.65492435E-02 -3.01888828E-02 -5.07069382E-02  1.99298540E-01
 -1.50771913E-06 -1.34985504E-07  1.53734112E-01  3.02142929E-01 -2.39329280E-06
 -2.46367713E-07  2.34000233E-01  3.16591397E-01 -2.40554221E-06 -2.42592091E-07
  8.38938498E-02  6.87921686E-02 -3.57944450E-07 -3.68534574E-08  1.08076472E-02
 -1.32436970E-08  3.29944548E-13 -8.08433582E-03 -4.54797477E-08  3.01888746E-02
  5.07069377E-02  1.99297860E-01 -1.50771158E-06 -1.38140645E-07 -1.53734240E-01
  3.02141674E-01 -2.39328118E-06 -2.51463121E-07 -2.33999718E-01  3.16590096E-01