 Entering Gaussian System, Link 0=g16
 Initial command:
 /home/szhao/Apps/g16/l1.exe "/home/szhao/tmp/Gau-35315.inp" -scrdir="/home/szhao/tmp/"
 Default is to use a total of  16 processors:
                               16 via shared-memory
                                1 via Linda
 Entering Link 1 = /home/szhao/Apps/g16/l1.exe PID=     35317.
  
 Copyright (c) 1988,1990,1992,1993,1995,1998,2003,2009,2016,
            Gaussian, Inc.  All Rights Reserved.
  
 This is part of the Gaussian(R) 16 program.  It is based on
 the Gaussian(R) 09 system (copyright 2009, Gaussian, Inc.),
 the Gaussian(R) 03 system (copyright 2003, Gaussian, Inc.),
 the Gaussian(R) 98 system (copyright 1998, Gaussian, Inc.),
 the Gaussian(R) 94 system (copyright 1995, Gaussian, Inc.),
 the Gaussian 92(TM) system (copyright 1992, Gaussian, Inc.),
 the Gaussian 90(TM) system (copyright 1990, Gaussian, Inc.),
 the Gaussian 88(TM) system (copyright 1988, Gaussian, Inc.),
 the Gaussian 86(TM) system (copyright 1986, Carnegie Mellon
 University), and the Gaussian 82(TM) system (copyright 1983,
 Carnegie Mellon University). Gaussian is a federally registered
 trademark of Gaussian, Inc.
  
 This software contains proprietary and confidential information,
 including trade secrets, belonging to Gaussian, Inc.
  
 This software is provided under written license and may be
 used, copied, transmitted, or stored only in accord with that
 written license.
  
 The following legend is applicable only to US Government
 contracts under FAR:
  
                    RESTRICTED RIGHTS LEGEND
  
 Use, reproduction and disclosure by the US Government is
 subject to restrictions as set forth in subparagraphs (a)
 and (c) of the Commercial Computer Software - Restricted
 Rights clause in FAR 52.227-19.
  
 Gaussian, Inc.
 340 Quinnipiac St., Bldg. 40, Wallingford CT 06492
  
  
 ---------------------------------------------------------------
 Warning -- This program may not be used in any manner that
 competes with the business of Gaussian, Inc. or will provide
 assistance to any competitor of Gaussian, Inc.  The licensee
 of this program is prohibited from giving any competitor of
 Gaussian, Inc. access to this program.  By using this program,
 the user acknowledges that Gaussian, Inc. is engaged in the
 business of creating and licensing software in the field of
 computational chemistry and represents and warrants to the
 licensee that it is not a competitor of Gaussian, Inc. and that
 it will not use this program in any manner prohibited above.
 ---------------------------------------------------------------
  

 Cite this work as:
 Gaussian 16, Revision A.03,
 M. J. Frisch, G. W. Trucks, H. B. Schlegel, G. E. Scuseria, 
 M. A. Robb, J. R. Cheeseman, G. Scalmani, V. Barone, 
 G. A. Petersson, H. Nakatsuji, X. Li, M. Caricato, A. V. Marenich, 
 J. Bloino, B. G. Janesko, R. Gomperts, B. Mennucci, H. P. Hratchian, 
 J. V. Ortiz, A. F. Izmaylov, J. L. Sonnenberg, D. Williams-Young, 
 F. Ding, F. Lipparini, F. Egidi, J. Goings, B. Peng, A. Petrone, 
 T. Henderson, D. Ranasinghe, V. G. Zakrzewski, J. Gao, N. Rega, 
 G. Zheng, W. Liang, M. Hada, M. Ehara, K. Toyota, R. Fukuda, 
 J. Hasegawa, M. Ishida, T. Nakajima, Y. Honda, O. Kitao, H. Nakai, 
 T. Vreven, K. Throssell, J. A. Montgomery, Jr., J. E. Peralta, 
 F. Ogliaro, M. J. Bearpark, J. J. Heyd, E. N. Brothers, K. N. Kudin, 
 V. N. Staroverov, T. A. Keith, R. Kobayashi, J. Normand, 
 K. Raghavachari, A. P. Rendell, J. C. Burant, S. S. Iyengar, 
 J. Tomasi, M. Cossi, J. M. Millam, M. Klene, C. Adamo, R. Cammi, 
 J. W. Ochterski, R. L. Martin, K. Morokuma, O. Farkas, 
 J. B. Foresman, and D. J. Fox, Gaussian, Inc., Wallingford CT, 2016.
 
 ******************************************
 Gaussian 16:  ES64L-G16RevA.03 25-Dec-2016
                19-Nov-2024 
 ******************************************
 %chk=opt.chk
 %mem=4GB
 %nprocshared=8
 Will use up to    8 processors via shared memory.
 ---------------------------------------
 #p UM062X/6-311+G** force int=superfine
 ---------------------------------------
 1/10=7,30=1,38=1/1,3;
 2/12=2,17=6,18=5,40=1/2;
 3/5=4,6=6,7=111,11=2,25=1,30=1,71=1,74=-55,75=-7,116=2/1,2,3;
 4//1;
 5/5=2,38=5/2;
 6/7=2,8=2,9=2,10=2,28=1/1;
 7/29=1/1,2,3,16;
 1/10=7,30=1/3;
 99//99;
 Leave Link    1 at Tue Nov 19 11:43:02 2024, MaxMem=   536870912 cpu:               0.4 elap:               0.1
 (Enter /home/szhao/Apps/g16/l101.exe)
 -------------------
 Title Card Required
 -------------------
 Symbolic Z-matrix:
 Charge =  0 Multiplicity = 1
 C                    -0.59659   0.        0. 
 C                     0.59659   0.        0. 
 H                    -1.19038  -0.91126   0. 
 H                    -1.19039   0.91122   0. 
 H                     1.19038   0.91126   0. 
 H                     1.19039  -0.91122   0. 
 
 ITRead=  0  0  0  0  0  0
 MicOpt= -1 -1 -1 -1 -1 -1
 NAtoms=      6 NQM=        6 NQMF=       0 NMMI=      0 NMMIF=      0
                NMic=       0 NMicF=      0.
                    Isotopes and Nuclear Properties:
 (Nuclear quadrupole moments (NQMom) in fm**2, nuclear magnetic moments (NMagM)
  in nuclear magnetons)

  Atom         1           2           3           4           5           6
 IAtWgt=          12          12           1           1           1           1
 AtmWgt=  12.0000000  12.0000000   1.0078250   1.0078250   1.0078250   1.0078250
 NucSpn=           0           0           1           1           1           1
 AtZEff=  -0.0000000  -0.0000000  -0.0000000  -0.0000000  -0.0000000  -0.0000000
 NQMom=    0.0000000   0.0000000   0.0000000   0.0000000   0.0000000   0.0000000
 NMagM=    0.0000000   0.0000000   2.7928460   2.7928460   2.7928460   2.7928460
 AtZNuc=   6.0000000   6.0000000   1.0000000   1.0000000   1.0000000   1.0000000
 Leave Link  101 at Tue Nov 19 11:43:02 2024, MaxMem=   536870912 cpu:               1.4 elap:               0.2
 (Enter /home/szhao/Apps/g16/l103.exe)

 GradGradGradGradGradGradGradGradGradGradGradGradGradGradGradGradGradGrad
 Berny optimization.
 Initialization pass.
 Trust Radius=3.00D-01 FncErr=1.00D-07 GrdErr=1.00D-07 EigMax=2.50D+02 EigMin=1.00D-04
 Number of steps in this run=      2 maximum allowed number of steps=      2.
 GradGradGradGradGradGradGradGradGradGradGradGradGradGradGradGradGradGrad

 Leave Link  103 at Tue Nov 19 11:43:02 2024, MaxMem=   536870912 cpu:               0.2 elap:               0.0
 (Enter /home/szhao/Apps/g16/l202.exe)
                          Input orientation:                          
 ---------------------------------------------------------------------
 Center     Atomic      Atomic             Coordinates (Angstroms)
 Number     Number       Type             X           Y           Z
 ---------------------------------------------------------------------
      1          6           0       -0.596585    0.000000    0.000000
      2          6           0        0.596585    0.000000    0.000000
      3          1           0       -1.190378   -0.911257    0.000000
      4          1           0       -1.190394    0.911224    0.000000
      5          1           0        1.190378    0.911257    0.000000
      6          1           0        1.190394   -0.911224    0.000000
 ---------------------------------------------------------------------
                    Distance matrix (angstroms):
                    1          2          3          4          5
     1  C    0.000000
     2  C    1.193170   0.000000
     3  H    1.087649   2.005898   0.000000
     4  H    1.087630   2.005897   1.822481   0.000000
     5  H    2.005898   1.087649   2.998259   2.380772   0.000000
     6  H    2.005897   1.087630   2.380772   2.998244   1.822481
                    6
     6  H    0.000000
 Stoichiometry    C2H4
 Framework group  C2H[SGH(C2H4)]
 Deg. of freedom     5
 Full point group                 C2H     NOp   4
 Largest Abelian subgroup         C2H     NOp   4
 Largest concise Abelian subgroup C2      NOp   2
                         Standard orientation:                         
 ---------------------------------------------------------------------
 Center     Atomic      Atomic             Coordinates (Angstroms)
 Number     Number       Type             X           Y           Z
 ---------------------------------------------------------------------
      1          6           0        0.000000    0.596585    0.000000
      2          6           0       -0.000000   -0.596585    0.000000
      3          1           0        0.911257    1.190378    0.000000
      4          1           0       -0.911224    1.190394    0.000000
      5          1           0       -0.911257   -1.190378    0.000000
      6          1           0        0.911224   -1.190394   -0.000000
 ---------------------------------------------------------------------
 Rotational constants (GHZ):         150.9753474          35.4543555          28.7118070
 Leave Link  202 at Tue Nov 19 11:43:03 2024, MaxMem=   536870912 cpu:               0.1 elap:               0.0
 (Enter /home/szhao/Apps/g16/l301.exe)
 Standard basis: 6-311+G(d,p) (5D, 7F)
 Ernie: Thresh=  0.10000D-02 Tol=  0.10000D-05 Strict=F.
 There are    27 symmetry adapted cartesian basis functions of AG  symmetry.
 There are     8 symmetry adapted cartesian basis functions of BG  symmetry.
 There are     8 symmetry adapted cartesian basis functions of AU  symmetry.
 There are    27 symmetry adapted cartesian basis functions of BU  symmetry.
 There are    26 symmetry adapted basis functions of AG  symmetry.
 There are     8 symmetry adapted basis functions of BG  symmetry.
 There are     8 symmetry adapted basis functions of AU  symmetry.
 There are    26 symmetry adapted basis functions of BU  symmetry.
    68 basis functions,   104 primitive gaussians,    70 cartesian basis functions
     8 alpha electrons        8 beta electrons
       nuclear repulsion energy        35.3528019399 Hartrees.
 IExCor= 4336 DFT=T Ex+Corr=M062X ExCW=0 ScaHFX=  0.540000
 ScaDFX=  1.000000  1.000000  1.000000  1.000000 ScalE2=  1.000000  1.000000
 IRadAn=      7 IRanWt=     -1 IRanGd=            0 ICorTp=0 IEmpDi=  4
 NAtoms=    6 NActive=    6 NUniq=    3 SFac= 4.00D+00 NAtFMM=   60 NAOKFM=F Big=F
 Integral buffers will be    131072 words long.
 Raffenetti 2 integral format.
 Two-electron integral symmetry is turned on.
 Leave Link  301 at Tue Nov 19 11:43:03 2024, MaxMem=   536870912 cpu:               0.5 elap:               0.1
 (Enter /home/szhao/Apps/g16/l302.exe)
 NPDir=0 NMtPBC=     1 NCelOv=     1 NCel=       1 NClECP=     1 NCelD=      1
         NCelK=      1 NCelE2=     1 NClLst=     1 CellRange=     0.0.
 One-electron integrals computed using PRISM.
 One-electron integral symmetry used in STVInt
 NBasis=    68 RedAO= T EigKep=  7.87D-05  NBF=    26     8     8    26
 NBsUse=    68 1.00D-06 EigRej= -1.00D+00 NBFU=    26     8     8    26
 Precomputing XC quadrature grid using
 IXCGrd= 4 IRadAn=           7 IRanWt=          -1 IRanGd=           0 AccXCQ= 0.00D+00.
 Generated NRdTot=       0 NPtTot=           0 NUsed=           0 NTot=          32
 NSgBfM=    70    70    70    70    70 MxSgAt=     6 MxSgA2=     6.
 Leave Link  302 at Tue Nov 19 11:43:03 2024, MaxMem=   536870912 cpu:               3.5 elap:               0.5
 (Enter /home/szhao/Apps/g16/l303.exe)
 DipDrv:  MaxL=1.
 Leave Link  303 at Tue Nov 19 11:43:04 2024, MaxMem=   536870912 cpu:               0.8 elap:               0.1
 (Enter /home/szhao/Apps/g16/l401.exe)
 ExpMin= 4.38D-02 ExpMax= 4.56D+03 ExpMxC= 6.82D+02 IAcc=3 IRadAn=         7 AccDes= 0.00D+00
 Harris functional with IExCor= 1009 and IRadAn=       7 diagonalized for initial guess.
 HarFok:  IExCor= 1009 AccDes= 0.00D+00 IRadAn=         7 IDoV= 1 UseB2=F ITyADJ=14
 ICtDFT=  3500011 ScaDFX=  1.000000  1.000000  1.000000  1.000000
 FoFCou: FMM=F IPFlag=           0 FMFlag=      100000 FMFlg1=           0
         NFxFlg=           0 DoJE=T BraDBF=F KetDBF=T FulRan=T
         wScrn=  0.000000 ICntrl=       500 IOpCl=  0 I1Cent=   200000004 NGrid=           0
         NMat0=    1 NMatS0=      1 NMatT0=    0 NMatD0=    1 NMtDS0=    0 NMtDT0=    0
 Petite list used in FoFCou.
 Harris En= -78.5760851744068    
 JPrj=0 DoOrth=F DoCkMO=F.
 Initial guess orbital symmetries:
 Alpha Orbitals:
       Occupied  (AG) (BU) (AG) (BU) (BU) (AG) (AU) (AG)
       Virtual   (BG) (BU) (AG) (BU) (AU) (AG) (AG) (AG) (BU) (BG)
                 (BU) (BU) (AG) (BU) (AG) (BU) (AG) (AU) (BU) (BU)
                 (BG) (AG) (AG) (BU) (AG) (BU) (BG) (AU) (AU) (AG)
                 (BU) (AG) (BU) (AG) (BU) (BG) (BG) (AU) (BU) (AG)
                 (BG) (AG) (AU) (BU) (AG) (BU) (BU) (AG) (AU) (AG)
                 (BU) (BU) (BG) (AG) (BU) (AG) (AG) (BU) (AG) (BU)
 Beta  Orbitals:
       Occupied  (AG) (BU) (AG) (BU) (BU) (AG) (AU) (AG)
       Virtual   (BG) (BU) (AG) (BU) (AU) (AG) (AG) (AG) (BU) (BG)
                 (BU) (BU) (AG) (BU) (AG) (BU) (AG) (AU) (BU) (BU)
                 (BG) (AG) (AG) (BU) (AG) (BU) (BG) (AU) (AU) (AG)
                 (BU) (AG) (BU) (AG) (BU) (BG) (BG) (AU) (BU) (AG)
                 (BG) (AG) (AU) (BU) (AG) (BU) (BU) (AG) (AU) (AG)
                 (BU) (BU) (BG) (AG) (BU) (AG) (AG) (BU) (AG) (BU)
 The electronic state of the initial guess is 1-AG.
 Initial guess <Sx>= 0.0000 <Sy>= 0.0000 <Sz>= 0.0000 <S**2>=-0.0000 S=-0.0000
 Leave Link  401 at Tue Nov 19 11:43:04 2024, MaxMem=   536870912 cpu:               2.2 elap:               0.3
 (Enter /home/szhao/Apps/g16/l502.exe)
 Keep R1 and R2 ints in memory in symmetry-blocked form, NReq=9935231.
 FoFCou: FMM=F IPFlag=           0 FMFlag=           0 FMFlg1=           0
         NFxFlg=           0 DoJE=F BraDBF=F KetDBF=F FulRan=T
         wScrn=  0.000000 ICntrl=       600 IOpCl=  0 I1Cent=           0 NGrid=           0
         NMat0=    1 NMatS0=   2346 NMatT0=    0 NMatD0=    1 NMtDS0=    0 NMtDT0=    0
 Petite list used in FoFCou.
 UHF open shell SCF:
 Using DIIS extrapolation, IDIIS=  1040.
 NGot=   536870912 LenX=   535358062 LenY=   535352721
 Requested convergence on RMS density matrix=1.00D-08 within 128 cycles.
 Requested convergence on MAX density matrix=1.00D-06.
 Requested convergence on             energy=1.00D-06.
 No special actions if energy rises.

 Cycle   1  Pass 1  IDiag  1:
 E= -78.3950900607105    
 DIIS: error= 6.54D-02 at cycle   1 NSaved=   1.
 NSaved= 1 IEnMin= 1 EnMin= -78.3950900607105     IErMin= 1 ErrMin= 6.54D-02
 ErrMax= 6.54D-02  0.00D+00 EMaxC= 1.00D-01 BMatC= 6.05D-01 BMatP= 6.05D-01
 IDIUse=3 WtCom= 3.46D-01 WtEn= 6.54D-01
 Coeff-Com:  0.100D+01
 Coeff-En:   0.100D+01
 Coeff:      0.100D+01
 Gap=     0.269 Goal=   None    Shift=    0.000
 Gap=     0.269 Goal=   None    Shift=    0.000
 GapD=    0.269 DampG=1.000 DampE=0.500 DampFc=0.5000 IDamp=-1.
 Damping current iteration by 5.00D-01
 RMSDP=5.90D-03 MaxDP=1.09D-01              OVMax= 2.09D-01

 Cycle   2  Pass 1  IDiag  1:
 E= -78.4691082312542     Delta-E=       -0.074018170544 Rises=F Damp=T
 DIIS: error= 1.12D-02 at cycle   2 NSaved=   2.
 NSaved= 2 IEnMin= 2 EnMin= -78.4691082312542     IErMin= 2 ErrMin= 1.12D-02
 ErrMax= 1.12D-02  0.00D+00 EMaxC= 1.00D-01 BMatC= 1.93D-02 BMatP= 6.05D-01
 IDIUse=3 WtCom= 8.88D-01 WtEn= 1.12D-01
 Coeff-Com: -0.109D+00 0.111D+01
 Coeff-En:   0.000D+00 0.100D+01
 Coeff:     -0.971D-01 0.110D+01
 Gap=     0.397 Goal=   None    Shift=    0.000
 Gap=     0.397 Goal=   None    Shift=    0.000
 RMSDP=1.22D-03 MaxDP=1.22D-02 DE=-7.40D-02 OVMax= 1.06D-01

 Cycle   3  Pass 1  IDiag  1:
 E= -78.5375385668367     Delta-E=       -0.068430335582 Rises=F Damp=F
 DIIS: error= 2.84D-03 at cycle   3 NSaved=   3.
 NSaved= 3 IEnMin= 3 EnMin= -78.5375385668367     IErMin= 3 ErrMin= 2.84D-03
 ErrMax= 2.84D-03  0.00D+00 EMaxC= 1.00D-01 BMatC= 5.55D-04 BMatP= 1.93D-02
 IDIUse=3 WtCom= 9.72D-01 WtEn= 2.84D-02
 Coeff-Com: -0.334D-01 0.857D-01 0.948D+00
 Coeff-En:   0.000D+00 0.000D+00 0.100D+01
 Coeff:     -0.325D-01 0.833D-01 0.949D+00
 Gap=     0.397 Goal=   None    Shift=    0.000
 Gap=     0.397 Goal=   None    Shift=    0.000
 RMSDP=1.18D-04 MaxDP=1.38D-03 DE=-6.84D-02 OVMax= 5.11D-03

 Cycle   4  Pass 1  IDiag  1:
 E= -78.5376886403499     Delta-E=       -0.000150073513 Rises=F Damp=F
 DIIS: error= 2.40D-04 at cycle   4 NSaved=   4.
 NSaved= 4 IEnMin= 4 EnMin= -78.5376886403499     IErMin= 4 ErrMin= 2.40D-04
 ErrMax= 2.40D-04  0.00D+00 EMaxC= 1.00D-01 BMatC= 3.60D-06 BMatP= 5.55D-04
 IDIUse=3 WtCom= 9.98D-01 WtEn= 2.40D-03
 Coeff-Com: -0.175D-03-0.123D-02 0.457D-01 0.956D+00
 Coeff-En:   0.000D+00 0.000D+00 0.000D+00 0.100D+01
 Coeff:     -0.174D-03-0.122D-02 0.456D-01 0.956D+00
 Gap=     0.397 Goal=   None    Shift=    0.000
 Gap=     0.397 Goal=   None    Shift=    0.000
 RMSDP=2.46D-05 MaxDP=3.79D-04 DE=-1.50D-04 OVMax= 5.18D-04

 Cycle   5  Pass 1  IDiag  1:
 E= -78.5376900399352     Delta-E=       -0.000001399585 Rises=F Damp=F
 DIIS: error= 3.92D-05 at cycle   5 NSaved=   5.
 NSaved= 5 IEnMin= 5 EnMin= -78.5376900399352     IErMin= 5 ErrMin= 3.92D-05
 ErrMax= 3.92D-05  0.00D+00 EMaxC= 1.00D-01 BMatC= 1.46D-07 BMatP= 3.60D-06
 IDIUse=1 WtCom= 1.00D+00 WtEn= 0.00D+00
 Coeff-Com:  0.104D-02-0.265D-02-0.287D-01 0.105D-01 0.102D+01
 Coeff:      0.104D-02-0.265D-02-0.287D-01 0.105D-01 0.102D+01
 Gap=     0.397 Goal=   None    Shift=    0.000
 Gap=     0.397 Goal=   None    Shift=    0.000
 RMSDP=5.63D-06 MaxDP=6.02D-05 DE=-1.40D-06 OVMax= 1.27D-04

 Cycle   6  Pass 1  IDiag  1:
 E= -78.5376900995457     Delta-E=       -0.000000059610 Rises=F Damp=F
 DIIS: error= 6.24D-06 at cycle   6 NSaved=   6.
 NSaved= 6 IEnMin= 6 EnMin= -78.5376900995457     IErMin= 6 ErrMin= 6.24D-06
 ErrMax= 6.24D-06  0.00D+00 EMaxC= 1.00D-01 BMatC= 2.39D-09 BMatP= 1.46D-07
 IDIUse=1 WtCom= 1.00D+00 WtEn= 0.00D+00
 Coeff-Com: -0.118D-03 0.209D-03 0.120D-02-0.121D-01-0.361D-01 0.105D+01
 Coeff:     -0.118D-03 0.209D-03 0.120D-02-0.121D-01-0.361D-01 0.105D+01
 Gap=     0.397 Goal=   None    Shift=    0.000
 Gap=     0.397 Goal=   None    Shift=    0.000
 RMSDP=6.53D-07 MaxDP=1.07D-05 DE=-5.96D-08 OVMax= 1.63D-05

 Cycle   7  Pass 1  IDiag  1:
 E= -78.5376901004524     Delta-E=       -0.000000000907 Rises=F Damp=F
 DIIS: error= 4.05D-07 at cycle   7 NSaved=   7.
 NSaved= 7 IEnMin= 7 EnMin= -78.5376901004524     IErMin= 7 ErrMin= 4.05D-07
 ErrMax= 4.05D-07  0.00D+00 EMaxC= 1.00D-01 BMatC= 1.03D-11 BMatP= 2.39D-09
 IDIUse=1 WtCom= 1.00D+00 WtEn= 0.00D+00
 Coeff-Com:  0.652D-05-0.405D-05-0.550D-04 0.209D-03-0.653D-03-0.105D+00
 Coeff-Com:  0.111D+01
 Coeff:      0.652D-05-0.405D-05-0.550D-04 0.209D-03-0.653D-03-0.105D+00
 Coeff:      0.111D+01
 Gap=     0.397 Goal=   None    Shift=    0.000
 Gap=     0.397 Goal=   None    Shift=    0.000
 RMSDP=8.38D-08 MaxDP=1.24D-06 DE=-9.07D-10 OVMax= 1.71D-06

 Cycle   8  Pass 1  IDiag  1:
 E= -78.5376901004602     Delta-E=       -0.000000000008 Rises=F Damp=F
 DIIS: error= 4.46D-08 at cycle   8 NSaved=   8.
 NSaved= 8 IEnMin= 8 EnMin= -78.5376901004602     IErMin= 8 ErrMin= 4.46D-08
 ErrMax= 4.46D-08  0.00D+00 EMaxC= 1.00D-01 BMatC= 9.14D-14 BMatP= 1.03D-11
 IDIUse=1 WtCom= 1.00D+00 WtEn= 0.00D+00
 Coeff-Com:  0.604D-06-0.153D-05-0.229D-05 0.962D-04 0.302D-03 0.154D-04
 Coeff-Com: -0.816D-01 0.108D+01
 Coeff:      0.604D-06-0.153D-05-0.229D-05 0.962D-04 0.302D-03 0.154D-04
 Coeff:     -0.816D-01 0.108D+01
 Gap=     0.397 Goal=   None    Shift=    0.000
 Gap=     0.397 Goal=   None    Shift=    0.000
 RMSDP=3.03D-09 MaxDP=3.43D-08 DE=-7.79D-12 OVMax= 1.59D-07

 SCF Done:  E(UM062X) =  -78.5376901005     A.U. after    8 cycles
            NFock=  8  Conv=0.30D-08     -V/T= 1.9980
 <Sx>= 0.0000 <Sy>= 0.0000 <Sz>= 0.0000 <S**2>=-0.0000 S=-0.0000
 <L.S>=  0.00000000000    
 KE= 7.869316721951D+01 PE=-2.528005278944D+02 EE= 6.021686863453D+01
 Annihilation of the first spin contaminant:
 S**2 before annihilation    -0.0000,   after    -0.0000
 Leave Link  502 at Tue Nov 19 11:43:06 2024, MaxMem=   536870912 cpu:              14.2 elap:               1.8
 (Enter /home/szhao/Apps/g16/l601.exe)
 Copying SCF densities to generalized density rwf, IOpCl= 1 IROHF=0.

 **********************************************************************

            Population analysis using the SCF density.

 **********************************************************************

 Orbital symmetries:
 Alpha Orbitals:
       Occupied  (AG) (BU) (AG) (BU) (BU) (AG) (AG) (AU)
       Virtual   (AG) (BU) (BG) (BU) (AU) (AG) (AG) (BG) (BU) (AG)
                 (BU) (BU) (AG) (BU) (AG) (BU) (AG) (AU) (BU) (BU)
                 (BG) (AG) (BU) (AG) (AG) (BU) (BG) (AU) (AU) (AG)
                 (AG) (BU) (BU) (BU) (BG) (AG) (BG) (AU) (BU) (AG)
                 (AG) (BG) (AU) (BU) (AG) (BU) (AG) (BU) (AG) (BU)
                 (AU) (BU) (BG) (AG) (BU) (AG) (AG) (BU) (AG) (BU)
 Beta  Orbitals:
       Occupied  (AG) (BU) (AG) (BU) (BU) (AG) (AG) (AU)
       Virtual   (AG) (BU) (BG) (BU) (AU) (AG) (AG) (BG) (BU) (AG)
                 (BU) (BU) (AG) (BU) (AG) (BU) (AG) (AU) (BU) (BU)
                 (BG) (AG) (BU) (AG) (AG) (BU) (BG) (AU) (AU) (AG)
                 (AG) (BU) (BU) (BU) (BG) (AG) (BG) (AU) (BU) (AG)
                 (AG) (BG) (AU) (BU) (AG) (BU) (AG) (BU) (AG) (BU)
                 (AU) (BU) (BG) (AG) (BU) (AG) (AG) (BU) (AG) (BU)
 The electronic state is 1-AG.
 Alpha  occ. eigenvalues --  -10.51692 -10.51410  -0.89456  -0.64969  -0.55455
 Alpha  occ. eigenvalues --   -0.50582  -0.39256  -0.36303
 Alpha virt. eigenvalues --    0.03393   0.04184   0.04807   0.04897   0.07336
 Alpha virt. eigenvalues --    0.08439   0.09759   0.15038   0.16101   0.17675
 Alpha virt. eigenvalues --    0.19397   0.23924   0.32476   0.38941   0.44114
 Alpha virt. eigenvalues --    0.45290   0.53417   0.56070   0.59130   0.63768
 Alpha virt. eigenvalues --    0.66198   0.74904   0.78387   0.78958   0.80811
 Alpha virt. eigenvalues --    1.02318   1.03812   1.19239   1.20350   1.39305
 Alpha virt. eigenvalues --    1.50069   1.50402   1.66963   1.68498   1.68806
 Alpha virt. eigenvalues --    1.68823   1.79782   1.84562   2.04058   2.11039
 Alpha virt. eigenvalues --    2.20628   2.23153   2.24077   2.33800   2.35247
 Alpha virt. eigenvalues --    2.51844   2.58780   2.62328   2.67520   2.77167
 Alpha virt. eigenvalues --    2.81193   2.89376   2.98554   3.31840   3.64313
 Alpha virt. eigenvalues --    3.76233   3.92997   3.99648  23.75253  24.95120
  Beta  occ. eigenvalues --  -10.51692 -10.51410  -0.89456  -0.64969  -0.55455
  Beta  occ. eigenvalues --   -0.50582  -0.39256  -0.36303
  Beta virt. eigenvalues --    0.03393   0.04184   0.04807   0.04897   0.07336
  Beta virt. eigenvalues --    0.08439   0.09759   0.15038   0.16101   0.17675
  Beta virt. eigenvalues --    0.19397   0.23924   0.32476   0.38941   0.44114
  Beta virt. eigenvalues --    0.45290   0.53417   0.56070   0.59130   0.63768
  Beta virt. eigenvalues --    0.66198   0.74904   0.78387   0.78958   0.80811
  Beta virt. eigenvalues --    1.02318   1.03812   1.19239   1.20350   1.39305
  Beta virt. eigenvalues --    1.50069   1.50402   1.66963   1.68498   1.68806
  Beta virt. eigenvalues --    1.68823   1.79782   1.84562   2.04058   2.11039
  Beta virt. eigenvalues --    2.20628   2.23153   2.24077   2.33800   2.35247
  Beta virt. eigenvalues --    2.51844   2.58780   2.62328   2.67520   2.77167
  Beta virt. eigenvalues --    2.81193   2.89376   2.98554   3.31840   3.64313
  Beta virt. eigenvalues --    3.76233   3.92997   3.99648  23.75253  24.95120
          Condensed to atoms (all electrons):
               1          2          3          4          5          6
     1  C    4.815828   0.708308   0.409626   0.409628  -0.031730  -0.031727
     2  C    0.708308   4.815828  -0.031730  -0.031727   0.409626   0.409628
     3  H    0.409626  -0.031730   0.522731  -0.034173   0.008008  -0.014429
     4  H    0.409628  -0.031727  -0.034173   0.522724  -0.014429   0.008008
     5  H   -0.031730   0.409626   0.008008  -0.014429   0.522731  -0.034173
     6  H   -0.031727   0.409628  -0.014429   0.008008  -0.034173   0.522724
          Atomic-Atomic Spin Densities.
               1          2          3          4          5          6
     1  C    0.000000  -0.000000   0.000000   0.000000  -0.000000  -0.000000
     2  C   -0.000000   0.000000  -0.000000  -0.000000   0.000000   0.000000
     3  H    0.000000  -0.000000  -0.000000  -0.000000   0.000000   0.000000
     4  H    0.000000  -0.000000  -0.000000  -0.000000   0.000000   0.000000
     5  H   -0.000000   0.000000   0.000000   0.000000  -0.000000  -0.000000
     6  H   -0.000000   0.000000   0.000000   0.000000  -0.000000  -0.000000
 Mulliken charges and spin densities:
               1          2
     1  C   -0.279934   0.000000
     2  C   -0.279934   0.000000
     3  H    0.139965  -0.000000
     4  H    0.139969  -0.000000
     5  H    0.139965  -0.000000
     6  H    0.139969  -0.000000
 Sum of Mulliken charges =  -0.00000   0.00000
 Mulliken charges and spin densities with hydrogens summed into heavy atoms:
               1          2
     1  C   -0.000000   0.000000
     2  C   -0.000000   0.000000
 Electronic spatial extent (au):  <R**2>=             77.0984
 Charge=             -0.0000 electrons
 Dipole moment (field-independent basis, Debye):
    X=             -0.0000    Y=              0.0000    Z=              0.0000  Tot=              0.0000
 Quadrupole moment (field-independent basis, Debye-Ang):
   XX=            -12.3329   YY=            -12.3818   ZZ=            -15.2925
   XY=             -0.0001   XZ=             -0.0000   YZ=              0.0000
 Traceless Quadrupole moment (field-independent basis, Debye-Ang):
   XX=              1.0028   YY=              0.9539   ZZ=             -1.9567
   XY=             -0.0001   XZ=             -0.0000   YZ=              0.0000
 Octapole moment (field-independent basis, Debye-Ang**2):
  XXX=              0.0000  YYY=              0.0000  ZZZ=             -0.0000  XYY=             -0.0000
  XXY=              0.0000  XXZ=              0.0000  XZZ=              0.0000  YZZ=             -0.0000
  YYZ=             -0.0000  XYZ=              0.0000
 Hexadecapole moment (field-independent basis, Debye-Ang**3):
 XXXX=            -27.2412 YYYY=            -61.9792 ZZZZ=            -18.0965 XXXY=             -0.0002
 XXXZ=              0.0000 YYYX=             -0.0005 YYYZ=              0.0000 ZZZX=              0.0000
 ZZZY=              0.0000 XXYY=            -12.6666 XXZZ=             -8.2291 YYZZ=            -14.1894
 XXYZ=             -0.0000 YYXZ=             -0.0000 ZZXY=             -0.0001
 N-N= 3.535280193991D+01 E-N=-2.528005286710D+02  KE= 7.869316721951D+01
 Symmetry AG   KE= 4.014608469996D+01
 Symmetry BG   KE= 1.324697595873D-31
 Symmetry AU   KE= 2.148972264766D+00
 Symmetry BU   KE= 3.639811025479D+01
 Symmetry AG   SP= 2.154622685035D-15
 Symmetry BG   SP=-2.608512599265D-33
 Symmetry AU   SP=-6.728348939320D-17
 Symmetry BU   SP= 3.701042514837D-15
                          Isotropic Fermi Contact Couplings
        Atom                 a.u.       MegaHertz       Gauss      10(-4) cm-1
     1  C(13)              0.00000       0.00000       0.00000       0.00000
     2  C(13)              0.00000       0.00000       0.00000       0.00000
     3  H(1)              -0.00000      -0.00000      -0.00000      -0.00000
     4  H(1)              -0.00000      -0.00000      -0.00000      -0.00000
     5  H(1)              -0.00000      -0.00000      -0.00000      -0.00000
     6  H(1)              -0.00000      -0.00000      -0.00000      -0.00000
 --------------------------------------------------------
       Center         ----  Spin Dipole Couplings  ----
                      3XX-RR        3YY-RR        3ZZ-RR
 --------------------------------------------------------
     1   Atom        0.000000      0.000000      0.000000
     2   Atom        0.000000      0.000000      0.000000
     3   Atom        0.000000      0.000000      0.000000
     4   Atom        0.000000      0.000000      0.000000
     5   Atom        0.000000      0.000000      0.000000
     6   Atom        0.000000      0.000000      0.000000
 --------------------------------------------------------
                        XY            XZ            YZ
 --------------------------------------------------------
     1   Atom        0.000000      0.000000      0.000000
     2   Atom        0.000000      0.000000      0.000000
     3   Atom        0.000000      0.000000      0.000000
     4   Atom        0.000000      0.000000      0.000000
     5   Atom        0.000000      0.000000      0.000000
     6   Atom        0.000000      0.000000      0.000000
 --------------------------------------------------------


 ---------------------------------------------------------------------------------
              Anisotropic Spin Dipole Couplings in Principal Axis System
 ---------------------------------------------------------------------------------

       Atom             a.u.   MegaHertz   Gauss  10(-4) cm-1        Axes

              Baa     0.0000     0.000     0.000     0.000  1.0000  0.0000  0.0000
     1 C(13)  Bbb     0.0000     0.000     0.000     0.000 -0.0000  1.0000  0.0000
              Bcc     0.0000     0.000     0.000     0.000  0.0000  0.0000  1.0000
 
              Baa     0.0000     0.000     0.000     0.000  1.0000  0.0000  0.0000
     2 C(13)  Bbb     0.0000     0.000     0.000     0.000 -0.0000  1.0000  0.0000
              Bcc     0.0000     0.000     0.000     0.000  0.0000  0.0000  1.0000
 
              Baa     0.0000     0.000     0.000     0.000  1.0000  0.0000  0.0000
     3 H(1)   Bbb     0.0000     0.000     0.000     0.000 -0.0000  1.0000  0.0000
              Bcc     0.0000     0.000     0.000     0.000  0.0000  0.0000  1.0000
 
              Baa     0.0000     0.000     0.000     0.000  1.0000  0.0000  0.0000
     4 H(1)   Bbb     0.0000     0.000     0.000     0.000 -0.0000  1.0000  0.0000
              Bcc     0.0000     0.000     0.000     0.000  0.0000  0.0000  1.0000
 
              Baa     0.0000     0.000     0.000     0.000  1.0000  0.0000  0.0000
     5 H(1)   Bbb     0.0000     0.000     0.000     0.000 -0.0000  1.0000  0.0000
              Bcc     0.0000     0.000     0.000     0.000  0.0000  0.0000  1.0000
 
              Baa     0.0000     0.000     0.000     0.000  1.0000  0.0000  0.0000
     6 H(1)   Bbb     0.0000     0.000     0.000     0.000 -0.0000  1.0000  0.0000
              Bcc     0.0000     0.000     0.000     0.000  0.0000  0.0000  1.0000
 

 ---------------------------------------------------------------------------------

 No NMR shielding tensors so no spin-rotation constants.
 Leave Link  601 at Tue Nov 19 11:43:06 2024, MaxMem=   536870912 cpu:               1.0 elap:               0.1
 (Enter /home/szhao/Apps/g16/l701.exe)
 ... and contract with generalized density number  0.
 Compute integral first derivatives.
 Leave Link  701 at Tue Nov 19 11:43:06 2024, MaxMem=   536870912 cpu:               1.4 elap:               0.2
 (Enter /home/szhao/Apps/g16/l702.exe)
 L702 exits ... SP integral derivatives will be done elsewhere.
 Leave Link  702 at Tue Nov 19 11:43:07 2024, MaxMem=   536870912 cpu:               0.3 elap:               0.1
 (Enter /home/szhao/Apps/g16/l703.exe)
 Integral derivatives from FoFJK, PRISM(SPDF).
 Compute integral first derivatives, UseDBF=F ICtDFT=           0.
 Calling FoFJK, ICntrl=      2127 FMM=F ISym2X=1 I1Cent= 0 IOpClX= 1 NMat=1 NMatS=1 NMatT=0.
 FoFJK:  IHMeth= 1 ICntrl=    2127 DoSepK=F KAlg= 0 I1Cent=           0 FoldK=F
 IRaf=         0 NMat=       1 IRICut=       1 DoRegI=T DoRafI=F ISym2E= 1 IDoP0=0 IntGTp=1.
 FoFCou: FMM=F IPFlag=           0 FMFlag=      100000 FMFlg1=         800
         NFxFlg=           0 DoJE=F BraDBF=F KetDBF=F FulRan=T
         wScrn=  0.000000 ICntrl=      2127 IOpCl=  1 I1Cent=           0 NGrid=           0
         NMat0=    1 NMatS0=      1 NMatT0=    0 NMatD0=    1 NMtDS0=    0 NMtDT0=    0
 Petite list used in FoFCou.
 Leave Link  703 at Tue Nov 19 11:43:07 2024, MaxMem=   536870912 cpu:               4.0 elap:               0.5
 (Enter /home/szhao/Apps/g16/l716.exe)
 Dipole        =-2.22044605D-16 0.00000000D+00 5.31714385D-43
 ***** Axes restored to original set *****
 -------------------------------------------------------------------
 Center     Atomic                   Forces (Hartrees/Bohr)
 Number     Number              X              Y              Z
 -------------------------------------------------------------------
      1        6          -0.233114572   -0.000013380   -0.000000000
      2        6           0.233114572    0.000013380    0.000000000
      3        1           0.000035948    0.000070126    0.000000000
      4        1           0.000030963   -0.000059599    0.000000000
      5        1          -0.000035948   -0.000070126   -0.000000000
      6        1          -0.000030963    0.000059599   -0.000000000
 -------------------------------------------------------------------
 Cartesian Forces:  Max     0.233114572 RMS     0.077704865
 Z-matrix is all fixed cartesians, so copy forces.
 Force constants in Cartesian coordinates: 
                1             2             3             4             5 
      1  0.145199D+01
      2 -0.110547D-04  0.716435D+00
      3  0.000000D+00  0.000000D+00  0.261254D+00
      4 -0.108331D+01  0.000000D+00  0.000000D+00  0.145199D+01
      5  0.000000D+00 -0.201283D+00  0.000000D+00 -0.110547D-04  0.716435D+00
      6  0.000000D+00  0.000000D+00 -0.153561D+00  0.000000D+00  0.000000D+00
      7 -0.184331D+00 -0.114235D+00  0.000000D+00  0.000000D+00 -0.289257D-01
      8 -0.108512D+00 -0.276420D+00  0.000000D+00  0.000000D+00  0.188485D-01
      9  0.000000D+00  0.000000D+00 -0.797495D-01  0.000000D+00  0.000000D+00
     10 -0.184347D+00  0.114246D+00  0.000000D+00  0.000000D+00  0.289256D-01
     11  0.108523D+00 -0.276430D+00  0.000000D+00  0.000000D+00  0.188497D-01
     12  0.000000D+00  0.000000D+00 -0.797530D-01  0.000000D+00  0.000000D+00
     13  0.000000D+00 -0.289257D-01  0.000000D+00 -0.184331D+00 -0.114235D+00
     14  0.000000D+00  0.188485D-01  0.000000D+00 -0.108512D+00 -0.276420D+00
     15  0.000000D+00  0.000000D+00  0.259053D-01  0.000000D+00  0.000000D+00
     16  0.000000D+00  0.289256D-01  0.000000D+00 -0.184347D+00  0.114246D+00
     17  0.000000D+00  0.188497D-01  0.000000D+00  0.108523D+00 -0.276430D+00
     18  0.000000D+00  0.000000D+00  0.259048D-01  0.000000D+00  0.000000D+00
                6             7             8             9            10 
      6  0.261254D+00
      7  0.000000D+00  0.157746D+00
      8  0.000000D+00  0.125836D+00  0.268861D+00
      9  0.259053D-01  0.000000D+00  0.000000D+00  0.431925D-01
     10  0.000000D+00  0.265858D-01 -0.173238D-01  0.000000D+00  0.157761D+00
     11  0.000000D+00  0.173249D-01 -0.112892D-01  0.000000D+00 -0.125848D+00
     12  0.259048D-01  0.000000D+00  0.000000D+00  0.106523D-01  0.000000D+00
     13  0.000000D+00  0.000000D+00  0.000000D+00  0.000000D+00  0.000000D+00
     14  0.000000D+00  0.000000D+00  0.000000D+00  0.000000D+00  0.000000D+00
     15 -0.797495D-01  0.000000D+00  0.000000D+00  0.162702D-01  0.000000D+00
     16  0.000000D+00  0.000000D+00  0.000000D+00  0.000000D+00  0.000000D+00
     17  0.000000D+00  0.000000D+00  0.000000D+00  0.000000D+00  0.000000D+00
     18 -0.797530D-01  0.000000D+00  0.000000D+00 -0.162708D-01  0.000000D+00
               11            12            13            14            15 
     11  0.268870D+00
     12  0.000000D+00  0.431953D-01
     13  0.000000D+00  0.000000D+00  0.157746D+00
     14  0.000000D+00  0.000000D+00  0.125836D+00  0.268861D+00
     15  0.000000D+00 -0.162708D-01  0.000000D+00  0.000000D+00  0.431925D-01
     16  0.000000D+00  0.000000D+00  0.265858D-01 -0.173238D-01  0.000000D+00
     17  0.000000D+00  0.000000D+00  0.173249D-01 -0.112892D-01  0.000000D+00
     18  0.000000D+00  0.162714D-01  0.000000D+00  0.000000D+00  0.106523D-01
               16            17            18 
     16  0.157761D+00
     17 -0.125848D+00  0.268870D+00
     18  0.000000D+00  0.000000D+00  0.431953D-01
 Leave Link  716 at Tue Nov 19 11:43:07 2024, MaxMem=   536870912 cpu:               0.4 elap:               0.1
 (Enter /home/szhao/Apps/g16/l103.exe)

 GradGradGradGradGradGradGradGradGradGradGradGradGradGradGradGradGradGrad
 Berny optimization.
 Search for a local minimum.
 Step number   1 out of a maximum of    2
 All quantities printed in internal units (Hartrees-Bohrs-Radians)
 Second derivative matrix not updated -- first step.
 The second derivative matrix:
                          X1        Y1        Z1        X2        Y2
           X1           1.45199
           Y1          -0.00001   0.71643
           Z1           0.00000  -0.00000   0.26125
           X2          -1.08331   0.00000  -0.00000   1.45199
           Y2           0.00000  -0.20128  -0.00000  -0.00001   0.71643
           Z2          -0.00000  -0.00000  -0.15356   0.00000  -0.00000
           X3          -0.18433  -0.11423  -0.00000  -0.00000  -0.02893
           Y3          -0.10851  -0.27642  -0.00000   0.00000   0.01885
           Z3          -0.00000  -0.00000  -0.07975  -0.00000  -0.00000
           X4          -0.18435   0.11425  -0.00000   0.00000   0.02893
           Y4           0.10852  -0.27643   0.00000   0.00000   0.01885
           Z4          -0.00000   0.00000  -0.07975  -0.00000   0.00000
           X5          -0.00000  -0.02893  -0.00000  -0.18433  -0.11423
           Y5           0.00000   0.01885  -0.00000  -0.10851  -0.27642
           Z5          -0.00000  -0.00000   0.02591  -0.00000  -0.00000
           X6           0.00000   0.02893  -0.00000  -0.18435   0.11425
           Y6           0.00000   0.01885  -0.00000   0.10852  -0.27643
           Z6          -0.00000   0.00000   0.02590  -0.00000   0.00000
                          Z2        X3        Y3        Z3        X4
           Z2           0.26125
           X3          -0.00000   0.15775
           Y3          -0.00000   0.12584   0.26886
           Z3           0.02591   0.00000   0.00000   0.04319
           X4          -0.00000   0.02659  -0.01732   0.00000   0.15776
           Y4          -0.00000   0.01732  -0.01129   0.00000  -0.12585
           Z4           0.02590   0.00000  -0.00000   0.01065   0.00000
           X5          -0.00000   0.00000   0.00000  -0.00000  -0.00000
           Y5          -0.00000   0.00000   0.00000  -0.00000  -0.00000
           Z5          -0.07975  -0.00000  -0.00000   0.01627   0.00000
           X6          -0.00000  -0.00000  -0.00000   0.00000   0.00000
           Y6           0.00000  -0.00000  -0.00000   0.00000   0.00000
           Z6          -0.07975   0.00000   0.00000  -0.01627  -0.00000
                          Y4        Z4        X5        Y5        Z5
           Y4           0.26887
           Z4          -0.00000   0.04320
           X5          -0.00000   0.00000   0.15775
           Y5          -0.00000   0.00000   0.12584   0.26886
           Z5           0.00000  -0.01627   0.00000   0.00000   0.04319
           X6           0.00000  -0.00000   0.02659  -0.01732   0.00000
           Y6           0.00000  -0.00000   0.01732  -0.01129   0.00000
           Z6          -0.00000   0.01627   0.00000  -0.00000   0.01065
                          X6        Y6        Z6
           X6           0.15776
           Y6          -0.12585   0.26887
           Z6           0.00000  -0.00000   0.04320
 ITU=  0
     Eigenvalues ---    0.04548   0.06508   0.10512   0.13326   0.15472
     Eigenvalues ---    0.17611   0.31902   0.40764   0.56024   0.72312
     Eigenvalues ---    1.04823   2.57565
 Angle between quadratic step and forces=  54.73 degrees.
 ClnCor:  largest displacement from symmetrization is 3.57D-14 for atom     5.
 Linear search not attempted -- first point.
 ClnCor:  largest displacement from symmetrization is 4.93D-32 for atom     4.
 B after Tr=     0.000000    0.000000    0.000000
         Rot=    1.000000    0.000000    0.000000   -0.000000 Ang=  -0.00 deg.
 Variable       Old X    -DE/DX   Delta X   Delta X   Delta X     New X
                                 (Linear)    (Quad)   (Total)
    X1       -1.12738  -0.23311   0.00000  -0.10756  -0.10756  -1.23494
    Y1        0.00000  -0.00001   0.00000  -0.00001  -0.00001  -0.00001
    Z1       -0.00000  -0.00000   0.00000  -0.00000  -0.00000  -0.00000
    X2        1.12738   0.23311   0.00000   0.10756   0.10756   1.23494
    Y2        0.00000   0.00001   0.00000   0.00001   0.00001   0.00001
    Z2        0.00000   0.00000   0.00000   0.00000   0.00000   0.00000
    X3       -2.24949   0.00004   0.00000  -0.10750  -0.10750  -2.35699
    Y3       -1.72203   0.00007   0.00000   0.00022   0.00021  -1.72181
    Z3       -0.00000   0.00000   0.00000  -0.00000  -0.00000  -0.00000
    X4       -2.24952   0.00003   0.00000  -0.10751  -0.10751  -2.35703
    Y4        1.72196  -0.00006   0.00000  -0.00020  -0.00020   1.72176
    Z4       -0.00000   0.00000   0.00000  -0.00000  -0.00000  -0.00000
    X5        2.24949  -0.00004   0.00000   0.10750   0.10750   2.35699
    Y5        1.72203  -0.00007   0.00000  -0.00022  -0.00021   1.72181
    Z5        0.00000  -0.00000   0.00000   0.00000   0.00000   0.00000
    X6        2.24952  -0.00003   0.00000   0.10751   0.10751   2.35703
    Y6       -1.72196   0.00006   0.00000   0.00020   0.00020  -1.72176
    Z6        0.00000  -0.00000   0.00000   0.00000   0.00000   0.00000
         Item               Value     Threshold  Converged?
 Maximum Force            0.233115     0.000450     NO 
 RMS     Force            0.077705     0.000300     NO 
 Maximum Displacement     0.107563     0.001800     NO 
 RMS     Displacement     0.062079     0.001200     NO 
 Predicted change in Energy=-2.506723D-02
 GradGradGradGradGradGradGradGradGradGradGradGradGradGradGradGradGradGrad

 Leave Link  103 at Tue Nov 19 11:43:07 2024, MaxMem=   536870912 cpu:               0.3 elap:               0.1
 (Enter /home/szhao/Apps/g16/l9999.exe)
 1\1\GINC-NODE02\Force\UM062X\6-311+G(d,p)\C2H4\SZHAO\19-Nov-2024\0\\#p
  UM062X/6-311+G** force int=superfine\\Title Card Required\\0,1\C,-0.5
 96585,0.,0.\C,0.596585,0.,0.\H,-1.190378,-0.911257,0.\H,-1.190394,0.91
 1224,0.\H,1.190378,0.911257,0.\H,1.190394,-0.911224,0.\\Version=ES64L-
 G16RevA.03\State=1-AG\HF=-78.5376901\S2=0.\S2-1=0.\S2A=0.\RMSD=3.025e-
 09\RMSF=7.770e-02\Dipole=0.,0.,0.\Quadrupole=0.7091877,0.7455934,-1.45
 47811,-0.0000467,0.,0.\PG=C02H [SGH(C2H4)]\\@


 DEPRESSION IS WAITING FOR YOUR SHIP TO COME IN,
 AND FINDING OUT IT'S THE TITANIC.
 Job cpu time:       0 days  0 hours  0 minutes 31.1 seconds.
 Elapsed time:       0 days  0 hours  0 minutes  4.4 seconds.
 File lengths (MBytes):  RWF=     22 Int=      0 D2E=      0 Chk=      2 Scr=      2
 Normal termination of Gaussian 16 at Tue Nov 19 11:43:08 2024.
