 Entering Gaussian System, Link 0=g16
 Initial command:
 /home/szhao/Apps/g16/l1.exe "/home/szhao/tmp/Gau-190472.inp" -scrdir="/home/szhao/tmp/"
 Default is to use a total of  16 processors:
                               16 via shared-memory
                                1 via Linda
 Entering Link 1 = /home/szhao/Apps/g16/l1.exe PID=    190473.
  
 Copyright (c) 1988,1990,1992,1993,1995,1998,2003,2009,2016,
            Gaussian, Inc.  All Rights Reserved.
  
 This is part of the Gaussian(R) 16 program.  It is based on
 the Gaussian(R) 09 system (copyright 2009, Gaussian, Inc.),
 the Gaussian(R) 03 system (copyright 2003, Gaussian, Inc.),
 the Gaussian(R) 98 system (copyright 1998, Gaussian, Inc.),
 the Gaussian(R) 94 system (copyright 1995, Gaussian, Inc.),
 the Gaussian 92(TM) system (copyright 1992, Gaussian, Inc.),
 the Gaussian 90(TM) system (copyright 1990, Gaussian, Inc.),
 the Gaussian 88(TM) system (copyright 1988, Gaussian, Inc.),
 the Gaussian 86(TM) system (copyright 1986, Carnegie Mellon
 University), and the Gaussian 82(TM) system (copyright 1983,
 Carnegie Mellon University). Gaussian is a federally registered
 trademark of Gaussian, Inc.
  
 This software contains proprietary and confidential information,
 including trade secrets, belonging to Gaussian, Inc.
  
 This software is provided under written license and may be
 used, copied, transmitted, or stored only in accord with that
 written license.
  
 The following legend is applicable only to US Government
 contracts under FAR:
  
                    RESTRICTED RIGHTS LEGEND
  
 Use, reproduction and disclosure by the US Government is
 subject to restrictions as set forth in subparagraphs (a)
 and (c) of the Commercial Computer Software - Restricted
 Rights clause in FAR 52.227-19.
  
 Gaussian, Inc.
 340 Quinnipiac St., Bldg. 40, Wallingford CT 06492
  
  
 ---------------------------------------------------------------
 Warning -- This program may not be used in any manner that
 competes with the business of Gaussian, Inc. or will provide
 assistance to any competitor of Gaussian, Inc.  The licensee
 of this program is prohibited from giving any competitor of
 Gaussian, Inc. access to this program.  By using this program,
 the user acknowledges that Gaussian, Inc. is engaged in the
 business of creating and licensing software in the field of
 computational chemistry and represents and warrants to the
 licensee that it is not a competitor of Gaussian, Inc. and that
 it will not use this program in any manner prohibited above.
 ---------------------------------------------------------------
  

 Cite this work as:
 Gaussian 16, Revision A.03,
 M. J. Frisch, G. W. Trucks, H. B. Schlegel, G. E. Scuseria, 
 M. A. Robb, J. R. Cheeseman, G. Scalmani, V. Barone, 
 G. A. Petersson, H. Nakatsuji, X. Li, M. Caricato, A. V. Marenich, 
 J. Bloino, B. G. Janesko, R. Gomperts, B. Mennucci, H. P. Hratchian, 
 J. V. Ortiz, A. F. Izmaylov, J. L. Sonnenberg, D. Williams-Young, 
 F. Ding, F. Lipparini, F. Egidi, J. Goings, B. Peng, A. Petrone, 
 T. Henderson, D. Ranasinghe, V. G. Zakrzewski, J. Gao, N. Rega, 
 G. Zheng, W. Liang, M. Hada, M. Ehara, K. Toyota, R. Fukuda, 
 J. Hasegawa, M. Ishida, T. Nakajima, Y. Honda, O. Kitao, H. Nakai, 
 T. Vreven, K. Throssell, J. A. Montgomery, Jr., J. E. Peralta, 
 F. Ogliaro, M. J. Bearpark, J. J. Heyd, E. N. Brothers, K. N. Kudin, 
 V. N. Staroverov, T. A. Keith, R. Kobayashi, J. Normand, 
 K. Raghavachari, A. P. Rendell, J. C. Burant, S. S. Iyengar, 
 J. Tomasi, M. Cossi, J. M. Millam, M. Klene, C. Adamo, R. Cammi, 
 J. W. Ochterski, R. L. Martin, K. Morokuma, O. Farkas, 
 J. B. Foresman, and D. J. Fox, Gaussian, Inc., Wallingford CT, 2016.
 
 ******************************************
 Gaussian 16:  ES64L-G16RevA.03 25-Dec-2016
                21-Apr-2025 
 ******************************************
 %chk=opt.chk
 %mem=4GB
 %nprocshared=8
 Will use up to    8 processors via shared memory.
 --------------------------------------------
 #p opt UM062X/6-311+G** nosymm int=superfine
 --------------------------------------------
 1/18=20,19=15,26=5,38=1/1,3;
 2/9=110,12=2,15=1,17=6,18=5,40=1/2;
 3/5=4,6=6,7=111,11=2,25=1,30=1,71=1,74=-55,75=-7,116=2/1,2,3;
 4//1;
 5/5=2,38=5/2;
 6/7=2,8=2,9=2,10=2,28=1/1;
 7/30=1/1,2,3,16;
 1/18=20,19=15,26=5/3(2);
 2/9=110,15=1/2;
 99//99;
 2/9=110,15=1/2;
 3/5=4,6=6,7=111,11=2,25=1,30=1,71=1,74=-55,75=-7,116=2/1,2,3;
 4/5=5,16=3,69=1/1;
 5/5=2,38=5/2;
 7/30=1/1,2,3,16;
 1/18=20,19=15,26=5/3(-5);
 2/9=110,15=1/2;
 6/7=2,8=2,9=2,10=2,19=2,28=1/1;
 99/9=1/99;
 Leave Link    1 at Mon Apr 21 21:33:49 2025, MaxMem=   536870912 cpu:               1.2 elap:               0.2
 (Enter /home/szhao/Apps/g16/l101.exe)
 -------------------
 Title Card Required
 -------------------
 Symbolic Z-matrix:
 Charge =  0 Multiplicity = 1
 O                    -1   -0.81194   0.        0. 
 O                    -1    0.81194   0.        0. 
 H                    0    -1.00172  -0.94528   0. 
 H                    0     1.00172   0.4601    0.82575 
 
 ITRead=  2  2  0  0
 MicOpt= -2 -2 -1 -1
 NAtoms=      4 NQM=        2 NQMF=       2 NMMI=      0 NMMIF=      0
                NMic=       0 NMicF=      0.
                    Isotopes and Nuclear Properties:
 (Nuclear quadrupole moments (NQMom) in fm**2, nuclear magnetic moments (NMagM)
  in nuclear magnetons)

  Atom         1           2           3           4
 IAtWgt=          16          16           1           1
 AtmWgt=  15.9949146  15.9949146   1.0078250   1.0078250
 NucSpn=           0           0           1           1
 AtZEff=  -0.0000000  -0.0000000  -0.0000000  -0.0000000
 NQMom=    0.0000000   0.0000000   0.0000000   0.0000000
 NMagM=    0.0000000   0.0000000   2.7928460   2.7928460
 AtZNuc=   8.0000000   8.0000000   1.0000000   1.0000000
 Leave Link  101 at Mon Apr 21 21:33:49 2025, MaxMem=   536870912 cpu:               2.8 elap:               0.4
 (Enter /home/szhao/Apps/g16/l103.exe)

 GradGradGradGradGradGradGradGradGradGradGradGradGradGradGradGradGradGrad
 Berny optimization.
 Initialization pass.
                           ----------------------------
                           !    Initial Parameters    !
                           ! (Angstroms and Degrees)  !
 --------------------------                            --------------------------
 ! Name  Definition              Value          Derivative Info.                !
 --------------------------------------------------------------------------------
 ! X1    R(1,-1)                -0.8119         Frozen                          !
 ! Y1    R(1,-2)                 0.0            Frozen                          !
 ! Z1    R(1,-3)                 0.0            Frozen                          !
 ! X2    R(2,-1)                 0.8119         Frozen                          !
 ! Y2    R(2,-2)                 0.0            Frozen                          !
 ! Z2    R(2,-3)                 0.0            Frozen                          !
 ! R1    R(1,3)                  0.9641         estimate D2E/DX2                !
 ! R2    R(2,4)                  0.9641         estimate D2E/DX2                !
 ! A1    A(2,1,3)              101.3523         estimate D2E/DX2                !
 ! A2    A(1,2,4)              101.3523         estimate D2E/DX2                !
 ! D1    D(3,1,2,4)           -119.1259         estimate D2E/DX2                !
 --------------------------------------------------------------------------------
 Trust Radius=3.00D-01 FncErr=1.00D-07 GrdErr=1.00D-07 EigMax=2.50D+02 EigMin=1.00D-04
 Number of steps in this run=     21 maximum allowed number of steps=    100.
 GradGradGradGradGradGradGradGradGradGradGradGradGradGradGradGradGradGrad

 Leave Link  103 at Mon Apr 21 21:33:50 2025, MaxMem=   536870912 cpu:               0.3 elap:               0.1
 (Enter /home/szhao/Apps/g16/l202.exe)
                          Input orientation:                          
 ---------------------------------------------------------------------
 Center     Atomic      Atomic             Coordinates (Angstroms)
 Number     Number       Type             X           Y           Z
 ---------------------------------------------------------------------
      1          8           0       -0.811938    0.000000    0.000000
      2          8           0        0.811938    0.000000    0.000000
      3          1           0       -1.001722   -0.945282    0.000000
      4          1           0        1.001722    0.460097    0.825754
 ---------------------------------------------------------------------
                    Distance matrix (angstroms):
                    1          2          3          4
     1  O    0.000000
     2  O    1.623876   0.000000
     3  H    0.964145   2.045219   0.000000
     4  H    2.045219   0.964145   2.582779   0.000000
 Symmetry turned off by external request.
 Stoichiometry    H2O2
 Framework group  C2[X(H2O2)]
 Deg. of freedom     4
 Full point group                 C2      NOp   2
 Rotational constants (GHZ):         306.2847746          21.3508828          20.6694383
 Leave Link  202 at Mon Apr 21 21:33:50 2025, MaxMem=   536870912 cpu:               0.4 elap:               0.1
 (Enter /home/szhao/Apps/g16/l301.exe)
 Standard basis: 6-311+G(d,p) (5D, 7F)
 Ernie: Thresh=  0.10000D-02 Tol=  0.10000D-05 Strict=F.
    56 basis functions,    88 primitive gaussians,    58 cartesian basis functions
     9 alpha electrons        9 beta electrons
       nuclear repulsion energy        33.9822766807 Hartrees.
 IExCor= 4336 DFT=T Ex+Corr=M062X ExCW=0 ScaHFX=  0.540000
 ScaDFX=  1.000000  1.000000  1.000000  1.000000 ScalE2=  1.000000  1.000000
 IRadAn=      7 IRanWt=     -1 IRanGd=            0 ICorTp=0 IEmpDi=  4
 NAtoms=    4 NActive=    4 NUniq=    4 SFac= 1.00D+00 NAtFMM=   60 NAOKFM=F Big=F
 Integral buffers will be    131072 words long.
 Raffenetti 2 integral format.
 Two-electron integral symmetry is turned off.
 Leave Link  301 at Mon Apr 21 21:33:50 2025, MaxMem=   536870912 cpu:               0.7 elap:               0.1
 (Enter /home/szhao/Apps/g16/l302.exe)
 NPDir=0 NMtPBC=     1 NCelOv=     1 NCel=       1 NClECP=     1 NCelD=      1
         NCelK=      1 NCelE2=     1 NClLst=     1 CellRange=     0.0.
 One-electron integrals computed using PRISM.
 NBasis=    56 RedAO= T EigKep=  2.34D-03  NBF=    56
 NBsUse=    56 1.00D-06 EigRej= -1.00D+00 NBFU=    56
 Precomputing XC quadrature grid using
 IXCGrd= 4 IRadAn=           7 IRanWt=          -1 IRanGd=           0 AccXCQ= 0.00D+00.
 Generated NRdTot=       0 NPtTot=           0 NUsed=           0 NTot=          32
 NSgBfM=    58    58    58    58    58 MxSgAt=     4 MxSgA2=     4.
 Leave Link  302 at Mon Apr 21 21:33:50 2025, MaxMem=   536870912 cpu:               1.5 elap:               0.3
 (Enter /home/szhao/Apps/g16/l303.exe)
 DipDrv:  MaxL=1.
 Leave Link  303 at Mon Apr 21 21:33:51 2025, MaxMem=   536870912 cpu:               0.5 elap:               0.1
 (Enter /home/szhao/Apps/g16/l401.exe)
 ExpMin= 8.45D-02 ExpMax= 8.59D+03 ExpMxC= 1.30D+03 IAcc=3 IRadAn=         7 AccDes= 0.00D+00
 Harris functional with IExCor= 1009 and IRadAn=       7 diagonalized for initial guess.
 HarFok:  IExCor= 1009 AccDes= 0.00D+00 IRadAn=         7 IDoV= 1 UseB2=F ITyADJ=14
 ICtDFT=  3500011 ScaDFX=  1.000000  1.000000  1.000000  1.000000
 FoFCou: FMM=F IPFlag=           0 FMFlag=      100000 FMFlg1=           0
         NFxFlg=           0 DoJE=T BraDBF=F KetDBF=T FulRan=T
         wScrn=  0.000000 ICntrl=       500 IOpCl=  0 I1Cent=   200000004 NGrid=           0
         NMat0=    1 NMatS0=      1 NMatT0=    0 NMatD0=    1 NMtDS0=    0 NMtDT0=    0
 Symmetry not used in FoFCou.
 Harris En= -151.463115689596    
 JPrj=0 DoOrth=F DoCkMO=F.
 Initial guess <Sx>= 0.0000 <Sy>= 0.0000 <Sz>= 0.0000 <S**2>=-0.0000 S=-0.0000
 Leave Link  401 at Mon Apr 21 21:33:51 2025, MaxMem=   536870912 cpu:               2.7 elap:               0.5
 (Enter /home/szhao/Apps/g16/l502.exe)
 Keep R1 and R2 ints in memory in canonical form, NReq=9624198.
 FoFCou: FMM=F IPFlag=           0 FMFlag=           0 FMFlg1=           0
         NFxFlg=           0 DoJE=F BraDBF=F KetDBF=F FulRan=T
         wScrn=  0.000000 ICntrl=       600 IOpCl=  0 I1Cent=           0 NGrid=           0
         NMat0=    1 NMatS0=   1596 NMatT0=    0 NMatD0=    1 NMtDS0=    0 NMtDT0=    0
 Symmetry not used in FoFCou.
 Two-electron integral symmetry not used.
 UHF open shell SCF:
 Using DIIS extrapolation, IDIIS=  1040.
 NGot=   536870912 LenX=   534314338 LenY=   534310533
 Requested convergence on RMS density matrix=1.00D-08 within 128 cycles.
 Requested convergence on MAX density matrix=1.00D-06.
 Requested convergence on             energy=1.00D-06.
 No special actions if energy rises.
 Integral accuracy reduced to 1.0D-05 until final iterations.

 Cycle   1  Pass 0  IDiag  1:
 E= -151.486471458278    
 DIIS: error= 2.95D-02 at cycle   1 NSaved=   1.
 NSaved= 1 IEnMin= 1 EnMin= -151.486471458278     IErMin= 1 ErrMin= 2.95D-02
 ErrMax= 2.95D-02  0.00D+00 EMaxC= 1.00D-01 BMatC= 2.57D-01 BMatP= 2.57D-01
 IDIUse=3 WtCom= 7.05D-01 WtEn= 2.95D-01
 Coeff-Com:  0.100D+01
 Coeff-En:   0.100D+01
 Coeff:      0.100D+01
 Gap=     0.377 Goal=   None    Shift=    0.000
 Gap=     0.377 Goal=   None    Shift=    0.000
 GapD=    0.377 DampG=1.000 DampE=0.500 DampFc=0.5000 IDamp=-1.
 Damping current iteration by 5.00D-01
 RMSDP=3.83D-03 MaxDP=3.72D-02              OVMax= 6.90D-02

 Cycle   2  Pass 0  IDiag  1:
 E= -151.502047635219     Delta-E=       -0.015576176941 Rises=F Damp=T
 DIIS: error= 9.75D-03 at cycle   2 NSaved=   2.
 NSaved= 2 IEnMin= 2 EnMin= -151.502047635219     IErMin= 2 ErrMin= 9.75D-03
 ErrMax= 9.75D-03  0.00D+00 EMaxC= 1.00D-01 BMatC= 2.77D-02 BMatP= 2.57D-01
 IDIUse=3 WtCom= 9.02D-01 WtEn= 9.75D-02
 Coeff-Com: -0.203D+00 0.120D+01
 Coeff-En:   0.000D+00 0.100D+01
 Coeff:     -0.183D+00 0.118D+01
 Gap=     0.371 Goal=   None    Shift=    0.000
 Gap=     0.371 Goal=   None    Shift=    0.000
 RMSDP=8.38D-04 MaxDP=1.08D-02 DE=-1.56D-02 OVMax= 3.48D-02

 Cycle   3  Pass 0  IDiag  1:
 E= -151.516377725996     Delta-E=       -0.014330090777 Rises=F Damp=F
 DIIS: error= 3.83D-03 at cycle   3 NSaved=   3.
 NSaved= 3 IEnMin= 3 EnMin= -151.516377725996     IErMin= 3 ErrMin= 3.83D-03
 ErrMax= 3.83D-03  0.00D+00 EMaxC= 1.00D-01 BMatC= 3.49D-03 BMatP= 2.77D-02
 IDIUse=3 WtCom= 9.62D-01 WtEn= 3.83D-02
 Coeff-Com: -0.127D+00 0.317D+00 0.810D+00
 Coeff-En:   0.000D+00 0.000D+00 0.100D+01
 Coeff:     -0.122D+00 0.305D+00 0.817D+00
 Gap=     0.363 Goal=   None    Shift=    0.000
 Gap=     0.363 Goal=   None    Shift=    0.000
 RMSDP=2.90D-04 MaxDP=3.60D-03 DE=-1.43D-02 OVMax= 5.83D-03

 Cycle   4  Pass 0  IDiag  1:
 E= -151.516962304303     Delta-E=       -0.000584578307 Rises=F Damp=F
 DIIS: error= 5.20D-04 at cycle   4 NSaved=   4.
 NSaved= 4 IEnMin= 4 EnMin= -151.516962304303     IErMin= 4 ErrMin= 5.20D-04
 ErrMax= 5.20D-04  0.00D+00 EMaxC= 1.00D-01 BMatC= 6.83D-05 BMatP= 3.49D-03
 IDIUse=3 WtCom= 9.95D-01 WtEn= 5.20D-03
 Coeff-Com: -0.223D-01 0.423D-01 0.202D+00 0.778D+00
 Coeff-En:   0.000D+00 0.000D+00 0.000D+00 0.100D+01
 Coeff:     -0.221D-01 0.421D-01 0.201D+00 0.779D+00
 Gap=     0.363 Goal=   None    Shift=    0.000
 Gap=     0.363 Goal=   None    Shift=    0.000
 RMSDP=3.65D-05 MaxDP=3.77D-04 DE=-5.85D-04 OVMax= 7.23D-04

 Cycle   5  Pass 0  IDiag  1:
 E= -151.516971924505     Delta-E=       -0.000009620202 Rises=F Damp=F
 DIIS: error= 2.97D-05 at cycle   5 NSaved=   5.
 NSaved= 5 IEnMin= 5 EnMin= -151.516971924505     IErMin= 5 ErrMin= 2.97D-05
 ErrMax= 2.97D-05  0.00D+00 EMaxC= 1.00D-01 BMatC= 2.59D-07 BMatP= 6.83D-05
 IDIUse=1 WtCom= 1.00D+00 WtEn= 0.00D+00
 Coeff-Com:  0.236D-02-0.500D-02-0.177D-01-0.738D-01 0.109D+01
 Coeff:      0.236D-02-0.500D-02-0.177D-01-0.738D-01 0.109D+01
 Gap=     0.363 Goal=   None    Shift=    0.000
 Gap=     0.363 Goal=   None    Shift=    0.000
 RMSDP=6.44D-06 MaxDP=4.29D-05 DE=-9.62D-06 OVMax= 1.59D-04

 Initial convergence to 1.0D-05 achieved.  Increase integral accuracy.
 Cycle   6  Pass 1  IDiag  1:
 E= -151.516970814082     Delta-E=        0.000001110423 Rises=F Damp=F
 DIIS: error= 9.21D-06 at cycle   1 NSaved=   1.
 NSaved= 1 IEnMin= 1 EnMin= -151.516970814082     IErMin= 1 ErrMin= 9.21D-06
 ErrMax= 9.21D-06  0.00D+00 EMaxC= 1.00D-01 BMatC= 2.10D-08 BMatP= 2.10D-08
 IDIUse=1 WtCom= 1.00D+00 WtEn= 0.00D+00
 Coeff-Com:  0.100D+01
 Coeff:      0.100D+01
 Gap=     0.363 Goal=   None    Shift=    0.000
 Gap=     0.363 Goal=   None    Shift=    0.000
 RMSDP=6.44D-06 MaxDP=4.29D-05 DE= 1.11D-06 OVMax= 3.45D-05

 Cycle   7  Pass 1  IDiag  1:
 E= -151.516970821265     Delta-E=       -0.000000007183 Rises=F Damp=F
 DIIS: error= 3.01D-06 at cycle   2 NSaved=   2.
 NSaved= 2 IEnMin= 2 EnMin= -151.516970821265     IErMin= 2 ErrMin= 3.01D-06
 ErrMax= 3.01D-06  0.00D+00 EMaxC= 1.00D-01 BMatC= 1.99D-09 BMatP= 2.10D-08
 IDIUse=1 WtCom= 1.00D+00 WtEn= 0.00D+00
 Coeff-Com:  0.109D+00 0.891D+00
 Coeff:      0.109D+00 0.891D+00
 Gap=     0.363 Goal=   None    Shift=    0.000
 Gap=     0.363 Goal=   None    Shift=    0.000
 RMSDP=5.18D-07 MaxDP=4.57D-06 DE=-7.18D-09 OVMax= 1.66D-05

 Cycle   8  Pass 1  IDiag  1:
 E= -151.516970822212     Delta-E=       -0.000000000947 Rises=F Damp=F
 DIIS: error= 2.16D-06 at cycle   3 NSaved=   3.
 NSaved= 3 IEnMin= 3 EnMin= -151.516970822212     IErMin= 3 ErrMin= 2.16D-06
 ErrMax= 2.16D-06  0.00D+00 EMaxC= 1.00D-01 BMatC= 9.25D-10 BMatP= 1.99D-09
 IDIUse=1 WtCom= 1.00D+00 WtEn= 0.00D+00
 Coeff-Com: -0.724D-01 0.322D+00 0.751D+00
 Coeff:     -0.724D-01 0.322D+00 0.751D+00
 Gap=     0.363 Goal=   None    Shift=    0.000
 Gap=     0.363 Goal=   None    Shift=    0.000
 RMSDP=2.79D-07 MaxDP=2.49D-06 DE=-9.47D-10 OVMax= 9.89D-06

 Cycle   9  Pass 1  IDiag  1:
 E= -151.516970822488     Delta-E=       -0.000000000276 Rises=F Damp=F
 DIIS: error= 1.11D-06 at cycle   4 NSaved=   4.
 NSaved= 4 IEnMin= 4 EnMin= -151.516970822488     IErMin= 4 ErrMin= 1.11D-06
 ErrMax= 1.11D-06  0.00D+00 EMaxC= 1.00D-01 BMatC= 2.76D-10 BMatP= 9.25D-10
 IDIUse=1 WtCom= 1.00D+00 WtEn= 0.00D+00
 Coeff-Com: -0.779D-01 0.592D-02 0.403D+00 0.669D+00
 Coeff:     -0.779D-01 0.592D-02 0.403D+00 0.669D+00
 Gap=     0.363 Goal=   None    Shift=    0.000
 Gap=     0.363 Goal=   None    Shift=    0.000
 RMSDP=1.51D-07 MaxDP=1.32D-06 DE=-2.76D-10 OVMax= 6.30D-06

 Cycle  10  Pass 1  IDiag  1:
 E= -151.516970822572     Delta-E=       -0.000000000085 Rises=F Damp=F
 DIIS: error= 5.88D-07 at cycle   5 NSaved=   5.
 NSaved= 5 IEnMin= 5 EnMin= -151.516970822572     IErMin= 5 ErrMin= 5.88D-07
 ErrMax= 5.88D-07  0.00D+00 EMaxC= 1.00D-01 BMatC= 7.28D-11 BMatP= 2.76D-10
 IDIUse=1 WtCom= 1.00D+00 WtEn= 0.00D+00
 Coeff-Com: -0.388D-01-0.399D-01 0.125D+00 0.405D+00 0.549D+00
 Coeff:     -0.388D-01-0.399D-01 0.125D+00 0.405D+00 0.549D+00
 Gap=     0.363 Goal=   None    Shift=    0.000
 Gap=     0.363 Goal=   None    Shift=    0.000
 RMSDP=6.24D-08 MaxDP=7.01D-07 DE=-8.45D-11 OVMax= 2.86D-06

 Cycle  11  Pass 1  IDiag  1:
 E= -151.516970822595     Delta-E=       -0.000000000023 Rises=F Damp=F
 DIIS: error= 2.49D-07 at cycle   6 NSaved=   6.
 NSaved= 6 IEnMin= 6 EnMin= -151.516970822595     IErMin= 6 ErrMin= 2.49D-07
 ErrMax= 2.49D-07  0.00D+00 EMaxC= 1.00D-01 BMatC= 5.38D-12 BMatP= 7.28D-11
 IDIUse=1 WtCom= 1.00D+00 WtEn= 0.00D+00
 Coeff-Com:  0.270D-01 0.160D-01-0.135D+00-0.279D+00-0.101D+00 0.147D+01
 Coeff:      0.270D-01 0.160D-01-0.135D+00-0.279D+00-0.101D+00 0.147D+01
 Gap=     0.363 Goal=   None    Shift=    0.000
 Gap=     0.363 Goal=   None    Shift=    0.000
 RMSDP=7.47D-08 MaxDP=4.97D-07 DE=-2.27D-11 OVMax= 3.87D-06

 Cycle  12  Pass 1  IDiag  1:
 E= -151.516970822603     Delta-E=       -0.000000000009 Rises=F Damp=F
 DIIS: error= 4.71D-08 at cycle   7 NSaved=   7.
 NSaved= 7 IEnMin= 7 EnMin= -151.516970822603     IErMin= 7 ErrMin= 4.71D-08
 ErrMax= 4.71D-08  0.00D+00 EMaxC= 1.00D-01 BMatC= 3.28D-13 BMatP= 5.38D-12
 IDIUse=1 WtCom= 1.00D+00 WtEn= 0.00D+00
 Coeff-Com:  0.690D-02 0.459D-02-0.293D-01-0.768D-01-0.681D-01 0.184D+00
 Coeff-Com:  0.979D+00
 Coeff:      0.690D-02 0.459D-02-0.293D-01-0.768D-01-0.681D-01 0.184D+00
 Coeff:      0.979D+00
 Gap=     0.363 Goal=   None    Shift=    0.000
 Gap=     0.363 Goal=   None    Shift=    0.000
 RMSDP=1.63D-08 MaxDP=1.17D-07 DE=-8.53D-12 OVMax= 8.85D-07

 Cycle  13  Pass 1  IDiag  1:
 E= -151.516970822604     Delta-E=       -0.000000000000 Rises=F Damp=F
 DIIS: error= 1.22D-08 at cycle   8 NSaved=   8.
 NSaved= 8 IEnMin= 8 EnMin= -151.516970822604     IErMin= 8 ErrMin= 1.22D-08
 ErrMax= 1.22D-08  0.00D+00 EMaxC= 1.00D-01 BMatC= 1.84D-14 BMatP= 3.28D-13
 IDIUse=1 WtCom= 1.00D+00 WtEn= 0.00D+00
 Coeff-Com: -0.304D-02-0.246D-02 0.155D-01 0.358D-01 0.218D-01-0.147D+00
 Coeff-Com: -0.225D+00 0.130D+01
 Coeff:     -0.304D-02-0.246D-02 0.155D-01 0.358D-01 0.218D-01-0.147D+00
 Coeff:     -0.225D+00 0.130D+01
 Gap=     0.363 Goal=   None    Shift=    0.000
 Gap=     0.363 Goal=   None    Shift=    0.000
 RMSDP=3.45D-09 MaxDP=2.52D-08 DE=-2.27D-13 OVMax= 1.74D-07

 SCF Done:  E(UM062X) =  -151.516970823     A.U. after   13 cycles
            NFock= 13  Conv=0.34D-08     -V/T= 2.0040
 <Sx>= 0.0000 <Sy>= 0.0000 <Sz>= 0.0000 <S**2>=-0.0000 S=-0.0000
 <L.S>=  0.00000000000    
 KE= 1.509109721326D+02 PE=-4.265544254170D+02 EE= 9.014420578111D+01
 Annihilation of the first spin contaminant:
 S**2 before annihilation    -0.0000,   after     0.0000
 Leave Link  502 at Mon Apr 21 21:33:56 2025, MaxMem=   536870912 cpu:              33.1 elap:               4.4
 (Enter /home/szhao/Apps/g16/l601.exe)
 Copying SCF densities to generalized density rwf, IOpCl= 1 IROHF=0.

 **********************************************************************

            Population analysis using the SCF density.

 **********************************************************************

 Alpha  occ. eigenvalues --  -19.70290 -19.70279  -1.20606  -1.05681  -0.59333
 Alpha  occ. eigenvalues --   -0.57498  -0.48832  -0.43067  -0.39562
 Alpha virt. eigenvalues --   -0.03285   0.06048   0.10302   0.15843   0.16473
 Alpha virt. eigenvalues --    0.19042   0.20344   0.20688   0.21903   0.27909
 Alpha virt. eigenvalues --    0.33274   0.51017   0.52358   0.96132   0.99535
 Alpha virt. eigenvalues --    1.01641   1.04477   1.09477   1.13789   1.32740
 Alpha virt. eigenvalues --    1.34229   1.41092   1.44792   1.56067   1.59357
 Alpha virt. eigenvalues --    2.02989   2.06452   2.43094   2.52301   2.65023
 Alpha virt. eigenvalues --    2.78812   2.89515   3.14336   3.15883   3.16845
 Alpha virt. eigenvalues --    3.25264   3.53047   3.82322   3.87439   4.94792
 Alpha virt. eigenvalues --    5.01606   5.03467   5.19769   5.51601   5.54253
 Alpha virt. eigenvalues --   49.85645  49.91382
  Beta  occ. eigenvalues --  -19.70290 -19.70279  -1.20606  -1.05681  -0.59333
  Beta  occ. eigenvalues --   -0.57498  -0.48832  -0.43067  -0.39562
  Beta virt. eigenvalues --   -0.03285   0.06048   0.10302   0.15843   0.16473
  Beta virt. eigenvalues --    0.19042   0.20344   0.20688   0.21903   0.27909
  Beta virt. eigenvalues --    0.33274   0.51017   0.52358   0.96132   0.99535
  Beta virt. eigenvalues --    1.01641   1.04477   1.09477   1.13789   1.32740
  Beta virt. eigenvalues --    1.34229   1.41092   1.44792   1.56067   1.59357
  Beta virt. eigenvalues --    2.02989   2.06452   2.43094   2.52301   2.65023
  Beta virt. eigenvalues --    2.78812   2.89515   3.14336   3.15883   3.16845
  Beta virt. eigenvalues --    3.25264   3.53047   3.82322   3.87439   4.94792
  Beta virt. eigenvalues --    5.01606   5.03467   5.19769   5.51601   5.54253
  Beta virt. eigenvalues --   49.85645  49.91382
          Condensed to atoms (all electrons):
               1          2          3          4
     1  O    7.891584   0.123417   0.263721  -0.009587
     2  O    0.123417   7.891585  -0.009588   0.263720
     3  H    0.263721  -0.009588   0.476234   0.000498
     4  H   -0.009587   0.263720   0.000498   0.476234
          Atomic-Atomic Spin Densities.
               1          2          3          4
     1  O    0.000000  -0.000000  -0.000000   0.000000
     2  O   -0.000000  -0.000000   0.000000   0.000000
     3  H   -0.000000   0.000000  -0.000000   0.000000
     4  H    0.000000   0.000000   0.000000  -0.000000
 Mulliken charges and spin densities:
               1          2
     1  O   -0.269134   0.000000
     2  O   -0.269134  -0.000000
     3  H    0.269135  -0.000000
     4  H    0.269134   0.000000
 Sum of Mulliken charges =  -0.00000  -0.00000
 Mulliken charges and spin densities with hydrogens summed into heavy atoms:
               1          2
     1  O    0.000000   0.000000
     2  O   -0.000000  -0.000000
 Electronic spatial extent (au):  <R**2>=             75.6754
 Charge=             -0.0000 electrons
 Dipole moment (field-independent basis, Debye):
    X=              0.0000    Y=             -0.9246    Z=              1.5736  Tot=              1.8252
 Quadrupole moment (field-independent basis, Debye-Ang):
   XX=            -11.0769   YY=            -10.3260   ZZ=            -11.4961
   XY=              3.1213   XZ=              1.8340   YZ=              1.0500
 Traceless Quadrupole moment (field-independent basis, Debye-Ang):
   XX=             -0.1106   YY=              0.6403   ZZ=             -0.5298
   XY=              3.1213   XZ=              1.8340   YZ=              1.0500
 Octapole moment (field-independent basis, Debye-Ang**2):
  XXX=              0.0000  YYY=             -0.9199  ZZZ=              0.0954  XYY=             -1.8168
  XXY=             -0.8732  XXZ=              1.4862  XZZ=              1.8168  YZZ=              0.8609
  YYZ=              0.0051  XYZ=              1.0123
 Hexadecapole moment (field-independent basis, Debye-Ang**3):
 XXXX=            -54.2107 YYYY=            -10.5954 ZZZZ=            -11.0639 XXXY=              2.1226
 XXXZ=              1.2472 YYYX=              0.6839 YYYZ=             -0.0181 ZZZX=              0.4294
 ZZZY=              0.4386 XXYY=            -10.1908 XXZZ=            -11.2400 YYZZ=             -3.7983
 XXYZ=              0.9415 YYXZ=              0.1059 ZZXY=              0.2271
 N-N= 3.398227668069D+01 E-N=-4.265544254087D+02  KE= 1.509109721326D+02
                          Isotropic Fermi Contact Couplings
        Atom                 a.u.       MegaHertz       Gauss      10(-4) cm-1
     1  O(17)             -0.00000       0.00000       0.00000       0.00000
     2  O(17)             -0.00000       0.00000       0.00000       0.00000
     3  H(1)               0.00000       0.00000       0.00000       0.00000
     4  H(1)              -0.00000      -0.00000      -0.00000      -0.00000
 --------------------------------------------------------
       Center         ----  Spin Dipole Couplings  ----
                      3XX-RR        3YY-RR        3ZZ-RR
 --------------------------------------------------------
     1   Atom        0.000000      0.000000      0.000000
     2   Atom        0.000000      0.000000      0.000000
     3   Atom        0.000000      0.000000      0.000000
     4   Atom        0.000000      0.000000      0.000000
 --------------------------------------------------------
                        XY            XZ            YZ
 --------------------------------------------------------
     1   Atom        0.000000      0.000000      0.000000
     2   Atom        0.000000      0.000000      0.000000
     3   Atom        0.000000      0.000000      0.000000
     4   Atom        0.000000      0.000000      0.000000
 --------------------------------------------------------


 ---------------------------------------------------------------------------------
              Anisotropic Spin Dipole Couplings in Principal Axis System
 ---------------------------------------------------------------------------------

       Atom             a.u.   MegaHertz   Gauss  10(-4) cm-1        Axes

              Baa     0.0000    -0.000    -0.000    -0.000  1.0000  0.0000  0.0000
     1 O(17)  Bbb     0.0000    -0.000    -0.000    -0.000 -0.0000  1.0000  0.0000
              Bcc     0.0000    -0.000    -0.000    -0.000  0.0000  0.0000  1.0000
 
              Baa     0.0000    -0.000    -0.000    -0.000  1.0000  0.0000  0.0000
     2 O(17)  Bbb     0.0000    -0.000    -0.000    -0.000 -0.0000  1.0000  0.0000
              Bcc     0.0000    -0.000    -0.000    -0.000  0.0000  0.0000  1.0000
 
              Baa     0.0000     0.000     0.000     0.000  1.0000  0.0000  0.0000
     3 H(1)   Bbb     0.0000     0.000     0.000     0.000 -0.0000  1.0000  0.0000
              Bcc     0.0000     0.000     0.000     0.000  0.0000  0.0000  1.0000
 
              Baa     0.0000     0.000     0.000     0.000  1.0000  0.0000  0.0000
     4 H(1)   Bbb     0.0000     0.000     0.000     0.000 -0.0000  1.0000  0.0000
              Bcc     0.0000     0.000     0.000     0.000  0.0000  0.0000  1.0000
 

 ---------------------------------------------------------------------------------

 No NMR shielding tensors so no spin-rotation constants.
 Leave Link  601 at Mon Apr 21 21:33:56 2025, MaxMem=   536870912 cpu:               1.3 elap:               0.2
 (Enter /home/szhao/Apps/g16/l701.exe)
 ... and contract with generalized density number  0.
 Compute integral first derivatives.
 Leave Link  701 at Mon Apr 21 21:33:56 2025, MaxMem=   536870912 cpu:               1.2 elap:               0.2
 (Enter /home/szhao/Apps/g16/l702.exe)
 L702 exits ... SP integral derivatives will be done elsewhere.
 Leave Link  702 at Mon Apr 21 21:33:56 2025, MaxMem=   536870912 cpu:               0.4 elap:               0.1
 (Enter /home/szhao/Apps/g16/l703.exe)
 Integral derivatives from FoFJK, PRISM(SPDF).
 Compute integral first derivatives, UseDBF=F ICtDFT=           0.
 Calling FoFJK, ICntrl=      2127 FMM=F ISym2X=0 I1Cent= 0 IOpClX= 1 NMat=1 NMatS=1 NMatT=0.
 FoFJK:  IHMeth= 1 ICntrl=    2127 DoSepK=F KAlg= 0 I1Cent=           0 FoldK=F
 IRaf=         0 NMat=       1 IRICut=       1 DoRegI=T DoRafI=F ISym2E= 0 IDoP0=0 IntGTp=1.
 FoFCou: FMM=F IPFlag=           0 FMFlag=      100000 FMFlg1=         800
         NFxFlg=           0 DoJE=F BraDBF=F KetDBF=F FulRan=T
         wScrn=  0.000000 ICntrl=      2127 IOpCl=  1 I1Cent=           0 NGrid=           0
         NMat0=    1 NMatS0=      1 NMatT0=    0 NMatD0=    1 NMtDS0=    0 NMtDT0=    0
 Symmetry not used in FoFCou.
 Leave Link  703 at Mon Apr 21 21:33:57 2025, MaxMem=   536870912 cpu:               5.1 elap:               0.6
 (Enter /home/szhao/Apps/g16/l716.exe)
 Dipole        = 1.74982180D-08-3.63768923D-01 6.19111143D-01
 -------------------------------------------------------------------
 Center     Atomic                   Forces (Hartrees/Bohr)
 Number     Number              X              Y              Z
 -------------------------------------------------------------------
      1        8          -0.000000000   -0.000000000   -0.000000000
      2        8          -0.000000000   -0.000000000   -0.000000000
      3        1           0.009678119   -0.004939523   -0.000222563
      4        1          -0.009676745    0.002597869    0.004205027
 -------------------------------------------------------------------
 Cartesian Forces:  Max     0.009678119 RMS     0.004436449
 Leave Link  716 at Mon Apr 21 21:33:57 2025, MaxMem=   536870912 cpu:               0.7 elap:               0.1
 (Enter /home/szhao/Apps/g16/l103.exe)

 GradGradGradGradGradGradGradGradGradGradGradGradGradGradGradGradGradGrad
 Berny optimization.
 FormGI is forming the generalized inverse of G from B-inverse, IUseBI=4.
 Internal  Forces:  Max     0.019059771 RMS     0.011274399
 Search for a local minimum.
 Step number   1 out of a maximum of   21
 All quantities printed in internal units (Hartrees-Bohrs-Radians)
 RMS Force = .12197D-01 SwitMx=.10000D-02 MixMth= 1
 Mixed Optimization -- RFO/linear search
 Second derivative matrix not updated -- first step.
 The second derivative matrix:
                          X1        Y1        Z1        X2        Y2
           X1           0.50000
           Y1           0.00000   0.50000
           Z1           0.00000   0.00000   0.50000
           X2           0.00000   0.00000   0.00000   0.50000
           Y2           0.00000   0.00000   0.00000   0.00000   0.50000
           Z2           0.00000   0.00000   0.00000   0.00000   0.00000
           R1           0.00000   0.00000   0.00000   0.00000   0.00000
           R2           0.00000   0.00000   0.00000   0.00000   0.00000
           A1           0.00000   0.00000   0.00000   0.00000   0.00000
           A2           0.00000   0.00000   0.00000   0.00000   0.00000
           D1           0.00000   0.00000   0.00000   0.00000   0.00000
                          Z2        R1        R2        A1        A2
           Z2           0.50000
           R1           0.00000   0.54591
           R2           0.00000   0.00000   0.54591
           A1           0.00000   0.00000   0.00000   0.16000
           A2           0.00000   0.00000   0.00000   0.00000   0.16000
           D1           0.00000   0.00000   0.00000   0.00000   0.00000
                          D1
           D1           0.00230
 ITU=  0
     Eigenvalues ---    0.00230   0.16000   0.16000   0.54591   0.54591
     Eigenvalues --- 1000.000001000.000001000.000001000.000001000.00000
     Eigenvalues --- 1000.00000
 RFO step:  Lambda=-4.47146324D-03 EMin= 2.30000000D-03
 Linear search not attempted -- first point.
 Iteration  1 RMS(Cart)=  0.09222573 RMS(Int)=  0.00549128
 Iteration  2 RMS(Cart)=  0.00569723 RMS(Int)=  0.00000648
 Iteration  3 RMS(Cart)=  0.00001021 RMS(Int)=  0.00000000
 Iteration  4 RMS(Cart)=  0.00000000 RMS(Int)=  0.00000000
 ITry= 1 IFail=0 DXMaxC= 2.09D-01 DCOld= 1.00D+10 DXMaxT= 3.00D-01 DXLimC= 3.00D+00 Rises=F
 Variable       Old X    -DE/DX   Delta X   Delta X   Delta X     New X
                                 (Linear)    (Quad)   (Total)
    X1       -1.53434   0.00968   0.00000   0.00000   0.00000  -1.53434
    Y1        0.00000  -0.01420   0.00000   0.00000   0.00000   0.00000
    Z1        0.00000  -0.00566   0.00000   0.00000   0.00000   0.00000
    X2        1.53434  -0.00968   0.00000   0.00000   0.00000   1.53434
    Y2        0.00000   0.01185   0.00000   0.00000   0.00000   0.00000
    Z2        0.00000   0.00964   0.00000   0.00000   0.00000   0.00000
    R1        1.82197   0.00294   0.00000   0.00534   0.00534   1.82731
    R2        1.82197   0.00294   0.00000   0.00534   0.00534   1.82731
    A1        1.76893  -0.01906   0.00000  -0.11588  -0.11588   1.65305
    A2        1.76893  -0.01906   0.00000  -0.11587  -0.11587   1.65307
    D1       -2.07914  -0.00040   0.00000  -0.05873  -0.05873  -2.13786
         Item               Value     Threshold  Converged?
 Maximum Force            0.019060     0.000450     NO 
 RMS     Force            0.012197     0.000300     NO 
 Maximum Displacement     0.208512     0.001800     NO 
 RMS     Displacement     0.092992     0.001200     NO 
 Predicted change in Energy=-2.303611D-03
 Lowest energy point so far.  Saving SCF results.
 GradGradGradGradGradGradGradGradGradGradGradGradGradGradGradGradGradGrad

 Leave Link  103 at Mon Apr 21 21:33:58 2025, MaxMem=   536870912 cpu:               0.4 elap:               0.1
 (Enter /home/szhao/Apps/g16/l202.exe)
                          Input orientation:                          
 ---------------------------------------------------------------------
 Center     Atomic      Atomic             Coordinates (Angstroms)
 Number     Number       Type             X           Y           Z
 ---------------------------------------------------------------------
      1          8           0       -0.811938    0.000000    0.000000
      2          8           0        0.811938    0.000000    0.000000
      3          1           0       -0.891382   -0.963138   -0.032936
      4          1           0        0.891400    0.489578    0.830077
 ---------------------------------------------------------------------
                    Distance matrix (angstroms):
                    1          2          3          4
     1  O    0.000000
     2  O    1.623876   0.000000
     3  H    0.966970   1.957043   0.000000
     4  H    1.957057   0.966969   2.456316   0.000000
 Symmetry turned off by external request.
 Stoichiometry    H2O2
 Framework group  C1[X(H2O2)]
 Deg. of freedom     6
 Full point group                 C1      NOp   1
 Rotational constants (GHZ):         290.7133976          21.7778763          20.9445147
 Leave Link  202 at Mon Apr 21 21:33:58 2025, MaxMem=   536870912 cpu:               0.1 elap:               0.1
 (Enter /home/szhao/Apps/g16/l301.exe)
 Standard basis: 6-311+G(d,p) (5D, 7F)
 Ernie: Thresh=  0.10000D-02 Tol=  0.10000D-05 Strict=F.
    56 basis functions,    88 primitive gaussians,    58 cartesian basis functions
     9 alpha electrons        9 beta electrons
       nuclear repulsion energy        34.1536850699 Hartrees.
 IExCor= 4336 DFT=T Ex+Corr=M062X ExCW=0 ScaHFX=  0.540000
 ScaDFX=  1.000000  1.000000  1.000000  1.000000 ScalE2=  1.000000  1.000000
 IRadAn=      7 IRanWt=     -1 IRanGd=            0 ICorTp=0 IEmpDi=  4
 NAtoms=    4 NActive=    4 NUniq=    4 SFac= 1.00D+00 NAtFMM=   60 NAOKFM=F Big=F
 Integral buffers will be    131072 words long.
 Raffenetti 2 integral format.
 Two-electron integral symmetry is turned off.
 Leave Link  301 at Mon Apr 21 21:33:58 2025, MaxMem=   536870912 cpu:               0.6 elap:               0.1
 (Enter /home/szhao/Apps/g16/l302.exe)
 NPDir=0 NMtPBC=     1 NCelOv=     1 NCel=       1 NClECP=     1 NCelD=      1
         NCelK=      1 NCelE2=     1 NClLst=     1 CellRange=     0.0.
 One-electron integrals computed using PRISM.
 NBasis=    56 RedAO= T EigKep=  2.30D-03  NBF=    56
 NBsUse=    56 1.00D-06 EigRej= -1.00D+00 NBFU=    56
 Precomputing XC quadrature grid using
 IXCGrd= 4 IRadAn=           7 IRanWt=          -1 IRanGd=           0 AccXCQ= 0.00D+00.
 Generated NRdTot=       0 NPtTot=           0 NUsed=           0 NTot=          32
 NSgBfM=    58    58    58    58    58 MxSgAt=     4 MxSgA2=     4.
 Leave Link  302 at Mon Apr 21 21:33:58 2025, MaxMem=   536870912 cpu:               1.8 elap:               0.3
 (Enter /home/szhao/Apps/g16/l303.exe)
 DipDrv:  MaxL=1.
 Leave Link  303 at Mon Apr 21 21:33:59 2025, MaxMem=   536870912 cpu:               0.6 elap:               0.1
 (Enter /home/szhao/Apps/g16/l401.exe)
 Initial guess from the checkpoint file:  "opt.chk"
 B after Tr=     0.000002    0.001638   -0.002757
         Rot=    0.999959   -0.002410    0.004445   -0.007524 Ang=  -1.04 deg.
 Guess basis will be translated and rotated to current coordinates.
 JPrj=2 DoOrth=T DoCkMO=T.
 Initial guess <Sx>= 0.0000 <Sy>= 0.0000 <Sz>= 0.0000 <S**2>=-0.0000 S=-0.0000
 Generating alternative initial guess.
 ExpMin= 8.45D-02 ExpMax= 8.59D+03 ExpMxC= 1.30D+03 IAcc=3 IRadAn=         5 AccDes= 0.00D+00
 Harris functional with IExCor= 1009 and IRadAn=       5 diagonalized for initial guess.
 HarFok:  IExCor= 1009 AccDes= 0.00D+00 IRadAn=         5 IDoV= 1 UseB2=F ITyADJ=14
 ICtDFT=  3500011 ScaDFX=  1.000000  1.000000  1.000000  1.000000
 FoFCou: FMM=F IPFlag=           0 FMFlag=      100000 FMFlg1=           0
         NFxFlg=           0 DoJE=T BraDBF=F KetDBF=T FulRan=T
         wScrn=  0.000000 ICntrl=       500 IOpCl=  0 I1Cent=   200000004 NGrid=           0
         NMat0=    1 NMatS0=      1 NMatT0=    0 NMatD0=    1 NMtDS0=    0 NMtDT0=    0
 Symmetry not used in FoFCou.
 Harris En= -151.464124496919    
 Leave Link  401 at Mon Apr 21 21:33:59 2025, MaxMem=   536870912 cpu:               2.9 elap:               0.5
 (Enter /home/szhao/Apps/g16/l502.exe)
 Keep R1 and R2 ints in memory in canonical form, NReq=9624198.
 FoFCou: FMM=F IPFlag=           0 FMFlag=           0 FMFlg1=           0
         NFxFlg=           0 DoJE=F BraDBF=F KetDBF=F FulRan=T
         wScrn=  0.000000 ICntrl=       600 IOpCl=  0 I1Cent=           0 NGrid=           0
         NMat0=    1 NMatS0=   1596 NMatT0=    0 NMatD0=    1 NMtDS0=    0 NMtDT0=    0
 Symmetry not used in FoFCou.
 Two-electron integral symmetry not used.
 UHF open shell SCF:
 Using DIIS extrapolation, IDIIS=  1040.
 NGot=   536870912 LenX=   534314338 LenY=   534310533
 Requested convergence on RMS density matrix=1.00D-08 within 128 cycles.
 Requested convergence on MAX density matrix=1.00D-06.
 Requested convergence on             energy=1.00D-06.
 No special actions if energy rises.
 Integral accuracy reduced to 1.0D-05 until final iterations.

 Cycle   1  Pass 0  IDiag  1:
 E= -151.516644216234    
 DIIS: error= 4.38D-03 at cycle   1 NSaved=   1.
 NSaved= 1 IEnMin= 1 EnMin= -151.516644216234     IErMin= 1 ErrMin= 4.38D-03
 ErrMax= 4.38D-03  0.00D+00 EMaxC= 1.00D-01 BMatC= 6.82D-03 BMatP= 6.82D-03
 IDIUse=3 WtCom= 9.56D-01 WtEn= 4.38D-02
 Coeff-Com:  0.100D+01
 Coeff-En:   0.100D+01
 Coeff:      0.100D+01
 Gap=     0.672 Goal=   None    Shift=    0.000
 Gap=     0.672 Goal=   None    Shift=    0.000
 GapD=    0.672 DampG=2.000 DampE=1.000 DampFc=2.0000 IDamp=-1.
 RMSDP=7.83D-04 MaxDP=4.61D-03              OVMax= 1.34D-02

 Cycle   2  Pass 0  IDiag  1:
 E= -151.518736239918     Delta-E=       -0.002092023684 Rises=F Damp=F
 DIIS: error= 8.92D-04 at cycle   2 NSaved=   2.
 NSaved= 2 IEnMin= 2 EnMin= -151.518736239918     IErMin= 2 ErrMin= 8.92D-04
 ErrMax= 8.92D-04  0.00D+00 EMaxC= 1.00D-01 BMatC= 1.82D-04 BMatP= 6.82D-03
 IDIUse=3 WtCom= 9.91D-01 WtEn= 8.92D-03
 Coeff-Com: -0.118D+00 0.112D+01
 Coeff-En:   0.000D+00 0.100D+01
 Coeff:     -0.117D+00 0.112D+01
 Gap=     0.364 Goal=   None    Shift=    0.000
 Gap=     0.364 Goal=   None    Shift=    0.000
 RMSDP=1.93D-04 MaxDP=1.55D-03 DE=-2.09D-03 OVMax= 6.52D-03

 Cycle   3  Pass 0  IDiag  1:
 E= -151.518842397252     Delta-E=       -0.000106157334 Rises=F Damp=F
 DIIS: error= 3.92D-04 at cycle   3 NSaved=   3.
 NSaved= 3 IEnMin= 3 EnMin= -151.518842397252     IErMin= 3 ErrMin= 3.92D-04
 ErrMax= 3.92D-04  0.00D+00 EMaxC= 1.00D-01 BMatC= 1.26D-05 BMatP= 1.82D-04
 IDIUse=3 WtCom= 9.96D-01 WtEn= 3.92D-03
 Coeff-Com: -0.165D-01 0.223D-01 0.994D+00
 Coeff-En:   0.000D+00 0.000D+00 0.100D+01
 Coeff:     -0.164D-01 0.222D-01 0.994D+00
 Gap=     0.364 Goal=   None    Shift=    0.000
 Gap=     0.364 Goal=   None    Shift=    0.000
 RMSDP=6.80D-05 MaxDP=4.22D-04 DE=-1.06D-04 OVMax= 3.03D-03

 Cycle   4  Pass 0  IDiag  1:
 E= -151.518854982929     Delta-E=       -0.000012585676 Rises=F Damp=F
 DIIS: error= 2.22D-04 at cycle   4 NSaved=   4.
 NSaved= 4 IEnMin= 4 EnMin= -151.518854982929     IErMin= 4 ErrMin= 2.22D-04
 ErrMax= 2.22D-04  0.00D+00 EMaxC= 1.00D-01 BMatC= 2.84D-06 BMatP= 1.26D-05
 IDIUse=3 WtCom= 9.98D-01 WtEn= 2.22D-03
 Coeff-Com:  0.169D-01-0.145D+00-0.102D+00 0.123D+01
 Coeff-En:   0.000D+00 0.000D+00 0.000D+00 0.100D+01
 Coeff:      0.169D-01-0.145D+00-0.102D+00 0.123D+01
 Gap=     0.364 Goal=   None    Shift=    0.000
 Gap=     0.364 Goal=   None    Shift=    0.000
 RMSDP=4.61D-05 MaxDP=2.89D-04 DE=-1.26D-05 OVMax= 2.35D-03

 Cycle   5  Pass 0  IDiag  1:
 E= -151.518859210038     Delta-E=       -0.000004227110 Rises=F Damp=F
 DIIS: error= 7.29D-05 at cycle   5 NSaved=   5.
 NSaved= 5 IEnMin= 5 EnMin= -151.518859210038     IErMin= 5 ErrMin= 7.29D-05
 ErrMax= 7.29D-05  0.00D+00 EMaxC= 1.00D-01 BMatC= 4.79D-07 BMatP= 2.84D-06
 IDIUse=1 WtCom= 1.00D+00 WtEn= 0.00D+00
 Coeff-Com:  0.408D-02-0.216D-01-0.122D+00 0.652D-01 0.107D+01
 Coeff:      0.408D-02-0.216D-01-0.122D+00 0.652D-01 0.107D+01
 Gap=     0.364 Goal=   None    Shift=    0.000
 Gap=     0.364 Goal=   None    Shift=    0.000
 RMSDP=1.76D-05 MaxDP=1.23D-04 DE=-4.23D-06 OVMax= 9.53D-04

 Cycle   6  Pass 0  IDiag  1:
 E= -151.518859804636     Delta-E=       -0.000000594598 Rises=F Damp=F
 DIIS: error= 2.37D-05 at cycle   6 NSaved=   6.
 NSaved= 6 IEnMin= 6 EnMin= -151.518859804636     IErMin= 6 ErrMin= 2.37D-05
 ErrMax= 2.37D-05  0.00D+00 EMaxC= 1.00D-01 BMatC= 1.46D-07 BMatP= 4.79D-07
 IDIUse=1 WtCom= 1.00D+00 WtEn= 0.00D+00
 Coeff-Com: -0.286D-02 0.296D-01-0.128D-01-0.303D+00 0.461D+00 0.828D+00
 Coeff:     -0.286D-02 0.296D-01-0.128D-01-0.303D+00 0.461D+00 0.828D+00
 Gap=     0.364 Goal=   None    Shift=    0.000
 Gap=     0.364 Goal=   None    Shift=    0.000
 RMSDP=6.66D-06 MaxDP=4.79D-05 DE=-5.95D-07 OVMax= 3.67D-04

 Initial convergence to 1.0D-05 achieved.  Increase integral accuracy.
 Cycle   7  Pass 1  IDiag  1:
 E= -151.518858414799     Delta-E=        0.000001389837 Rises=F Damp=F
 DIIS: error= 7.56D-06 at cycle   1 NSaved=   1.
 NSaved= 1 IEnMin= 1 EnMin= -151.518858414799     IErMin= 1 ErrMin= 7.56D-06
 ErrMax= 7.56D-06  0.00D+00 EMaxC= 1.00D-01 BMatC= 1.12D-08 BMatP= 1.12D-08
 IDIUse=1 WtCom= 1.00D+00 WtEn= 0.00D+00
 Coeff-Com:  0.100D+01
 Coeff:      0.100D+01
 Gap=     0.364 Goal=   None    Shift=    0.000
 Gap=     0.364 Goal=   None    Shift=    0.000
 RMSDP=6.66D-06 MaxDP=4.79D-05 DE= 1.39D-06 OVMax= 3.53D-05

 Cycle   8  Pass 1  IDiag  1:
 E= -151.518858413558     Delta-E=        0.000000001241 Rises=F Damp=F
 DIIS: error= 1.49D-05 at cycle   2 NSaved=   2.
 NSaved= 2 IEnMin= 1 EnMin= -151.518858414799     IErMin= 1 ErrMin= 7.56D-06
 ErrMax= 1.49D-05  0.00D+00 EMaxC= 1.00D-01 BMatC= 2.66D-08 BMatP= 1.12D-08
 IDIUse=1 WtCom= 1.00D+00 WtEn= 0.00D+00
 Coeff-Com:  0.618D+00 0.382D+00
 Coeff:      0.618D+00 0.382D+00
 Gap=     0.364 Goal=   None    Shift=    0.000
 Gap=     0.364 Goal=   None    Shift=    0.000
 RMSDP=6.81D-07 MaxDP=8.36D-06 DE= 1.24D-09 OVMax= 2.54D-05

 Cycle   9  Pass 1  IDiag  1:
 E= -151.518858418267     Delta-E=       -0.000000004709 Rises=F Damp=F
 DIIS: error= 1.54D-06 at cycle   3 NSaved=   3.
 NSaved= 3 IEnMin= 3 EnMin= -151.518858418267     IErMin= 3 ErrMin= 1.54D-06
 ErrMax= 1.54D-06  0.00D+00 EMaxC= 1.00D-01 BMatC= 4.93D-10 BMatP= 1.12D-08
 IDIUse=1 WtCom= 1.00D+00 WtEn= 0.00D+00
 Coeff-Com: -0.678D-01 0.648D-01 0.100D+01
 Coeff:     -0.678D-01 0.648D-01 0.100D+01
 Gap=     0.364 Goal=   None    Shift=    0.000
 Gap=     0.364 Goal=   None    Shift=    0.000
 RMSDP=2.77D-07 MaxDP=2.26D-06 DE=-4.71D-09 OVMax= 1.06D-05

 Cycle  10  Pass 1  IDiag  1:
 E= -151.518858418544     Delta-E=       -0.000000000276 Rises=F Damp=F
 DIIS: error= 6.31D-07 at cycle   4 NSaved=   4.
 NSaved= 4 IEnMin= 4 EnMin= -151.518858418544     IErMin= 4 ErrMin= 6.31D-07
 ErrMax= 6.31D-07  0.00D+00 EMaxC= 1.00D-01 BMatC= 5.70D-11 BMatP= 4.93D-10
 IDIUse=1 WtCom= 1.00D+00 WtEn= 0.00D+00
 Coeff-Com: -0.976D-01-0.442D-01 0.137D+00 0.100D+01
 Coeff:     -0.976D-01-0.442D-01 0.137D+00 0.100D+01
 Gap=     0.364 Goal=   None    Shift=    0.000
 Gap=     0.364 Goal=   None    Shift=    0.000
 RMSDP=1.38D-07 MaxDP=9.32D-07 DE=-2.76D-10 OVMax= 6.61D-06

 Cycle  11  Pass 1  IDiag  1:
 E= -151.518858418595     Delta-E=       -0.000000000051 Rises=F Damp=F
 DIIS: error= 3.14D-07 at cycle   5 NSaved=   5.
 NSaved= 5 IEnMin= 5 EnMin= -151.518858418595     IErMin= 5 ErrMin= 3.14D-07
 ErrMax= 3.14D-07  0.00D+00 EMaxC= 1.00D-01 BMatC= 1.13D-11 BMatP= 5.70D-11
 IDIUse=1 WtCom= 1.00D+00 WtEn= 0.00D+00
 Coeff-Com: -0.171D-01-0.212D-01-0.984D-01 0.311D+00 0.826D+00
 Coeff:     -0.171D-01-0.212D-01-0.984D-01 0.311D+00 0.826D+00
 Gap=     0.364 Goal=   None    Shift=    0.000
 Gap=     0.364 Goal=   None    Shift=    0.000
 RMSDP=5.02D-08 MaxDP=3.53D-07 DE=-5.14D-11 OVMax= 2.73D-06

 Cycle  12  Pass 1  IDiag  1:
 E= -151.518858418604     Delta-E=       -0.000000000008 Rises=F Damp=F
 DIIS: error= 1.42D-07 at cycle   6 NSaved=   6.
 NSaved= 6 IEnMin= 6 EnMin= -151.518858418604     IErMin= 6 ErrMin= 1.42D-07
 ErrMax= 1.42D-07  0.00D+00 EMaxC= 1.00D-01 BMatC= 2.16D-12 BMatP= 1.13D-11
 IDIUse=1 WtCom= 1.00D+00 WtEn= 0.00D+00
 Coeff-Com:  0.346D-01 0.132D-01-0.641D-01-0.255D+00 0.989D-01 0.117D+01
 Coeff:      0.346D-01 0.132D-01-0.641D-01-0.255D+00 0.989D-01 0.117D+01
 Gap=     0.364 Goal=   None    Shift=    0.000
 Gap=     0.364 Goal=   None    Shift=    0.000
 RMSDP=3.80D-08 MaxDP=2.48D-07 DE=-8.47D-12 OVMax= 1.98D-06

 Cycle  13  Pass 1  IDiag  1:
 E= -151.518858418606     Delta-E=       -0.000000000002 Rises=F Damp=F
 DIIS: error= 3.59D-08 at cycle   7 NSaved=   7.
 NSaved= 7 IEnMin= 7 EnMin= -151.518858418606     IErMin= 7 ErrMin= 3.59D-08
 ErrMax= 3.59D-08  0.00D+00 EMaxC= 1.00D-01 BMatC= 8.60D-14 BMatP= 2.16D-12
 IDIUse=1 WtCom= 1.00D+00 WtEn= 0.00D+00
 Coeff-Com: -0.474D-03 0.876D-03 0.954D-02-0.469D-02-0.810D-01-0.179D+00
 Coeff-Com:  0.125D+01
 Coeff:     -0.474D-03 0.876D-03 0.954D-02-0.469D-02-0.810D-01-0.179D+00
 Coeff:      0.125D+01
 Gap=     0.364 Goal=   None    Shift=    0.000
 Gap=     0.364 Goal=   None    Shift=    0.000
 RMSDP=1.14D-08 MaxDP=7.28D-08 DE=-2.33D-12 OVMax= 5.93D-07

 Cycle  14  Pass 1  IDiag  1:
 E= -151.518858418606     Delta-E=        0.000000000000 Rises=F Damp=F
 DIIS: error= 1.78D-09 at cycle   8 NSaved=   8.
 NSaved= 8 IEnMin= 7 EnMin= -151.518858418606     IErMin= 8 ErrMin= 1.78D-09
 ErrMax= 1.78D-09  0.00D+00 EMaxC= 1.00D-01 BMatC= 1.17D-15 BMatP= 8.60D-14
 IDIUse=1 WtCom= 1.00D+00 WtEn= 0.00D+00
 Coeff-Com: -0.111D-02-0.336D-03 0.256D-02 0.842D-02-0.998D-02-0.511D-01
 Coeff-Com:  0.141D+00 0.910D+00
 Coeff:     -0.111D-02-0.336D-03 0.256D-02 0.842D-02-0.998D-02-0.511D-01
 Coeff:      0.141D+00 0.910D+00
 Gap=     0.364 Goal=   None    Shift=    0.000
 Gap=     0.364 Goal=   None    Shift=    0.000
 RMSDP=4.39D-10 MaxDP=2.64D-09 DE= 1.14D-13 OVMax= 1.00D-08

 SCF Done:  E(UM062X) =  -151.518858419     A.U. after   14 cycles
            NFock= 14  Conv=0.44D-09     -V/T= 2.0039
 <Sx>= 0.0000 <Sy>= 0.0000 <Sz>= 0.0000 <S**2>=-0.0000 S=-0.0000
 <L.S>=  0.00000000000    
 KE= 1.509282612278D+02 PE=-4.268901416652D+02 EE= 9.028933694886D+01
 Annihilation of the first spin contaminant:
 S**2 before annihilation    -0.0000,   after    -0.0000
 Leave Link  502 at Mon Apr 21 21:34:04 2025, MaxMem=   536870912 cpu:              29.7 elap:               3.9
 (Enter /home/szhao/Apps/g16/l701.exe)
 ... and contract with generalized density number  0.
 Compute integral first derivatives.
 Leave Link  701 at Mon Apr 21 21:34:04 2025, MaxMem=   536870912 cpu:               0.9 elap:               0.1
 (Enter /home/szhao/Apps/g16/l702.exe)
 L702 exits ... SP integral derivatives will be done elsewhere.
 Leave Link  702 at Mon Apr 21 21:34:04 2025, MaxMem=   536870912 cpu:               0.4 elap:               0.1
 (Enter /home/szhao/Apps/g16/l703.exe)
 Integral derivatives from FoFJK, PRISM(SPDF).
 Compute integral first derivatives, UseDBF=F ICtDFT=           0.
 Calling FoFJK, ICntrl=      2127 FMM=F ISym2X=0 I1Cent= 0 IOpClX= 1 NMat=1 NMatS=1 NMatT=0.
 FoFJK:  IHMeth= 1 ICntrl=    2127 DoSepK=F KAlg= 0 I1Cent=           0 FoldK=F
 IRaf=         0 NMat=       1 IRICut=       1 DoRegI=T DoRafI=F ISym2E= 0 IDoP0=0 IntGTp=1.
 FoFCou: FMM=F IPFlag=           0 FMFlag=      100000 FMFlg1=         800
         NFxFlg=           0 DoJE=F BraDBF=F KetDBF=F FulRan=T
         wScrn=  0.000000 ICntrl=      2127 IOpCl=  1 I1Cent=           0 NGrid=           0
         NMat0=    1 NMatS0=      1 NMatT0=    0 NMatD0=    1 NMtDS0=    0 NMtDT0=    0
 Symmetry not used in FoFCou.
 Leave Link  703 at Mon Apr 21 21:34:05 2025, MaxMem=   536870912 cpu:               6.8 elap:               0.9
 (Enter /home/szhao/Apps/g16/l716.exe)
 Dipole        = 7.14268923D-06-3.47904301D-01 5.85628374D-01
 -------------------------------------------------------------------
 Center     Atomic                   Forces (Hartrees/Bohr)
 Number     Number              X              Y              Z
 -------------------------------------------------------------------
      1        8          -0.000000000   -0.000000000   -0.000000000
      2        8          -0.000000000   -0.000000000   -0.000000000
      3        1          -0.001916729    0.000640155   -0.000737696
      4        1           0.001915492    0.000346310   -0.000914496
 -------------------------------------------------------------------
 Cartesian Forces:  Max     0.001916729 RMS     0.000878122
 Leave Link  716 at Mon Apr 21 21:34:05 2025, MaxMem=   536870912 cpu:               0.4 elap:               0.1
 (Enter /home/szhao/Apps/g16/l103.exe)

 GradGradGradGradGradGradGradGradGradGradGradGradGradGradGradGradGradGrad
 Berny optimization.
 Using GEDIIS/GDIIS optimizer.
 FormGI is forming the generalized inverse of G from B-inverse, IUseBI=4.
 Internal  Forces:  Max     0.003582878 RMS     0.002060546
 Search for a local minimum.
 Step number   2 out of a maximum of   21
 All quantities printed in internal units (Hartrees-Bohrs-Radians)
 RMS Force = .23659D-02 SwitMx=.10000D-02 MixMth= 1
 Mixed Optimization -- RFO/linear search
 Update second derivatives using D2CorX and points    1    2
 DE= -1.89D-03 DEPred=-2.30D-03 R= 8.19D-01
 TightC=F SS=  1.41D+00  RLast= 1.74D-01 DXNew= 5.0454D-01 5.2272D-01
 Trust test= 8.19D-01 RLast= 1.74D-01 DXMaxT set to 5.05D-01
 The second derivative matrix:
                          X1        Y1        Z1        X2        Y2
           X1           0.52573
           Y1          -0.03676   0.55252
           Z1          -0.01320   0.01886   0.50677
           X2          -0.02572   0.03675   0.01320   0.52572
           Y2           0.02938  -0.04197  -0.01507  -0.02937   0.53354
           Z2           0.02570  -0.03672  -0.01319  -0.02570   0.02935
           R1           0.00753  -0.01076  -0.00386  -0.00753   0.00860
           R2           0.00752  -0.01074  -0.00386  -0.00752   0.00859
           A1          -0.05025   0.07179   0.02577   0.05024  -0.05737
           A2          -0.05023   0.07177   0.02577   0.05022  -0.05735
           D1           0.00219  -0.00313  -0.00112  -0.00219   0.00250
                          Z2        R1        R2        A1        A2
           Z2           0.52568
           R1           0.00752   0.54616
           R2           0.00751   0.00024   0.54615
           A1          -0.05020  -0.00224  -0.00223   0.17883
           A2          -0.05018  -0.00224  -0.00223   0.01882   0.17881
           D1           0.00219   0.00073   0.00073  -0.00486  -0.00486
                          D1
           D1           0.00248
 ITU=  1  0
 Use linear search instead of GDIIS.
     Eigenvalues ---    0.00224   0.16000   0.19782   0.54591   0.54646
     Eigenvalues --- 1000.000001000.000001000.000001000.000001000.00000
     Eigenvalues --- 1000.00000
 RFO step:  Lambda=-5.74852236D-04 EMin= 2.23956679D-03
 Quartic linear search produced a step of -0.14023.
 Iteration  1 RMS(Cart)=  0.08113021 RMS(Int)=  0.07379712
 Iteration  2 RMS(Cart)=  0.08114635 RMS(Int)=  0.01415490
 Iteration  3 RMS(Cart)=  0.01828280 RMS(Int)=  0.00023018
 Iteration  4 RMS(Cart)=  0.00024626 RMS(Int)=  0.00000003
 Iteration  5 RMS(Cart)=  0.00000003 RMS(Int)=  0.00000000
 ITry= 1 IFail=0 DXMaxC= 5.08D-01 DCOld= 1.00D+10 DXMaxT= 5.05D-01 DXLimC= 3.00D+00 Rises=F
 Variable       Old X    -DE/DX   Delta X   Delta X   Delta X     New X
                                 (Linear)    (Quad)   (Total)
    X1       -1.53434  -0.00192   0.00000   0.00000   0.00000  -1.53434
    Y1        0.00000   0.00237   0.00000   0.00000   0.00000   0.00000
    Z1        0.00000   0.00029   0.00000   0.00000   0.00000   0.00000
    X2        1.53434   0.00192   0.00000   0.00000   0.00000   1.53434
    Y2        0.00000  -0.00138   0.00000   0.00000   0.00000   0.00000
    Z2        0.00000  -0.00194   0.00000   0.00000   0.00000   0.00000
    R1        1.82731  -0.00046  -0.00075   0.00057  -0.00018   1.82713
    R2        1.82731  -0.00045  -0.00075   0.00058  -0.00017   1.82713
    A1        1.65305   0.00358   0.01625  -0.00939   0.00686   1.65990
    A2        1.65307   0.00358   0.01625  -0.00940   0.00685   1.65991
    D1       -2.13786  -0.00139   0.00824  -0.45124  -0.44300  -2.58086
         Item               Value     Threshold  Converged?
 Maximum Force            0.003583     0.000450     NO 
 RMS     Force            0.002366     0.000300     NO 
 Maximum Displacement     0.507890     0.001800     NO 
 RMS     Displacement     0.178330     0.001200     NO 
 Predicted change in Energy=-3.806555D-04
 Lowest energy point so far.  Saving SCF results.
 GradGradGradGradGradGradGradGradGradGradGradGradGradGradGradGradGradGrad

 Leave Link  103 at Mon Apr 21 21:34:05 2025, MaxMem=   536870912 cpu:               0.6 elap:               0.1
 (Enter /home/szhao/Apps/g16/l202.exe)
                          Input orientation:                          
 ---------------------------------------------------------------------
 Center     Atomic      Atomic             Coordinates (Angstroms)
 Number     Number       Type             X           Y           Z
 ---------------------------------------------------------------------
      1          8           0       -0.811938    0.000000    0.000000
      2          8           0        0.811938    0.000000    0.000000
      3          1           0       -0.897980   -0.914562   -0.301700
      4          1           0        0.897987    0.614069    0.741867
 ---------------------------------------------------------------------
                    Distance matrix (angstroms):
                    1          2          3          4
     1  O    0.000000
     2  O    1.623876   0.000000
     3  H    0.966877   1.962465   0.000000
     4  H    1.962470   0.966877   2.579000   0.000000
 Symmetry turned off by external request.
 Stoichiometry    H2O2
 Framework group  C1[X(H2O2)]
 Deg. of freedom     6
 Full point group                 C1      NOp   1
 Rotational constants (GHZ):         292.4512814          21.9902730          20.6777502
 Leave Link  202 at Mon Apr 21 21:34:06 2025, MaxMem=   536870912 cpu:               0.4 elap:               0.1
 (Enter /home/szhao/Apps/g16/l301.exe)
 Standard basis: 6-311+G(d,p) (5D, 7F)
 Ernie: Thresh=  0.10000D-02 Tol=  0.10000D-05 Strict=F.
    56 basis functions,    88 primitive gaussians,    58 cartesian basis functions
     9 alpha electrons        9 beta electrons
       nuclear repulsion energy        34.1323314269 Hartrees.
 IExCor= 4336 DFT=T Ex+Corr=M062X ExCW=0 ScaHFX=  0.540000
 ScaDFX=  1.000000  1.000000  1.000000  1.000000 ScalE2=  1.000000  1.000000
 IRadAn=      7 IRanWt=     -1 IRanGd=            0 ICorTp=0 IEmpDi=  4
 NAtoms=    4 NActive=    4 NUniq=    4 SFac= 1.00D+00 NAtFMM=   60 NAOKFM=F Big=F
 Integral buffers will be    131072 words long.
 Raffenetti 2 integral format.
 Two-electron integral symmetry is turned off.
 Leave Link  301 at Mon Apr 21 21:34:06 2025, MaxMem=   536870912 cpu:               0.5 elap:               0.2
 (Enter /home/szhao/Apps/g16/l302.exe)
 NPDir=0 NMtPBC=     1 NCelOv=     1 NCel=       1 NClECP=     1 NCelD=      1
         NCelK=      1 NCelE2=     1 NClLst=     1 CellRange=     0.0.
 One-electron integrals computed using PRISM.
 NBasis=    56 RedAO= T EigKep=  1.87D-03  NBF=    56
 NBsUse=    56 1.00D-06 EigRej= -1.00D+00 NBFU=    56
 Precomputing XC quadrature grid using
 IXCGrd= 4 IRadAn=           7 IRanWt=          -1 IRanGd=           0 AccXCQ= 0.00D+00.
 Generated NRdTot=       0 NPtTot=           0 NUsed=           0 NTot=          32
 NSgBfM=    58    58    58    58    58 MxSgAt=     4 MxSgA2=     4.
 Leave Link  302 at Mon Apr 21 21:34:06 2025, MaxMem=   536870912 cpu:               1.2 elap:               0.3
 (Enter /home/szhao/Apps/g16/l303.exe)
 DipDrv:  MaxL=1.
 Leave Link  303 at Mon Apr 21 21:34:07 2025, MaxMem=   536870912 cpu:               0.6 elap:               0.1
 (Enter /home/szhao/Apps/g16/l401.exe)
 Initial guess from the checkpoint file:  "opt.chk"
 B after Tr=    -0.000001    0.023336   -0.034183
         Rot=    0.999493   -0.031475    0.002597   -0.004074 Ang=  -3.65 deg.
 Guess basis will be translated and rotated to current coordinates.
 JPrj=2 DoOrth=T DoCkMO=T.
 Initial guess <Sx>= 0.0000 <Sy>= 0.0000 <Sz>= 0.0000 <S**2>=-0.0000 S=-0.0000
 Generating alternative initial guess.
 ExpMin= 8.45D-02 ExpMax= 8.59D+03 ExpMxC= 1.30D+03 IAcc=3 IRadAn=         5 AccDes= 0.00D+00
 Harris functional with IExCor= 1009 and IRadAn=       5 diagonalized for initial guess.
 HarFok:  IExCor= 1009 AccDes= 0.00D+00 IRadAn=         5 IDoV= 1 UseB2=F ITyADJ=14
 ICtDFT=  3500011 ScaDFX=  1.000000  1.000000  1.000000  1.000000
 FoFCou: FMM=F IPFlag=           0 FMFlag=      100000 FMFlg1=           0
         NFxFlg=           0 DoJE=T BraDBF=F KetDBF=T FulRan=T
         wScrn=  0.000000 ICntrl=       500 IOpCl=  0 I1Cent=   200000004 NGrid=           0
         NMat0=    1 NMatS0=      1 NMatT0=    0 NMatD0=    1 NMtDS0=    0 NMtDT0=    0
 Symmetry not used in FoFCou.
 Harris En= -151.464026046203    
 Leave Link  401 at Mon Apr 21 21:34:07 2025, MaxMem=   536870912 cpu:               2.6 elap:               0.4
 (Enter /home/szhao/Apps/g16/l502.exe)
 Keep R1 and R2 ints in memory in canonical form, NReq=9624198.
 FoFCou: FMM=F IPFlag=           0 FMFlag=           0 FMFlg1=           0
         NFxFlg=           0 DoJE=F BraDBF=F KetDBF=F FulRan=T
         wScrn=  0.000000 ICntrl=       600 IOpCl=  0 I1Cent=           0 NGrid=           0
         NMat0=    1 NMatS0=   1596 NMatT0=    0 NMatD0=    1 NMtDS0=    0 NMtDT0=    0
 Symmetry not used in FoFCou.
 Two-electron integral symmetry not used.
 UHF open shell SCF:
 Using DIIS extrapolation, IDIIS=  1040.
 NGot=   536870912 LenX=   534314338 LenY=   534310533
 Requested convergence on RMS density matrix=1.00D-08 within 128 cycles.
 Requested convergence on MAX density matrix=1.00D-06.
 Requested convergence on             energy=1.00D-06.
 No special actions if energy rises.
 Integral accuracy reduced to 1.0D-05 until final iterations.

 Cycle   1  Pass 0  IDiag  1:
 E= -151.505161044070    
 DIIS: error= 1.69D-02 at cycle   1 NSaved=   1.
 NSaved= 1 IEnMin= 1 EnMin= -151.505161044070     IErMin= 1 ErrMin= 1.69D-02
 ErrMax= 1.69D-02  0.00D+00 EMaxC= 1.00D-01 BMatC= 4.34D-02 BMatP= 4.34D-02
 IDIUse=3 WtCom= 8.31D-01 WtEn= 1.69D-01
 Coeff-Com:  0.100D+01
 Coeff-En:   0.100D+01
 Coeff:      0.100D+01
 Recover alternate guess density for next cycle.
 RMSDP=3.44D-03 MaxDP=2.23D-02              OVMax= 0.00D+00

 Cycle   2  Pass 0  IDiag  1:
 E= -151.489985735385     Delta-E=        0.015175308685 Rises=F Damp=F
 Switch densities from cycles 1 and 2 for lowest energy.
 DIIS: error= 2.74D-02 at cycle   2 NSaved=   2.
 NSaved= 2 IEnMin= 1 EnMin= -151.505161044070     IErMin= 1 ErrMin= 1.69D-02
 ErrMax= 2.74D-02  0.00D+00 EMaxC= 1.00D+00 BMatC= 2.50D-01 BMatP= 4.34D-02
 IDIUse=1 WtCom= 1.00D+00 WtEn= 0.00D+00
 Coeff-Com:  0.859D+00 0.141D+00
 Coeff:      0.859D+00 0.141D+00
 Gap=     0.363 Goal=   None    Shift=    0.000
 Gap=     0.363 Goal=   None    Shift=    0.000
 RMSDP=2.09D-03 MaxDP=1.93D-02 DE= 1.52D-02 OVMax= 4.81D-02

 Cycle   3  Pass 0  IDiag  1:
 E= -151.518127402748     Delta-E=       -0.028141667363 Rises=F Damp=F
 DIIS: error= 3.92D-03 at cycle   3 NSaved=   3.
 NSaved= 3 IEnMin= 3 EnMin= -151.518127402748     IErMin= 3 ErrMin= 3.92D-03
 ErrMax= 3.92D-03  0.00D+00 EMaxC= 1.00D+00 BMatC= 3.39D-03 BMatP= 4.34D-02
 IDIUse=1 WtCom= 1.00D+00 WtEn= 0.00D+00
 Coeff-Com: -0.856D-01 0.826D-01 0.100D+01
 Coeff:     -0.856D-01 0.826D-01 0.100D+01
 Gap=     0.353 Goal=   None    Shift=    0.000
 Gap=     0.353 Goal=   None    Shift=    0.000
 RMSDP=5.34D-04 MaxDP=4.83D-03 DE=-2.81D-02 OVMax= 1.27D-02

 Cycle   4  Pass 0  IDiag  1:
 E= -151.518904359458     Delta-E=       -0.000776956710 Rises=F Damp=F
 DIIS: error= 1.11D-03 at cycle   4 NSaved=   4.
 NSaved= 4 IEnMin= 4 EnMin= -151.518904359458     IErMin= 4 ErrMin= 1.11D-03
 ErrMax= 1.11D-03  0.00D+00 EMaxC= 1.00D+00 BMatC= 3.64D-04 BMatP= 3.39D-03
 IDIUse=1 WtCom= 1.00D+00 WtEn= 0.00D+00
 Coeff-Com: -0.381D-01 0.192D-02 0.262D+00 0.774D+00
 Coeff:     -0.381D-01 0.192D-02 0.262D+00 0.774D+00
 Gap=     0.353 Goal=   None    Shift=    0.000
 Gap=     0.353 Goal=   None    Shift=    0.000
 RMSDP=1.19D-04 MaxDP=1.28D-03 DE=-7.77D-04 OVMax= 2.46D-03

 Cycle   5  Pass 0  IDiag  1:
 E= -151.518975604169     Delta-E=       -0.000071244711 Rises=F Damp=F
 DIIS: error= 2.70D-04 at cycle   5 NSaved=   5.
 NSaved= 5 IEnMin= 5 EnMin= -151.518975604169     IErMin= 5 ErrMin= 2.70D-04
 ErrMax= 2.70D-04  0.00D+00 EMaxC= 1.00D+00 BMatC= 1.07D-05 BMatP= 3.64D-04
 IDIUse=1 WtCom= 1.00D+00 WtEn= 0.00D+00
 Coeff-Com:  0.234D-03-0.264D-02-0.301D-01 0.815D-01 0.951D+00
 Coeff:      0.234D-03-0.264D-02-0.301D-01 0.815D-01 0.951D+00
 Gap=     0.353 Goal=   None    Shift=    0.000
 Gap=     0.353 Goal=   None    Shift=    0.000
 RMSDP=5.27D-05 MaxDP=5.36D-04 DE=-7.12D-05 OVMax= 1.33D-03

 Cycle   6  Pass 0  IDiag  1:
 E= -151.518980494490     Delta-E=       -0.000004890321 Rises=F Damp=F
 DIIS: error= 8.67D-05 at cycle   6 NSaved=   6.
 NSaved= 6 IEnMin= 6 EnMin= -151.518980494490     IErMin= 6 ErrMin= 8.67D-05
 ErrMax= 8.67D-05  0.00D+00 EMaxC= 1.00D+00 BMatC= 6.28D-07 BMatP= 1.07D-05
 IDIUse=1 WtCom= 1.00D+00 WtEn= 0.00D+00
 Coeff-Com:  0.230D-02 0.278D-03-0.196D-01-0.634D-01-0.308D-01 0.111D+01
 Coeff:      0.230D-02 0.278D-03-0.196D-01-0.634D-01-0.308D-01 0.111D+01
 Gap=     0.353 Goal=   None    Shift=    0.000
 Gap=     0.353 Goal=   None    Shift=    0.000
 RMSDP=2.18D-05 MaxDP=2.40D-04 DE=-4.89D-06 OVMax= 7.05D-04

 Cycle   7  Pass 0  IDiag  1:
 E= -151.518981121022     Delta-E=       -0.000000626532 Rises=F Damp=F
 DIIS: error= 3.13D-05 at cycle   7 NSaved=   7.
 NSaved= 7 IEnMin= 7 EnMin= -151.518981121022     IErMin= 7 ErrMin= 3.13D-05
 ErrMax= 3.13D-05  0.00D+00 EMaxC= 1.00D+00 BMatC= 5.22D-08 BMatP= 6.28D-07
 IDIUse=1 WtCom= 1.00D+00 WtEn= 0.00D+00
 Coeff-Com: -0.572D-03 0.790D-04 0.719D-02 0.113D-01-0.385D-01-0.260D+00
 Coeff-Com:  0.128D+01
 Coeff:     -0.572D-03 0.790D-04 0.719D-02 0.113D-01-0.385D-01-0.260D+00
 Coeff:      0.128D+01
 Gap=     0.353 Goal=   None    Shift=    0.000
 Gap=     0.353 Goal=   None    Shift=    0.000
 RMSDP=5.76D-06 MaxDP=3.84D-05 DE=-6.27D-07 OVMax= 3.09D-04

 Initial convergence to 1.0D-05 achieved.  Increase integral accuracy.
 Cycle   8  Pass 1  IDiag  1:
 E= -151.518980947282     Delta-E=        0.000000173740 Rises=F Damp=F
 DIIS: error= 1.35D-05 at cycle   1 NSaved=   1.
 NSaved= 1 IEnMin= 1 EnMin= -151.518980947282     IErMin= 1 ErrMin= 1.35D-05
 ErrMax= 1.35D-05  0.00D+00 EMaxC= 1.00D+00 BMatC= 1.68D-08 BMatP= 1.68D-08
 IDIUse=1 WtCom= 1.00D+00 WtEn= 0.00D+00
 Coeff-Com:  0.100D+01
 Coeff:      0.100D+01
 Gap=     0.353 Goal=   None    Shift=    0.000
 Gap=     0.353 Goal=   None    Shift=    0.000
 RMSDP=5.76D-06 MaxDP=3.84D-05 DE= 1.74D-07 OVMax= 9.72D-05

 Cycle   9  Pass 1  IDiag  1:
 E= -151.518980954736     Delta-E=       -0.000000007454 Rises=F Damp=F
 DIIS: error= 1.73D-05 at cycle   2 NSaved=   2.
 NSaved= 2 IEnMin= 2 EnMin= -151.518980954736     IErMin= 1 ErrMin= 1.35D-05
 ErrMax= 1.73D-05  0.00D+00 EMaxC= 1.00D+00 BMatC= 3.33D-08 BMatP= 1.68D-08
 IDIUse=1 WtCom= 1.00D+00 WtEn= 0.00D+00
 Coeff-Com:  0.611D+00 0.389D+00
 Coeff:      0.611D+00 0.389D+00
 Gap=     0.353 Goal=   None    Shift=    0.000
 Gap=     0.353 Goal=   None    Shift=    0.000
 RMSDP=8.43D-07 MaxDP=9.07D-06 DE=-7.45D-09 OVMax= 2.49D-05

 Cycle  10  Pass 1  IDiag  1:
 E= -151.518980961761     Delta-E=       -0.000000007025 Rises=F Damp=F
 DIIS: error= 6.73D-06 at cycle   3 NSaved=   3.
 NSaved= 3 IEnMin= 3 EnMin= -151.518980961761     IErMin= 3 ErrMin= 6.73D-06
 ErrMax= 6.73D-06  0.00D+00 EMaxC= 1.00D+00 BMatC= 2.32D-09 BMatP= 1.68D-08
 IDIUse=1 WtCom= 1.00D+00 WtEn= 0.00D+00
 Coeff-Com: -0.759D+00-0.170D+00 0.193D+01
 Coeff:     -0.759D+00-0.170D+00 0.193D+01
 Gap=     0.353 Goal=   None    Shift=    0.000
 Gap=     0.353 Goal=   None    Shift=    0.000
 RMSDP=1.93D-06 MaxDP=1.22D-05 DE=-7.02D-09 OVMax= 1.01D-04

 Cycle  11  Pass 1  IDiag  1:
 E= -151.518980965939     Delta-E=       -0.000000004178 Rises=F Damp=F
 DIIS: error= 7.26D-07 at cycle   4 NSaved=   4.
 NSaved= 4 IEnMin= 4 EnMin= -151.518980965939     IErMin= 4 ErrMin= 7.26D-07
 ErrMax= 7.26D-07  0.00D+00 EMaxC= 1.00D+00 BMatC= 6.39D-11 BMatP= 2.32D-09
 IDIUse=1 WtCom= 1.00D+00 WtEn= 0.00D+00
 Coeff-Com: -0.146D+00-0.565D-01 0.292D+00 0.911D+00
 Coeff:     -0.146D+00-0.565D-01 0.292D+00 0.911D+00
 Gap=     0.353 Goal=   None    Shift=    0.000
 Gap=     0.353 Goal=   None    Shift=    0.000
 RMSDP=2.02D-07 MaxDP=1.31D-06 DE=-4.18D-09 OVMax= 1.07D-05

 Cycle  12  Pass 1  IDiag  1:
 E= -151.518980965995     Delta-E=       -0.000000000056 Rises=F Damp=F
 DIIS: error= 2.80D-07 at cycle   5 NSaved=   5.
 NSaved= 5 IEnMin= 5 EnMin= -151.518980965995     IErMin= 5 ErrMin= 2.80D-07
 ErrMax= 2.80D-07  0.00D+00 EMaxC= 1.00D+00 BMatC= 1.40D-11 BMatP= 6.39D-11
 IDIUse=1 WtCom= 1.00D+00 WtEn= 0.00D+00
 Coeff-Com:  0.275D-03-0.105D-01-0.308D-01 0.351D+00 0.690D+00
 Coeff:      0.275D-03-0.105D-01-0.308D-01 0.351D+00 0.690D+00
 Gap=     0.353 Goal=   None    Shift=    0.000
 Gap=     0.353 Goal=   None    Shift=    0.000
 RMSDP=3.68D-08 MaxDP=3.30D-07 DE=-5.63D-11 OVMax= 1.52D-06

 Cycle  13  Pass 1  IDiag  1:
 E= -151.518980965999     Delta-E=       -0.000000000004 Rises=F Damp=F
 DIIS: error= 5.29D-08 at cycle   6 NSaved=   6.
 NSaved= 6 IEnMin= 6 EnMin= -151.518980965999     IErMin= 6 ErrMin= 5.29D-08
 ErrMax= 5.29D-08  0.00D+00 EMaxC= 1.00D+00 BMatC= 6.01D-13 BMatP= 1.40D-11
 IDIUse=1 WtCom= 1.00D+00 WtEn= 0.00D+00
 Coeff-Com:  0.144D-01 0.410D-02-0.328D-01-0.692D-01 0.831D-01 0.100D+01
 Coeff:      0.144D-01 0.410D-02-0.328D-01-0.692D-01 0.831D-01 0.100D+01
 Gap=     0.353 Goal=   None    Shift=    0.000
 Gap=     0.353 Goal=   None    Shift=    0.000
 RMSDP=1.72D-08 MaxDP=1.78D-07 DE=-3.69D-12 OVMax= 6.11D-07

 Cycle  14  Pass 1  IDiag  1:
 E= -151.518980965999     Delta-E=       -0.000000000000 Rises=F Damp=F
 DIIS: error= 1.25D-08 at cycle   7 NSaved=   7.
 NSaved= 7 IEnMin= 7 EnMin= -151.518980965999     IErMin= 7 ErrMin= 1.25D-08
 ErrMax= 1.25D-08  0.00D+00 EMaxC= 1.00D+00 BMatC= 1.52D-14 BMatP= 6.01D-13
 IDIUse=1 WtCom= 1.00D+00 WtEn= 0.00D+00
 Coeff-Com: -0.231D-02-0.678D-04 0.758D-02-0.128D-01-0.486D-01-0.118D+00
 Coeff-Com:  0.117D+01
 Coeff:     -0.231D-02-0.678D-04 0.758D-02-0.128D-01-0.486D-01-0.118D+00
 Coeff:      0.117D+01
 Gap=     0.353 Goal=   None    Shift=    0.000
 Gap=     0.353 Goal=   None    Shift=    0.000
 RMSDP=3.90D-09 MaxDP=3.92D-08 DE=-3.41D-13 OVMax= 8.65D-08

 SCF Done:  E(UM062X) =  -151.518980966     A.U. after   14 cycles
            NFock= 14  Conv=0.39D-08     -V/T= 2.0039
 <Sx>= 0.0000 <Sy>= 0.0000 <Sz>= 0.0000 <S**2>=-0.0000 S=-0.0000
 <L.S>=  0.00000000000    
 KE= 1.509269297198D+02 PE=-4.268625387955D+02 EE= 9.028429668280D+01
 Annihilation of the first spin contaminant:
 S**2 before annihilation    -0.0000,   after     0.0000
 Leave Link  502 at Mon Apr 21 21:34:11 2025, MaxMem=   536870912 cpu:              30.3 elap:               4.0
 (Enter /home/szhao/Apps/g16/l701.exe)
 ... and contract with generalized density number  0.
 Compute integral first derivatives.
 Leave Link  701 at Mon Apr 21 21:34:12 2025, MaxMem=   536870912 cpu:               1.7 elap:               0.3
 (Enter /home/szhao/Apps/g16/l702.exe)
 L702 exits ... SP integral derivatives will be done elsewhere.
 Leave Link  702 at Mon Apr 21 21:34:12 2025, MaxMem=   536870912 cpu:               0.5 elap:               0.1
 (Enter /home/szhao/Apps/g16/l703.exe)
 Integral derivatives from FoFJK, PRISM(SPDF).
 Compute integral first derivatives, UseDBF=F ICtDFT=           0.
 Calling FoFJK, ICntrl=      2127 FMM=F ISym2X=0 I1Cent= 0 IOpClX= 1 NMat=1 NMatS=1 NMatT=0.
 FoFJK:  IHMeth= 1 ICntrl=    2127 DoSepK=F KAlg= 0 I1Cent=           0 FoldK=F
 IRaf=         0 NMat=       1 IRICut=       1 DoRegI=T DoRafI=F ISym2E= 0 IDoP0=0 IntGTp=1.
 FoFCou: FMM=F IPFlag=           0 FMFlag=      100000 FMFlg1=         800
         NFxFlg=           0 DoJE=F BraDBF=F KetDBF=F FulRan=T
         wScrn=  0.000000 ICntrl=      2127 IOpCl=  1 I1Cent=           0 NGrid=           0
         NMat0=    1 NMatS0=      1 NMatT0=    0 NMatD0=    1 NMtDS0=    0 NMtDT0=    0
 Symmetry not used in FoFCou.
 Leave Link  703 at Mon Apr 21 21:34:13 2025, MaxMem=   536870912 cpu:               5.7 elap:               0.8
 (Enter /home/szhao/Apps/g16/l716.exe)
 Dipole        =-1.11040329D-06-2.22309495D-01 3.25641914D-01
 -------------------------------------------------------------------
 Center     Atomic                   Forces (Hartrees/Bohr)
 Number     Number              X              Y              Z
 -------------------------------------------------------------------
      1        8          -0.000000000   -0.000000000   -0.000000000
      2        8          -0.000000000   -0.000000000   -0.000000000
      3        1          -0.000342673    0.000429340    0.000456896
      4        1           0.000344937   -0.000583127   -0.000237827
 -------------------------------------------------------------------
 Cartesian Forces:  Max     0.000583127 RMS     0.000292417
 Leave Link  716 at Mon Apr 21 21:34:13 2025, MaxMem=   536870912 cpu:               0.3 elap:               0.1
 (Enter /home/szhao/Apps/g16/l103.exe)

 GradGradGradGradGradGradGradGradGradGradGradGradGradGradGradGradGradGrad
 Berny optimization.
 Using GEDIIS/GDIIS optimizer.
 FormGI is forming the generalized inverse of G from B-inverse, IUseBI=4.
 Internal  Forces:  Max     0.000960966 RMS     0.000634331
 Search for a local minimum.
 Step number   3 out of a maximum of   21
 All quantities printed in internal units (Hartrees-Bohrs-Radians)
 RMS Force = .60998D-03 SwitMx=.10000D-02 MixMth= 2
 Mixed Optimization -- En-DIIS/RFO-DIIS
 Update second derivatives using D2CorX and points    1    2    3
 DE= -1.23D-04 DEPred=-3.81D-04 R= 3.22D-01
 Trust test= 3.22D-01 RLast= 4.43D-01 DXMaxT set to 5.05D-01
 The second derivative matrix:
                          X1        Y1        Z1        X2        Y2
           X1           0.52479
           Y1          -0.03567   0.55195
           Z1          -0.01317   0.02007   0.50901
           X2          -0.02479   0.03567   0.01318   0.52478
           Y2           0.02881  -0.04270  -0.01755  -0.02881   0.53598
           Z2           0.02481  -0.03582  -0.01339  -0.02481   0.02907
           R1           0.00743  -0.01116  -0.00480  -0.00743   0.00958
           R2           0.00742  -0.01115  -0.00480  -0.00742   0.00958
           A1          -0.04864   0.07018   0.02619   0.04863  -0.05692
           A2          -0.04863   0.07017   0.02620   0.04862  -0.05692
           D1           0.00204  -0.00135   0.00178  -0.00204  -0.00081
                          Z2        R1        R2        A1        A2
           Z2           0.52486
           R1           0.00752   0.54654
           R2           0.00752   0.00063   0.54654
           A1          -0.04872  -0.00228  -0.00227   0.17605
           A2          -0.04871  -0.00228  -0.00227   0.01604   0.17604
           D1           0.00175  -0.00043  -0.00044  -0.00350  -0.00349
                          D1
           D1           0.00425
 ITU=  0  1  0
 Use linear search instead of GDIIS.
     Eigenvalues ---    0.00412   0.16000   0.19216   0.54591   0.54723
     Eigenvalues --- 1000.000001000.000001000.000001000.000001000.00000
     Eigenvalues --- 1000.00000
 RFO step:  Lambda=-4.12141290D-05 EMin= 4.11567475D-03
 Quartic linear search produced a step of -0.40679.
 Iteration  1 RMS(Cart)=  0.07920552 RMS(Int)=  0.00550872
 Iteration  2 RMS(Cart)=  0.00634051 RMS(Int)=  0.00002550
 Iteration  3 RMS(Cart)=  0.00003033 RMS(Int)=  0.00000000
 Iteration  4 RMS(Cart)=  0.00000000 RMS(Int)=  0.00000000
 ITry= 1 IFail=0 DXMaxC= 2.24D-01 DCOld= 1.00D+10 DXMaxT= 5.05D-01 DXLimC= 3.00D+00 Rises=F
 Variable       Old X    -DE/DX   Delta X   Delta X   Delta X     New X
                                 (Linear)    (Quad)   (Total)
    X1       -1.53434  -0.00034   0.00000   0.00000   0.00000  -1.53434
    Y1        0.00000   0.00081   0.00000   0.00000   0.00000   0.00000
    Z1        0.00000   0.00071   0.00000   0.00000   0.00000   0.00000
    X2        1.53434   0.00034   0.00000   0.00000   0.00000   1.53434
    Y2        0.00000  -0.00096   0.00000   0.00000   0.00000   0.00000
    Z2        0.00000  -0.00050   0.00000   0.00000   0.00000   0.00000
    R1        1.82713  -0.00052   0.00007  -0.00079  -0.00072   1.82641
    R2        1.82713  -0.00052   0.00007  -0.00079  -0.00072   1.82641
    A1        1.65990   0.00071  -0.00279   0.01030   0.00751   1.66741
    A2        1.65991   0.00072  -0.00278   0.01031   0.00752   1.66743
    D1       -2.58086   0.00054   0.18021   0.03027   0.21047  -2.37039
         Item               Value     Threshold  Converged?
 Maximum Force            0.000718     0.000450     NO 
 RMS     Force            0.000610     0.000300     NO 
 Maximum Displacement     0.223511     0.001800     NO 
 RMS     Displacement     0.083474     0.001200     NO 
 Predicted change in Energy=-3.151618D-05
 Lowest energy point so far.  Saving SCF results.
 GradGradGradGradGradGradGradGradGradGradGradGradGradGradGradGradGradGrad

 Leave Link  103 at Mon Apr 21 21:34:14 2025, MaxMem=   536870912 cpu:               1.1 elap:               0.2
 (Enter /home/szhao/Apps/g16/l202.exe)
                          Input orientation:                          
 ---------------------------------------------------------------------
 Center     Atomic      Atomic             Coordinates (Angstroms)
 Number     Number       Type             X           Y           Z
 ---------------------------------------------------------------------
      1          8           0       -0.811938    0.000000    0.000000
      2          8           0        0.811938    0.000000    0.000000
      3          1           0       -0.905170   -0.944341   -0.183423
      4          1           0        0.905190    0.549314    0.789729
 ---------------------------------------------------------------------
                    Distance matrix (angstroms):
                    1          2          3          4
     1  O    0.000000
     2  O    1.623876   0.000000
     3  H    0.966497   1.968218   0.000000
     4  H    1.968234   0.966495   2.540754   0.000000
 Symmetry turned off by external request.
 Stoichiometry    H2O2
 Framework group  C1[X(H2O2)]
 Deg. of freedom     6
 Full point group                 C1      NOp   1
 Rotational constants (GHZ):         292.9225659          21.8653723          20.7615680
 Leave Link  202 at Mon Apr 21 21:34:14 2025, MaxMem=   536870912 cpu:               0.2 elap:               0.1
 (Enter /home/szhao/Apps/g16/l301.exe)
 Standard basis: 6-311+G(d,p) (5D, 7F)
 Ernie: Thresh=  0.10000D-02 Tol=  0.10000D-05 Strict=F.
    56 basis functions,    88 primitive gaussians,    58 cartesian basis functions
     9 alpha electrons        9 beta electrons
       nuclear repulsion energy        34.1262491898 Hartrees.
 IExCor= 4336 DFT=T Ex+Corr=M062X ExCW=0 ScaHFX=  0.540000
 ScaDFX=  1.000000  1.000000  1.000000  1.000000 ScalE2=  1.000000  1.000000
 IRadAn=      7 IRanWt=     -1 IRanGd=            0 ICorTp=0 IEmpDi=  4
 NAtoms=    4 NActive=    4 NUniq=    4 SFac= 1.00D+00 NAtFMM=   60 NAOKFM=F Big=F
 Integral buffers will be    131072 words long.
 Raffenetti 2 integral format.
 Two-electron integral symmetry is turned off.
 Leave Link  301 at Mon Apr 21 21:34:14 2025, MaxMem=   536870912 cpu:               0.6 elap:               0.1
 (Enter /home/szhao/Apps/g16/l302.exe)
 NPDir=0 NMtPBC=     1 NCelOv=     1 NCel=       1 NClECP=     1 NCelD=      1
         NCelK=      1 NCelE2=     1 NClLst=     1 CellRange=     0.0.
 One-electron integrals computed using PRISM.
 NBasis=    56 RedAO= T EigKep=  2.09D-03  NBF=    56
 NBsUse=    56 1.00D-06 EigRej= -1.00D+00 NBFU=    56
 Precomputing XC quadrature grid using
 IXCGrd= 4 IRadAn=           7 IRanWt=          -1 IRanGd=           0 AccXCQ= 0.00D+00.
 Generated NRdTot=       0 NPtTot=           0 NUsed=           0 NTot=          32
 NSgBfM=    58    58    58    58    58 MxSgAt=     4 MxSgA2=     4.
[...]

 Cycle   7  Pass 1  IDiag  1:
 E= -151.519052228943     Delta-E=       -0.000000000021 Rises=F Damp=F
 DIIS: error= 5.30D-07 at cycle   7 NSaved=   7.
 NSaved= 7 IEnMin= 7 EnMin= -151.519052228943     IErMin= 6 ErrMin= 5.02D-07
 ErrMax= 5.30D-07  0.00D+00 EMaxC= 1.00D-01 BMatC= 3.36D-11 BMatP= 2.96D-11
 IDIUse=1 WtCom= 1.00D+00 WtEn= 0.00D+00
 Coeff-Com: -0.195D-02 0.200D-01 0.968D-02-0.991D-01-0.229D+00 0.719D+00
 Coeff-Com:  0.581D+00
 Coeff:     -0.195D-02 0.200D-01 0.968D-02-0.991D-01-0.229D+00 0.719D+00
 Coeff:      0.581D+00
 Gap=     0.358 Goal=   None    Shift=    0.000
 Gap=     0.358 Goal=   None    Shift=    0.000
 RMSDP=5.62D-08 MaxDP=3.77D-07 DE=-2.11D-11 OVMax= 2.89D-06

 Cycle   8  Pass 1  IDiag  1:
 E= -151.519052228953     Delta-E=       -0.000000000009 Rises=F Damp=F
 DIIS: error= 4.03D-08 at cycle   8 NSaved=   8.
 NSaved= 8 IEnMin= 8 EnMin= -151.519052228953     IErMin= 8 ErrMin= 4.03D-08
 ErrMax= 4.03D-08  0.00D+00 EMaxC= 1.00D-01 BMatC= 2.73D-13 BMatP= 2.96D-11
 IDIUse=1 WtCom= 1.00D+00 WtEn= 0.00D+00
 Coeff-Com: -0.266D-03 0.192D-02 0.825D-02 0.138D-02-0.413D-01-0.803D-02
 Coeff-Com:  0.377D-01 0.100D+01
 Coeff:     -0.266D-03 0.192D-02 0.825D-02 0.138D-02-0.413D-01-0.803D-02
 Coeff:      0.377D-01 0.100D+01
 Gap=     0.358 Goal=   None    Shift=    0.000
 Gap=     0.358 Goal=   None    Shift=    0.000
 RMSDP=7.10D-09 MaxDP=4.65D-08 DE=-9.49D-12 OVMax= 2.97D-07

 SCF Done:  E(UM062X) =  -151.519052229     A.U. after    8 cycles
            NFock=  8  Conv=0.71D-08     -V/T= 2.0039
 <Sx>= 0.0000 <Sy>= 0.0000 <Sz>= 0.0000 <S**2>= 0.0000 S= 0.0000
 <L.S>=  0.00000000000    
 KE= 1.509266225173D+02 PE=-4.268515247599D+02 EE= 9.027629567308D+01
 Annihilation of the first spin contaminant:
 S**2 before annihilation     0.0000,   after     0.0000
 Leave Link  502 at Mon Apr 21 21:34:26 2025, MaxMem=   536870912 cpu:              27.0 elap:               3.6
 (Enter /home/szhao/Apps/g16/l701.exe)
 ... and contract with generalized density number  0.
 Compute integral first derivatives.
 Leave Link  701 at Mon Apr 21 21:34:27 2025, MaxMem=   536870912 cpu:               1.3 elap:               0.2
 (Enter /home/szhao/Apps/g16/l702.exe)
 L702 exits ... SP integral derivatives will be done elsewhere.
 Leave Link  702 at Mon Apr 21 21:34:27 2025, MaxMem=   536870912 cpu:               0.6 elap:               0.2
 (Enter /home/szhao/Apps/g16/l703.exe)
 Integral derivatives from FoFJK, PRISM(SPDF).
 Compute integral first derivatives, UseDBF=F ICtDFT=           0.
 Calling FoFJK, ICntrl=      2127 FMM=F ISym2X=0 I1Cent= 0 IOpClX= 1 NMat=1 NMatS=1 NMatT=0.
 FoFJK:  IHMeth= 1 ICntrl=    2127 DoSepK=F KAlg= 0 I1Cent=           0 FoldK=F
 IRaf=         0 NMat=       1 IRICut=       1 DoRegI=T DoRafI=F ISym2E= 0 IDoP0=0 IntGTp=1.
 FoFCou: FMM=F IPFlag=           0 FMFlag=      100000 FMFlg1=         800
         NFxFlg=           0 DoJE=F BraDBF=F KetDBF=F FulRan=T
         wScrn=  0.000000 ICntrl=      2127 IOpCl=  1 I1Cent=           0 NGrid=           0
         NMat0=    1 NMatS0=      1 NMatT0=    0 NMatD0=    1 NMtDS0=    0 NMtDT0=    0
 Symmetry not used in FoFCou.
 Leave Link  703 at Mon Apr 21 21:34:28 2025, MaxMem=   536870912 cpu:               5.7 elap:               0.8
 (Enter /home/szhao/Apps/g16/l716.exe)
 Dipole        =-1.14193965D-05-2.91689310D-01 4.47725302D-01
 -------------------------------------------------------------------
 Center     Atomic                   Forces (Hartrees/Bohr)
 Number     Number              X              Y              Z
 -------------------------------------------------------------------
      1        8          -0.000000000   -0.000000000   -0.000000000
      2        8          -0.000000000   -0.000000000   -0.000000000
      3        1          -0.000006423   -0.000004002   -0.000005977
      4        1           0.000005778    0.000001228    0.000005257
 -------------------------------------------------------------------
 Cartesian Forces:  Max     0.000006423 RMS     0.000003600
 Leave Link  716 at Mon Apr 21 21:34:28 2025, MaxMem=   536870912 cpu:               0.5 elap:               0.1
 (Enter /home/szhao/Apps/g16/l103.exe)

 GradGradGradGradGradGradGradGradGradGradGradGradGradGradGradGradGradGrad
 Berny optimization.
 Using GEDIIS/GDIIS optimizer.
 FormGI is forming the generalized inverse of G from B-inverse, IUseBI=4.
 Internal  Forces:  Max     0.000010797 RMS     0.000005694
 Search for a local minimum.
 Step number   5 out of a maximum of   21
 All quantities printed in internal units (Hartrees-Bohrs-Radians)
 RMS Force = .74846D-05 SwitMx=.10000D-02 MixMth= 2
 Mixed Optimization -- En-DIIS/RFO-DIIS
 Swapping is turned off.
 Update second derivatives using D2CorX and points    1    2    3    4    5
 DE= -3.80D-07 DEPred=-3.96D-07 R= 9.61D-01
 Trust test= 9.61D-01 RLast= 1.98D-03 DXMaxT set to 6.32D-01
 The second derivative matrix:
                          X1        Y1        Z1        X2        Y2
           X1           0.53343
           Y1          -0.02033   0.51430
           Z1          -0.01663   0.01163   0.51051
           X2          -0.03420   0.02078   0.01702   0.53499
           Y2           0.02345  -0.01639  -0.01415  -0.02399   0.51943
           Z2           0.01230  -0.00875  -0.00688  -0.01256   0.00985
           R1           0.00574  -0.02144  -0.00632  -0.00545   0.01564
           R2           0.00578  -0.02138  -0.00635  -0.00550   0.01563
           A1          -0.05886   0.03602   0.02950   0.06022  -0.04159
           A2          -0.05888   0.03478   0.02941   0.06027  -0.04088
           D1           0.00213   0.00017   0.00136  -0.00216  -0.00110
                          Z2        R1        R2        A1        A2
           Z2           0.50541
           R1           0.01617   0.54607
           R2           0.01612   0.00017   0.54610
           A1          -0.02177  -0.00137  -0.00143   0.18424
           A2          -0.02080  -0.00163  -0.00170   0.02399   0.18372
           D1           0.00010  -0.00042  -0.00043  -0.00347  -0.00344
                          D1
           D1           0.00279
 ITU=  0  1  0  1  0
     Eigenvalues ---    0.00267   0.15998   0.20806   0.54591   0.54629
     Eigenvalues --- 1000.000001000.000001000.000001000.000001000.00000
     Eigenvalues --- 1000.00000
 En-DIIS/RFO-DIIS/Sim-DIIS IScMMF=       -3 using points:     5    4    3
 RFO step:  Lambda=-1.06020712D-09.
 NNeg= 0 NGDIIS= 3 SimSw=  2.50D-01 Rises=F DC= -3.80D-07 SmlDif=  1.00D-05
 NRisDI= 0 DoIntr=F SqrtH=F CThrHd= 10.0 CDAdj=  3.0
 RMS Error=  0.2802802907D-03 NUsed= 3 OKEnD=F EnDIS=F
 InvSVX:  RCond= 1.30D-06 Info=           0 Equed=N FErr=  1.87D-15 BErr=  1.11D-16
 DidBck=F Rises=F RFO-DIIS coefs:    0.94979    0.04589    0.00432
 Iteration  1 RMS(Cart)=  0.00036950 RMS(Int)=  0.00000010
 Iteration  2 RMS(Cart)=  0.00000010 RMS(Int)=  0.00000000
 ITry= 1 IFail=0 DXMaxC= 1.04D-03 DCOld= 1.00D+10 DXMaxT= 6.32D-01 DXLimC= 3.00D+00 Rises=F
 Variable       Old X    -DE/DX   Delta X   Delta X   Delta X     New X
                                 (Linear)    (Quad)   (Total)
    X1       -1.53434  -0.00001  -0.00000   0.00000   0.00000  -1.53434
    Y1        0.00000   0.00000   0.00000   0.00000   0.00000   0.00000
    Z1        0.00000   0.00000   0.00000   0.00000   0.00000   0.00000
    X2        1.53434   0.00001   0.00000   0.00000   0.00000   1.53434
    Y2        0.00000  -0.00000   0.00000   0.00000   0.00000   0.00000
    Z2        0.00000   0.00000   0.00000   0.00000   0.00000   0.00000
    R1        1.82628   0.00001   0.00001   0.00000   0.00001   1.82629
    R2        1.82628   0.00001   0.00001   0.00000   0.00001   1.82629
    A1        1.66605   0.00001   0.00004   0.00000   0.00004   1.66609
    A2        1.66602   0.00001   0.00004  -0.00000   0.00003   1.66605
    D1       -2.37021  -0.00000  -0.00092  -0.00000  -0.00092  -2.37113
         Item               Value     Threshold  Converged?
 Maximum Force            0.000011     0.000450     YES
 RMS     Force            0.000007     0.000300     YES
 Maximum Displacement     0.001038     0.001800     YES
 RMS     Displacement     0.000370     0.001200     YES
 Predicted change in Energy=-1.711988D-09
 Optimization completed.
    -- Stationary point found.
                           ----------------------------
                           !   Optimized Parameters   !
                           ! (Angstroms and Degrees)  !
 --------------------------                            --------------------------
 ! Name  Definition              Value          Derivative Info.                !
 --------------------------------------------------------------------------------
 ! X1    R(1,-1)                -0.8119         -DE/DX =    0.0                 !
 ! Y1    R(1,-2)                 0.0            -DE/DX =    0.0                 !
 ! Z1    R(1,-3)                 0.0            -DE/DX =    0.0                 !
 ! X2    R(2,-1)                 0.8119         -DE/DX =    0.0                 !
 ! Y2    R(2,-2)                 0.0            -DE/DX =    0.0                 !
 ! Z2    R(2,-3)                 0.0            -DE/DX =    0.0                 !
 ! R1    R(1,3)                  0.9664         -DE/DX =    0.0                 !
 ! R2    R(2,4)                  0.9664         -DE/DX =    0.0                 !
 ! A1    A(2,1,3)               95.4576         -DE/DX =    0.0                 !
 ! A2    A(1,2,4)               95.4559         -DE/DX =    0.0                 !
 ! D1    D(3,1,2,4)           -135.8031         -DE/DX =    0.0                 !
 --------------------------------------------------------------------------------
 Lowest energy point so far.  Saving SCF results.
 Largest change from initial coordinates is atom    3       0.137 Angstoms.
 GradGradGradGradGradGradGradGradGradGradGradGradGradGradGradGradGradGrad

 Leave Link  103 at Mon Apr 21 21:34:29 2025, MaxMem=   536870912 cpu:               0.4 elap:               0.1
 (Enter /home/szhao/Apps/g16/l202.exe)
                          Input orientation:                          
 ---------------------------------------------------------------------
 Center     Atomic      Atomic             Coordinates (Angstroms)
 Number     Number       Type             X           Y           Z
 ---------------------------------------------------------------------
      1          8           0       -0.811938    0.000000    0.000000
      2          8           0        0.811938    0.000000    0.000000
      3          1           0       -0.903853   -0.944415   -0.183326
      4          1           0        0.903825    0.549296    0.789813
 ---------------------------------------------------------------------
                    Distance matrix (angstroms):
                    1          2          3          4
     1  O    0.000000
     2  O    1.623876   0.000000
     3  H    0.966424   1.967096   0.000000
     4  H    1.967072   0.966424   2.538872   0.000000
 Symmetry turned off by external request.
 Stoichiometry    H2O2
 Framework group  C1[X(H2O2)]
 Deg. of freedom     6
 Full point group                 C1      NOp   1
 Rotational constants (GHZ):         292.8303735          21.8701828          20.7656785
 Leave Link  202 at Mon Apr 21 21:34:29 2025, MaxMem=   536870912 cpu:               0.0 elap:               0.0
 (Enter /home/szhao/Apps/g16/l601.exe)
 Copying SCF densities to generalized density rwf, IOpCl= 1 IROHF=0.

 **********************************************************************

            Population analysis using the SCF density.

 **********************************************************************

 Alpha  occ. eigenvalues --  -19.70325 -19.70314  -1.21016  -1.05350  -0.58969
 Alpha  occ. eigenvalues --   -0.57399  -0.49119  -0.44658  -0.38778
 Alpha virt. eigenvalues --   -0.03004   0.05833   0.10462   0.15620   0.16375
 Alpha virt. eigenvalues --    0.18152   0.20513   0.21097   0.22109   0.26236
 Alpha virt. eigenvalues --    0.33394   0.50024   0.52975   0.95741   0.99821
 Alpha virt. eigenvalues --    1.01817   1.01933   1.09700   1.14111   1.32632
 Alpha virt. eigenvalues --    1.33409   1.40683   1.43883   1.56729   1.61150
 Alpha virt. eigenvalues --    2.01749   2.06726   2.47569   2.49257   2.64286
 Alpha virt. eigenvalues --    2.76270   2.94124   3.10248   3.16353   3.17009
 Alpha virt. eigenvalues --    3.24739   3.52784   3.81430   3.87699   4.94939
 Alpha virt. eigenvalues --    5.01073   5.03977   5.21216   5.48731   5.55946
 Alpha virt. eigenvalues --   49.85300  49.91696
  Beta  occ. eigenvalues --  -19.70325 -19.70314  -1.21016  -1.05350  -0.58969
  Beta  occ. eigenvalues --   -0.57399  -0.49119  -0.44658  -0.38778
  Beta virt. eigenvalues --   -0.03004   0.05833   0.10462   0.15620   0.16375
  Beta virt. eigenvalues --    0.18152   0.20513   0.21097   0.22109   0.26236
  Beta virt. eigenvalues --    0.33394   0.50024   0.52975   0.95741   0.99821
  Beta virt. eigenvalues --    1.01817   1.01933   1.09700   1.14111   1.32632
  Beta virt. eigenvalues --    1.33409   1.40683   1.43883   1.56729   1.61150
  Beta virt. eigenvalues --    2.01749   2.06726   2.47569   2.49257   2.64286
  Beta virt. eigenvalues --    2.76270   2.94124   3.10248   3.16353   3.17009
  Beta virt. eigenvalues --    3.24739   3.52784   3.81430   3.87699   4.94939
  Beta virt. eigenvalues --    5.01073   5.03977   5.21216   5.48731   5.55946
  Beta virt. eigenvalues --   49.85300  49.91696
          Condensed to atoms (all electrons):
               1          2          3          4
     1  O    7.898878   0.119140   0.268894  -0.013204
     2  O    0.119140   7.898866  -0.013203   0.268896
     3  H    0.268894  -0.013203   0.469087   0.001518
     4  H   -0.013204   0.268896   0.001518   0.469087
          Atomic-Atomic Spin Densities.
               1          2          3          4
     1  O   -0.000000   0.000000  -0.000000   0.000000
     2  O    0.000000   0.000000   0.000000  -0.000000
     3  H   -0.000000   0.000000  -0.000000  -0.000000
     4  H    0.000000  -0.000000  -0.000000  -0.000000
 Mulliken charges and spin densities:
               1          2
     1  O   -0.273707  -0.000000
     2  O   -0.273699   0.000000
     3  H    0.273703  -0.000000
     4  H    0.273703  -0.000000
 Sum of Mulliken charges =   0.00000  -0.00000
 Mulliken charges and spin densities with hydrogens summed into heavy atoms:
               1          2
     1  O   -0.000004  -0.000000
     2  O    0.000004   0.000000
 Electronic spatial extent (au):  <R**2>=             74.9336
 Charge=              0.0000 electrons
 Dipole moment (field-independent basis, Debye):
    X=             -0.0000    Y=             -0.7414    Z=              1.1380  Tot=              1.3582
 Quadrupole moment (field-independent basis, Debye-Ang):
   XX=            -11.7833   YY=            -10.0625   ZZ=            -11.5401
   XY=              2.9417   XZ=              1.9165   YZ=              1.6725
 Traceless Quadrupole moment (field-independent basis, Debye-Ang):
   XX=             -0.6547   YY=              1.0661   ZZ=             -0.4115
   XY=              2.9417   XZ=              1.9165   YZ=              1.6725
 Octapole moment (field-independent basis, Debye-Ang**2):
  XXX=             -0.0001  YYY=             -0.9080  ZZZ=              0.2188  XYY=             -1.4568
  XXY=             -0.5603  XXZ=              0.8599  XZZ=              1.4567  YZZ=              0.8391
  YYZ=             -0.1130  XYZ=              0.6435
 Hexadecapole moment (field-independent basis, Debye-Ang**3):
 XXXX=            -54.7400 YYYY=            -10.5272 ZZZZ=            -11.1429 XXXY=              1.3938
 XXXZ=              0.9080 YYYX=              0.6145 YYYZ=              0.3550 ZZZX=              0.1039
 ZZZY=              0.3421 XXYY=            -10.3197 XXZZ=            -11.4105 YYZZ=             -3.6038
 XXYZ=              1.2346 YYXZ=              0.4768 ZZXY=              0.2768
 N-N= 3.412955434058D+01 E-N=-4.268515247158D+02  KE= 1.509266225173D+02
                          Isotropic Fermi Contact Couplings
        Atom                 a.u.       MegaHertz       Gauss      10(-4) cm-1
     1  O(17)             -0.00000       0.00000       0.00000       0.00000
     2  O(17)             -0.00000       0.00000       0.00000       0.00000
     3  H(1)               0.00000       0.00000       0.00000       0.00000
     4  H(1)              -0.00000      -0.00000      -0.00000      -0.00000
 --------------------------------------------------------
       Center         ----  Spin Dipole Couplings  ----
                      3XX-RR        3YY-RR        3ZZ-RR
 --------------------------------------------------------
     1   Atom        0.000000      0.000000      0.000000
     2   Atom        0.000000      0.000000      0.000000
     3   Atom        0.000000      0.000000      0.000000
     4   Atom        0.000000      0.000000      0.000000
 --------------------------------------------------------
                        XY            XZ            YZ
 --------------------------------------------------------
     1   Atom        0.000000      0.000000      0.000000
     2   Atom        0.000000      0.000000      0.000000
     3   Atom        0.000000      0.000000      0.000000
     4   Atom        0.000000      0.000000      0.000000
 --------------------------------------------------------


 ---------------------------------------------------------------------------------
              Anisotropic Spin Dipole Couplings in Principal Axis System
 ---------------------------------------------------------------------------------

       Atom             a.u.   MegaHertz   Gauss  10(-4) cm-1        Axes

              Baa     0.0000    -0.000    -0.000    -0.000  1.0000  0.0000  0.0000
     1 O(17)  Bbb     0.0000    -0.000    -0.000    -0.000 -0.0000  1.0000  0.0000
              Bcc     0.0000    -0.000    -0.000    -0.000  0.0000  0.0000  1.0000
 
              Baa     0.0000    -0.000    -0.000    -0.000  1.0000  0.0000  0.0000
     2 O(17)  Bbb     0.0000    -0.000    -0.000    -0.000 -0.0000  1.0000  0.0000
              Bcc     0.0000    -0.000    -0.000    -0.000  0.0000  0.0000  1.0000
 
              Baa     0.0000     0.000     0.000     0.000  1.0000  0.0000  0.0000
     3 H(1)   Bbb     0.0000     0.000     0.000     0.000 -0.0000  1.0000  0.0000
              Bcc     0.0000     0.000     0.000     0.000  0.0000  0.0000  1.0000
 
              Baa     0.0000     0.000     0.000     0.000  1.0000  0.0000  0.0000
     4 H(1)   Bbb     0.0000     0.000     0.000     0.000 -0.0000  1.0000  0.0000
              Bcc     0.0000     0.000     0.000     0.000  0.0000  0.0000  1.0000
 

 ---------------------------------------------------------------------------------

 No NMR shielding tensors so no spin-rotation constants.
 Leave Link  601 at Mon Apr 21 21:34:30 2025, MaxMem=   536870912 cpu:               1.2 elap:               0.2
 (Enter /home/szhao/Apps/g16/l9999.exe)
 1\1\GINC-NODE05\FOpt\UM062X\6-311+G(d,p)\H2O2\SZHAO\21-Apr-2025\0\\#p 
 opt UM062X/6-311+G** nosymm int=superfine\\Title Card Required\\0,1\O,
 -0.8119378,0.,0.\O,0.8119378,0.,0.\H,-0.9038530457,-0.9444146088,-0.18
 33262153\H,0.9038245411,0.5492963278,0.7898133023\\Version=ES64L-G16Re
 vA.03\HF=-151.5190522\S2=0.\S2-1=0.\S2A=0.\RMSD=7.104e-09\RMSF=3.600e-
 06\Dipole=-0.0000114,-0.2916893,0.4477253\Quadrupole=-0.4867203,0.7926
 238,-0.3059035,2.1870979,1.4248555,1.243463\PG=C01 [X(H2O2)]\\@


 ... THE UNIVERSE IS NOT ONLY QUEERER THAN WE SUPPOSE,
 BUT QUEERER THAN WE CAN SUPPOSE ... 

                                   -- J. B. S. HALDANE
 Job cpu time:       0 days  0 hours  3 minutes 46.1 seconds.
 Elapsed time:       0 days  0 hours  0 minutes 32.5 seconds.
 File lengths (MBytes):  RWF=     17 Int=      0 D2E=      0 Chk=      2 Scr=      2
 Normal termination of Gaussian 16 at Mon Apr 21 21:34:30 2025.
