Title Card Required                                                     
FOpt      UM062X                                                      6-311+G(d,p)        
Number of atoms                            I                4
Info1-9                                    I   N=           9
          13          13           0           0           0         110
           2          18        -502
Full Title                                 C   N=           2
Title Card Required     
Route                                      C   N=           4
#p opt UM062X/6-311+G** nosymm int=superfine    
Charge                                     I                0
Multiplicity                               I                1
Number of electrons                        I               26
Number of alpha electrons                  I               13
Number of beta electrons                   I               13
Number of basis functions                  I               64
Number of independent functions            I               64
Number of point charges in /Mol/           I                0
Number of translation vectors              I                0
Atomic numbers                             I   N=           4
           8          16           1           1
Nuclear charges                            R   N=           4
  8.00000000E+00  1.60000000E+01  1.00000000E+00  1.00000000E+00
Current cartesian coordinates              R   N=          12
 -3.61127796E+00 -9.44863062E-05  6.04712360E-05  3.61128174E+00  1.19052746E-04
 -9.82657585E-05 -3.54228106E+00 -1.02803904E+00  1.51645535E+00  3.09149715E+00
  1.05068551E+00 -2.26026468E+00
Number of symbols in /Mol/                 I                0
Force Field                                I                0
Atom Types                                 C   N=           4
                                                
Int Atom Types                             I   N=           4
           0           0           0           0
MM charges                                 R   N=           4
  0.00000000E+00  0.00000000E+00  0.00000000E+00  0.00000000E+00
Integer atomic weights                     I   N=           4
          16          32           1           1
Real atomic weights                        R   N=           4
  1.59949146E+01  3.19720718E+01  1.00782504E+00  1.00782504E+00
Atom fragment info                         I   N=           4
           0           0           0           0
Atom residue num                           I   N=           4
           0           0           0           0
Nuclear spins                              I   N=           4
           0           0           1           1
Nuclear ZEff                               R   N=           4
 -5.60000000E+00 -1.36000000E+01 -1.00000000E+00 -1.00000000E+00
Nuclear ZNuc                               R   N=           4
  8.00000000E+00  1.60000000E+01  1.00000000E+00  1.00000000E+00
Nuclear QMom                               R   N=           4
  0.00000000E+00  0.00000000E+00  0.00000000E+00  0.00000000E+00
Nuclear GFac                               R   N=           4
  0.00000000E+00  0.00000000E+00  2.79284600E+00  2.79284600E+00
MicOpt                                     I   N=           4
          -2          -2          -1          -1
Number of residues                         I                0
Number of secondary structures             I                0
Redundant internal dimensions              I   N=           4
          12          10           2           0
Redundant internal coordinate indices      I   N=          48
           1          -1           0           0           1          -2
           0           0           1          -3           0           0
           2          -1           0           0           2          -2
           0           0           2          -3           0           0
           1           3           0           0           1           4
           0           0           2           3           0           0
           2           4           0           0           3           1
           4           0           3           2           4           0
Redundant internal coordinates             R   N=          12
 -3.61127796E+00 -9.44863062E-05  6.04712360E-05  3.61128174E+00  1.19052746E-04
 -9.82657585E-05  1.83327139E+00  7.15125182E+00  7.38447728E+00  2.54602005E+00
  1.88447027E+00  1.61280108E+00
ZRed-IntVec                                I   N=          12
          -1          -1          -1          -1          -1          -1
           0           0           0           0           0           0
ZRed-FPVec                                 R   N=          12
  0.00000000E+00  0.00000000E+00  0.00000000E+00  0.00000000E+00  0.00000000E+00
  0.00000000E+00  0.00000000E+00  0.00000000E+00  0.00000000E+00  0.00000000E+00
  0.00000000E+00  0.00000000E+00
ZRed-Constraint1                           R   N=          12
 -3.61127796E+00 -9.44863062E-05  6.04712360E-05  3.61128174E+00  1.19052746E-04
 -9.82657585E-05  1.81731930E+00  7.14786436E+00  7.40008956E+00  2.54544029E+00
  1.87887088E+00  1.59818712E+00
ZRed-Constraint2                           R   N=          12
 -3.61127796E+00 -9.44863062E-05  6.04712360E-05  3.61128174E+00  1.19052746E-04
 -9.82657585E-05  0.00000000E+00  0.00000000E+00  0.00000000E+00  0.00000000E+00
  0.00000000E+00  0.00000000E+00
Number of contracted shells                I               27
Number of primitive shells                 I               49
Pure/Cartesian d shells                    I                0
Pure/Cartesian f shells                    I                0
Highest angular momentum                   I                2
Largest degree of contraction              I                6
Shell types                                I   N=          27
           0          -1          -1          -1          -1          -2
           0           0           0           0           0           0
          -1           1           1           1           1           1
          -2           0           0           0           1           0
           0           0           1
Number of primitives per shell             I   N=          27
           6           3           1           1           1           1
           6           3           1           1           1           1
           1           4           2           1           1           1
           1           3           1           1           1           3
           1           1           1
Shell to atom map                          I   N=          27
           1           1           1           1           1           1
           2           2           2           2           2           2
           2           2           2           2           2           2
           2           3           3           3           3           4
           4           4           4
Primitive exponents                        R   N=          49
  8.58850000E+03  1.29723000E+03  2.99296000E+02  8.73771000E+01  2.56789000E+01
  3.74004000E+00  4.21175000E+01  9.62837000E+00  2.85332000E+00  9.05661000E-01
  2.55611000E-01  8.45000000E-02  1.29200000E+00  9.34134000E+04  1.39617000E+04
  3.16991000E+03  9.02456000E+02  2.97158000E+02  1.08702000E+02  1.08702000E+02
  4.31553000E+01  1.81079000E+01  5.56009000E+00  2.13183000E+00  4.20403000E-01
  1.36045000E-01  4.05000000E-02  4.95040000E+02  1.17221000E+02  3.77749000E+01
  1.40584000E+01  5.56574000E+00  2.26297000E+00  8.07994000E-01  2.77460000E-01
  7.71410000E-02  6.50000000E-01  3.38650000E+01  5.09479000E+00  1.15879000E+00
  3.25840000E-01  1.02741000E-01  7.50000000E-01  3.38650000E+01  5.09479000E+00
  1.15879000E+00  3.25840000E-01  1.02741000E-01  7.50000000E-01
Contraction coefficients                   R   N=          49
  1.89515008E-03  1.43859006E-02  7.07320031E-02  2.40001011E-01  5.94797026E-01
  2.80802012E-01  1.13889012E-01  9.20811101E-01 -3.27447036E-03  1.00000000E+00
  1.00000000E+00  1.00000000E+00  1.00000000E+00  7.42999957E-04  5.79299966E-03
  2.99539983E-02  1.19027993E-01  3.68431979E-01  5.77298966E-01  1.43186060E-01
  6.24465262E-01  2.83366119E-01  1.00000000E+00  1.00000000E+00  1.00000000E+00
  1.00000000E+00  1.00000000E+00  8.30900251E-03  6.40240194E-02  2.77614084E-01
  7.45076225E-01  6.13711672E-01  4.43817763E-01  1.00000000E+00  1.00000000E+00
  1.00000000E+00  1.00000000E+00  2.54938145E-02  1.90373109E-01  8.52161486E-01
  1.00000000E+00  1.00000000E+00  1.00000000E+00  2.54938145E-02  1.90373109E-01
  8.52161486E-01  1.00000000E+00  1.00000000E+00  1.00000000E+00
P(S=P) Contraction coefficients            R   N=          49
  0.00000000E+00  0.00000000E+00  0.00000000E+00  0.00000000E+00  0.00000000E+00
  0.00000000E+00  3.65113974E-02  2.37152983E-01  8.19701941E-01  1.00000000E+00
  1.00000000E+00  1.00000000E+00  0.00000000E+00  0.00000000E+00  0.00000000E+00
  0.00000000E+00  0.00000000E+00  0.00000000E+00  0.00000000E+00  0.00000000E+00
  0.00000000E+00  0.00000000E+00  0.00000000E+00  0.00000000E+00  0.00000000E+00
  0.00000000E+00  1.00000000E+00  0.00000000E+00  0.00000000E+00  0.00000000E+00
  0.00000000E+00  0.00000000E+00  0.00000000E+00  0.00000000E+00  0.00000000E+00
  0.00000000E+00  0.00000000E+00  0.00000000E+00  0.00000000E+00  0.00000000E+00
  0.00000000E+00  0.00000000E+00  0.00000000E+00  0.00000000E+00  0.00000000E+00
  0.00000000E+00  0.00000000E+00  0.00000000E+00  0.00000000E+00
Coordinates of each shell                  R   N=          81
 -3.61127796E+00 -9.44863062E-05  6.04712360E-05 -3.61127796E+00 -9.44863062E-05
  6.04712360E-05 -3.61127796E+00 -9.44863062E-05  6.04712360E-05 -3.61127796E+00
 -9.44863062E-05  6.04712360E-05 -3.61127796E+00 -9.44863062E-05  6.04712360E-05
 -3.61127796E+00 -9.44863062E-05  6.04712360E-05  3.61128174E+00  1.19052746E-04
 -9.82657585E-05  3.61128174E+00  1.19052746E-04 -9.82657585E-05  3.61128174E+00
  1.19052746E-04 -9.82657585E-05  3.61128174E+00  1.19052746E-04 -9.82657585E-05
  3.61128174E+00  1.19052746E-04 -9.82657585E-05  3.61128174E+00  1.19052746E-04
 -9.82657585E-05  3.61128174E+00  1.19052746E-04 -9.82657585E-05  3.61128174E+00
  1.19052746E-04 -9.82657585E-05  3.61128174E+00  1.19052746E-04 -9.82657585E-05
  3.61128174E+00  1.19052746E-04 -9.82657585E-05  3.61128174E+00  1.19052746E-04
 -9.82657585E-05  3.61128174E+00  1.19052746E-04 -9.82657585E-05  3.61128174E+00
  1.19052746E-04 -9.82657585E-05 -3.54228106E+00 -1.02803904E+00  1.51645535E+00
 -3.54228106E+00 -1.02803904E+00  1.51645535E+00 -3.54228106E+00 -1.02803904E+00
  1.51645535E+00 -3.54228106E+00 -1.02803904E+00  1.51645535E+00  3.09149715E+00
  1.05068551E+00 -2.26026468E+00  3.09149715E+00  1.05068551E+00 -2.26026468E+00
  3.09149715E+00  1.05068551E+00 -2.26026468E+00  3.09149715E+00  1.05068551E+00
 -2.26026468E+00
Num ILSW                                   I              100
ILSW                                       I   N=         100
           1           0           0           1           2           0
           0           0           0           0        4336          -1
           7           0           0           0           2           0
           0           0           0           0           1           0
           1           1           0           0           0           0
           0           0      100000           0          -1           0
           0           0           0           0           0           0
           0           0           0           1           0           0
           0 -2000000000           1           0           0           0
           0           0           4          52           0           0
           0           0          55           0           0           0
           0           0           0           4           0           1
           0           0           0           0           0           0
           0           0           0           0           0           0
           0           0           0           0           0           0
           0           0           0           0           0           0
           0           0           0           0
Num RLSW                                   I               52
RLSW                                       R   N=          52
  1.00000000E+00  1.00000000E+00  1.00000000E+00  1.00000000E+00  5.40000000E-01
  0.00000000E+00  0.00000000E+00  1.00000000E+00  0.00000000E+00  0.00000000E+00
  0.00000000E+00  0.00000000E+00  1.00000000E+00  0.00000000E+00  0.00000000E+00
  0.00000000E+00  0.00000000E+00  1.00000000E+00  0.00000000E+00  0.00000000E+00
  0.00000000E+00  0.00000000E+00  1.00000000E+00  0.00000000E+00  0.00000000E+00
  0.00000000E+00  0.00000000E+00  1.00000000E+00  0.00000000E+00  0.00000000E+00
  0.00000000E+00  0.00000000E+00  1.00000000E+00  0.00000000E+00  0.00000000E+00
  0.00000000E+00  0.00000000E+00  0.00000000E+00  1.00000000E+00  1.00000000E+00
  0.00000000E+00  1.00000000E+00  0.00000000E+00  0.00000000E+00  0.00000000E+00
  0.00000000E+00  0.00000000E+00  0.00000000E+00  0.00000000E+00  0.00000000E+00
  0.00000000E+00  0.00000000E+00
MxBond                                     I                3
NBond                                      I   N=           4
           3           3           2           2
IBond                                      I   N=          12
           2           3           4           1           3           4
           1           2           0           1           2           0
RBond                                      R   N=          12
  1.00000000E-01  1.00000000E+00  1.00000000E-01  1.00000000E-01  1.00000000E-01
  1.00000000E+00  1.00000000E+00  1.00000000E-01  0.00000000E+00  1.00000000E-01
  1.00000000E+00  0.00000000E+00
Virial Ratio                               R      2.001606048621841E+00
SCF Energy                                 R     -4.743603305888427E+02
Total Energy                               R     -4.743603305888427E+02
S**2                                       R      3.694822225952521E-12
S**2 after annihilation                    R     -5.684341886091303E-14
RMS Force                                  R      5.177500944456673E-06
RMS Density                                R      4.575146551062221E-10
Job Status                                 I                1
Nuclear derivative order                   I                1
External E-field                           R   N=          35
  0.00000000E+00  0.00000000E+00  0.00000000E+00  0.00000000E+00  0.00000000E+00
  0.00000000E+00  0.00000000E+00  0.00000000E+00  0.00000000E+00  0.00000000E+00
  0.00000000E+00  0.00000000E+00  0.00000000E+00  0.00000000E+00  0.00000000E+00
  0.00000000E+00  0.00000000E+00  0.00000000E+00  0.00000000E+00  0.00000000E+00
  0.00000000E+00  0.00000000E+00  0.00000000E+00  0.00000000E+00  0.00000000E+00
  0.00000000E+00  0.00000000E+00  0.00000000E+00  0.00000000E+00  0.00000000E+00
  0.00000000E+00  0.00000000E+00  0.00000000E+00  0.00000000E+00  0.00000000E+00
IOpCl                                      I                1
IROHF                                      I                0
Alpha Orbital Energies                     R   N=          64
 -8.99779031E+01 -1.96711562E+01 -8.33980682E+00 -6.26185827E+00 -6.25828655E+00
 -6.25258843E+00 -1.08382502E+00 -8.39481977E-01 -5.24659518E-01 -4.98139624E-01
 -3.96916867E-01 -3.58629074E-01 -3.31375373E-01 -2.34876111E-01  1.54059565E-02
  3.87542730E-02  4.66935129E-02  5.32132101E-02  6.65638910E-02  1.28780525E-01
  1.91755379E-01  1.97646598E-01  2.10972854E-01  2.44560165E-01  3.07814328E-01
  3.39483551E-01  3.48128425E-01  3.89172959E-01  5.32589668E-01  5.86054129E-01
  6.96176581E-01  7.13366410E-01  7.83637005E-01  7.84254104E-01  9.68922570E-01
  1.03804187E+00  1.07822786E+00  1.09463713E+00  1.36206167E+00  1.39232906E+00
  1.39868966E+00  1.45292791E+00  1.45619788E+00  1.64000336E+00  1.66070563E+00
  1.67238440E+00  2.05686402E+00  2.08665456E+00  2.47779922E+00  2.52327654E+00
  2.87772781E+00  2.88673804E+00  3.16500765E+00  3.18816854E+00  3.84301707E+00
  5.02973823E+00  5.04216582E+00  5.51000600E+00  7.81037476E+00  1.74059185E+01
  1.74159494E+01  1.74525630E+01  4.98668523E+01  1.89070141E+02
Beta Orbital Energies                      R   N=          64
 -8.99779031E+01 -1.96711562E+01 -8.33980682E+00 -6.26185827E+00 -6.25828655E+00
 -6.25258843E+00 -1.08382502E+00 -8.39481977E-01 -5.24659518E-01 -4.98139624E-01
 -3.96916867E-01 -3.58629075E-01 -3.31375372E-01 -2.34876111E-01  1.54059562E-02
  3.87542701E-02  4.66935131E-02  5.32132060E-02  6.65638912E-02  1.28780525E-01
  1.91755379E-01  1.97646598E-01  2.10972855E-01  2.44560165E-01  3.07814327E-01
  3.39483550E-01  3.48128425E-01  3.89172958E-01  5.32589668E-01  5.86054128E-01
  6.96176581E-01  7.13366410E-01  7.83636989E-01  7.84254119E-01  9.68922570E-01
  1.03804187E+00  1.07822786E+00  1.09463713E+00  1.36206167E+00  1.39232906E+00
  1.39868966E+00  1.45292791E+00  1.45619788E+00  1.64000336E+00  1.66070563E+00
  1.67238440E+00  2.05686402E+00  2.08665456E+00  2.47779922E+00  2.52327654E+00
  2.87772781E+00  2.88673804E+00  3.16500765E+00  3.18816854E+00  3.84301707E+00
  5.02973823E+00  5.04216582E+00  5.51000600E+00  7.81037476E+00  1.74059185E+01
  1.74159494E+01  1.74525630E+01  4.98668523E+01  1.89070141E+02
Alpha MO coefficients                      R   N=        4096
  2.14152094E-07 -1.06284424E-06 -1.64385905E-06  6.20856040E-08 -2.07998035E-07
  7.82253326E-06  5.43045174E-06  9.43021490E-09  3.60332145E-07 -3.36901589E-05
 -1.81710993E-05  9.55069653E-06 -1.49484574E-05  1.34593089E-04  2.55580839E-05
 -4.45813356E-05  6.67268579E-05 -1.05209742E-06  3.79838271E-07  1.40171936E-06
  6.90165586E-07 -2.71940068E-07  4.10785838E-01  6.54412310E-01  1.53470776E-02
 -4.34005245E-03  1.59608481E-03 -8.85995755E-04  1.48358594E-04 -2.44920059E-05
  8.61011009E-06 -1.87322687E-05 -2.80085212E-05  3.14230127E-05 -6.79594053E-05
  7.71298459E-06 -1.03964351E-05  2.24494666E-05  2.37130655E-06 -3.00955479E-06
  6.47009024E-06 -4.40556463E-05  7.42259687E-05 -1.59810765E-04  6.56698384E-05
 -7.25541571E-05  1.56694964E-04  6.06328900E-05  2.68720369E-05 -5.88341449E-05
 -5.78725707E-06 -1.26132167E-05 -2.79359176E-06  3.49765394E-05 -1.66273011E-04
 -2.49108175E-06  1.75203023E-06 -2.67078498E-06  2.70704776E-05 -2.18999278E-04
  2.62367242E-04 -3.62587168E-05  7.20178042E-05 -1.54877270E-04  5.52842698E-01
  4.69704298E-01  1.64965735E-04 -6.98578044E-04  1.02888816E-03  8.00874025E-03
 -1.28054323E-05  6.60981581E-05 -9.66007028E-05 -2.95880867E-03 -9.31227481E-05
 -9.36790518E-05  1.36877268E-04  2.24270110E-03  2.57093551E-04 -2.02841373E-04
  3.00389036E-04  8.06357261E-05  8.87951826E-06 -1.06383862E-04 -5.48321329E-05
 -6.41147169E-06  4.46280490E-08 -7.45311596E-07  6.16639044E-06 -1.40042913E-05
  3.10384296E-05 -8.41930207E-06 -3.74418477E-04  2.39254580E-04 -1.10001544E-05
  1.48276628E-05  5.84712905E-07  9.59384407E-08 -2.26594052E-07  6.66091063E-06
  3.14126198E-07 -7.88554179E-07 -1.61435342E-05 -3.80835116E-07  1.15979850E-06
 -4.87853716E-06 -1.62827242E-06  2.80163873E-06  4.57278142E-05 -5.20637068E-05
  1.18664605E-04  2.14602289E-07 -4.55926211E-06  8.38008489E-06 -1.47020844E-05
  2.04855658E-06  5.18349239E-05  2.31673077E-05 -1.04853322E-03  1.87040481E-05
 -2.51766904E-04  3.71307110E-04  2.32468354E-06 -9.19528740E-06  2.50054641E-04
 -7.92712660E-07 -1.90219822E-06  4.49913357E-06 -1.58514175E-06 -7.82233573E-06
  9.58047188E-07  1.32389393E-06 -2.79484126E-06  8.02429876E-05  5.98540282E-05
 -2.18440262E-06  7.40488698E-06 -3.60990419E-04 -1.79044713E-04  1.10113073E-04
 -1.72469676E-04  1.73903103E-03  3.01828710E-04 -6.02336567E-04  9.00305364E-04
 -1.07982107E-05  5.89135989E-06  1.13617675E-05  9.52409477E-06 -4.01985647E-06
 -1.19756949E-01 -3.20465868E-01  5.15921298E-01  5.99082610E-01  4.27787463E-02
 -1.47392713E-02  2.58164542E-03 -3.68835699E-04  9.87556868E-05 -2.15752606E-04
 -7.24936651E-04  7.79889670E-04 -1.68880505E-03 -1.66379368E-03  1.76420787E-03
 -3.82007081E-03 -1.52632059E-04  1.55338677E-04 -3.38083261E-04 -4.71780613E-04
  8.01821002E-04 -1.72721983E-03  8.56550740E-04 -9.16353177E-04  1.98028225E-03
  6.09128676E-04  1.90315209E-04 -8.71536069E-04  4.18708002E-04 -9.82012282E-05
 -3.27538898E-05  4.10389014E-04 -2.24325826E-03 -3.43436730E-05  1.39413541E-05
 -2.14064709E-05  1.63342139E-04 -2.08108817E-03  3.34521831E-03 -3.48572644E-04
  6.87033280E-04 -1.47746537E-03  1.20144722E-06  4.77047398E-06  1.41958772E-05
  3.09454329E-07  1.42627399E-08 -4.07085816E-05 -7.01610713E-05 -3.41719899E-06
  2.94431421E-06  6.78441123E-05  1.00014026E-04 -5.78015655E-05  9.04826971E-05
  5.18242940E-04  2.56363089E-04 -1.65734361E-04  2.35785118E-04  4.30172989E-06
  6.21488009E-06 -2.03215756E-05  8.89185663E-06 -4.17820910E-06 -1.08788376E-04
 -2.98758192E-04  5.63133775E-04  4.21155750E-04  6.65660401E-05 -2.43147642E-05
 -1.27106353E-04 -2.37294648E-03 -2.09195979E-04  4.86648852E-04  3.68724989E-01
  3.42081589E-02 -7.97955603E-02  6.90121902E-01  6.40185275E-02 -1.49334617E-01
  5.34918825E-02  4.95715320E-03 -1.15639945E-02 -7.43337832E-03 -6.70321425E-04
  1.56364383E-03  4.55929870E-03  3.74956596E-04 -8.74368949E-04  1.96985341E-04
 -4.24649143E-04 -9.02669227E-05 -1.77819074E-04  1.96820316E-04 -9.84627599E-07
 -1.27676026E-04 -6.47661544E-04 -2.51077812E-05 -2.27287355E-05  3.29535131E-05
  1.12783183E-05 -9.58476543E-06  7.99426904E-05  6.45340873E-05  1.91460582E-05
 -4.21865247E-05  1.90518101E-07  2.75264829E-07  3.92931303E-06  2.29183717E-06
 -4.82589321E-06  1.13052286E-06 -2.29185852E-05 -1.07071783E-05  2.18208945E-05
 -3.14514654E-05  3.89791169E-05  1.79502292E-05 -4.18249415E-05  2.33216690E-04
  7.97328943E-05 -8.31571565E-05  1.47690456E-04 -8.94078844E-07  1.40441177E-06
 -2.18423617E-06  2.85267854E-06 -1.16082552E-06 -7.75049741E-04 -2.09688116E-03
  3.70898563E-03  3.76626586E-03 -6.93617232E-04 -3.21614191E-04 -4.95991842E-04
 -4.15094480E-04  8.31941413E-04 -1.78649044E-03  8.69127888E-02 -1.55909818E-01
  3.34845056E-01  1.62390443E-01 -2.91277927E-01  6.25572763E-01  1.23554035E-02
 -2.21486995E-02  4.75684928E-02 -1.63059576E-03  2.87917907E-03 -6.18271595E-03
  1.03645318E-03 -1.82307424E-03  3.91615502E-03 -4.78975777E-04 -2.93170507E-04
  4.72204495E-04  2.94625784E-05  1.36789238E-04  6.93867246E-06 -1.18094720E-05
 -1.70054568E-04 -1.21722363E-05 -4.26715288E-06  7.55113207E-06 -5.55408462E-04
 -1.02087823E-04  1.15203442E-03  1.19277017E-04 -2.69989345E-04  5.80237709E-04
  1.12480833E-08  6.56872320E-08  7.69980933E-08 -3.50566035E-06 -1.53071154E-06
 -6.03996167E-07 -4.32059729E-07  1.48782416E-05  6.37379092E-06  6.45165939E-07
  8.74334736E-08 -3.66485067E-05 -1.49582250E-05  1.24975631E-05  2.42258601E-06
  6.35453960E-05  3.67033428E-05 -8.52181532E-07 -5.14053084E-07 -8.04748936E-07
 -6.10149262E-07 -7.74879770E-07 -3.07022097E-06 -8.32751055E-06  1.48996577E-05
  1.43025647E-05 -1.90328406E-06 -8.51301194E-09 -2.12688578E-06 -1.59418246E-05
 -1.94618434E-03 -9.02112920E-04  2.60997259E-03  3.44972291E-01  1.59947663E-01
  4.86734460E-03  6.43379477E-01  2.98305324E-01  3.56727455E-04  4.71364769E-02
  2.18551928E-02 -4.92576753E-05 -6.33721990E-03 -2.93829211E-03  3.11600199E-05
  3.66906904E-03  1.70182073E-03 -2.79196304E-04 -6.50476406E-05 -2.74641079E-04
 -1.61707502E-04 -1.34067816E-04 -7.83981102E-07 -2.11438762E-06 -1.36395772E-05
  7.21863640E-07  4.98315353E-06  2.93413663E-06 -2.61913608E-07 -6.59013173E-07
  2.07731519E-06  5.95649263E-07  8.56606070E-05  3.96227585E-05 -1.18713942E-01
 -1.95683351E-01  1.90028633E-03 -2.66310034E-02  3.92302964E-02  5.75386547E-01
  3.36377053E-03 -4.25984996E-02  6.27568342E-02  4.17247262E-01  2.40165928E-03
 -1.58590620E-02  2.32509787E-02 -1.62075795E-02 -3.44222430E-03  3.06502379E-03
 -4.54254480E-03  3.69909376E-03  4.85065612E-04 -1.01552364E-02  1.68664360E-03
 -2.48429162E-04  1.80281048E-04  5.15688973E-04 -1.10898297E-03 -1.81910412E-03
  2.47264753E-03  3.49540735E-03  6.98275279E-03 -3.53330812E-03 -4.43680612E-05
  8.76208523E-05  5.33965747E-04  1.65746491E-05 -4.07588558E-05  1.00797034E-03
  3.29073148E-05 -7.97580785E-05 -1.24904208E-03 -7.68695151E-05  1.73322099E-04
 -3.10814023E-03 -1.50744729E-05  9.25728885E-05 -3.18776324E-03  1.05489721E-03
 -2.33564456E-03 -1.63064355E-04  9.79625606E-05 -1.94605207E-04  6.08737266E-04
 -4.62524188E-05  1.10707928E-01  9.01377078E-02  1.57244713E-02 -1.05858227E-03
  1.47869970E-02 -2.18095284E-02  4.38425610E-04  4.19546853E-05 -4.79062602E-03
 -7.50820929E-06  3.15383233E-05 -6.58365061E-05  9.44378721E-04  1.58648885E-03
  3.29868002E-03  4.99459905E-04 -7.13864539E-04 -5.25456980E-03  4.76256430E-03
  7.53934610E-04 -1.09683437E-03 -1.27534135E-03  5.83220058E-03 -1.64711408E-04
  3.41440242E-04 -6.52718207E-03 -3.81483417E-04  2.50883774E-03 -3.76429855E-03
 -1.54264824E-04  1.38870505E-04  3.96834571E-05  2.37585557E-04 -9.13447700E-05
  3.34088233E-02  9.49254301E-02 -1.99135218E-01 -3.68979491E-01  6.69250979E-01
  4.07047027E-01 -1.13719337E-02  3.81264639E-05  5.21905248E-04 -9.49006658E-04
  2.90810523E-03 -7.04110712E-03  1.52171785E-02  5.90097594E-03 -1.40727859E-02
  3.04100825E-02 -8.66218758E-03  1.96229476E-02 -4.23657253E-02 -8.17333369E-03
  2.61771530E-02 -5.67598462E-02 -7.73282812E-04  3.55089179E-03 -8.17961462E-03
  1.35243655E-02  4.14879007E-03 -1.81152928E-02  7.20512023E-03 -2.05991073E-03
 -1.16224273E-03 -3.05358984E-03  9.43807516E-03  5.57369596E-04 -2.59132448E-04
  3.83518993E-04  1.01177032E-01  1.34102909E-01  2.98754718E-03  5.55078861E-03
 -9.77315448E-03  2.10033924E-02  3.94480565E-02  6.60684945E-02  9.14798599E-03
 -1.41069017E-01  2.08311425E-01 -2.01708093E-01  1.30774481E-02 -2.03310244E-01
  3.00225217E-01 -2.86826549E-01  8.19538588E-03 -1.36079066E-01  2.01078270E-01
 -6.09576182E-02  1.08494750E-03 -1.39206292E-02  2.07030909E-02  1.05401627E-02
  1.45173555E-03 -1.46679250E-02 -6.58711415E-03 -1.00713579E-03  4.59725816E-04
  1.31037815E-03 -2.78979733E-03 -5.23023860E-03  1.00839285E-02  9.34195629E-03
 -4.43687655E-06 -9.32847044E-04 -4.08765712E-04  4.46452242E-04 -1.09249955E-03
  1.00821685E-03 -1.97007427E-03 -2.12397449E-03  1.96131634E-03 -3.83302192E-03
  3.03204748E-03 -2.82575212E-03  5.51291044E-03  5.67209912E-03 -5.02520216E-03
  9.78329492E-03  4.20391041E-03 -1.70545881E-03  2.98791552E-03 -8.67109769E-04
 -8.73852379E-04  8.61161361E-04  6.05715390E-05  4.66947969E-04  1.66237370E-01
  2.59709483E-01  8.24292779E-02 -8.67070090E-04  1.66750722E-02 -2.46133430E-02
 -4.46519702E-03 -6.39561092E-03 -4.46193233E-03  1.03083061E-04  2.56125127E-04
 -5.83098213E-04 -1.16433954E-03 -1.94463632E-03  2.16945942E-03  5.22822393E-03
 -6.94987735E-03  5.80025127E-03  3.29861570E-03  7.47969570E-03 -9.86182465E-03
  9.21065521E-03  3.22433777E-03  5.39184317E-03 -7.12130967E-03  4.24270151E-03
  2.01085496E-03 -9.78673681E-04  2.02287808E-03 -4.00798947E-04  1.56297382E-04
  5.20000769E-04  3.19924743E-04 -8.09127044E-05  1.22547582E-02  3.50084049E-02
 -7.52182404E-02 -1.37658516E-01  2.53165186E-01  2.99100155E-01  2.63323079E-02
 -6.47476343E-03  1.01024299E-02 -2.16384536E-02 -1.70966711E-02  3.41884920E-02
 -7.34397279E-02 -3.32868492E-02  6.65662776E-02 -1.42993131E-01  4.84490212E-02
 -9.68255209E-02  2.08025089E-01  8.53878916E-02 -1.69847509E-01  3.64707994E-01
  2.33404101E-02 -4.52641943E-02  9.68292721E-02 -3.66107143E-02 -1.72387728E-02
  3.12279118E-02  1.05938793E-02  7.94114460E-03 -5.65919900E-03 -9.04678753E-03
 -5.85323878E-03  5.42085011E-04 -5.48918990E-04  9.15550609E-04 -1.57522847E-01
 -2.85240715E-01 -1.34374418E-01 -6.70167986E-03  1.09373943E-02 -2.34555063E-02
 -4.68400470E-05 -7.88233989E-05 -2.37049653E-03  2.52374936E-01  1.71081251E-01
  2.63233193E-04 -3.48842140E-03  3.70181746E-01  2.50942170E-01  2.99625275E-04
 -3.14730163E-03  3.33788019E-01  2.26236556E-01 -6.44092797E-04 -8.07737136E-04
  7.25212553E-02  4.90479896E-02  1.16623503E-02  5.08062851E-04  5.34986408E-03
  6.73846687E-03  9.53702068E-04 -1.60492088E-05 -4.61284653E-05  1.01628290E-04
  1.74401080E-04 -2.84192398E-04 -6.14680293E-04 -3.44000771E-04  7.43380997E-05
  8.33218942E-04  1.04248066E-03 -2.82518213E-05 -3.21343262E-03 -1.26638776E-03
 -5.36438857E-05 -6.18818070E-03 -2.43303039E-03  6.82347224E-05  9.02057002E-03
  3.52969674E-03  1.93177804E-04  1.85413655E-02  7.43917823E-03  1.70085292E-04
  9.19584304E-03  4.00995308E-03 -2.32026226E-04 -3.24834780E-04 -4.37948957E-04
 -2.45670135E-04 -5.69619754E-04 -3.61816992E-05 -6.79638545E-08  3.47224420E-04
 -2.77408071E-04  2.99119611E-02  2.02689393E-02  3.89307988E-04  6.88676624E-04
  6.58428541E-04  8.86073280E-05  6.47530986E-04  3.74152883E-04  1.82132882E-05
  3.08136230E-05 -9.70954118E-04 -1.07150501E-02 -6.63022700E-03 -9.86415889E-05
 -1.47748182E-03 -1.55229555E-02 -9.63577304E-03 -1.29421763E-04 -1.32604829E-03
 -1.48809302E-02 -9.17390595E-03 -3.30658243E-04 -3.23692557E-04 -1.20777286E-03
 -1.39202604E-03 -4.53556667E-04  1.79044845E-05 -2.62266269E-04 -3.09340007E-04
  1.65297474E-04  3.04836001E-05  8.65576705E-05 -1.81457908E-04 -3.71507973E-04
  9.03390772E-04  1.97716385E-04 -1.29096684E-03 -3.78523944E-04 -5.50152062E-02
 -2.55865139E-02 -1.11453342E-03 -9.37602384E-02 -4.33893306E-02 -2.15101904E-03
 -1.80605316E-01 -8.35775999E-02  3.11077419E-03  2.65859837E-01  1.23041454E-01
  6.51119603E-03  5.48339214E-01  2.53765024E-01  3.96996082E-03  3.02582256E-01
  1.40438147E-01 -1.09235625E-02 -1.26919256E-03 -1.08171557E-02 -6.31499574E-03
 -2.31689260E-03  2.98676691E-04  2.62012929E-04  4.81587702E-04 -2.02805465E-04
 -1.08204152E-03 -8.00137287E-04 -3.35904424E-05 -6.11149860E-05  7.74132824E-04
  2.17919820E-04  1.97081179E-02  9.13684332E-03 -2.39044498E-03 -4.00509667E-03