 Entering Gaussian System, Link 0=g16
 Initial command:
 /home/szhao/Apps/g16/l1.exe "/home/szhao/tmp/Gau-23072.inp" -scrdir="/home/szhao/tmp/"
 Default is to use a total of  16 processors:
                               16 via shared-memory
                                1 via Linda
 Entering Link 1 = /home/szhao/Apps/g16/l1.exe PID=     23074.
  
 Copyright (c) 1988,1990,1992,1993,1995,1998,2003,2009,2016,
            Gaussian, Inc.  All Rights Reserved.
  
 This is part of the Gaussian(R) 16 program.  It is based on
 the Gaussian(R) 09 system (copyright 2009, Gaussian, Inc.),
 the Gaussian(R) 03 system (copyright 2003, Gaussian, Inc.),
 the Gaussian(R) 98 system (copyright 1998, Gaussian, Inc.),
 the Gaussian(R) 94 system (copyright 1995, Gaussian, Inc.),
 the Gaussian 92(TM) system (copyright 1992, Gaussian, Inc.),
 the Gaussian 90(TM) system (copyright 1990, Gaussian, Inc.),
 the Gaussian 88(TM) system (copyright 1988, Gaussian, Inc.),
 the Gaussian 86(TM) system (copyright 1986, Carnegie Mellon
 University), and the Gaussian 82(TM) system (copyright 1983,
 Carnegie Mellon University). Gaussian is a federally registered
 trademark of Gaussian, Inc.
  
 This software contains proprietary and confidential information,
 including trade secrets, belonging to Gaussian, Inc.
  
 This software is provided under written license and may be
 used, copied, transmitted, or stored only in accord with that
 written license.
  
 The following legend is applicable only to US Government
 contracts under FAR:
  
                    RESTRICTED RIGHTS LEGEND
  
 Use, reproduction and disclosure by the US Government is
 subject to restrictions as set forth in subparagraphs (a)
 and (c) of the Commercial Computer Software - Restricted
 Rights clause in FAR 52.227-19.
  
 Gaussian, Inc.
 340 Quinnipiac St., Bldg. 40, Wallingford CT 06492
  
  
 ---------------------------------------------------------------
 Warning -- This program may not be used in any manner that
 competes with the business of Gaussian, Inc. or will provide
 assistance to any competitor of Gaussian, Inc.  The licensee
 of this program is prohibited from giving any competitor of
 Gaussian, Inc. access to this program.  By using this program,
 the user acknowledges that Gaussian, Inc. is engaged in the
 business of creating and licensing software in the field of
 computational chemistry and represents and warrants to the
 licensee that it is not a competitor of Gaussian, Inc. and that
 it will not use this program in any manner prohibited above.
 ---------------------------------------------------------------
  

 Cite this work as:
 Gaussian 16, Revision A.03,
 M. J. Frisch, G. W. Trucks, H. B. Schlegel, G. E. Scuseria, 
 M. A. Robb, J. R. Cheeseman, G. Scalmani, V. Barone, 
 G. A. Petersson, H. Nakatsuji, X. Li, M. Caricato, A. V. Marenich, 
 J. Bloino, B. G. Janesko, R. Gomperts, B. Mennucci, H. P. Hratchian, 
 J. V. Ortiz, A. F. Izmaylov, J. L. Sonnenberg, D. Williams-Young, 
 F. Ding, F. Lipparini, F. Egidi, J. Goings, B. Peng, A. Petrone, 
 T. Henderson, D. Ranasinghe, V. G. Zakrzewski, J. Gao, N. Rega, 
 G. Zheng, W. Liang, M. Hada, M. Ehara, K. Toyota, R. Fukuda, 
 J. Hasegawa, M. Ishida, T. Nakajima, Y. Honda, O. Kitao, H. Nakai, 
 T. Vreven, K. Throssell, J. A. Montgomery, Jr., J. E. Peralta, 
 F. Ogliaro, M. J. Bearpark, J. J. Heyd, E. N. Brothers, K. N. Kudin, 
 V. N. Staroverov, T. A. Keith, R. Kobayashi, J. Normand, 
 K. Raghavachari, A. P. Rendell, J. C. Burant, S. S. Iyengar, 
 J. Tomasi, M. Cossi, J. M. Millam, M. Klene, C. Adamo, R. Cammi, 
 J. W. Ochterski, R. L. Martin, K. Morokuma, O. Farkas, 
 J. B. Foresman, and D. J. Fox, Gaussian, Inc., Wallingford CT, 2016.
 
 ******************************************
 Gaussian 16:  ES64L-G16RevA.03 25-Dec-2016
                15-May-2025 
 ******************************************
 %chk=opt.chk
 %mem=4GB
 %nprocshared=8
 Will use up to    8 processors via shared memory.
 --------------------------------------------
 #p opt UM062X/6-311+G** nosymm int=superfine
 --------------------------------------------
 1/18=20,19=15,26=5,38=1/1,3;
 2/9=110,12=2,15=1,17=6,18=5,40=1/2;
 3/5=4,6=6,7=111,11=2,25=1,30=1,71=1,74=-55,75=-7,116=2/1,2,3;
 4//1;
 5/5=2,38=5/2;
 6/7=2,8=2,9=2,10=2,28=1/1;
 7/30=1/1,2,3,16;
 1/18=20,19=15,26=5/3(2);
 2/9=110,15=1/2;
 99//99;
 2/9=110,15=1/2;
 3/5=4,6=6,7=111,11=2,25=1,30=1,71=1,74=-55,75=-7,116=2/1,2,3;
 4/5=5,16=3,69=1/1;
 5/5=2,38=5/2;
 7/30=1/1,2,3,16;
 1/18=20,19=15,26=5/3(-5);
 2/9=110,15=1/2;
 6/7=2,8=2,9=2,10=2,19=2,28=1/1;
 99/9=1/99;
 Leave Link    1 at Thu May 15 13:05:22 2025, MaxMem=   536870912 cpu:               0.3 elap:               0.0
 (Enter /home/szhao/Apps/g16/l101.exe)
 -------------------
 Title Card Required
 -------------------
 Symbolic Z-matrix:
 Charge =  0 Multiplicity = 1
 O                    -1   -1.51439   0.        0. 
 S                    -1    1.51439   0.        0. 
 H                    0    -1.81608  -0.91347   0. 
 H                    0     1.69076   0.08294   1.33262 
 
 Add virtual bond connecting atoms S2         and O1         Dist= 5.72D+00.
 ITRead=  2  2  0  0
 MicOpt= -2 -2 -1 -1
 NAtoms=      4 NQM=        2 NQMF=       2 NMMI=      0 NMMIF=      0
                NMic=       0 NMicF=      0.
                    Isotopes and Nuclear Properties:
 (Nuclear quadrupole moments (NQMom) in fm**2, nuclear magnetic moments (NMagM)
  in nuclear magnetons)

  Atom         1           2           3           4
 IAtWgt=          16          32           1           1
 AtmWgt=  15.9949146  31.9720718   1.0078250   1.0078250
 NucSpn=           0           0           1           1
 AtZEff=  -0.0000000  -0.0000000  -0.0000000  -0.0000000
 NQMom=    0.0000000   0.0000000   0.0000000   0.0000000
 NMagM=    0.0000000   0.0000000   2.7928460   2.7928460
 AtZNuc=   8.0000000  16.0000000   1.0000000   1.0000000
 Leave Link  101 at Thu May 15 13:05:22 2025, MaxMem=   536870912 cpu:               1.9 elap:               0.3
 (Enter /home/szhao/Apps/g16/l103.exe)

 GradGradGradGradGradGradGradGradGradGradGradGradGradGradGradGradGradGrad
 Berny optimization.
 Initialization pass.
                           ----------------------------
                           !    Initial Parameters    !
                           ! (Angstroms and Degrees)  !
 --------------------------                            --------------------------
 ! Name  Definition              Value          Derivative Info.                !
 --------------------------------------------------------------------------------
 ! X1    R(1,-1)                -1.5144         Frozen                          !
 ! Y1    R(1,-2)                 0.0            Frozen                          !
 ! Z1    R(1,-3)                 0.0            Frozen                          !
 ! X2    R(2,-1)                 1.5144         Frozen                          !
 ! Y2    R(2,-2)                 0.0            Frozen                          !
 ! Z2    R(2,-3)                 0.0            Frozen                          !
 ! R1    R(1,3)                  0.962          estimate D2E/DX2                !
 ! R2    R(2,4)                  1.3468         estimate D2E/DX2                !
 ! A1    A(2,1,3)              108.2769         estimate D2E/DX2                !
 ! A2    A(1,2,4)               97.5247         estimate D2E/DX2                !
 ! D1    D(3,1,2,4)            -93.5613         estimate D2E/DX2                !
 --------------------------------------------------------------------------------
 Trust Radius=3.00D-01 FncErr=1.00D-07 GrdErr=1.00D-07 EigMax=2.50D+02 EigMin=1.00D-04
 Number of steps in this run=     21 maximum allowed number of steps=    100.
 GradGradGradGradGradGradGradGradGradGradGradGradGradGradGradGradGradGrad

 Leave Link  103 at Thu May 15 13:05:23 2025, MaxMem=   536870912 cpu:               0.1 elap:               0.0
 (Enter /home/szhao/Apps/g16/l202.exe)
                          Input orientation:                          
 ---------------------------------------------------------------------
 Center     Atomic      Atomic             Coordinates (Angstroms)
 Number     Number       Type             X           Y           Z
 ---------------------------------------------------------------------
      1          8           0       -1.514392    0.000000    0.000000
      2         16           0        1.514392    0.000000    0.000000
      3          1           0       -1.816084   -0.913468    0.000000
      4          1           0        1.690760    0.082939    1.332622
 ---------------------------------------------------------------------
                    Distance matrix (angstroms):
                    1          2          3          4
     1  O    0.000000
     2  S    3.028783   0.000000
     3  H    0.961999   3.453475   0.000000
     4  H    3.472140   1.346798   3.881579   0.000000
 Symmetry turned off by external request.
 Stoichiometry    H2OS
 Framework group  C1[X(H2OS)]
 Deg. of freedom     6
 Full point group                 C1      NOp   1
 Rotational constants (GHZ):         200.9818108           4.7916779           4.7483634
 Leave Link  202 at Thu May 15 13:05:23 2025, MaxMem=   536870912 cpu:               0.0 elap:               0.0
 (Enter /home/szhao/Apps/g16/l301.exe)
 Standard basis: 6-311+G(d,p) (5D, 7F)
 Ernie: Thresh=  0.10000D-02 Tol=  0.10000D-05 Strict=F.
    64 basis functions,   102 primitive gaussians,    66 cartesian basis functions
    13 alpha electrons       13 beta electrons
       nuclear repulsion energy        36.8582173756 Hartrees.
 IExCor= 4336 DFT=T Ex+Corr=M062X ExCW=0 ScaHFX=  0.540000
 ScaDFX=  1.000000  1.000000  1.000000  1.000000 ScalE2=  1.000000  1.000000
 IRadAn=      7 IRanWt=     -1 IRanGd=            0 ICorTp=0 IEmpDi=  4
 NAtoms=    4 NActive=    4 NUniq=    4 SFac= 1.00D+00 NAtFMM=   60 NAOKFM=F Big=F
 Integral buffers will be    131072 words long.
 Raffenetti 2 integral format.
 Two-electron integral symmetry is turned off.
 Leave Link  301 at Thu May 15 13:05:23 2025, MaxMem=   536870912 cpu:               0.3 elap:               0.0
 (Enter /home/szhao/Apps/g16/l302.exe)
 NPDir=0 NMtPBC=     1 NCelOv=     1 NCel=       1 NClECP=     1 NCelD=      1
         NCelK=      1 NCelE2=     1 NClLst=     1 CellRange=     0.0.
 One-electron integrals computed using PRISM.
 NBasis=    64 RedAO= T EigKep=  5.92D-03  NBF=    64
 NBsUse=    64 1.00D-06 EigRej= -1.00D+00 NBFU=    64
 Precomputing XC quadrature grid using
 IXCGrd= 4 IRadAn=           7 IRanWt=          -1 IRanGd=           0 AccXCQ= 0.00D+00.
 Generated NRdTot=       0 NPtTot=           0 NUsed=           0 NTot=          32
 NSgBfM=    66    66    66    66    66 MxSgAt=     4 MxSgA2=     4.
 Leave Link  302 at Thu May 15 13:05:23 2025, MaxMem=   536870912 cpu:               0.7 elap:               0.1
 (Enter /home/szhao/Apps/g16/l303.exe)
 DipDrv:  MaxL=1.
 Leave Link  303 at Thu May 15 13:05:23 2025, MaxMem=   536870912 cpu:               0.2 elap:               0.0
 (Enter /home/szhao/Apps/g16/l401.exe)
 ExpMin= 4.05D-02 ExpMax= 9.34D+04 ExpMxC= 3.17D+03 IAcc=3 IRadAn=         7 AccDes= 0.00D+00
 Harris functional with IExCor= 1009 and IRadAn=       7 diagonalized for initial guess.
 HarFok:  IExCor= 1009 AccDes= 0.00D+00 IRadAn=         7 IDoV= 1 UseB2=F ITyADJ=14
 ICtDFT=  3500011 ScaDFX=  1.000000  1.000000  1.000000  1.000000
 FoFCou: FMM=F IPFlag=           0 FMFlag=      100000 FMFlg1=           0
         NFxFlg=           0 DoJE=T BraDBF=F KetDBF=T FulRan=T
         wScrn=  0.000000 ICntrl=       500 IOpCl=  0 I1Cent=   200000004 NGrid=           0
         NMat0=    1 NMatS0=      1 NMatT0=    0 NMatD0=    1 NMtDS0=    0 NMtDT0=    0
 Symmetry not used in FoFCou.
 Harris En= -474.281570447710    
 JPrj=0 DoOrth=F DoCkMO=F.
 Initial guess <Sx>= 0.0000 <Sy>= 0.0000 <Sz>= 0.0000 <S**2>=-0.0000 S=-0.0000
 Leave Link  401 at Thu May 15 13:05:23 2025, MaxMem=   536870912 cpu:               1.6 elap:               0.2
 (Enter /home/szhao/Apps/g16/l502.exe)
 Keep R1 and R2 ints in memory in canonical form, NReq=11470672.
 FoFCou: FMM=F IPFlag=           0 FMFlag=           0 FMFlg1=           0
         NFxFlg=           0 DoJE=F BraDBF=F KetDBF=F FulRan=T
         wScrn=  0.000000 ICntrl=       600 IOpCl=  0 I1Cent=           0 NGrid=           0
         NMat0=    1 NMatS0=   2080 NMatT0=    0 NMatD0=    1 NMtDS0=    0 NMtDT0=    0
 Symmetry not used in FoFCou.
 Two-electron integral symmetry not used.
 UHF open shell SCF:
 Using DIIS extrapolation, IDIIS=  1040.
 NGot=   536870912 LenX=   532532582 LenY=   532527785
 Requested convergence on RMS density matrix=1.00D-08 within 128 cycles.
 Requested convergence on MAX density matrix=1.00D-06.
 Requested convergence on             energy=1.00D-06.
 No special actions if energy rises.

 Cycle   1  Pass 1  IDiag  1:
 E= -474.072899162015    
 DIIS: error= 5.37D-02 at cycle   1 NSaved=   1.
 NSaved= 1 IEnMin= 1 EnMin= -474.072899162015     IErMin= 1 ErrMin= 5.37D-02
 ErrMax= 5.37D-02  0.00D+00 EMaxC= 1.00D-01 BMatC= 1.27D+00 BMatP= 1.27D+00
 IDIUse=3 WtCom= 4.63D-01 WtEn= 5.37D-01
 Coeff-Com:  0.100D+01
 Coeff-En:   0.100D+01
 Coeff:      0.100D+01
 Gap=     0.193 Goal=   None    Shift=    0.000
 Gap=     0.193 Goal=   None    Shift=    0.000
 GapD=    0.193 DampG=1.000 DampE=0.500 DampFc=0.5000 IDamp=-1.
 Damping current iteration by 5.00D-01
 RMSDP=4.96D-02 MaxDP=9.38D-01              OVMax= 9.97D-01

 Cycle   2  Pass 1  IDiag  1:
 E= -473.295130815831     Delta-E=        0.777768346184 Rises=F Damp=T
 DIIS: error= 5.96D-02 at cycle   2 NSaved=   2.
 NSaved= 2 IEnMin= 1 EnMin= -474.072899162015     IErMin= 1 ErrMin= 5.37D-02
 ErrMax= 5.96D-02  0.00D+00 EMaxC= 1.00D-01 BMatC= 1.05D+00 BMatP= 1.27D+00
 IDIUse=3 WtCom= 4.04D-01 WtEn= 5.96D-01
 Coeff-Com:  0.472D+00 0.528D+00
 Coeff-En:   0.753D+00 0.247D+00
 Coeff:      0.640D+00 0.360D+00
 Gap=     0.019 Goal=   None    Shift=    0.000
 Gap=     0.019 Goal=   None    Shift=    0.000
 RMSDP=2.44D-02 MaxDP=4.73D-01 DE= 7.78D-01 OVMax= 9.99D-01

 Cycle   3  Pass 1  IDiag  1:
 E= -474.380522698855     Delta-E=       -1.085391883024 Rises=F Damp=F
 DIIS: error= 1.60D-02 at cycle   3 NSaved=   3.
 NSaved= 3 IEnMin= 3 EnMin= -474.380522698855     IErMin= 3 ErrMin= 1.60D-02
 ErrMax= 1.60D-02  0.00D+00 EMaxC= 1.00D-01 BMatC= 1.11D-01 BMatP= 1.05D+00
 IDIUse=3 WtCom= 8.40D-01 WtEn= 1.60D-01
 Coeff-Com:  0.214D+00-0.773D-02 0.794D+00
 Coeff-En:   0.933D-02 0.000D+00 0.991D+00
 Coeff:      0.181D+00-0.650D-02 0.825D+00
 Gap=     0.132 Goal=   None    Shift=    0.000
 Gap=     0.132 Goal=   None    Shift=    0.000
 RMSDP=2.42D-03 MaxDP=5.49D-02 DE=-1.09D+00 OVMax= 1.45D-01

 Cycle   4  Pass 1  IDiag  1:
 E= -474.371883050711     Delta-E=        0.008639648144 Rises=F Damp=F
 DIIS: error= 1.81D-02 at cycle   4 NSaved=   4.
 NSaved= 4 IEnMin= 3 EnMin= -474.380522698855     IErMin= 3 ErrMin= 1.60D-02
 ErrMax= 1.81D-02  0.00D+00 EMaxC= 1.00D-01 BMatC= 1.02D-01 BMatP= 1.11D-01
 IDIUse=3 WtCom= 8.19D-01 WtEn= 1.81D-01
 EnCoef did     5 forward-backward iterations
 Coeff-Com:  0.185D+00-0.574D-01 0.524D+00 0.349D+00
 Coeff-En:   0.263D-01 0.000D+00 0.838D+00 0.136D+00
 Coeff:      0.156D+00-0.470D-01 0.580D+00 0.310D+00
 Gap=     0.140 Goal=   None    Shift=    0.000
 Gap=     0.140 Goal=   None    Shift=    0.000
 RMSDP=5.24D-04 MaxDP=1.24D-02 DE= 8.64D-03 OVMax= 2.94D-02

 Cycle   5  Pass 1  IDiag  1:
 E= -474.385904218001     Delta-E=       -0.014021167290 Rises=F Damp=F
 DIIS: error= 1.33D-02 at cycle   5 NSaved=   5.
 NSaved= 5 IEnMin= 5 EnMin= -474.385904218001     IErMin= 5 ErrMin= 1.33D-02
 ErrMax= 1.33D-02  0.00D+00 EMaxC= 1.00D-01 BMatC= 5.13D-02 BMatP= 1.02D-01
 IDIUse=3 WtCom= 8.67D-01 WtEn= 1.33D-01
 Coeff-Com:  0.418D-01-0.117D-01 0.130D+00-0.186D+01 0.270D+01
 Coeff-En:   0.504D-01 0.000D+00 0.000D+00 0.000D+00 0.950D+00
 Coeff:      0.430D-01-0.102D-01 0.113D+00-0.161D+01 0.246D+01
 Gap=     0.147 Goal=   None    Shift=    0.000
 Gap=     0.147 Goal=   None    Shift=    0.000
 RMSDP=1.43D-03 MaxDP=3.68D-02 DE=-1.40D-02 OVMax= 8.74D-02

 Cycle   6  Pass 1  IDiag  1:
 E= -474.400690344183     Delta-E=       -0.014786126182 Rises=F Damp=F
 DIIS: error= 2.84D-03 at cycle   6 NSaved=   6.
 NSaved= 6 IEnMin= 6 EnMin= -474.400690344183     IErMin= 6 ErrMin= 2.84D-03
 ErrMax= 2.84D-03  0.00D+00 EMaxC= 1.00D-01 BMatC= 2.16D-03 BMatP= 5.13D-02
 IDIUse=3 WtCom= 9.72D-01 WtEn= 2.84D-02
 Coeff-Com:  0.408D-02 0.326D-03 0.501D-01-0.580D+00 0.888D+00 0.638D+00
 Coeff-En:   0.000D+00 0.000D+00 0.000D+00 0.000D+00 0.336D-01 0.966D+00
 Coeff:      0.396D-02 0.317D-03 0.487D-01-0.563D+00 0.864D+00 0.647D+00
 Gap=     0.149 Goal=   None    Shift=    0.000
 Gap=     0.149 Goal=   None    Shift=    0.000
 RMSDP=1.95D-04 MaxDP=4.63D-03 DE=-1.48D-02 OVMax= 1.04D-02

 Cycle   7  Pass 1  IDiag  1:
 E= -474.401127578461     Delta-E=       -0.000437234278 Rises=F Damp=F
 DIIS: error= 2.53D-04 at cycle   7 NSaved=   7.
 NSaved= 7 IEnMin= 7 EnMin= -474.401127578461     IErMin= 7 ErrMin= 2.53D-04
 ErrMax= 2.53D-04  0.00D+00 EMaxC= 1.00D-01 BMatC= 2.08D-05 BMatP= 2.16D-03
 IDIUse=3 WtCom= 9.97D-01 WtEn= 2.53D-03
 Coeff-Com: -0.103D-02 0.105D-03-0.937D-03-0.379D-01 0.479D-01 0.771D-01
 Coeff-Com:  0.915D+00
 Coeff-En:   0.000D+00 0.000D+00 0.000D+00 0.000D+00 0.000D+00 0.000D+00
 Coeff-En:   0.100D+01
 Coeff:     -0.103D-02 0.105D-03-0.935D-03-0.378D-01 0.477D-01 0.769D-01
 Coeff:      0.915D+00
 Gap=     0.148 Goal=   None    Shift=    0.000
 Gap=     0.148 Goal=   None    Shift=    0.000
 RMSDP=3.22D-05 MaxDP=4.08D-04 DE=-4.37D-04 OVMax= 1.29D-03

 Cycle   8  Pass 1  IDiag  1:
 E= -474.401132832546     Delta-E=       -0.000005254085 Rises=F Damp=F
 DIIS: error= 7.36D-05 at cycle   8 NSaved=   8.
 NSaved= 8 IEnMin= 8 EnMin= -474.401132832546     IErMin= 8 ErrMin= 7.36D-05
 ErrMax= 7.36D-05  0.00D+00 EMaxC= 1.00D-01 BMatC= 1.49D-06 BMatP= 2.08D-05
 IDIUse=1 WtCom= 1.00D+00 WtEn= 0.00D+00
 Coeff-Com: -0.931D-04 0.132D-03-0.529D-03 0.972D-02-0.106D-01-0.183D-01
 Coeff-Com: -0.793D-01 0.110D+01
 Coeff:     -0.931D-04 0.132D-03-0.529D-03 0.972D-02-0.106D-01-0.183D-01
 Coeff:     -0.793D-01 0.110D+01
 Gap=     0.148 Goal=   None    Shift=    0.000
 Gap=     0.148 Goal=   None    Shift=    0.000
 RMSDP=1.26D-05 MaxDP=1.55D-04 DE=-5.25D-06 OVMax= 6.69D-04

 Cycle   9  Pass 1  IDiag  1:
 E= -474.401133572726     Delta-E=       -0.000000740180 Rises=F Damp=F
 DIIS: error= 1.72D-05 at cycle   9 NSaved=   9.
 NSaved= 9 IEnMin= 9 EnMin= -474.401133572726     IErMin= 9 ErrMin= 1.72D-05
 ErrMax= 1.72D-05  0.00D+00 EMaxC= 1.00D-01 BMatC= 9.79D-08 BMatP= 1.49D-06
 IDIUse=1 WtCom= 1.00D+00 WtEn= 0.00D+00
 Coeff-Com: -0.183D-04 0.532D-04-0.415D-03-0.130D-02 0.213D-02-0.793D-02
 Coeff-Com: -0.339D-01 0.320D-01 0.101D+01
 Coeff:     -0.183D-04 0.532D-04-0.415D-03-0.130D-02 0.213D-02-0.793D-02
 Coeff:     -0.339D-01 0.320D-01 0.101D+01
 Gap=     0.148 Goal=   None    Shift=    0.000
 Gap=     0.148 Goal=   None    Shift=    0.000
 RMSDP=6.78D-06 MaxDP=1.15D-04 DE=-7.40D-07 OVMax= 2.86D-04

 Cycle  10  Pass 1  IDiag  1:
 E= -474.401133690144     Delta-E=       -0.000000117418 Rises=F Damp=F
 DIIS: error= 1.83D-05 at cycle  10 NSaved=  10.
 NSaved=10 IEnMin=10 EnMin= -474.401133690144     IErMin= 9 ErrMin= 1.72D-05
 ErrMax= 1.83D-05  0.00D+00 EMaxC= 1.00D-01 BMatC= 9.11D-08 BMatP= 9.79D-08
 IDIUse=1 WtCom= 1.00D+00 WtEn= 0.00D+00
 Coeff-Com:  0.113D-04-0.387D-04 0.208D-03-0.187D-02 0.301D-02 0.104D-02
 Coeff-Com:  0.471D-02-0.217D+00 0.977D-01 0.111D+01
 Coeff:      0.113D-04-0.387D-04 0.208D-03-0.187D-02 0.301D-02 0.104D-02
 Coeff:      0.471D-02-0.217D+00 0.977D-01 0.111D+01
 Gap=     0.148 Goal=   None    Shift=    0.000
 Gap=     0.148 Goal=   None    Shift=    0.000
 RMSDP=6.69D-06 MaxDP=1.18D-04 DE=-1.17D-07 OVMax= 4.35D-04

 Cycle  11  Pass 1  IDiag  1:
 E= -474.401133774114     Delta-E=       -0.000000083970 Rises=F Damp=F
 DIIS: error= 1.37D-05 at cycle  11 NSaved=  11.
 NSaved=11 IEnMin=11 EnMin= -474.401133774114     IErMin=11 ErrMin= 1.37D-05
 ErrMax= 1.37D-05  0.00D+00 EMaxC= 1.00D-01 BMatC= 4.83D-08 BMatP= 9.11D-08
 IDIUse=1 WtCom= 1.00D+00 WtEn= 0.00D+00
 Coeff-Com:  0.200D-04 0.292D-04-0.132D-03 0.311D-02-0.599D-02 0.223D-02
 Coeff-Com:  0.142D-02 0.272D+00-0.465D+00-0.974D+00 0.217D+01
 Coeff:      0.200D-04 0.292D-04-0.132D-03 0.311D-02-0.599D-02 0.223D-02
 Coeff:      0.142D-02 0.272D+00-0.465D+00-0.974D+00 0.217D+01
 Gap=     0.148 Goal=   None    Shift=    0.000
 Gap=     0.148 Goal=   None    Shift=    0.000
 RMSDP=8.09D-06 MaxDP=1.57D-04 DE=-8.40D-08 OVMax= 4.95D-04

 Cycle  12  Pass 1  IDiag  1:
 E= -474.401133837841     Delta-E=       -0.000000063727 Rises=F Damp=F
 DIIS: error= 1.02D-05 at cycle  12 NSaved=  12.
 NSaved=12 IEnMin=12 EnMin= -474.401133837841     IErMin=12 ErrMin= 1.02D-05
 ErrMax= 1.02D-05  0.00D+00 EMaxC= 1.00D-01 BMatC= 2.71D-08 BMatP= 4.83D-08
 IDIUse=1 WtCom= 1.00D+00 WtEn= 0.00D+00
 Coeff-Com: -0.992D-05 0.571D-06 0.178D-04 0.399D-03 0.560D-04-0.467D-03
 Coeff-Com: -0.165D-02 0.361D-01-0.425D-01-0.309D+00-0.234D-01 0.134D+01
 Coeff:     -0.992D-05 0.571D-06 0.178D-04 0.399D-03 0.560D-04-0.467D-03
 Coeff:     -0.165D-02 0.361D-01-0.425D-01-0.309D+00-0.234D-01 0.134D+01
 Gap=     0.148 Goal=   None    Shift=    0.000
 Gap=     0.148 Goal=   None    Shift=    0.000
 RMSDP=5.15D-06 MaxDP=1.00D-04 DE=-6.37D-08 OVMax= 2.96D-04

 Cycle  13  Pass 1  IDiag  1:
 E= -474.401133863017     Delta-E=       -0.000000025176 Rises=F Damp=F
 DIIS: error= 1.47D-06 at cycle  13 NSaved=  13.
 NSaved=13 IEnMin=13 EnMin= -474.401133863017     IErMin=13 ErrMin= 1.47D-06
 ErrMax= 1.47D-06  0.00D+00 EMaxC= 1.00D-01 BMatC= 5.15D-10 BMatP= 2.71D-08
 IDIUse=1 WtCom= 1.00D+00 WtEn= 0.00D+00
 Coeff-Com: -0.767D-05-0.240D-06-0.166D-04-0.604D-03 0.107D-02-0.644D-03
 Coeff-Com:  0.489D-03-0.306D-01 0.725D-01 0.122D+00-0.429D+00-0.349D-01
 Coeff-Com:  0.130D+01
 Coeff:     -0.767D-05-0.240D-06-0.166D-04-0.604D-03 0.107D-02-0.644D-03
 Coeff:      0.489D-03-0.306D-01 0.725D-01 0.122D+00-0.429D+00-0.349D-01
 Coeff:      0.130D+01
 Gap=     0.148 Goal=   None    Shift=    0.000
 Gap=     0.148 Goal=   None    Shift=    0.000
 RMSDP=2.72D-06 MaxDP=5.34D-05 DE=-2.52D-08 OVMax= 1.37D-04

 Cycle  14  Pass 1  IDiag  1:
 E= -474.401133866306     Delta-E=       -0.000000003289 Rises=F Damp=F
 DIIS: error= 3.35D-07 at cycle  14 NSaved=  14.
 NSaved=14 IEnMin=14 EnMin= -474.401133866306     IErMin=14 ErrMin= 3.35D-07
 ErrMax= 3.35D-07  0.00D+00 EMaxC= 1.00D-01 BMatC= 3.51D-11 BMatP= 5.15D-10
 IDIUse=1 WtCom= 1.00D+00 WtEn= 0.00D+00
 Coeff-Com:  0.256D-05 0.224D-06 0.402D-05-0.706D-04 0.239D-04 0.597D-04
 Coeff-Com:  0.798D-04-0.189D-02 0.420D-02 0.342D-01-0.130D-02-0.181D+00
 Coeff-Com:  0.784D-01 0.107D+01
 Coeff:      0.256D-05 0.224D-06 0.402D-05-0.706D-04 0.239D-04 0.597D-04
 Coeff:      0.798D-04-0.189D-02 0.420D-02 0.342D-01-0.130D-02-0.181D+00
 Coeff:      0.784D-01 0.107D+01
 Gap=     0.148 Goal=   None    Shift=    0.000
 Gap=     0.148 Goal=   None    Shift=    0.000
 RMSDP=4.39D-07 MaxDP=7.96D-06 DE=-3.29D-09 OVMax= 2.22D-05

 Cycle  15  Pass 1  IDiag  1:
 E= -474.401133866416     Delta-E=       -0.000000000110 Rises=F Damp=F
 DIIS: error= 3.08D-07 at cycle  15 NSaved=  15.
 NSaved=15 IEnMin=15 EnMin= -474.401133866416     IErMin=15 ErrMin= 3.08D-07
 ErrMax= 3.08D-07  0.00D+00 EMaxC= 1.00D-01 BMatC= 2.99D-11 BMatP= 3.51D-11
 IDIUse=1 WtCom= 1.00D+00 WtEn= 0.00D+00
 Coeff-Com: -0.225D-06-0.676D-07-0.179D-05 0.327D-04-0.340D-04 0.565D-06
 Coeff-Com: -0.130D-03 0.150D-02-0.357D-02-0.164D-01 0.917D-02 0.856D-01
 Coeff-Com: -0.974D-01-0.410D+00 0.143D+01
 Coeff:     -0.225D-06-0.676D-07-0.179D-05 0.327D-04-0.340D-04 0.565D-06
 Coeff:     -0.130D-03 0.150D-02-0.357D-02-0.164D-01 0.917D-02 0.856D-01
 Coeff:     -0.974D-01-0.410D+00 0.143D+01
 Gap=     0.148 Goal=   None    Shift=    0.000
 Gap=     0.148 Goal=   None    Shift=    0.000
 RMSDP=1.00D-07 MaxDP=1.62D-06 DE=-1.10D-10 OVMax= 7.98D-06

 Cycle  16  Pass 1  IDiag  1:
 E= -474.401133866450     Delta-E=       -0.000000000034 Rises=F Damp=F
 DIIS: error= 1.75D-07 at cycle  16 NSaved=  16.
 NSaved=16 IEnMin=16 EnMin= -474.401133866450     IErMin=16 ErrMin= 1.75D-07
 ErrMax= 1.75D-07  0.00D+00 EMaxC= 1.00D-01 BMatC= 3.63D-12 BMatP= 2.99D-11
 IDIUse=1 WtCom= 1.00D+00 WtEn= 0.00D+00
 Coeff-Com: -0.720D-06-0.257D-06 0.168D-05-0.292D-05 0.303D-04-0.285D-04
 Coeff-Com:  0.684D-04-0.130D-02 0.267D-02 0.189D-02-0.927D-02 0.673D-02
 Coeff-Com:  0.381D-01-0.914D-01-0.105D+01 0.210D+01
 Coeff:     -0.720D-06-0.257D-06 0.168D-05-0.292D-05 0.303D-04-0.285D-04
 Coeff:      0.684D-04-0.130D-02 0.267D-02 0.189D-02-0.927D-02 0.673D-02
 Coeff:      0.381D-01-0.914D-01-0.105D+01 0.210D+01
 Gap=     0.148 Goal=   None    Shift=    0.000
 Gap=     0.148 Goal=   None    Shift=    0.000
 RMSDP=1.36D-07 MaxDP=2.12D-06 DE=-3.44D-11 OVMax= 1.03D-05

 Cycle  17  Pass 1  IDiag  1:
 E= -474.401133866476     Delta-E=       -0.000000000026 Rises=F Damp=F
 DIIS: error= 9.66D-08 at cycle  17 NSaved=  17.
 NSaved=17 IEnMin=17 EnMin= -474.401133866476     IErMin=17 ErrMin= 9.66D-08
 ErrMax= 9.66D-08  0.00D+00 EMaxC= 1.00D-01 BMatC= 1.18D-12 BMatP= 3.63D-12
 IDIUse=1 WtCom= 1.00D+00 WtEn= 0.00D+00
 Coeff-Com:  0.265D-06 0.249D-06 0.437D-07-0.467D-05-0.117D-04 0.840D-05
 Coeff-Com:  0.759D-04 0.294D-03 0.479D-03 0.506D-02 0.803D-03-0.525D-01
 Coeff-Com:  0.473D-01 0.273D+00-0.573D+00-0.485D+00 0.178D+01
 Coeff:      0.265D-06 0.249D-06 0.437D-07-0.467D-05-0.117D-04 0.840D-05
 Coeff:      0.759D-04 0.294D-03 0.479D-03 0.506D-02 0.803D-03-0.525D-01
 Coeff:      0.473D-01 0.273D+00-0.573D+00-0.485D+00 0.178D+01
 Gap=     0.148 Goal=   None    Shift=    0.000
 Gap=     0.148 Goal=   None    Shift=    0.000
 RMSDP=1.18D-07 MaxDP=1.99D-06 DE=-2.63D-11 OVMax= 9.71D-06

 Cycle  18  Pass 1  IDiag  1:
 E= -474.401133866487     Delta-E=       -0.000000000011 Rises=F Damp=F
 DIIS: error= 7.54D-08 at cycle  18 NSaved=  18.
 NSaved=18 IEnMin=18 EnMin= -474.401133866487     IErMin=18 ErrMin= 7.54D-08
 ErrMax= 7.54D-08  0.00D+00 EMaxC= 1.00D-01 BMatC= 1.05D-12 BMatP= 1.18D-12
 IDIUse=1 WtCom= 1.00D+00 WtEn= 0.00D+00
 Coeff-Com:  0.893D-07 0.466D-07-0.792D-06 0.260D-05-0.688D-05 0.112D-04
 Coeff-Com: -0.236D-04 0.317D-03-0.116D-02-0.212D-02 0.668D-02 0.525D-02
 Coeff-Com: -0.235D-01-0.340D-01 0.406D+00-0.428D+00-0.498D+00 0.157D+01
 Coeff:      0.893D-07 0.466D-07-0.792D-06 0.260D-05-0.688D-05 0.112D-04
 Coeff:     -0.236D-04 0.317D-03-0.116D-02-0.212D-02 0.668D-02 0.525D-02
 Coeff:     -0.235D-01-0.340D-01 0.406D+00-0.428D+00-0.498D+00 0.157D+01
 Gap=     0.148 Goal=   None    Shift=    0.000
 Gap=     0.148 Goal=   None    Shift=    0.000
 RMSDP=5.10D-08 MaxDP=8.21D-07 DE=-1.13D-11 OVMax= 3.99D-06

 Cycle  19  Pass 1  IDiag  1:
 E= -474.401133866489     Delta-E=       -0.000000000001 Rises=F Damp=F
 DIIS: error= 6.31D-09 at cycle  19 NSaved=  19.
 NSaved=19 IEnMin=19 EnMin= -474.401133866489     IErMin=19 ErrMin= 6.31D-09
 ErrMax= 6.31D-09  0.00D+00 EMaxC= 1.00D-01 BMatC= 5.57D-15 BMatP= 1.05D-12
 IDIUse=1 WtCom= 1.00D+00 WtEn= 0.00D+00
 Coeff-Com: -0.485D-08-0.130D-08 0.467D-07-0.152D-06 0.407D-06 0.525D-06
 Coeff-Com:  0.180D-05-0.966D-05-0.221D-04-0.593D-05-0.351D-04 0.619D-03
 Coeff-Com: -0.218D-03-0.473D-02-0.213D-01 0.812D-01-0.366D-01-0.237D+00
 Coeff-Com:  0.122D+01
 Coeff:     -0.485D-08-0.130D-08 0.467D-07-0.152D-06 0.407D-06 0.525D-06
 Coeff:      0.180D-05-0.966D-05-0.221D-04-0.593D-05-0.351D-04 0.619D-03
 Coeff:     -0.218D-03-0.473D-02-0.213D-01 0.812D-01-0.366D-01-0.237D+00
 Coeff:      0.122D+01
 Gap=     0.148 Goal=   None    Shift=    0.000
 Gap=     0.148 Goal=   None    Shift=    0.000
 RMSDP=4.26D-09 MaxDP=6.80D-08 DE=-1.48D-12 OVMax= 3.30D-07

 SCF Done:  E(UM062X) =  -474.401133866     A.U. after   19 cycles
            NFock= 19  Conv=0.43D-08     -V/T= 2.0018
 <Sx>= 0.0000 <Sy>= 0.0000 <Sz>= 0.0000 <S**2>=-0.0000 S=-0.0000
 <L.S>=  0.00000000000    
 KE= 4.735399054414D+02 PE=-1.201032776271D+03 EE= 2.162335195876D+02
 Annihilation of the first spin contaminant:
 S**2 before annihilation    -0.0000,   after    -0.0000
 Leave Link  502 at Thu May 15 13:05:28 2025, MaxMem=   536870912 cpu:              40.8 elap:               5.2
 (Enter /home/szhao/Apps/g16/l601.exe)
 Copying SCF densities to generalized density rwf, IOpCl= 1 IROHF=0.

 **********************************************************************

            Population analysis using the SCF density.

 **********************************************************************

 Alpha  occ. eigenvalues --  -89.97767 -19.66816  -8.33851  -6.26062  -6.25696
 Alpha  occ. eigenvalues --   -6.25122  -1.08319  -0.83596  -0.52357  -0.49349
 Alpha  occ. eigenvalues --   -0.39378  -0.35562  -0.35164
 Alpha virt. eigenvalues --   -0.20330   0.01619   0.04573   0.04711   0.05734
 Alpha virt. eigenvalues --    0.07103   0.13571   0.19837   0.20098   0.22416
 Alpha virt. eigenvalues --    0.25895   0.31258   0.34232   0.35396   0.39784
 Alpha virt. eigenvalues --    0.54730   0.59168   0.70707   0.71782   0.79806
 Alpha virt. eigenvalues --    0.81752   0.97196   1.04796   1.08740   1.09062
 Alpha virt. eigenvalues --    1.39050   1.40361   1.41337   1.45869   1.46857
 Alpha virt. eigenvalues --    1.64732   1.66607   1.68032   2.07411   2.09235
 Alpha virt. eigenvalues --    2.48439   2.53010   2.88844   2.89336   3.17921
 Alpha virt. eigenvalues --    3.20002   3.85571   5.03872   5.05193   5.54185
 Alpha virt. eigenvalues --    7.82064  17.40812  17.42304  17.45454  49.88436
 Alpha virt. eigenvalues --  189.07942
  Beta  occ. eigenvalues --  -89.97767 -19.66816  -8.33851  -6.26062  -6.25696
  Beta  occ. eigenvalues --   -6.25122  -1.08319  -0.83596  -0.52357  -0.49349
  Beta  occ. eigenvalues --   -0.39378  -0.35562  -0.35164
  Beta virt. eigenvalues --   -0.20330   0.01619   0.04573   0.04711   0.05734
  Beta virt. eigenvalues --    0.07103   0.13571   0.19837   0.20098   0.22416
  Beta virt. eigenvalues --    0.25895   0.31258   0.34232   0.35396   0.39784
  Beta virt. eigenvalues --    0.54730   0.59168   0.70707   0.71782   0.79806
  Beta virt. eigenvalues --    0.81752   0.97196   1.04796   1.08740   1.09062
  Beta virt. eigenvalues --    1.39050   1.40361   1.41337   1.45869   1.46857
  Beta virt. eigenvalues --    1.64732   1.66607   1.68032   2.07411   2.09235
  Beta virt. eigenvalues --    2.48439   2.53010   2.88844   2.89336   3.17921
  Beta virt. eigenvalues --    3.20002   3.85571   5.03872   5.05193   5.54185
  Beta virt. eigenvalues --    7.82064  17.40812  17.42304  17.45454  49.88436
  Beta virt. eigenvalues --  189.07942
          Condensed to atoms (all electrons):
               1          2          3          4
     1  O    8.081336   0.096145   0.251752  -0.002261
     2  S    0.096145  15.570507  -0.001065   0.255754
     3  H    0.251752  -0.001065   0.495861   0.000020
     4  H   -0.002261   0.255754   0.000020   0.651604
          Atomic-Atomic Spin Densities.
               1          2          3          4
     1  O    0.000000  -0.000000   0.000000   0.000000
     2  S   -0.000000  -0.000000   0.000000  -0.000000
     3  H    0.000000   0.000000  -0.000000  -0.000000
     4  H    0.000000  -0.000000  -0.000000   0.000000
 Mulliken charges and spin densities:
               1          2
     1  O   -0.426973   0.000000
     2  S    0.078659  -0.000000
     3  H    0.253432  -0.000000
     4  H    0.094882   0.000000
 Sum of Mulliken charges =  -0.00000  -0.00000
 Mulliken charges and spin densities with hydrogens summed into heavy atoms:
               1          2
     1  O   -0.173541   0.000000
     2  S    0.173541  -0.000000
 Electronic spatial extent (au):  <R**2>=            268.5150
 Charge=             -0.0000 electrons
 Dipole moment (field-independent basis, Debye):
    X=              1.9601    Y=             -1.5100    Z=              1.1269  Tot=              2.7188
 Quadrupole moment (field-independent basis, Debye-Ang):
   XX=            -15.5773   YY=            -20.3664   ZZ=            -18.7007
   XY=              3.4847   XZ=              2.1100   YZ=              0.2509
 Traceless Quadrupole moment (field-independent basis, Debye-Ang):
   XX=              2.6375   YY=             -2.1516   ZZ=             -0.4859
   XY=              3.4847   XZ=              2.1100   YZ=              0.2509
 Octapole moment (field-independent basis, Debye-Ang**2):
  XXX=            -25.9548  YYY=             -0.1300  ZZZ=             -0.6173  XYY=            -16.3249
  XXY=             -4.7479  XXZ=              2.7274  XZZ=             -6.0867  YZZ=              0.5274
  YYZ=             -0.7914  XYZ=              0.3974
 Hexadecapole moment (field-independent basis, Debye-Ang**3):
 XXXX=           -262.3445 YYYY=            -29.1019 ZZZZ=            -26.4552 XXXY=             10.1705
 XXXZ=              2.7595 YYYX=              0.8878 YYYZ=              0.0108 ZZZX=             -0.5551
 ZZZY=              0.2461 XXYY=            -53.9128 XXZZ=            -50.7609 YYZZ=            -10.1666
 XXYZ=              0.6240 YYXZ=             -1.2432 ZZXY=             -0.4239
 N-N= 3.685821737558D+01 E-N=-1.201032776363D+03  KE= 4.735399054414D+02
                          Isotropic Fermi Contact Couplings
        Atom                 a.u.       MegaHertz       Gauss      10(-4) cm-1
     1  O(17)             -0.00000       0.00000       0.00000       0.00000
     2  S(33)              0.00000       0.00000       0.00000       0.00000
     3  H(1)              -0.00000      -0.00000      -0.00000      -0.00000
     4  H(1)               0.00000       0.00000       0.00000       0.00000
 --------------------------------------------------------
       Center         ----  Spin Dipole Couplings  ----
                      3XX-RR        3YY-RR        3ZZ-RR
 --------------------------------------------------------
     1   Atom        0.000000     -0.000000     -0.000000
     2   Atom       -0.000000      0.000000      0.000000
     3   Atom       -0.000000      0.000000     -0.000000
     4   Atom        0.000000      0.000000     -0.000000
 --------------------------------------------------------
                        XY            XZ            YZ
 --------------------------------------------------------
     1   Atom       -0.000000      0.000000     -0.000000
     2   Atom        0.000000      0.000000      0.000000
     3   Atom        0.000000      0.000000     -0.000000
     4   Atom       -0.000000     -0.000000     -0.000000
 --------------------------------------------------------


 ---------------------------------------------------------------------------------
              Anisotropic Spin Dipole Couplings in Principal Axis System
 ---------------------------------------------------------------------------------

       Atom             a.u.   MegaHertz   Gauss  10(-4) cm-1        Axes

              Baa    -0.0000     0.000     0.000     0.000  0.2958  0.9486  0.1128
     1 O(17)  Bbb    -0.0000     0.000     0.000     0.000 -0.0572 -0.1003  0.9933
              Bcc     0.0000    -0.000    -0.000    -0.000  0.9535 -0.3003  0.0246
 
              Baa    -0.0000    -0.000    -0.000    -0.000  0.9924 -0.0085 -0.1228
     2 S(33)  Bbb     0.0000     0.000     0.000     0.000 -0.0398  0.9216 -0.3861
              Bcc     0.0000     0.000     0.000     0.000  0.1165  0.3880  0.9143
 
              Baa    -0.0000    -0.000    -0.000    -0.000 -0.0244  0.0079  0.9997
     3 H(1)   Bbb    -0.0000    -0.000    -0.000    -0.000  0.9651 -0.2607  0.0256
              Bcc     0.0000     0.000     0.000     0.000  0.2608  0.9654 -0.0013
 
              Baa    -0.0000    -0.000    -0.000    -0.000  0.0088  0.0610  0.9981
     4 H(1)   Bbb     0.0000     0.000     0.000     0.000  1.0000 -0.0012 -0.0087
              Bcc     0.0000     0.000     0.000     0.000  0.0007  0.9981 -0.0610
 

 ---------------------------------------------------------------------------------

 No NMR shielding tensors so no spin-rotation constants.
 Leave Link  601 at Thu May 15 13:05:28 2025, MaxMem=   536870912 cpu:               1.1 elap:               0.1
 (Enter /home/szhao/Apps/g16/l701.exe)
 ... and contract with generalized density number  0.
 Compute integral first derivatives.
 Leave Link  701 at Thu May 15 13:05:28 2025, MaxMem=   536870912 cpu:               0.6 elap:               0.1
 (Enter /home/szhao/Apps/g16/l702.exe)
 L702 exits ... SP integral derivatives will be done elsewhere.
 Leave Link  702 at Thu May 15 13:05:28 2025, MaxMem=   536870912 cpu:               0.2 elap:               0.0
 (Enter /home/szhao/Apps/g16/l703.exe)
 Integral derivatives from FoFJK, PRISM(SPDF).
 Compute integral first derivatives, UseDBF=F ICtDFT=           0.
 Calling FoFJK, ICntrl=      2127 FMM=F ISym2X=0 I1Cent= 0 IOpClX= 1 NMat=1 NMatS=1 NMatT=0.
 FoFJK:  IHMeth= 1 ICntrl=    2127 DoSepK=F KAlg= 0 I1Cent=           0 FoldK=F
 IRaf=         0 NMat=       1 IRICut=       1 DoRegI=T DoRafI=F ISym2E= 0 IDoP0=0 IntGTp=1.
 FoFCou: FMM=F IPFlag=           0 FMFlag=      100000 FMFlg1=         800
         NFxFlg=           0 DoJE=F BraDBF=F KetDBF=F FulRan=T
         wScrn=  0.000000 ICntrl=      2127 IOpCl=  1 I1Cent=           0 NGrid=           0
         NMat0=    1 NMatS0=      1 NMatT0=    0 NMatD0=    1 NMtDS0=    0 NMtDT0=    0
 Symmetry not used in FoFCou.
 Leave Link  703 at Thu May 15 13:05:29 2025, MaxMem=   536870912 cpu:               3.9 elap:               0.5
 (Enter /home/szhao/Apps/g16/l716.exe)
 Dipole        = 7.71144626D-01-5.94089865D-01 4.43356877D-01
 -------------------------------------------------------------------
 Center     Atomic                   Forces (Hartrees/Bohr)
 Number     Number              X              Y              Z
 -------------------------------------------------------------------
      1        8          -0.000000000   -0.000000000   -0.000000000
      2       16          -0.000000000   -0.000000000   -0.000000000
      3        1           0.004899166   -0.010318345   -0.000009251
      4        1          -0.004259667    0.000099798    0.001005976
 -------------------------------------------------------------------
 Cartesian Forces:  Max     0.010318345 RMS     0.003531252
 Leave Link  716 at Thu May 15 13:05:29 2025, MaxMem=   536870912 cpu:               0.3 elap:               0.0
 (Enter /home/szhao/Apps/g16/l103.exe)

 GradGradGradGradGradGradGradGradGradGradGradGradGradGradGradGradGradGrad
 Berny optimization.
 FormGI is forming the generalized inverse of G from B-inverse, IUseBI=4.
 Internal  Forces:  Max     0.014339611 RMS     0.007546661
 Search for a local minimum.
 Step number   1 out of a maximum of   21
 All quantities printed in internal units (Hartrees-Bohrs-Radians)
 RMS Force = .89100D-02 SwitMx=.10000D-02 MixMth= 1
 Mixed Optimization -- RFO/linear search
 Second derivative matrix not updated -- first step.
 The second derivative matrix:
                          X1        Y1        Z1        X2        Y2
           X1           0.50000
           Y1           0.00000   0.50000
           Z1           0.00000   0.00000   0.50000
           X2           0.00000   0.00000   0.00000   0.50000
           Y2           0.00000   0.00000   0.00000   0.00000   0.50000
           Z2           0.00000   0.00000   0.00000   0.00000   0.00000
           R1           0.00000   0.00000   0.00000   0.00000   0.00000
           R2           0.00000   0.00000   0.00000   0.00000   0.00000
           A1           0.00000   0.00000   0.00000   0.00000   0.00000
           A2           0.00000   0.00000   0.00000   0.00000   0.00000
           D1           0.00000   0.00000   0.00000   0.00000   0.00000
                          Z2        R1        R2        A1        A2
           Z2           0.50000
           R1           0.00000   0.55046
           R2           0.00000   0.00000   0.25886
           A1           0.00000   0.00000   0.00000   0.16000
           A2           0.00000   0.00000   0.00000   0.00000   0.16000
           D1           0.00000   0.00000   0.00000   0.00000   0.00000
                          D1
           D1           0.00230
 ITU=  0
     Eigenvalues ---    0.00230   0.16000   0.16000   0.25886   0.55046
     Eigenvalues --- 1000.000001000.000001000.000001000.000001000.00000
     Eigenvalues --- 1000.00000
 RFO step:  Lambda=-2.15048007D-03 EMin= 2.30000000D-03
 Linear search not attempted -- first point.
 Iteration  1 RMS(Cart)=  0.07114204 RMS(Int)=  0.00276479
 Iteration  2 RMS(Cart)=  0.00293174 RMS(Int)=  0.00000213
 Iteration  3 RMS(Cart)=  0.00000377 RMS(Int)=  0.00000000
 Iteration  4 RMS(Cart)=  0.00000000 RMS(Int)=  0.00000000
 ITry= 1 IFail=0 DXMaxC= 1.73D-01 DCOld= 1.00D+10 DXMaxT= 3.00D-01 DXLimC= 3.00D+00 Rises=F
 Variable       Old X    -DE/DX   Delta X   Delta X   Delta X     New X
                                 (Linear)    (Quad)   (Total)
    X1       -2.86179   0.00490   0.00000   0.00000   0.00000  -2.86179
    Y1        0.00000  -0.01294   0.00000   0.00000   0.00000   0.00000
    Z1        0.00000  -0.00196   0.00000   0.00000   0.00000   0.00000
    X2        2.86179  -0.00426   0.00000   0.00000   0.00000   2.86179
    Y2        0.00000   0.00271   0.00000   0.00000   0.00000   0.00000
    Z2        0.00000   0.00294   0.00000   0.00000   0.00000   0.00000
    R1        1.81791   0.00826   0.00000   0.01495   0.01495   1.83286
    R2        2.54508   0.00044   0.00000   0.00170   0.00170   2.54678
    A1        1.88979  -0.01434   0.00000  -0.08843  -0.08843   1.80135
    A2        1.70213  -0.01108   0.00000  -0.06836  -0.06836   1.63377
    D1       -1.63295  -0.00004   0.00000  -0.00915  -0.00915  -1.64211
         Item               Value     Threshold  Converged?
 Maximum Force            0.014340     0.000450     NO 
 RMS     Force            0.008910     0.000300     NO 
 Maximum Displacement     0.173019     0.001800     NO 
 RMS     Displacement     0.071851     0.001200     NO 
 Predicted change in Energy=-1.089005D-03
 Lowest energy point so far.  Saving SCF results.
 GradGradGradGradGradGradGradGradGradGradGradGradGradGradGradGradGradGrad

 Leave Link  103 at Thu May 15 13:05:29 2025, MaxMem=   536870912 cpu:               0.0 elap:               0.0
 (Enter /home/szhao/Apps/g16/l202.exe)
                          Input orientation:                          
 ---------------------------------------------------------------------
 Center     Atomic      Atomic             Coordinates (Angstroms)
 Number     Number       Type             X           Y           Z
 ---------------------------------------------------------------------
      1          8           0       -1.514392    0.000000    0.000000
      2         16           0        1.514392    0.000000    0.000000
      3          1           0       -1.736036   -0.944239   -0.003292
      4          1           0        1.599202    0.091155    1.341934
 ---------------------------------------------------------------------
                    Distance matrix (angstroms):
                    1          2          3          4
     1  O    0.000000
     2  S    3.028783   0.000000
     3  H    0.969910   3.384802   0.000000
     4  H    3.391690   1.347698   3.742391   0.000000
 Symmetry turned off by external request.
 Stoichiometry    H2OS
 Framework group  C1[X(H2OS)]
 Deg. of freedom     6
 Full point group                 C1      NOp   1
 Rotational constants (GHZ):         194.3363295           4.8157957           4.7730103
 Leave Link  202 at Thu May 15 13:05:29 2025, MaxMem=   536870912 cpu:               0.0 elap:               0.0
 (Enter /home/szhao/Apps/g16/l301.exe)
 Standard basis: 6-311+G(d,p) (5D, 7F)
 Ernie: Thresh=  0.10000D-02 Tol=  0.10000D-05 Strict=F.
    64 basis functions,   102 primitive gaussians,    66 cartesian basis functions
    13 alpha electrons       13 beta electrons
       nuclear repulsion energy        36.9018594969 Hartrees.
 IExCor= 4336 DFT=T Ex+Corr=M062X ExCW=0 ScaHFX=  0.540000
 ScaDFX=  1.000000  1.000000  1.000000  1.000000 ScalE2=  1.000000  1.000000
 IRadAn=      7 IRanWt=     -1 IRanGd=            0 ICorTp=0 IEmpDi=  4
 NAtoms=    4 NActive=    4 NUniq=    4 SFac= 1.00D+00 NAtFMM=   60 NAOKFM=F Big=F
 Integral buffers will be    131072 words long.
 Raffenetti 2 integral format.
 Two-electron integral symmetry is turned off.
 Leave Link  301 at Thu May 15 13:05:29 2025, MaxMem=   536870912 cpu:               0.3 elap:               0.0
 (Enter /home/szhao/Apps/g16/l302.exe)
 NPDir=0 NMtPBC=     1 NCelOv=     1 NCel=       1 NClECP=     1 NCelD=      1
         NCelK=      1 NCelE2=     1 NClLst=     1 CellRange=     0.0.
 One-electron integrals computed using PRISM.
 NBasis=    64 RedAO= T EigKep=  6.00D-03  NBF=    64
 NBsUse=    64 1.00D-06 EigRej= -1.00D+00 NBFU=    64
 Precomputing XC quadrature grid using
 IXCGrd= 4 IRadAn=           7 IRanWt=          -1 IRanGd=           0 AccXCQ= 0.00D+00.
 Generated NRdTot=       0 NPtTot=           0 NUsed=           0 NTot=          32
 NSgBfM=    66    66    66    66    66 MxSgAt=     4 MxSgA2=     4.
 Leave Link  302 at Thu May 15 13:05:29 2025, MaxMem=   536870912 cpu:               0.8 elap:               0.1
 (Enter /home/szhao/Apps/g16/l303.exe)
 DipDrv:  MaxL=1.
 Leave Link  303 at Thu May 15 13:05:29 2025, MaxMem=   536870912 cpu:               0.3 elap:               0.0
 (Enter /home/szhao/Apps/g16/l401.exe)
 Initial guess from the checkpoint file:  "opt.chk"
 B after Tr=    -0.000745   -0.004402   -0.002037
         Rot=    0.999997    0.001836    0.001296   -0.001379 Ang=   0.30 deg.
 Guess basis will be translated and rotated to current coordinates.
 JPrj=2 DoOrth=T DoCkMO=T.
 Initial guess <Sx>= 0.0000 <Sy>= 0.0000 <Sz>= 0.0000 <S**2>=-0.0000 S=-0.0000
 Generating alternative initial guess.
 ExpMin= 4.05D-02 ExpMax= 9.34D+04 ExpMxC= 3.17D+03 IAcc=3 IRadAn=         5 AccDes= 0.00D+00
 Harris functional with IExCor= 1009 and IRadAn=       5 diagonalized for initial guess.
 HarFok:  IExCor= 1009 AccDes= 0.00D+00 IRadAn=         5 IDoV= 1 UseB2=F ITyADJ=14
 ICtDFT=  3500011 ScaDFX=  1.000000  1.000000  1.000000  1.000000
 FoFCou: FMM=F IPFlag=           0 FMFlag=      100000 FMFlg1=           0
         NFxFlg=           0 DoJE=T BraDBF=F KetDBF=T FulRan=T
         wScrn=  0.000000 ICntrl=       500 IOpCl=  0 I1Cent=   200000004 NGrid=           0
         NMat0=    1 NMatS0=      1 NMatT0=    0 NMatD0=    1 NMtDS0=    0 NMtDT0=    0
 Symmetry not used in FoFCou.
 Harris En= -474.281219632166    
 Leave Link  401 at Thu May 15 13:05:29 2025, MaxMem=   536870912 cpu:               1.4 elap:               0.2
 (Enter /home/szhao/Apps/g16/l502.exe)
 Keep R1 and R2 ints in memory in canonical form, NReq=11470672.
 FoFCou: FMM=F IPFlag=           0 FMFlag=           0 FMFlg1=           0
         NFxFlg=           0 DoJE=F BraDBF=F KetDBF=F FulRan=T
         wScrn=  0.000000 ICntrl=       600 IOpCl=  0 I1Cent=           0 NGrid=           0
         NMat0=    1 NMatS0=   2080 NMatT0=    0 NMatD0=    1 NMtDS0=    0 NMtDT0=    0
 Symmetry not used in FoFCou.
 Two-electron integral symmetry not used.
 UHF open shell SCF:
 Using DIIS extrapolation, IDIIS=  1040.
 NGot=   536870912 LenX=   532532582 LenY=   532527785
 Requested convergence on RMS density matrix=1.00D-08 within 128 cycles.
 Requested convergence on MAX density matrix=1.00D-06.
 Requested convergence on             energy=1.00D-06.
 No special actions if energy rises.

 Cycle   1  Pass 1  IDiag  1:
 E= -474.401319938756    
 DIIS: error= 3.29D-03 at cycle   1 NSaved=   1.
 NSaved= 1 IEnMin= 1 EnMin= -474.401319938756     IErMin= 1 ErrMin= 3.29D-03
 ErrMax= 3.29D-03  0.00D+00 EMaxC= 1.00D-01 BMatC= 3.21D-03 BMatP= 3.21D-03
 IDIUse=3 WtCom= 9.67D-01 WtEn= 3.29D-02
 Coeff-Com:  0.100D+01
 Coeff-En:   0.100D+01
 Coeff:      0.100D+01
 Gap=     0.543 Goal=   None    Shift=    0.000
 Gap=     0.543 Goal=   None    Shift=    0.000
 GapD=    0.543 DampG=2.000 DampE=1.000 DampFc=2.0000 IDamp=-1.
 RMSDP=5.29D-04 MaxDP=5.49D-03              OVMax= 1.66D-02

 Cycle   2  Pass 1  IDiag  1:
 E= -474.402728891471     Delta-E=       -0.001408952715 Rises=F Damp=F
 DIIS: error= 8.29D-04 at cycle   2 NSaved=   2.
 NSaved= 2 IEnMin= 2 EnMin= -474.402728891471     IErMin= 2 ErrMin= 8.29D-04
 ErrMax= 8.29D-04  0.00D+00 EMaxC= 1.00D-01 BMatC= 3.52D-04 BMatP= 3.21D-03
 IDIUse=3 WtCom= 9.92D-01 WtEn= 8.29D-03
 Coeff-Com: -0.382D-01 0.104D+01
 Coeff-En:   0.000D+00 0.100D+01
 Coeff:     -0.379D-01 0.104D+01
 Gap=     0.149 Goal=   None    Shift=    0.000
 Gap=     0.149 Goal=   None    Shift=    0.000
 RMSDP=3.77D-04 MaxDP=9.43D-03 DE=-1.41D-03 OVMax= 2.46D-02

 Cycle   3  Pass 1  IDiag  1:
 E= -474.402059530232     Delta-E=        0.000669361240 Rises=F Damp=F
 DIIS: error= 3.59D-03 at cycle   3 NSaved=   3.
 NSaved= 3 IEnMin= 2 EnMin= -474.402728891471     IErMin= 2 ErrMin= 8.29D-04
 ErrMax= 3.59D-03  0.00D+00 EMaxC= 1.00D-01 BMatC= 3.40D-03 BMatP= 3.52D-04
 IDIUse=3 WtCom= 1.43D-01 WtEn= 8.57D-01
 Coeff-Com: -0.134D+00 0.891D+00 0.242D+00
 Coeff-En:   0.000D+00 0.827D+00 0.173D+00
 Coeff:     -0.191D-01 0.836D+00 0.183D+00
 Gap=     0.150 Goal=   None    Shift=    0.000
 Gap=     0.150 Goal=   None    Shift=    0.000
 RMSDP=2.50D-04 MaxDP=6.92D-03 DE= 6.69D-04 OVMax= 1.62D-02

 Cycle   4  Pass 1  IDiag  1:
 E= -474.402925952304     Delta-E=       -0.000866422073 Rises=F Damp=F
 DIIS: error= 4.07D-04 at cycle   4 NSaved=   4.
 NSaved= 4 IEnMin= 4 EnMin= -474.402925952304     IErMin= 4 ErrMin= 4.07D-04
 ErrMax= 4.07D-04  0.00D+00 EMaxC= 1.00D-01 BMatC= 4.01D-05 BMatP= 3.52D-04
 IDIUse=3 WtCom= 9.96D-01 WtEn= 4.07D-03
 Coeff-Com:  0.192D-01-0.408D+00-0.248D+00 0.164D+01
 Coeff-En:   0.000D+00 0.000D+00 0.000D+00 0.100D+01
 Coeff:      0.191D-01-0.407D+00-0.247D+00 0.163D+01
 Gap=     0.150 Goal=   None    Shift=    0.000
 Gap=     0.150 Goal=   None    Shift=    0.000
 RMSDP=9.84D-05 MaxDP=8.94D-04 DE=-8.66D-04 OVMax= 4.90D-03

 Cycle   5  Pass 1  IDiag  1:
 E= -474.402959641076     Delta-E=       -0.000033688772 Rises=F Damp=F
 DIIS: error= 1.02D-04 at cycle   5 NSaved=   5.
 NSaved= 5 IEnMin= 5 EnMin= -474.402959641076     IErMin= 5 ErrMin= 1.02D-04
 ErrMax= 1.02D-04  0.00D+00 EMaxC= 1.00D-01 BMatC= 4.35D-06 BMatP= 4.01D-05
 IDIUse=3 WtCom= 9.99D-01 WtEn= 1.02D-03
 Coeff-Com:  0.215D-01-0.236D+00-0.123D+00 0.489D+00 0.848D+00
 Coeff-En:   0.000D+00 0.000D+00 0.000D+00 0.000D+00 0.100D+01
 Coeff:      0.215D-01-0.235D+00-0.123D+00 0.489D+00 0.848D+00
 Gap=     0.150 Goal=   None    Shift=    0.000
 Gap=     0.150 Goal=   None    Shift=    0.000
 RMSDP=3.27D-05 MaxDP=4.15D-04 DE=-3.37D-05 OVMax= 1.31D-03

 Cycle   6  Pass 1  IDiag  1:
 E= -474.402963672460     Delta-E=       -0.000004031384 Rises=F Damp=F
 DIIS: error= 3.74D-05 at cycle   6 NSaved=   6.
 NSaved= 6 IEnMin= 6 EnMin= -474.402963672460     IErMin= 6 ErrMin= 3.74D-05
 ErrMax= 3.74D-05  0.00D+00 EMaxC= 1.00D-01 BMatC= 4.77D-07 BMatP= 4.35D-06
 IDIUse=1 WtCom= 1.00D+00 WtEn= 0.00D+00
 Coeff-Com: -0.346D-02 0.687D-01 0.379D-01-0.255D+00-0.719D-01 0.122D+01
 Coeff:     -0.346D-02 0.687D-01 0.379D-01-0.255D+00-0.719D-01 0.122D+01
 Gap=     0.150 Goal=   None    Shift=    0.000
 Gap=     0.150 Goal=   None    Shift=    0.000
 RMSDP=2.75D-05 MaxDP=4.39D-04 DE=-4.03D-06 OVMax= 1.33D-03

 Cycle   7  Pass 1  IDiag  1:
 E= -474.402965511565     Delta-E=       -0.000001839105 Rises=F Damp=F
 DIIS: error= 2.85D-05 at cycle   7 NSaved=   7.
 NSaved= 7 IEnMin= 7 EnMin= -474.402965511565     IErMin= 7 ErrMin= 2.85D-05
 ErrMax= 2.85D-05  0.00D+00 EMaxC= 1.00D-01 BMatC= 2.24D-07 BMatP= 4.77D-07
 IDIUse=1 WtCom= 1.00D+00 WtEn= 0.00D+00
 Coeff-Com: -0.393D-02 0.387D-01 0.157D-01-0.470D-01-0.159D+00-0.171D+00
 Coeff-Com:  0.133D+01
 Coeff:     -0.393D-02 0.387D-01 0.157D-01-0.470D-01-0.159D+00-0.171D+00
 Coeff:      0.133D+01
 Gap=     0.150 Goal=   None    Shift=    0.000
 Gap=     0.150 Goal=   None    Shift=    0.000
 RMSDP=2.30D-05 MaxDP=3.73D-04 DE=-1.84D-06 OVMax= 1.14D-03

 Cycle   8  Pass 1  IDiag  1:
 E= -474.402966642210     Delta-E=       -0.000001130645 Rises=F Damp=F
 DIIS: error= 2.18D-05 at cycle   8 NSaved=   8.
 NSaved= 8 IEnMin= 8 EnMin= -474.402966642210     IErMin= 8 ErrMin= 2.18D-05
 ErrMax= 2.18D-05  0.00D+00 EMaxC= 1.00D-01 BMatC= 1.14D-07 BMatP= 2.24D-07
 IDIUse=1 WtCom= 1.00D+00 WtEn= 0.00D+00
 Coeff-Com:  0.387D-02-0.615D-01-0.261D-01 0.168D+00 0.107D+00-0.856D+00
 Coeff-Com: -0.586D+00 0.225D+01
 Coeff:      0.387D-02-0.615D-01-0.261D-01 0.168D+00 0.107D+00-0.856D+00
 Coeff:     -0.586D+00 0.225D+01
 Gap=     0.150 Goal=   None    Shift=    0.000
 Gap=     0.150 Goal=   None    Shift=    0.000
 RMSDP=4.28D-05 MaxDP=6.82D-04 DE=-1.13D-06 OVMax= 2.21D-03

 Cycle   9  Pass 1  IDiag  1:
 E= -474.402967750044     Delta-E=       -0.000001107835 Rises=F Damp=F
 DIIS: error= 9.20D-06 at cycle   9 NSaved=   9.
 NSaved= 9 IEnMin= 9 EnMin= -474.402967750044     IErMin= 9 ErrMin= 9.20D-06
 ErrMax= 9.20D-06  0.00D+00 EMaxC= 1.00D-01 BMatC= 1.18D-08 BMatP= 1.14D-07
 IDIUse=1 WtCom= 1.00D+00 WtEn= 0.00D+00
 Coeff-Com:  0.863D-03-0.109D-01-0.532D-02 0.250D-01 0.373D-01-0.225D-01
 Coeff-Com: -0.285D+00 0.666D-01 0.119D+01
 Coeff:      0.863D-03-0.109D-01-0.532D-02 0.250D-01 0.373D-01-0.225D-01
 Coeff:     -0.285D+00 0.666D-01 0.119D+01
 Gap=     0.150 Goal=   None    Shift=    0.000
 Gap=     0.150 Goal=   None    Shift=    0.000
 RMSDP=1.26D-05 MaxDP=1.82D-04 DE=-1.11D-06 OVMax= 7.28D-04

 Cycle  10  Pass 1  IDiag  1:
 E= -474.402967834822     Delta-E=       -0.000000084777 Rises=F Damp=F
 DIIS: error= 3.88D-06 at cycle  10 NSaved=  10.
 NSaved=10 IEnMin=10 EnMin= -474.402967834822     IErMin=10 ErrMin= 3.88D-06
 ErrMax= 3.88D-06  0.00D+00 EMaxC= 1.00D-01 BMatC= 3.22D-09 BMatP= 1.18D-08
 IDIUse=1 WtCom= 1.00D+00 WtEn= 0.00D+00
 Coeff-Com: -0.545D-03 0.926D-02 0.443D-02-0.267D-01-0.164D-01 0.146D+00
 Coeff-Com:  0.101D+00-0.391D+00 0.750D-01 0.110D+01
 Coeff:     -0.545D-03 0.926D-02 0.443D-02-0.267D-01-0.164D-01 0.146D+00
 Coeff:      0.101D+00-0.391D+00 0.750D-01 0.110D+01
 Gap=     0.150 Goal=   None    Shift=    0.000
 Gap=     0.150 Goal=   None    Shift=    0.000
 RMSDP=2.06D-06 MaxDP=3.37D-05 DE=-8.48D-08 OVMax= 1.65D-04

 Cycle  11  Pass 1  IDiag  1:
 E= -474.402967843332     Delta-E=       -0.000000008510 Rises=F Damp=F
 DIIS: error= 2.47D-06 at cycle  11 NSaved=  11.
 NSaved=11 IEnMin=11 EnMin= -474.402967843332     IErMin=11 ErrMin= 2.47D-06
 ErrMax= 2.47D-06  0.00D+00 EMaxC= 1.00D-01 BMatC= 8.76D-10 BMatP= 3.22D-09
 IDIUse=1 WtCom= 1.00D+00 WtEn= 0.00D+00
 Coeff-Com:  0.993D-04-0.225D-02-0.940D-03 0.722D-02 0.230D-03-0.633D-01
 Coeff-Com: -0.393D-02 0.184D+00-0.255D+00-0.570D+00 0.170D+01
 Coeff:      0.993D-04-0.225D-02-0.940D-03 0.722D-02 0.230D-03-0.633D-01
 Coeff:     -0.393D-02 0.184D+00-0.255D+00-0.570D+00 0.170D+01
 Gap=     0.150 Goal=   None    Shift=    0.000
 Gap=     0.150 Goal=   None    Shift=    0.000
 RMSDP=1.79D-06 MaxDP=2.37D-05 DE=-8.51D-09 OVMax= 1.17D-04

 Cycle  12  Pass 1  IDiag  1:
 E= -474.402967849009     Delta-E=       -0.000000005678 Rises=F Damp=F
 DIIS: error= 1.39D-06 at cycle  12 NSaved=  12.
 NSaved=12 IEnMin=12 EnMin= -474.402967849009     IErMin=12 ErrMin= 1.39D-06
 ErrMax= 1.39D-06  0.00D+00 EMaxC= 1.00D-01 BMatC= 3.72D-10 BMatP= 8.76D-10
 IDIUse=1 WtCom= 1.00D+00 WtEn= 0.00D+00
 Coeff-Com:  0.193D-03-0.289D-02-0.136D-02 0.764D-02 0.874D-02-0.311D-01
 Coeff-Com: -0.439D-01 0.810D-01 0.751D-01-0.166D+00-0.997D+00 0.207D+01
 Coeff:      0.193D-03-0.289D-02-0.136D-02 0.764D-02 0.874D-02-0.311D-01
 Coeff:     -0.439D-01 0.810D-01 0.751D-01-0.166D+00-0.997D+00 0.207D+01
 Gap=     0.150 Goal=   None    Shift=    0.000
 Gap=     0.150 Goal=   None    Shift=    0.000
 RMSDP=2.11D-06 MaxDP=3.21D-05 DE=-5.68D-09 OVMax= 1.20D-04

 Cycle  13  Pass 1  IDiag  1:
 E= -474.402967852539     Delta-E=       -0.000000003529 Rises=F Damp=F
 DIIS: error= 7.17D-07 at cycle  13 NSaved=  13.
 NSaved=13 IEnMin=13 EnMin= -474.402967852539     IErMin=13 ErrMin= 7.17D-07
 ErrMax= 7.17D-07  0.00D+00 EMaxC= 1.00D-01 BMatC= 9.08D-11 BMatP= 3.72D-10
 IDIUse=1 WtCom= 1.00D+00 WtEn= 0.00D+00
 Coeff-Com: -0.891D-05 0.279D-03-0.386D-05-0.764D-03 0.628D-03 0.137D-01
 Coeff-Com:  0.144D-02-0.482D-01 0.690D-01 0.220D+00-0.627D+00 0.829D-01
 Coeff-Com:  0.129D+01
 Coeff:     -0.891D-05 0.279D-03-0.386D-05-0.764D-03 0.628D-03 0.137D-01
 Coeff:      0.144D-02-0.482D-01 0.690D-01 0.220D+00-0.627D+00 0.829D-01
 Coeff:      0.129D+01
 Gap=     0.150 Goal=   None    Shift=    0.000
 Gap=     0.150 Goal=   None    Shift=    0.000
 RMSDP=9.56D-07 MaxDP=1.52D-05 DE=-3.53D-09 OVMax= 5.12D-05

 Cycle  14  Pass 1  IDiag  1:
 E= -474.402967853134     Delta-E=       -0.000000000595 Rises=F Damp=F
 DIIS: error= 4.38D-07 at cycle  14 NSaved=  14.
 NSaved=14 IEnMin=14 EnMin= -474.402967853134     IErMin=14 ErrMin= 4.38D-07
 ErrMax= 4.38D-07  0.00D+00 EMaxC= 1.00D-01 BMatC= 3.45D-11 BMatP= 9.08D-11
 IDIUse=1 WtCom= 1.00D+00 WtEn= 0.00D+00
 Coeff-Com: -0.801D-05 0.195D-03 0.288D-04-0.534D-03 0.392D-04 0.807D-02
 Coeff-Com:  0.287D-02-0.290D-01 0.339D-01 0.135D+00-0.332D+00-0.598D-02
 Coeff-Com:  0.711D+00 0.477D+00
 Coeff:     -0.801D-05 0.195D-03 0.288D-04-0.534D-03 0.392D-04 0.807D-02
 Coeff:      0.287D-02-0.290D-01 0.339D-01 0.135D+00-0.332D+00-0.598D-02
 Coeff:      0.711D+00 0.477D+00
 Gap=     0.150 Goal=   None    Shift=    0.000
 Gap=     0.150 Goal=   None    Shift=    0.000
 RMSDP=1.14D-07 MaxDP=3.00D-06 DE=-5.95D-10 OVMax= 8.34D-06

 Cycle  15  Pass 1  IDiag  1:
 E= -474.402967853246     Delta-E=       -0.000000000111 Rises=F Damp=F
 DIIS: error= 5.91D-07 at cycle  15 NSaved=  15.
 NSaved=15 IEnMin=15 EnMin= -474.402967853246     IErMin=14 ErrMin= 4.38D-07
 ErrMax= 5.91D-07  0.00D+00 EMaxC= 1.00D-01 BMatC= 6.35D-11 BMatP= 3.45D-11
 IDIUse=1 WtCom= 1.00D+00 WtEn= 0.00D+00
 Coeff-Com: -0.348D-04 0.506D-03 0.294D-03-0.139D-02-0.230D-02 0.604D-02
 Coeff-Com:  0.138D-01-0.208D-01-0.244D-01 0.833D-01 0.156D+00-0.460D+00
 Coeff-Com:  0.458D-01 0.368D+01-0.248D+01
 Coeff:     -0.348D-04 0.506D-03 0.294D-03-0.139D-02-0.230D-02 0.604D-02
 Coeff:      0.138D-01-0.208D-01-0.244D-01 0.833D-01 0.156D+00-0.460D+00
 Coeff:      0.458D-01 0.368D+01-0.248D+01
 Gap=     0.150 Goal=   None    Shift=    0.000
 Gap=     0.150 Goal=   None    Shift=    0.000
 RMSDP=3.28D-07 MaxDP=8.78D-06 DE=-1.11D-10 OVMax= 2.36D-05

 Cycle  16  Pass 1  IDiag  1:
 E= -474.402967853065     Delta-E=        0.000000000181 Rises=F Damp=F
 DIIS: error= 7.00D-08 at cycle  16 NSaved=  16.
 NSaved=16 IEnMin=15 EnMin= -474.402967853246     IErMin=16 ErrMin= 7.00D-08
 ErrMax= 7.00D-08  0.00D+00 EMaxC= 1.00D-01 BMatC= 8.81D-13 BMatP= 3.45D-11
 IDIUse=1 WtCom= 1.00D+00 WtEn= 0.00D+00
 Coeff-Com: -0.523D-05 0.671D-04 0.443D-04-0.154D-03-0.436D-03 0.353D-03
 Coeff-Com:  0.267D-02-0.177D-02-0.767D-02 0.330D-02 0.450D-01-0.551D-01
 Coeff-Com: -0.805D-01 0.462D+00-0.385D+00 0.102D+01
 Coeff:     -0.523D-05 0.671D-04 0.443D-04-0.154D-03-0.436D-03 0.353D-03
 Coeff:      0.267D-02-0.177D-02-0.767D-02 0.330D-02 0.450D-01-0.551D-01
 Coeff:     -0.805D-01 0.462D+00-0.385D+00 0.102D+01
 Gap=     0.150 Goal=   None    Shift=    0.000
 Gap=     0.150 Goal=   None    Shift=    0.000
 RMSDP=5.13D-08 MaxDP=8.89D-07 DE= 1.81D-10 OVMax= 3.22D-06

 Cycle  17  Pass 1  IDiag  1:
 E= -474.402967853064     Delta-E=        0.000000000000 Rises=F Damp=F
 DIIS: error= 8.05D-09 at cycle  17 NSaved=  17.
 NSaved=17 IEnMin=15 EnMin= -474.402967853246     IErMin=17 ErrMin= 8.05D-09
 ErrMax= 8.05D-09  0.00D+00 EMaxC= 1.00D-01 BMatC= 2.16D-14 BMatP= 8.81D-13
 IDIUse=1 WtCom= 1.00D+00 WtEn= 0.00D+00
 Coeff-Com:  0.596D-06-0.112D-04-0.722D-05 0.391D-04 0.435D-05-0.229D-03
 Coeff-Com: -0.503D-04 0.505D-03 0.943D-05-0.233D-02-0.293D-02 0.141D-01
 Coeff-Com: -0.616D-02-0.135D+00 0.855D-01 0.716D-01 0.975D+00
 Coeff:      0.596D-06-0.112D-04-0.722D-05 0.391D-04 0.435D-05-0.229D-03
 Coeff:     -0.503D-04 0.505D-03 0.943D-05-0.233D-02-0.293D-02 0.141D-01
 Coeff:     -0.616D-02-0.135D+00 0.855D-01 0.716D-01 0.975D+00
 Gap=     0.150 Goal=   None    Shift=    0.000
 Gap=     0.150 Goal=   None    Shift=    0.000
 RMSDP=2.46D-09 MaxDP=3.43D-08 DE= 3.41D-13 OVMax= 1.22D-07

 SCF Done:  E(UM062X) =  -474.402967853     A.U. after   17 cycles
            NFock= 17  Conv=0.25D-08     -V/T= 2.0019
 <Sx>= 0.0000 <Sy>= 0.0000 <Sz>= 0.0000 <S**2>=-0.0000 S=-0.0000
 <L.S>=  0.00000000000    
 KE= 4.735207342551D+02 PE=-1.201092922531D+03 EE= 2.162673609263D+02
 Annihilation of the first spin contaminant:
 S**2 before annihilation    -0.0000,   after     0.0000
 Leave Link  502 at Thu May 15 13:05:34 2025, MaxMem=   536870912 cpu:              39.5 elap:               5.0
 (Enter /home/szhao/Apps/g16/l701.exe)
 ... and contract with generalized density number  0.
 Compute integral first derivatives.
 Leave Link  701 at Thu May 15 13:05:35 2025, MaxMem=   536870912 cpu:               0.7 elap:               0.1
 (Enter /home/szhao/Apps/g16/l702.exe)
 L702 exits ... SP integral derivatives will be done elsewhere.
 Leave Link  702 at Thu May 15 13:05:35 2025, MaxMem=   536870912 cpu:               0.2 elap:               0.0
 (Enter /home/szhao/Apps/g16/l703.exe)
 Integral derivatives from FoFJK, PRISM(SPDF).
 Compute integral first derivatives, UseDBF=F ICtDFT=           0.
 Calling FoFJK, ICntrl=      2127 FMM=F ISym2X=0 I1Cent= 0 IOpClX= 1 NMat=1 NMatS=1 NMatT=0.
 FoFJK:  IHMeth= 1 ICntrl=    2127 DoSepK=F KAlg= 0 I1Cent=           0 FoldK=F
 IRaf=         0 NMat=       1 IRICut=       1 DoRegI=T DoRafI=F ISym2E= 0 IDoP0=0 IntGTp=1.
 FoFCou: FMM=F IPFlag=           0 FMFlag=      100000 FMFlg1=         800
         NFxFlg=           0 DoJE=F BraDBF=F KetDBF=F FulRan=T
         wScrn=  0.000000 ICntrl=      2127 IOpCl=  1 I1Cent=           0 NGrid=           0
         NMat0=    1 NMatS0=      1 NMatT0=    0 NMatD0=    1 NMtDS0=    0 NMtDT0=    0
 Symmetry not used in FoFCou.
 Leave Link  703 at Thu May 15 13:05:35 2025, MaxMem=   536870912 cpu:               4.1 elap:               0.5
 (Enter /home/szhao/Apps/g16/l716.exe)
 Dipole        = 7.85944568D-01-6.13813271D-01 4.47701704D-01
 -------------------------------------------------------------------
 Center     Atomic                   Forces (Hartrees/Bohr)
 Number     Number              X              Y              Z
 -------------------------------------------------------------------
      1        8          -0.000000000   -0.000000000   -0.000000000
      2       16          -0.000000000   -0.000000000   -0.000000000
      3        1           0.005684315   -0.001546288   -0.000254180
      4        1          -0.003176321    0.000131414   -0.000015666
 -------------------------------------------------------------------
 Cartesian Forces:  Max     0.005684315 RMS     0.001933770
 Leave Link  716 at Thu May 15 13:05:35 2025, MaxMem=   536870912 cpu:               0.2 elap:               0.0
 (Enter /home/szhao/Apps/g16/l103.exe)

 GradGradGradGradGradGradGradGradGradGradGradGradGradGradGradGradGradGrad
 Berny optimization.
 Using GEDIIS/GDIIS optimizer.
 FormGI is forming the generalized inverse of G from B-inverse, IUseBI=4.
 Internal  Forces:  Max     0.010790917 RMS     0.004729965
 Search for a local minimum.
 Step number   2 out of a maximum of   21
 All quantities printed in internal units (Hartrees-Bohrs-Radians)
 RMS Force = .60309D-02 SwitMx=.10000D-02 MixMth= 1
 Mixed Optimization -- RFO/linear search
 Update second derivatives using D2CorX and points    1    2
 DE= -1.83D-03 DEPred=-1.09D-03 R= 1.68D+00
 TightC=F SS=  1.41D+00  RLast= 1.13D-01 DXNew= 5.0454D-01 3.3946D-01
 Trust test= 1.68D+00 RLast= 1.13D-01 DXMaxT set to 3.39D-01
 The second derivative matrix:
                          X1        Y1        Z1        X2        Y2
           X1           0.50097
           Y1           0.01159   0.63891
           Z1           0.00036   0.00435   0.50014
           X2           0.00133   0.01599   0.00050   0.50184
           Y2          -0.00069  -0.00827  -0.00026  -0.00095   0.50049
           Z2          -0.00188  -0.02258  -0.00071  -0.00260   0.00134
           R1          -0.00991  -0.11885  -0.00372  -0.01368   0.00707
           R2          -0.00080  -0.00960  -0.00030  -0.00110   0.00057
           A1           0.00437   0.05237   0.00164   0.00603  -0.00312
           A2           0.00371   0.04445   0.00139   0.00512  -0.00265
           D1          -0.00045  -0.00542  -0.00017  -0.00062   0.00032
                          Z2        R1        R2        A1        A2
           Z2           0.50367
           R1           0.01932   0.62025
           R2           0.00156   0.00651   0.25943
           A1          -0.00851   0.01004  -0.00068   0.08544
           A2          -0.00722   0.00436  -0.00080  -0.05614   0.11787
           D1           0.00088   0.00472   0.00038  -0.00219  -0.00184
                          D1
           D1           0.00251
 ITU=  1  0
 Use linear search instead of GDIIS.
     Eigenvalues ---    0.00226   0.04323   0.16008   0.25932   0.62061
     Eigenvalues --- 1000.000001000.000001000.000001000.000001000.00000
     Eigenvalues --- 1000.00000
 RFO step:  Lambda=-8.14059629D-04 EMin= 2.26368621D-03
 Quartic linear search produced a step of  2.00000.
 Iteration  1 RMS(Cart)=  0.19158689 RMS(Int)=  0.04863833
 Iteration  2 RMS(Cart)=  0.07364087 RMS(Int)=  0.00286596
 Iteration  3 RMS(Cart)=  0.00317917 RMS(Int)=  0.00000283
 Iteration  4 RMS(Cart)=  0.00000401 RMS(Int)=  0.00000000
 Iteration  5 RMS(Cart)=  0.00000000 RMS(Int)=  0.00000000
 ITry= 1 IFail=0 DXMaxC= 4.38D-01 DCOld= 1.00D+10 DXMaxT= 3.39D-01 DXLimC= 3.00D+00 Rises=F
 Variable       Old X    -DE/DX   Delta X   Delta X   Delta X     New X
                                 (Linear)    (Quad)   (Total)
    X1       -2.86179   0.00568   0.00000   0.00000   0.00000  -2.86179
    Y1        0.00000  -0.00353   0.00000   0.00000   0.00000   0.00000
    Z1        0.00000  -0.00166   0.00000   0.00000   0.00000   0.00000
    X2        2.86179  -0.00318   0.00000   0.00000   0.00000   2.86179
    Y2        0.00000   0.00215   0.00000   0.00000   0.00000   0.00000
    Z2        0.00000   0.00141   0.00000   0.00000   0.00000   0.00000
    R1        1.83286   0.00021   0.02990  -0.02251   0.00739   1.84025
    R2        2.54678  -0.00021   0.00340  -0.00514  -0.00174   2.54504
    A1        1.80135  -0.01079  -0.17687  -0.05231  -0.22918   1.57218
    A2        1.63377  -0.00807  -0.13672  -0.03544  -0.17216   1.46161
    D1       -1.64211  -0.00041  -0.01831  -0.31437  -0.33268  -1.97479
         Item               Value     Threshold  Converged?
 Maximum Force            0.010791     0.000450     NO 
 RMS     Force            0.006031     0.000300     NO 
 Maximum Displacement     0.437595     0.001800     NO 
 RMS     Displacement     0.239699     0.001200     NO 
 Predicted change in Energy=-2.375499D-03
 Lowest energy point so far.  Saving SCF results.
 GradGradGradGradGradGradGradGradGradGradGradGradGradGradGradGradGradGrad

 Leave Link  103 at Thu May 15 13:05:35 2025, MaxMem=   536870912 cpu:               0.0 elap:               0.0
 (Enter /home/szhao/Apps/g16/l202.exe)
                          Input orientation:                          
 ---------------------------------------------------------------------
 Center     Atomic      Atomic             Coordinates (Angstroms)
 Number     Number       Type             X           Y           Z
 ---------------------------------------------------------------------
      1          8           0       -1.514392    0.000000    0.000000
      2         16           0        1.514392    0.000000    0.000000
      3          1           0       -1.515735   -0.959111   -0.168616
      4          1           0        1.367636    0.305159    1.303515
 ---------------------------------------------------------------------
                    Distance matrix (angstroms):
                    1          2          3          4
     1  O    0.000000
     2  S    3.028783   0.000000
     3  H    0.973821   3.182765   0.000000
     4  H    3.177791   1.346778   3.475540   0.000000
 Symmetry turned off by external request.
 Stoichiometry    H2OS
 Framework group  C1[X(H2OS)]
 Deg. of freedom     6
 Full point group                 C1      NOp   1
 Rotational constants (GHZ):         190.2287310           4.8885061           4.8272195
 Leave Link  202 at Thu May 15 13:05:35 2025, MaxMem=   536870912 cpu:               0.0 elap:               0.0
 (Enter /home/szhao/Apps/g16/l301.exe)
 Standard basis: 6-311+G(d,p) (5D, 7F)
 Ernie: Thresh=  0.10000D-02 Tol=  0.10000D-05 Strict=F.
    64 basis functions,   102 primitive gaussians,    66 cartesian basis functions
    13 alpha electrons       13 beta electrons
       nuclear repulsion energy        37.1422813182 Hartrees.
 IExCor= 4336 DFT=T Ex+Corr=M062X ExCW=0 ScaHFX=  0.540000
 ScaDFX=  1.000000  1.000000  1.000000  1.000000 ScalE2=  1.000000  1.000000
 IRadAn=      7 IRanWt=     -1 IRanGd=            0 ICorTp=0 IEmpDi=  4
 NAtoms=    4 NActive=    4 NUniq=    4 SFac= 1.00D+00 NAtFMM=   60 NAOKFM=F Big=F
 Integral buffers will be    131072 words long.
 Raffenetti 2 integral format.
 Two-electron integral symmetry is turned off.
 Leave Link  301 at Thu May 15 13:05:35 2025, MaxMem=   536870912 cpu:               0.3 elap:               0.0
 (Enter /home/szhao/Apps/g16/l302.exe)
 NPDir=0 NMtPBC=     1 NCelOv=     1 NCel=       1 NClECP=     1 NCelD=      1
         NCelK=      1 NCelE2=     1 NClLst=     1 CellRange=     0.0.
 One-electron integrals computed using PRISM.
 NBasis=    64 RedAO= T EigKep=  6.03D-03  NBF=    64
 NBsUse=    64 1.00D-06 EigRej= -1.00D+00 NBFU=    64
 Precomputing XC quadrature grid using
 IXCGrd= 4 IRadAn=           7 IRanWt=          -1 IRanGd=           0 AccXCQ= 0.00D+00.
 Generated NRdTot=       0 NPtTot=           0 NUsed=           0 NTot=          32
 NSgBfM=    66    66    66    66    66 MxSgAt=     4 MxSgA2=     4.
 Leave Link  302 at Thu May 15 13:05:35 2025, MaxMem=   536870912 cpu:               0.9 elap:               0.1
 (Enter /home/szhao/Apps/g16/l303.exe)
 DipDrv:  MaxL=1.
 Leave Link  303 at Thu May 15 13:05:35 2025, MaxMem=   536870912 cpu:               0.2 elap:               0.0
 (Enter /home/szhao/Apps/g16/l401.exe)
 Initial guess from the checkpoint file:  "opt.chk"
 B after Tr=     0.000173    0.001987   -0.029694
         Rot=    0.999562    0.028580    0.006718   -0.003732 Ang=   3.39 deg.
 Guess basis will be translated and rotated to current coordinates.
 JPrj=2 DoOrth=T DoCkMO=T.
 Initial guess <Sx>= 0.0000 <Sy>= 0.0000 <Sz>= 0.0000 <S**2>=-0.0000 S=-0.0000
 Generating alternative initial guess.
 ExpMin= 4.05D-02 ExpMax= 9.34D+04 ExpMxC= 3.17D+03 IAcc=3 IRadAn=         5 AccDes= 0.00D+00
 Harris functional with IExCor= 1009 and IRadAn=       5 diagonalized for initial guess.
 HarFok:  IExCor= 1009 AccDes= 0.00D+00 IRadAn=         5 IDoV= 1 UseB2=F ITyADJ=14
 ICtDFT=  3500011 ScaDFX=  1.000000  1.000000  1.000000  1.000000
 FoFCou: FMM=F IPFlag=           0 FMFlag=      100000 FMFlg1=           0
         NFxFlg=           0 DoJE=T BraDBF=F KetDBF=T FulRan=T
         wScrn=  0.000000 ICntrl=       500 IOpCl=  0 I1Cent=   200000004 NGrid=           0
         NMat0=    1 NMatS0=      1 NMatT0=    0 NMatD0=    1 NMtDS0=    0 NMtDT0=    0
 Symmetry not used in FoFCou.
 Harris En= -474.280946215572    
 Leave Link  401 at Thu May 15 13:05:36 2025, MaxMem=   536870912 cpu:               1.3 elap:               0.2
 (Enter /home/szhao/Apps/g16/l502.exe)
 Keep R1 and R2 ints in memory in canonical form, NReq=11470672.
 FoFCou: FMM=F IPFlag=           0 FMFlag=           0 FMFlg1=           0
         NFxFlg=           0 DoJE=F BraDBF=F KetDBF=F FulRan=T
         wScrn=  0.000000 ICntrl=       600 IOpCl=  0 I1Cent=           0 NGrid=           0
         NMat0=    1 NMatS0=   2080 NMatT0=    0 NMatD0=    1 NMtDS0=    0 NMtDT0=    0
 Symmetry not used in FoFCou.
 Two-electron integral symmetry not used.
 UHF open shell SCF:
 Using DIIS extrapolation, IDIIS=  1040.
 NGot=   536870912 LenX=   532532582 LenY=   532527785
 Requested convergence on RMS density matrix=1.00D-08 within 128 cycles.
 Requested convergence on MAX density matrix=1.00D-06.
 Requested convergence on             energy=1.00D-06.
 No special actions if energy rises.

 Cycle   1  Pass 1  IDiag  1:
 E= -474.385693148842    
 DIIS: error= 1.27D-02 at cycle   1 NSaved=   1.
 NSaved= 1 IEnMin= 1 EnMin= -474.385693148842     IErMin= 1 ErrMin= 1.27D-02
 ErrMax= 1.27D-02  0.00D+00 EMaxC= 1.00D-01 BMatC= 4.66D-02 BMatP= 4.66D-02
 IDIUse=3 WtCom= 8.73D-01 WtEn= 1.27D-01
 Coeff-Com:  0.100D+01
 Coeff-En:   0.100D+01
 Coeff:      0.100D+01
 Recover alternate guess density for next cycle.
 RMSDP=6.66D-03 MaxDP=1.30D-01              OVMax= 0.00D+00

 Cycle   2  Pass 1  IDiag  1:
 E= -474.081497533211     Delta-E=        0.304195615631 Rises=F Damp=F
 Switch densities from cycles 1 and 2 for lowest energy.
 DIIS: error= 5.70D-02 at cycle   2 NSaved=   2.
 NSaved= 2 IEnMin= 1 EnMin= -474.385693148842     IErMin= 1 ErrMin= 1.27D-02
 ErrMax= 5.70D-02  0.00D+00 EMaxC= 1.00D+00 BMatC= 1.25D+00 BMatP= 4.66D-02
 IDIUse=1 WtCom= 1.00D+00 WtEn= 0.00D+00
 Coeff-Com:  0.981D+00 0.193D-01
 Coeff:      0.981D+00 0.193D-01
 Gap=     0.117 Goal=   None    Shift=    0.000
 Gap=     0.117 Goal=   None    Shift=    0.000
 RMSDP=2.10D-03 MaxDP=2.16D-02 DE= 3.04D-01 OVMax= 5.16D-01

 Cycle   3  Pass 1  IDiag  1:
 E= -474.399571118334     Delta-E=       -0.318073585124 Rises=F Damp=F
 DIIS: error= 7.48D-03 at cycle   3 NSaved=   3.
 NSaved= 3 IEnMin= 3 EnMin= -474.399571118334     IErMin= 3 ErrMin= 7.48D-03
 ErrMax= 7.48D-03  0.00D+00 EMaxC= 1.00D+00 BMatC= 1.92D-02 BMatP= 4.66D-02
 IDIUse=1 WtCom= 1.00D+00 WtEn= 0.00D+00
 Coeff-Com: -0.192D-01 0.983D-01 0.921D+00
 Coeff:     -0.192D-01 0.983D-01 0.921D+00
 Gap=     0.148 Goal=   None    Shift=    0.000
 Gap=     0.148 Goal=   None    Shift=    0.000
 RMSDP=1.00D-03 MaxDP=2.35D-02 DE=-3.18D-01 OVMax= 5.74D-02

 Cycle   4  Pass 1  IDiag  1:
 E= -474.404297352388     Delta-E=       -0.004726234053 Rises=F Damp=F
 DIIS: error= 2.97D-03 at cycle   4 NSaved=   4.
 NSaved= 4 IEnMin= 4 EnMin= -474.404297352388     IErMin= 4 ErrMin= 2.97D-03
 ErrMax= 2.97D-03  0.00D+00 EMaxC= 1.00D+00 BMatC= 2.53D-03 BMatP= 1.92D-02
 IDIUse=1 WtCom= 1.00D+00 WtEn= 0.00D+00
 Coeff-Com: -0.549D-01 0.385D-02 0.288D+00 0.763D+00
 Coeff:     -0.549D-01 0.385D-02 0.288D+00 0.763D+00
 Gap=     0.152 Goal=   None    Shift=    0.000
 Gap=     0.152 Goal=   None    Shift=    0.000
 RMSDP=4.19D-04 MaxDP=1.15D-02 DE=-4.73D-03 OVMax= 2.61D-02

 Cycle   5  Pass 1  IDiag  1:
 E= -474.404993548082     Delta-E=       -0.000696195694 Rises=F Damp=F
 DIIS: error= 1.24D-03 at cycle   5 NSaved=   5.
 NSaved= 5 IEnMin= 5 EnMin= -474.404993548082     IErMin= 5 ErrMin= 1.24D-03
 ErrMax= 1.24D-03  0.00D+00 EMaxC= 1.00D+00 BMatC= 6.22D-04 BMatP= 2.53D-03
 IDIUse=1 WtCom= 1.00D+00 WtEn= 0.00D+00
 Coeff-Com:  0.205D-02-0.103D-02-0.105D+00 0.186D+00 0.918D+00
 Coeff:      0.205D-02-0.103D-02-0.105D+00 0.186D+00 0.918D+00
 Gap=     0.151 Goal=   None    Shift=    0.000
 Gap=     0.151 Goal=   None    Shift=    0.000
 RMSDP=1.98D-04 MaxDP=3.80D-03 DE=-6.96D-04 OVMax= 9.02D-03

 Cycle   6  Pass 1  IDiag  1:
 E= -474.405213978933     Delta-E=       -0.000220430850 Rises=F Damp=F
 DIIS: error= 2.48D-04 at cycle   6 NSaved=   6.
 NSaved= 6 IEnMin= 6 EnMin= -474.405213978933     IErMin= 6 ErrMin= 2.48D-04
 ErrMax= 2.48D-04  0.00D+00 EMaxC= 1.00D+00 BMatC= 2.56D-05 BMatP= 6.22D-04
 IDIUse=1 WtCom= 1.00D+00 WtEn= 0.00D+00
 Coeff-Com:  0.625D-02-0.165D-02-0.611D-01-0.435D-01 0.291D+00 0.809D+00
 Coeff:      0.625D-02-0.165D-02-0.611D-01-0.435D-01 0.291D+00 0.809D+00
 Gap=     0.151 Goal=   None    Shift=    0.000
 Gap=     0.151 Goal=   None    Shift=    0.000
 RMSDP=6.84D-05 MaxDP=6.64D-04 DE=-2.20D-04 OVMax= 3.62D-03

 Cycle   7  Pass 1  IDiag  1:
 E= -474.405238173492     Delta-E=       -0.000024194559 Rises=F Damp=F
 DIIS: error= 1.66D-04 at cycle   7 NSaved=   7.
 NSaved= 7 IEnMin= 7 EnMin= -474.405238173492     IErMin= 7 ErrMin= 1.66D-04
 ErrMax= 1.66D-04  0.00D+00 EMaxC= 1.00D+00 BMatC= 5.25D-06 BMatP= 2.56D-05
 IDIUse=1 WtCom= 1.00D+00 WtEn= 0.00D+00
 Coeff-Com:  0.371D-03 0.156D-03 0.837D-02-0.515D-01-0.917D-01-0.447D-01
 Coeff-Com:  0.118D+01
 Coeff:      0.371D-03 0.156D-03 0.837D-02-0.515D-01-0.917D-01-0.447D-01
 Coeff:      0.118D+01
 Gap=     0.151 Goal=   None    Shift=    0.000
 Gap=     0.151 Goal=   None    Shift=    0.000
 RMSDP=6.91D-05 MaxDP=8.62D-04 DE=-2.42D-05 OVMax= 4.37D-03

 Cycle   8  Pass 1  IDiag  1:
 E= -474.405253110614     Delta-E=       -0.000014937122 Rises=F Damp=F
 DIIS: error= 1.19D-04 at cycle   8 NSaved=   8.
 NSaved= 8 IEnMin= 8 EnMin= -474.405253110614     IErMin= 8 ErrMin= 1.19D-04
 ErrMax= 1.19D-04  0.00D+00 EMaxC= 1.00D+00 BMatC= 2.16D-06 BMatP= 5.25D-06
 IDIUse=1 WtCom= 1.00D+00 WtEn= 0.00D+00
 Coeff-Com: -0.125D-02 0.117D-03 0.623D-02 0.314D-01 0.163D-01-0.196D+00
 Coeff-Com: -0.547D+00 0.169D+01
 Coeff:     -0.125D-02 0.117D-03 0.623D-02 0.314D-01 0.163D-01-0.196D+00
 Coeff:     -0.547D+00 0.169D+01
 Gap=     0.151 Goal=   None    Shift=    0.000
 Gap=     0.151 Goal=   None    Shift=    0.000
 RMSDP=7.72D-05 MaxDP=1.06D-03 DE=-1.49D-05 OVMax= 5.14D-03

 Cycle   9  Pass 1  IDiag  1:
 E= -474.405264893036     Delta-E=       -0.000011782422 Rises=F Damp=F
 DIIS: error= 8.62D-05 at cycle   9 NSaved=   9.
 NSaved= 9 IEnMin= 9 EnMin= -474.405264893036     IErMin= 9 ErrMin= 8.62D-05
 ErrMax= 8.62D-05  0.00D+00 EMaxC= 1.00D+00 BMatC= 1.03D-06 BMatP= 2.16D-06
 IDIUse=1 WtCom= 1.00D+00 WtEn= 0.00D+00
 Coeff-Com:  0.862D-03-0.229D-03-0.129D-01 0.179D-01 0.399D-01 0.177D+00
 Coeff-Com: -0.570D+00-0.854D+00 0.220D+01
 Coeff:      0.862D-03-0.229D-03-0.129D-01 0.179D-01 0.399D-01 0.177D+00
 Coeff:     -0.570D+00-0.854D+00 0.220D+01
 Gap=     0.151 Goal=   None    Shift=    0.000
 Gap=     0.151 Goal=   None    Shift=    0.000
 RMSDP=1.10D-04 MaxDP=1.54D-03 DE=-1.18D-05 OVMax= 7.44D-03

 Cycle  10  Pass 1  IDiag  1:
 E= -474.405273861629     Delta-E=       -0.000008968593 Rises=F Damp=F
 DIIS: error= 2.31D-05 at cycle  10 NSaved=  10.
 NSaved=10 IEnMin=10 EnMin= -474.405273861629     IErMin=10 ErrMin= 2.31D-05
 ErrMax= 2.31D-05  0.00D+00 EMaxC= 1.00D+00 BMatC= 1.22D-07 BMatP= 1.03D-06
 IDIUse=1 WtCom= 1.00D+00 WtEn= 0.00D+00
 Coeff-Com:  0.799D-04-0.107D-04-0.303D-03-0.583D-02-0.130D-02 0.420D-01
 Coeff-Com:  0.174D+00-0.378D+00-0.234D+00 0.140D+01
 Coeff:      0.799D-04-0.107D-04-0.303D-03-0.583D-02-0.130D-02 0.420D-01
 Coeff:      0.174D+00-0.378D+00-0.234D+00 0.140D+01
 Gap=     0.150 Goal=   None    Shift=    0.000
 Gap=     0.150 Goal=   None    Shift=    0.000
 RMSDP=4.33D-05 MaxDP=6.32D-04 DE=-8.97D-06 OVMax= 3.02D-03

 Cycle  11  Pass 1  IDiag  1:
 E= -474.405274872322     Delta-E=       -0.000001010693 Rises=F Damp=F
 DIIS: error= 5.98D-06 at cycle  11 NSaved=  11.
 NSaved=11 IEnMin=11 EnMin= -474.405274872322     IErMin=11 ErrMin= 5.98D-06
 ErrMax= 5.98D-06  0.00D+00 EMaxC= 1.00D+00 BMatC= 7.71D-09 BMatP= 1.22D-07
 IDIUse=1 WtCom= 1.00D+00 WtEn= 0.00D+00
 Coeff-Com: -0.325D-04 0.147D-04 0.639D-03-0.164D-02-0.233D-02-0.140D-01
 Coeff-Com:  0.369D-01 0.814D-01-0.181D+00-0.408D-01 0.112D+01
 Coeff:     -0.325D-04 0.147D-04 0.639D-03-0.164D-02-0.233D-02-0.140D-01
 Coeff:      0.369D-01 0.814D-01-0.181D+00-0.408D-01 0.112D+01
 Gap=     0.150 Goal=   None    Shift=    0.000
 Gap=     0.150 Goal=   None    Shift=    0.000
 RMSDP=6.18D-06 MaxDP=9.85D-05 DE=-1.01D-06 OVMax= 4.78D-04

 Cycle  12  Pass 1  IDiag  1:
 E= -474.405274901173     Delta-E=       -0.000000028852 Rises=F Damp=F
 DIIS: error= 2.85D-06 at cycle  12 NSaved=  12.
 NSaved=12 IEnMin=12 EnMin= -474.405274901173     IErMin=12 ErrMin= 2.85D-06
 ErrMax= 2.85D-06  0.00D+00 EMaxC= 1.00D+00 BMatC= 1.74D-09 BMatP= 7.71D-09
 IDIUse=1 WtCom= 1.00D+00 WtEn= 0.00D+00
[...]
 Large coefficients: NSaved= 16 BigCof=    0.00 CofMax=   10.00 Det=-9.28D-16
 Inversion failed.  Reducing to 15 matrices.
 Coeff-Com: -0.502D-04-0.168D-02 0.788D-02 0.174D-01-0.113D-01-0.485D-02
 Coeff-Com:  0.780D-01-0.181D+00 0.867D-01 0.151D+00 0.148D+00-0.184D+00
 Coeff-Com: -0.203D+00 0.732D-01 0.102D+01
 Coeff:     -0.502D-04-0.168D-02 0.788D-02 0.174D-01-0.113D-01-0.485D-02
 Coeff:      0.780D-01-0.181D+00 0.867D-01 0.151D+00 0.148D+00-0.184D+00
 Coeff:     -0.203D+00 0.732D-01 0.102D+01
 Gap=     0.150 Goal=   None    Shift=    0.000
 Gap=     0.150 Goal=   None    Shift=    0.000
 RMSDP=1.30D-09 MaxDP=1.96D-08 DE= 1.02D-12 OVMax= 8.93D-08

 SCF Done:  E(UM062X) =  -474.405385074     A.U. after   22 cycles
            NFock= 22  Conv=0.13D-08     -V/T= 2.0019
 <Sx>= 0.0000 <Sy>= 0.0000 <Sz>= 0.0000 <S**2>=-0.0000 S=-0.0000
 <L.S>=  0.00000000000    
 KE= 4.735209027367D+02 PE=-1.201609226160D+03 EE= 2.165023072147D+02
 Annihilation of the first spin contaminant:
 S**2 before annihilation    -0.0000,   after     0.0000
 Leave Link  502 at Thu May 15 13:06:23 2025, MaxMem=   536870912 cpu:              53.5 elap:               6.9
 (Enter /home/szhao/Apps/g16/l701.exe)
 ... and contract with generalized density number  0.
 Compute integral first derivatives.
 Leave Link  701 at Thu May 15 13:06:23 2025, MaxMem=   536870912 cpu:               0.7 elap:               0.1
 (Enter /home/szhao/Apps/g16/l702.exe)
 L702 exits ... SP integral derivatives will be done elsewhere.
 Leave Link  702 at Thu May 15 13:06:23 2025, MaxMem=   536870912 cpu:               0.2 elap:               0.0
 (Enter /home/szhao/Apps/g16/l703.exe)
 Integral derivatives from FoFJK, PRISM(SPDF).
 Compute integral first derivatives, UseDBF=F ICtDFT=           0.
 Calling FoFJK, ICntrl=      2127 FMM=F ISym2X=0 I1Cent= 0 IOpClX= 1 NMat=1 NMatS=1 NMatT=0.
 FoFJK:  IHMeth= 1 ICntrl=    2127 DoSepK=F KAlg= 0 I1Cent=           0 FoldK=F
 IRaf=         0 NMat=       1 IRICut=       1 DoRegI=T DoRafI=F ISym2E= 0 IDoP0=0 IntGTp=1.
 FoFCou: FMM=F IPFlag=           0 FMFlag=      100000 FMFlg1=         800
         NFxFlg=           0 DoJE=F BraDBF=F KetDBF=F FulRan=T
         wScrn=  0.000000 ICntrl=      2127 IOpCl=  1 I1Cent=           0 NGrid=           0
         NMat0=    1 NMatS0=      1 NMatT0=    0 NMatD0=    1 NMtDS0=    0 NMtDT0=    0
 Symmetry not used in FoFCou.
 Leave Link  703 at Thu May 15 13:06:23 2025, MaxMem=   536870912 cpu:               4.2 elap:               0.6
 (Enter /home/szhao/Apps/g16/l716.exe)
 Dipole        = 8.32166292D-01-4.44575017D-01 1.59950292D-01
 -------------------------------------------------------------------
 Center     Atomic                   Forces (Hartrees/Bohr)
 Number     Number              X              Y              Z
 -------------------------------------------------------------------
      1        8          -0.000000000   -0.000000000   -0.000000000
      2       16          -0.000000000   -0.000000000   -0.000000000
      3        1          -0.000005125   -0.000017961    0.000007660
      4        1           0.000006551    0.000019579   -0.000005921
 -------------------------------------------------------------------
 Cartesian Forces:  Max     0.000019579 RMS     0.000008509
 Leave Link  716 at Thu May 15 13:06:23 2025, MaxMem=   536870912 cpu:               0.2 elap:               0.0
 (Enter /home/szhao/Apps/g16/l103.exe)

 GradGradGradGradGradGradGradGradGradGradGradGradGradGradGradGradGradGrad
 Berny optimization.
 Using GEDIIS/GDIIS optimizer.
 FormGI is forming the generalized inverse of G from B-inverse, IUseBI=4.
 Internal  Forces:  Max     0.000017243 RMS     0.000008213
 Search for a local minimum.
 Step number   9 out of a maximum of   21
 All quantities printed in internal units (Hartrees-Bohrs-Radians)
 RMS Force = .10701D-04 SwitMx=.10000D-02 MixMth= 2
 Mixed Optimization -- En-DIIS/RFO-DIIS
 Swapping is turned off.
 Update second derivatives using D2CorX and points    3    4    5    6    7
                                                      8    9
 DE= -1.39D-07 DEPred=-4.47D-08 R= 3.12D+00
 Trust test= 3.12D+00 RLast= 1.01D-02 DXMaxT set to 5.71D-01
 The second derivative matrix:
                          X1        Y1        Z1        X2        Y2
           X1           0.51800
           Y1          -0.00015   0.57960
           Z1          -0.00096   0.01232   0.50293
           X2          -0.00162   0.00691   0.00306   0.50808
           Y2           0.00583  -0.00050  -0.00022  -0.00056   0.50196
           Z2           0.00371  -0.00715  -0.00161  -0.00149   0.00126
           R1          -0.00117  -0.20927  -0.02906  -0.01960   0.00163
           R2           0.00390  -0.00512   0.00331   0.00076   0.00451
           A1          -0.02924  -0.00164   0.00056   0.00169  -0.00955
           A2          -0.00786   0.00074   0.00657   0.02057  -0.00234
           D1           0.00032  -0.00179  -0.00113  -0.00069  -0.00007
                          Z2        R1        R2        A1        A2
           Z2           0.50187
           R1           0.01551   0.58711
           R2           0.00889  -0.00175   0.26275
           A1          -0.00526   0.00145  -0.00142   0.04853
           A2          -0.00397   0.00380  -0.00258   0.00923   0.05932
           D1           0.00074  -0.00172  -0.00012   0.00054  -0.00315
                          D1
           D1           0.00127
 ITU=  0  0  1  1  0  1  1  1  0
     Eigenvalues ---    0.00107   0.04333   0.06464   0.26279   0.58716
     Eigenvalues --- 1000.000001000.000001000.000001000.000001000.00000
     Eigenvalues --- 1000.00000
 En-DIIS/RFO-DIIS/Sim-DIIS IScMMF=       -3 using points:     9    8    7    6    5    4
 RFO step:  Lambda=-3.70469751D-09.
 NNeg= 0 NGDIIS= 6 SimSw=  2.50D-01 Rises=F DC= -1.39D-07 SmlDif=  1.00D-05
 NRisDI= 0 DoIntr=F SqrtH=F CThrHd= 10.0 CDAdj=  3.0
 RMS Error=  0.9234931086D-04 NUsed= 6 OKEnD=F EnDIS=F
 InvSVX:  RCond= 1.26D-09 Info=           0 Equed=N FErr=  1.54D-11 BErr=  1.05D-16
 DIIS inversion failure, remove point   6.
 InvSVX:  RCond= 2.27D-09 Info=           0 Equed=N FErr=  1.18D-11 BErr=  6.58D-17
 DIIS inversion failure, remove point   5.
 InvSVX:  RCond= 1.51D-08 Info=           0 Equed=N FErr=  3.37D-12 BErr=  1.08D-16
 DIIS inversion failure, remove point   4.
 InvSVX:  RCond= 1.20D-06 Info=           0 Equed=N FErr=  1.39D-15 BErr=  7.63D-17
 RFO-DIIS uses    3 points instead of    6
 DidBck=F Rises=F RFO-DIIS coefs:    0.98859    0.01803   -0.00661    0.00000    0.00000
                  RFO-DIIS coefs:    0.00000
 Iteration  1 RMS(Cart)=  0.00021980 RMS(Int)=  0.00000003
 Iteration  2 RMS(Cart)=  0.00000003 RMS(Int)=  0.00000000
 ITry= 1 IFail=0 DXMaxC= 6.65D-04 DCOld= 1.00D+10 DXMaxT= 5.71D-01 DXLimC= 3.00D+00 Rises=F
 Variable       Old X    -DE/DX   Delta X   Delta X   Delta X     New X
                                 (Linear)    (Quad)   (Total)
    X1       -2.86179  -0.00001   0.00000   0.00000   0.00000  -2.86179
    Y1        0.00000  -0.00001   0.00000   0.00000   0.00000   0.00000
    Z1        0.00000  -0.00000   0.00000   0.00000   0.00000   0.00000
    X2        2.86179   0.00001   0.00000   0.00000   0.00000   2.86179
    Y2        0.00000  -0.00000   0.00000   0.00000   0.00000   0.00000
    Z2        0.00000  -0.00000   0.00000   0.00000   0.00000   0.00000
    R1        1.83324   0.00001   0.00000   0.00002   0.00002   1.83326
    R2        2.54430   0.00000   0.00000   0.00001   0.00001   2.54431
    A1        1.56064   0.00001   0.00003   0.00012   0.00015   1.56079
    A2        1.43691   0.00002  -0.00000   0.00027   0.00026   1.43717
    D1       -2.37509  -0.00000   0.00009  -0.00006   0.00003  -2.37506
         Item               Value     Threshold  Converged?
 Maximum Force            0.000017     0.000450     YES
 RMS     Force            0.000011     0.000300     YES
 Maximum Displacement     0.000665     0.001800     YES
 RMS     Displacement     0.000220     0.001200     YES
 Predicted change in Energy=-3.155304D-09
 Optimization completed.
    -- Stationary point found.
                           ----------------------------
                           !   Optimized Parameters   !
                           ! (Angstroms and Degrees)  !
 --------------------------                            --------------------------
 ! Name  Definition              Value          Derivative Info.                !
 --------------------------------------------------------------------------------
 ! X1    R(1,-1)                -1.5144         -DE/DX =    0.0                 !
 ! Y1    R(1,-2)                 0.0            -DE/DX =    0.0                 !
 ! Z1    R(1,-3)                 0.0            -DE/DX =    0.0                 !
 ! X2    R(2,-1)                 1.5144         -DE/DX =    0.0                 !
 ! Y2    R(2,-2)                 0.0            -DE/DX =    0.0                 !
 ! Z2    R(2,-3)                 0.0            -DE/DX =    0.0                 !
 ! R1    R(1,3)                  0.9701         -DE/DX =    0.0                 !
 ! R2    R(2,4)                  1.3464         -DE/DX =    0.0                 !
 ! A1    A(2,1,3)               89.4182         -DE/DX =    0.0                 !
 ! A2    A(1,2,4)               82.3287         -DE/DX =    0.0                 !
 ! D1    D(3,1,2,4)           -136.0829         -DE/DX =    0.0                 !
 --------------------------------------------------------------------------------
 Lowest energy point so far.  Saving SCF results.
 Largest change from initial coordinates is atom    4       0.571 Angstoms.
 GradGradGradGradGradGradGradGradGradGradGradGradGradGradGradGradGradGrad

 Leave Link  103 at Thu May 15 13:06:23 2025, MaxMem=   536870912 cpu:               0.0 elap:               0.0
 (Enter /home/szhao/Apps/g16/l202.exe)
                          Input orientation:                          
 ---------------------------------------------------------------------
 Center     Atomic      Atomic             Coordinates (Angstroms)
 Number     Number       Type             X           Y           Z
 ---------------------------------------------------------------------
      1          8           0       -1.514392    0.000000    0.000000
      2         16           0        1.514392    0.000000    0.000000
      3          1           0       -1.504541   -0.891127   -0.383289
      4          1           0        1.334664    0.517280    1.229989
 ---------------------------------------------------------------------
                    Distance matrix (angstroms):
                    1          2          3          4
     1  O    0.000000
     2  S    3.028783   0.000000
     3  H    0.970110   3.170957   0.000000
     4  H    3.146040   1.346386   3.556313   0.000000
 Symmetry turned off by external request.
 Stoichiometry    H2OS
 Framework group  C1[X(H2OS)]
 Deg. of freedom     6
 Full point group                 C1      NOp   1
 Rotational constants (GHZ):         191.2382419           4.9093941           4.8159629
 Leave Link  202 at Thu May 15 13:06:23 2025, MaxMem=   536870912 cpu:               0.0 elap:               0.0
 (Enter /home/szhao/Apps/g16/l601.exe)
 Copying SCF densities to generalized density rwf, IOpCl= 1 IROHF=0.

 **********************************************************************

            Population analysis using the SCF density.

 **********************************************************************

 Alpha  occ. eigenvalues --  -89.97831 -19.67485  -8.33929  -6.26148  -6.25774
 Alpha  occ. eigenvalues --   -6.25212  -1.08582  -0.83624  -0.52639  -0.49477
 Alpha  occ. eigenvalues --   -0.39867  -0.36008  -0.35441
 Alpha virt. eigenvalues --   -0.20430   0.01630   0.03954   0.04668   0.05532
 Alpha virt. eigenvalues --    0.07151   0.14098   0.19379   0.19951   0.21267
 Alpha virt. eigenvalues --    0.25944   0.30985   0.33986   0.35137   0.39472
 Alpha virt. eigenvalues --    0.53493   0.59406   0.70643   0.71831   0.79165
 Alpha virt. eigenvalues --    0.82182   0.97060   1.04202   1.08378   1.08833
 Alpha virt. eigenvalues --    1.37548   1.38759   1.39877   1.46258   1.48890
 Alpha virt. eigenvalues --    1.64420   1.66444   1.68370   2.06217   2.09253
 Alpha virt. eigenvalues --    2.48649   2.53836   2.88609   2.88945   3.16655
 Alpha virt. eigenvalues --    3.18740   3.84402   5.03786   5.04675   5.51559
 Alpha virt. eigenvalues --    7.82242  17.40690  17.42427  17.45353  49.87421
 Alpha virt. eigenvalues --  189.08249
  Beta  occ. eigenvalues --  -89.97831 -19.67485  -8.33929  -6.26148  -6.25774
  Beta  occ. eigenvalues --   -6.25212  -1.08582  -0.83624  -0.52639  -0.49477
  Beta  occ. eigenvalues --   -0.39867  -0.36008  -0.35441
  Beta virt. eigenvalues --   -0.20430   0.01630   0.03954   0.04668   0.05532
  Beta virt. eigenvalues --    0.07151   0.14098   0.19379   0.19951   0.21267
  Beta virt. eigenvalues --    0.25944   0.30985   0.33986   0.35137   0.39472
  Beta virt. eigenvalues --    0.53493   0.59406   0.70643   0.71831   0.79165
  Beta virt. eigenvalues --    0.82182   0.97060   1.04202   1.08378   1.08833
  Beta virt. eigenvalues --    1.37548   1.38759   1.39877   1.46258   1.48890
  Beta virt. eigenvalues --    1.64420   1.66444   1.68370   2.06217   2.09253
  Beta virt. eigenvalues --    2.48649   2.53836   2.88609   2.88945   3.16655
  Beta virt. eigenvalues --    3.18740   3.84402   5.03786   5.04675   5.51559
  Beta virt. eigenvalues --    7.82242  17.40690  17.42427  17.45353  49.87421
  Beta virt. eigenvalues --  189.08249
          Condensed to atoms (all electrons):
               1          2          3          4
     1  O    8.061294   0.100149   0.254070  -0.003508
     2  S    0.100149  15.578393   0.001675   0.267783
     3  H    0.254070   0.001675   0.496196   0.000055
     4  H   -0.003508   0.267783   0.000055   0.623668
          Atomic-Atomic Spin Densities.
               1          2          3          4
     1  O    0.000000  -0.000000   0.000000  -0.000000
     2  S   -0.000000  -0.000000   0.000000  -0.000000
     3  H    0.000000   0.000000  -0.000000   0.000000
     4  H   -0.000000  -0.000000   0.000000   0.000000
 Mulliken charges and spin densities:
               1          2
     1  O   -0.412004   0.000000
     2  S    0.051999  -0.000000
     3  H    0.248003   0.000000
     4  H    0.112002   0.000000
 Sum of Mulliken charges =  -0.00000   0.00000
 Mulliken charges and spin densities with hydrogens summed into heavy atoms:
               1          2
     1  O   -0.164001   0.000000
     2  S    0.164001  -0.000000
 Electronic spatial extent (au):  <R**2>=            263.0396
 Charge=             -0.0000 electrons
 Dipole moment (field-independent basis, Debye):
    X=              2.1152    Y=             -1.1300    Z=              0.4066  Tot=              2.4323
 Quadrupole moment (field-independent basis, Debye-Ang):
   XX=            -18.2020   YY=            -19.9425   ZZ=            -18.7782
   XY=              3.2915   XZ=              2.7643   YZ=              2.3882
 Traceless Quadrupole moment (field-independent basis, Debye-Ang):
   XX=              0.7722   YY=             -0.9683   ZZ=              0.1960
   XY=              3.2915   XZ=              2.7643   YZ=              2.3882
 Octapole moment (field-independent basis, Debye-Ang**2):
  XXX=            -23.4795  YYY=             -0.8385  ZZZ=             -0.1814  XYY=            -14.6924
  XXY=             -2.8977  XXZ=              0.3833  XZZ=             -7.8523  YZZ=              0.5263
  YYZ=             -0.8516  XYZ=              0.7441
 Hexadecapole moment (field-independent basis, Debye-Ang**3):
 XXXX=           -270.8938 YYYY=            -29.2219 ZZZZ=            -27.1043 XXXY=              4.8518
 XXXZ=              3.3217 YYYX=             -0.3313 YYYZ=              0.6004 ZZZX=             -1.1460
 ZZZY=              1.1237 XXYY=            -53.5455 XXZZ=            -51.2850 YYZZ=             -9.3607
 XXYZ=              5.1014 YYXZ=              0.1075 ZZXY=              0.3195
 N-N= 3.718063113510D+01 E-N=-1.201609226250D+03  KE= 4.735209027367D+02
                          Isotropic Fermi Contact Couplings
        Atom                 a.u.       MegaHertz       Gauss      10(-4) cm-1
     1  O(17)              0.00000      -0.00000      -0.00000      -0.00000
     2  S(33)             -0.00000      -0.00000      -0.00000      -0.00000
     3  H(1)              -0.00000      -0.00000      -0.00000      -0.00000
     4  H(1)               0.00000       0.00000       0.00000       0.00000
 --------------------------------------------------------
       Center         ----  Spin Dipole Couplings  ----
                      3XX-RR        3YY-RR        3ZZ-RR
 --------------------------------------------------------
     1   Atom        0.000000     -0.000000     -0.000000
     2   Atom       -0.000000     -0.000000      0.000000
     3   Atom        0.000000     -0.000000      0.000000
     4   Atom       -0.000000     -0.000000      0.000000
 --------------------------------------------------------
                        XY            XZ            YZ
 --------------------------------------------------------
     1   Atom       -0.000000      0.000000      0.000000
     2   Atom       -0.000000      0.000000     -0.000000
     3   Atom       -0.000000      0.000000      0.000000
     4   Atom       -0.000000      0.000000     -0.000000
 --------------------------------------------------------


 ---------------------------------------------------------------------------------
              Anisotropic Spin Dipole Couplings in Principal Axis System
 ---------------------------------------------------------------------------------

       Atom             a.u.   MegaHertz   Gauss  10(-4) cm-1        Axes

              Baa    -0.0000     0.000     0.000     0.000 -0.6873 -0.2025  0.6976
     1 O(17)  Bbb    -0.0000     0.000     0.000     0.000 -0.0137  0.9638  0.2663
              Bcc     0.0000    -0.000    -0.000    -0.000  0.7262 -0.1734  0.6652
 
              Baa    -0.0000    -0.000    -0.000    -0.000  0.7136  0.6862 -0.1406
     2 S(33)  Bbb     0.0000     0.000     0.000     0.000 -0.1589  0.3541  0.9216
              Bcc     0.0000     0.000     0.000     0.000  0.6823 -0.6354  0.3617
 
              Baa    -0.0000    -0.000    -0.000    -0.000  0.6616  0.5334 -0.5271
     3 H(1)   Bbb     0.0000     0.000     0.000     0.000 -0.1306  0.7741  0.6194
              Bcc     0.0000     0.000     0.000     0.000  0.7384 -0.3410  0.5819
 
              Baa    -0.0000    -0.000    -0.000    -0.000  0.7024  0.7055 -0.0943
     4 H(1)   Bbb    -0.0000    -0.000    -0.000    -0.000 -0.3266  0.4373  0.8379
              Bcc     0.0000     0.000     0.000     0.000  0.6324 -0.5578  0.5376
 

 ---------------------------------------------------------------------------------

 No NMR shielding tensors so no spin-rotation constants.
 Leave Link  601 at Thu May 15 13:06:24 2025, MaxMem=   536870912 cpu:               1.2 elap:               0.2
 (Enter /home/szhao/Apps/g16/l9999.exe)
 1\1\GINC-NODE01\FOpt\UM062X\6-311+G(d,p)\H2O1S1\SZHAO\15-May-2025\0\\#
 p opt UM062X/6-311+G** nosymm int=superfine\\Title Card Required\\0,1\
 O,-1.51439168,0.,0.\S,1.51439168,0.,0.\H,-1.5045405271,-0.8911267378,-
 0.3832889952\H,1.3346639854,0.5172802004,1.2299891155\\Version=ES64L-G
 16RevA.03\HF=-474.4053851\S2=0.\S2-1=0.\S2A=0.\RMSD=1.305e-09\RMSF=8.5
 09e-06\Dipole=0.8321663,-0.444575,0.1599503\Quadrupole=0.5741385,-0.71
 98865,0.145748,2.4471299,2.0552153,1.7755719\PG=C01 [X(H2O1S1)]\\@


 HE WHO LAUGHS LAST PROBABLY DIDN'T GET THE JOKE.
 Job cpu time:       0 days  0 hours  7 minutes 50.8 seconds.
 Elapsed time:       0 days  0 hours  1 minutes  0.5 seconds.
 File lengths (MBytes):  RWF=     10 Int=      0 D2E=      0 Chk=      2 Scr=      1
 Normal termination of Gaussian 16 at Thu May 15 13:06:24 2025.
