 Entering Gaussian System, Link 0=g16
 Initial command:
 /home/szhao/Apps/g16/l1.exe "/home/szhao/tmp/Gau-184376.inp" -scrdir="/home/szhao/tmp/"
 Default is to use a total of  16 processors:
                               16 via shared-memory
                                1 via Linda
 Entering Link 1 = /home/szhao/Apps/g16/l1.exe PID=    184377.
  
 Copyright (c) 1988,1990,1992,1993,1995,1998,2003,2009,2016,
            Gaussian, Inc.  All Rights Reserved.
  
 This is part of the Gaussian(R) 16 program.  It is based on
 the Gaussian(R) 09 system (copyright 2009, Gaussian, Inc.),
 the Gaussian(R) 03 system (copyright 2003, Gaussian, Inc.),
 the Gaussian(R) 98 system (copyright 1998, Gaussian, Inc.),
 the Gaussian(R) 94 system (copyright 1995, Gaussian, Inc.),
 the Gaussian 92(TM) system (copyright 1992, Gaussian, Inc.),
 the Gaussian 90(TM) system (copyright 1990, Gaussian, Inc.),
 the Gaussian 88(TM) system (copyright 1988, Gaussian, Inc.),
 the Gaussian 86(TM) system (copyright 1986, Carnegie Mellon
 University), and the Gaussian 82(TM) system (copyright 1983,
 Carnegie Mellon University). Gaussian is a federally registered
 trademark of Gaussian, Inc.
  
 This software contains proprietary and confidential information,
 including trade secrets, belonging to Gaussian, Inc.
  
 This software is provided under written license and may be
 used, copied, transmitted, or stored only in accord with that
 written license.
  
 The following legend is applicable only to US Government
 contracts under FAR:
  
                    RESTRICTED RIGHTS LEGEND
  
 Use, reproduction and disclosure by the US Government is
 subject to restrictions as set forth in subparagraphs (a)
 and (c) of the Commercial Computer Software - Restricted
 Rights clause in FAR 52.227-19.
  
 Gaussian, Inc.
 340 Quinnipiac St., Bldg. 40, Wallingford CT 06492
  
  
 ---------------------------------------------------------------
 Warning -- This program may not be used in any manner that
 competes with the business of Gaussian, Inc. or will provide
 assistance to any competitor of Gaussian, Inc.  The licensee
 of this program is prohibited from giving any competitor of
 Gaussian, Inc. access to this program.  By using this program,
 the user acknowledges that Gaussian, Inc. is engaged in the
 business of creating and licensing software in the field of
 computational chemistry and represents and warrants to the
 licensee that it is not a competitor of Gaussian, Inc. and that
 it will not use this program in any manner prohibited above.
 ---------------------------------------------------------------
  

 Cite this work as:
 Gaussian 16, Revision A.03,
 M. J. Frisch, G. W. Trucks, H. B. Schlegel, G. E. Scuseria, 
 M. A. Robb, J. R. Cheeseman, G. Scalmani, V. Barone, 
 G. A. Petersson, H. Nakatsuji, X. Li, M. Caricato, A. V. Marenich, 
 J. Bloino, B. G. Janesko, R. Gomperts, B. Mennucci, H. P. Hratchian, 
 J. V. Ortiz, A. F. Izmaylov, J. L. Sonnenberg, D. Williams-Young, 
 F. Ding, F. Lipparini, F. Egidi, J. Goings, B. Peng, A. Petrone, 
 T. Henderson, D. Ranasinghe, V. G. Zakrzewski, J. Gao, N. Rega, 
 G. Zheng, W. Liang, M. Hada, M. Ehara, K. Toyota, R. Fukuda, 
 J. Hasegawa, M. Ishida, T. Nakajima, Y. Honda, O. Kitao, H. Nakai, 
 T. Vreven, K. Throssell, J. A. Montgomery, Jr., J. E. Peralta, 
 F. Ogliaro, M. J. Bearpark, J. J. Heyd, E. N. Brothers, K. N. Kudin, 
 V. N. Staroverov, T. A. Keith, R. Kobayashi, J. Normand, 
 K. Raghavachari, A. P. Rendell, J. C. Burant, S. S. Iyengar, 
 J. Tomasi, M. Cossi, J. M. Millam, M. Klene, C. Adamo, R. Cammi, 
 J. W. Ochterski, R. L. Martin, K. Morokuma, O. Farkas, 
 J. B. Foresman, and D. J. Fox, Gaussian, Inc., Wallingford CT, 2016.
 
 ******************************************
 Gaussian 16:  ES64L-G16RevA.03 25-Dec-2016
                21-Apr-2025 
 ******************************************
 %chk=opt.chk
 %mem=4GB
 %nprocshared=8
 Will use up to    8 processors via shared memory.
 --------------------------------------------
 #p opt UM062X/6-311+G** nosymm int=superfine
 --------------------------------------------
 1/18=20,19=15,26=5,38=1/1,3;
 2/9=110,12=2,15=1,17=6,18=5,40=1/2;
 3/5=4,6=6,7=111,11=2,25=1,30=1,71=1,74=-55,75=-7,116=2/1,2,3;
 4//1;
 5/5=2,38=5/2;
 6/7=2,8=2,9=2,10=2,28=1/1;
 7/30=1/1,2,3,16;
 1/18=20,19=15,26=5/3(2);
 2/9=110,15=1/2;
 99//99;
 2/9=110,15=1/2;
 3/5=4,6=6,7=111,11=2,25=1,30=1,71=1,74=-55,75=-7,116=2/1,2,3;
 4/5=5,16=3,69=1/1;
 5/5=2,38=5/2;
 7/30=1/1,2,3,16;
 1/18=20,19=15,26=5/3(-5);
 2/9=110,15=1/2;
 6/7=2,8=2,9=2,10=2,19=2,28=1/1;
 99/9=1/99;
 Leave Link    1 at Mon Apr 21 18:39:29 2025, MaxMem=   536870912 cpu:               1.7 elap:               0.2
 (Enter /home/szhao/Apps/g16/l101.exe)
 -------------------
 Title Card Required
 -------------------
 Symbolic Z-matrix:
 Charge =  0 Multiplicity = 1
 C                    -1   -1.77239   0.        0. 
 N                    -1    1.77239   0.        0. 
 H                    0    -2.84004   0.        0. 
 
 Add virtual bond connecting atoms N2         and C1         Dist= 6.70D+00.
 ITRead=  2  2  0
 MicOpt= -2 -2 -1
 NAtoms=      3 NQM=        1 NQMF=       2 NMMI=      0 NMMIF=      0
                NMic=       0 NMicF=      0.
                    Isotopes and Nuclear Properties:
 (Nuclear quadrupole moments (NQMom) in fm**2, nuclear magnetic moments (NMagM)
  in nuclear magnetons)

  Atom         1           2           3
 IAtWgt=          12          14           1
 AtmWgt=  12.0000000  14.0030740   1.0078250
 NucSpn=           0           2           1
 AtZEff=  -0.0000000  -0.0000000  -0.0000000
 NQMom=    0.0000000   2.0440000   0.0000000
 NMagM=    0.0000000   0.4037610   2.7928460
 AtZNuc=   6.0000000   7.0000000   1.0000000
 Leave Link  101 at Mon Apr 21 18:39:30 2025, MaxMem=   536870912 cpu:               3.2 elap:               0.4
 (Enter /home/szhao/Apps/g16/l103.exe)

 GradGradGradGradGradGradGradGradGradGradGradGradGradGradGradGradGradGrad
 Berny optimization.
 Initialization pass.
                           ----------------------------
                           !    Initial Parameters    !
                           ! (Angstroms and Degrees)  !
 --------------------------                            --------------------------
 ! Name  Definition              Value          Derivative Info.                !
 --------------------------------------------------------------------------------
 ! X1    R(1,-1)                -1.7724         Frozen                          !
 ! Y1    R(1,-2)                 0.0            Frozen                          !
 ! Z1    R(1,-3)                 0.0            Frozen                          !
 ! X2    R(2,-1)                 1.7724         Frozen                          !
 ! Y2    R(2,-2)                 0.0            Frozen                          !
 ! Z2    R(2,-3)                 0.0            Frozen                          !
 ! R1    R(1,3)                  1.0676         estimate D2E/DX2                !
 ! A1    L(2,1,3,-2,-1)        180.0            estimate D2E/DX2                !
 ! A2    L(2,1,3,-3,-2)        180.0            estimate D2E/DX2                !
 --------------------------------------------------------------------------------
 Trust Radius=3.00D-01 FncErr=1.00D-07 GrdErr=1.00D-07 EigMax=2.50D+02 EigMin=1.00D-04
 Number of steps in this run=     20 maximum allowed number of steps=    100.
 GradGradGradGradGradGradGradGradGradGradGradGradGradGradGradGradGradGrad

 Leave Link  103 at Mon Apr 21 18:39:31 2025, MaxMem=   536870912 cpu:               0.3 elap:               0.1
 (Enter /home/szhao/Apps/g16/l202.exe)
                          Input orientation:                          
 ---------------------------------------------------------------------
 Center     Atomic      Atomic             Coordinates (Angstroms)
 Number     Number       Type             X           Y           Z
 ---------------------------------------------------------------------
      1          6           0       -1.772395    0.000000    0.000000
      2          7           0        1.772395    0.000000    0.000000
      3          1           0       -2.840038    0.000000    0.000000
 ---------------------------------------------------------------------
                    Distance matrix (angstroms):
                    1          2          3
     1  C    0.000000
     2  N    3.544789   0.000000
     3  H    1.067643   4.612432   0.000000
 Symmetry turned off by external request.
 Stoichiometry    CHN
 Framework group  C*V[C*(HCN)]
 Deg. of freedom     2
 Full point group                 C*V     NOp   4
 Rotational constants (GHZ):           0.0000000           5.6280166           5.6280166
 Leave Link  202 at Mon Apr 21 18:39:31 2025, MaxMem=   536870912 cpu:               0.1 elap:               0.0
 (Enter /home/szhao/Apps/g16/l301.exe)
 Standard basis: 6-311+G(d,p) (5D, 7F)
 Ernie: Thresh=  0.10000D-02 Tol=  0.10000D-05 Strict=F.
    50 basis functions,    80 primitive gaussians,    52 cartesian basis functions
     7 alpha electrons        7 beta electrons
       nuclear repulsion energy        10.0468905933 Hartrees.
 IExCor= 4336 DFT=T Ex+Corr=M062X ExCW=0 ScaHFX=  0.540000
 ScaDFX=  1.000000  1.000000  1.000000  1.000000 ScalE2=  1.000000  1.000000
 IRadAn=      7 IRanWt=     -1 IRanGd=            0 ICorTp=0 IEmpDi=  4
 NAtoms=    3 NActive=    3 NUniq=    3 SFac= 1.00D+00 NAtFMM=   60 NAOKFM=F Big=F
 Integral buffers will be    131072 words long.
 Raffenetti 2 integral format.
 Two-electron integral symmetry is turned off.
 Leave Link  301 at Mon Apr 21 18:39:31 2025, MaxMem=   536870912 cpu:               1.0 elap:               0.2
 (Enter /home/szhao/Apps/g16/l302.exe)
 NPDir=0 NMtPBC=     1 NCelOv=     1 NCel=       1 NClECP=     1 NCelD=      1
         NCelK=      1 NCelE2=     1 NClLst=     1 CellRange=     0.0.
 One-electron integrals computed using PRISM.
 NBasis=    50 RedAO= T EigKep=  1.57D-02  NBF=    50
 NBsUse=    50 1.00D-06 EigRej= -1.00D+00 NBFU=    50
 Precomputing XC quadrature grid using
 IXCGrd= 4 IRadAn=           7 IRanWt=          -1 IRanGd=           0 AccXCQ= 0.00D+00.
 Generated NRdTot=       0 NPtTot=           0 NUsed=           0 NTot=          32
 NSgBfM=    52    52    52    52    52 MxSgAt=     3 MxSgA2=     3.
 Leave Link  302 at Mon Apr 21 18:39:32 2025, MaxMem=   536870912 cpu:               1.8 elap:               0.4
 (Enter /home/szhao/Apps/g16/l303.exe)
 DipDrv:  MaxL=1.
 Leave Link  303 at Mon Apr 21 18:39:32 2025, MaxMem=   536870912 cpu:               0.6 elap:               0.2
 (Enter /home/szhao/Apps/g16/l401.exe)
 ExpMin= 4.38D-02 ExpMax= 6.29D+03 ExpMxC= 9.49D+02 IAcc=3 IRadAn=         7 AccDes= 0.00D+00
 Harris functional with IExCor= 1009 and IRadAn=       7 diagonalized for initial guess.
 HarFok:  IExCor= 1009 AccDes= 0.00D+00 IRadAn=         7 IDoV= 1 UseB2=F ITyADJ=14
 ICtDFT=  3500011 ScaDFX=  1.000000  1.000000  1.000000  1.000000
 FoFCou: FMM=F IPFlag=           0 FMFlag=      100000 FMFlg1=           0
         NFxFlg=           0 DoJE=T BraDBF=F KetDBF=T FulRan=T
         wScrn=  0.000000 ICntrl=       500 IOpCl=  0 I1Cent=   200000004 NGrid=           0
         NMat0=    1 NMatS0=      1 NMatT0=    0 NMatD0=    1 NMtDS0=    0 NMtDT0=    0
 Symmetry not used in FoFCou.
 Harris En= -92.8356029989090    
 JPrj=0 DoOrth=F DoCkMO=F.
 Initial guess <Sx>= 0.0000 <Sy>= 0.0000 <Sz>= 0.0000 <S**2>=-0.0000 S=-0.0000
 Leave Link  401 at Mon Apr 21 18:39:33 2025, MaxMem=   536870912 cpu:               2.0 elap:               0.4
 (Enter /home/szhao/Apps/g16/l502.exe)
 Keep R1 and R2 ints in memory in canonical form, NReq=8667815.
 FoFCou: FMM=F IPFlag=           0 FMFlag=           0 FMFlg1=           0
         NFxFlg=           0 DoJE=F BraDBF=F KetDBF=F FulRan=T
         wScrn=  0.000000 ICntrl=       600 IOpCl=  0 I1Cent=           0 NGrid=           0
         NMat0=    1 NMatS0=   1275 NMatT0=    0 NMatD0=    1 NMtDS0=    0 NMtDT0=    0
 Symmetry not used in FoFCou.
 Two-electron integral symmetry not used.
 UHF open shell SCF:
 Using DIIS extrapolation, IDIIS=  1040.
 NGot=   536870912 LenX=   535237675 LenY=   535234530
 Requested convergence on RMS density matrix=1.00D-08 within 128 cycles.
 Requested convergence on MAX density matrix=1.00D-06.
 Requested convergence on             energy=1.00D-06.
 No special actions if energy rises.

 Cycle   1  Pass 1  IDiag  1:
 E= -92.6429396316409    
 DIIS: error= 2.75D-02 at cycle   1 NSaved=   1.
 NSaved= 1 IEnMin= 1 EnMin= -92.6429396316409     IErMin= 1 ErrMin= 2.75D-02
 ErrMax= 2.75D-02  0.00D+00 EMaxC= 1.00D-01 BMatC= 3.12D-01 BMatP= 3.12D-01
 IDIUse=3 WtCom= 7.25D-01 WtEn= 2.75D-01
 Coeff-Com:  0.100D+01
 Coeff-En:   0.100D+01
 Coeff:      0.100D+01
 Gap=     0.212 Goal=   None    Shift=    0.000
 Gap=     0.212 Goal=   None    Shift=    0.000
 GapD=    0.212 DampG=1.000 DampE=0.500 DampFc=0.5000 IDamp=-1.
 Damping current iteration by 5.00D-01
 RMSDP=1.96D-02 MaxDP=2.48D-01              OVMax= 9.86D-01

 Cycle   2  Pass 1  IDiag  1:
 E= -91.9789278335953     Delta-E=        0.664011798046 Rises=F Damp=T
 DIIS: error= 5.49D-02 at cycle   2 NSaved=   2.
 NSaved= 2 IEnMin= 1 EnMin= -92.6429396316409     IErMin= 1 ErrMin= 2.75D-02
 ErrMax= 5.49D-02  0.00D+00 EMaxC= 1.00D-01 BMatC= 9.32D-01 BMatP= 3.12D-01
 IDIUse=2 WtCom= 0.00D+00 WtEn= 1.00D+00
 Coeff-En:   0.720D+00 0.280D+00
 Coeff:      0.720D+00 0.280D+00
 Gap=     0.193 Goal=   None    Shift=    0.000
 Gap=     0.193 Goal=   None    Shift=    0.000
 RMSDP=8.20D-03 MaxDP=6.96D-02 DE= 6.64D-01 OVMax= 5.26D-01

 Cycle   3  Pass 1  IDiag  1:
 E= -91.2544397725403     Delta-E=        0.724488061055 Rises=F Damp=F
 DIIS: error= 2.28D-01 at cycle   3 NSaved=   3.
 NSaved= 3 IEnMin= 1 EnMin= -92.6429396316409     IErMin= 1 ErrMin= 2.75D-02
 ErrMax= 2.28D-01  0.00D+00 EMaxC= 1.00D-01 BMatC= 4.90D+00 BMatP= 3.12D-01
 IDIUse=2 WtCom= 0.00D+00 WtEn= 1.00D+00
 Coeff-En:   0.767D+00 0.000D+00 0.233D+00
 Coeff:      0.767D+00 0.000D+00 0.233D+00
 Gap=     0.023 Goal=   None    Shift=    0.000
 Gap=     0.023 Goal=   None    Shift=    0.000
 RMSDP=9.27D-03 MaxDP=9.62D-02 DE= 7.24D-01 OVMax= 5.01D-01

 Cycle   4  Pass 1  IDiag  1:
 E= -92.8201061087219     Delta-E=       -1.565666336182 Rises=F Damp=F
 DIIS: error= 1.31D-02 at cycle   4 NSaved=   4.
 NSaved= 4 IEnMin= 4 EnMin= -92.8201061087219     IErMin= 4 ErrMin= 1.31D-02
 ErrMax= 1.31D-02  0.00D+00 EMaxC= 1.00D-01 BMatC= 2.40D-02 BMatP= 3.12D-01
 IDIUse=3 WtCom= 8.69D-01 WtEn= 1.31D-01
 Coeff-Com:  0.802D-01-0.138D-01-0.460D-01 0.980D+00
 Coeff-En:   0.747D-01 0.000D+00 0.000D+00 0.925D+00
 Coeff:      0.795D-01-0.120D-01-0.400D-01 0.972D+00
 Gap=     0.075 Goal=   None    Shift=    0.000
 Gap=     0.075 Goal=   None    Shift=    0.000
 RMSDP=1.16D-03 MaxDP=1.12D-02 DE=-1.57D+00 OVMax= 5.51D-02

 Cycle   5  Pass 1  IDiag  1:
 E= -92.7931781905749     Delta-E=        0.026927918147 Rises=F Damp=F
 DIIS: error= 3.27D-02 at cycle   5 NSaved=   5.
 NSaved= 5 IEnMin= 4 EnMin= -92.8201061087219     IErMin= 4 ErrMin= 1.31D-02
 ErrMax= 3.27D-02  0.00D+00 EMaxC= 1.00D-01 BMatC= 1.08D-01 BMatP= 2.40D-02
 IDIUse=2 WtCom= 0.00D+00 WtEn= 1.00D+00
 Rare condition: small coef for last iteration:  0.000D+00
 Coeff-En:   0.258D+00 0.000D+00 0.000D+00 0.000D+00 0.742D+00
 Coeff:      0.258D+00 0.000D+00 0.000D+00 0.000D+00 0.742D+00
 Gap=     0.095 Goal=   None    Shift=    0.000
 Gap=     0.095 Goal=   None    Shift=    0.000
 RMSDP=4.24D-03 MaxDP=3.75D-02 DE= 2.69D-02 OVMax= 2.26D-01

 Cycle   6  Pass 1  IDiag  1:
 E= -92.7714547492998     Delta-E=        0.021723441275 Rises=F Damp=F
 DIIS: error= 2.83D-02 at cycle   6 NSaved=   6.
 NSaved= 6 IEnMin= 4 EnMin= -92.8201061087219     IErMin= 4 ErrMin= 1.31D-02
 ErrMax= 2.83D-02  0.00D+00 EMaxC= 1.00D-01 BMatC= 1.23D-01 BMatP= 2.40D-02
 IDIUse=2 WtCom= 0.00D+00 WtEn= 1.00D+00
 EnCoef did   100 forward-backward iterations
 Coeff-En:   0.000D+00 0.000D+00 0.000D+00 0.772D+00 0.193D-02 0.226D+00
 Coeff:      0.000D+00 0.000D+00 0.000D+00 0.772D+00 0.193D-02 0.226D+00
 Gap=     0.089 Goal=   None    Shift=    0.000
 Gap=     0.089 Goal=   None    Shift=    0.000
 RMSDP=1.69D-03 MaxDP=1.41D-02 DE= 2.17D-02 OVMax= 8.98D-02

 Cycle   7  Pass 1  IDiag  1:
 E= -92.8194378750084     Delta-E=       -0.047983125709 Rises=F Damp=F
 DIIS: error= 1.27D-02 at cycle   7 NSaved=   7.
 NSaved= 7 IEnMin= 4 EnMin= -92.8201061087219     IErMin= 7 ErrMin= 1.27D-02
 ErrMax= 1.27D-02  0.00D+00 EMaxC= 1.00D-01 BMatC= 2.01D-02 BMatP= 2.40D-02
 IDIUse=3 WtCom= 8.73D-01 WtEn= 1.27D-01
 EnCoef did   100 forward-backward iterations
 Coeff-Com: -0.657D-02 0.132D-01-0.224D-01-0.204D-02 0.395D+00 0.307D-01
 Coeff-Com:  0.592D+00
 Coeff-En:   0.000D+00 0.000D+00 0.000D+00 0.511D+00 0.120D-02 0.000D+00
 Coeff-En:   0.488D+00
 Coeff:     -0.574D-02 0.116D-01-0.195D-01 0.634D-01 0.345D+00 0.268D-01
 Coeff:      0.578D+00
 Gap=     0.083 Goal=   None    Shift=    0.000
 Gap=     0.083 Goal=   None    Shift=    0.000
 RMSDP=8.64D-04 MaxDP=7.56D-03 DE=-4.80D-02 OVMax= 4.57D-02

 Cycle   8  Pass 1  IDiag  1:
 E= -92.8270876911859     Delta-E=       -0.007649816178 Rises=F Damp=F
 DIIS: error= 3.09D-04 at cycle   8 NSaved=   8.
 NSaved= 8 IEnMin= 8 EnMin= -92.8270876911859     IErMin= 8 ErrMin= 3.09D-04
 ErrMax= 3.09D-04  0.00D+00 EMaxC= 1.00D-01 BMatC= 1.74D-05 BMatP= 2.01D-02
 IDIUse=3 WtCom= 9.97D-01 WtEn= 3.09D-03
 Coeff-Com: -0.410D-02 0.716D-02-0.973D-02-0.398D-01 0.119D+00 0.116D+00
 Coeff-Com: -0.162D+00 0.973D+00
 Coeff-En:   0.000D+00 0.000D+00 0.000D+00 0.000D+00 0.000D+00 0.000D+00
 Coeff-En:   0.000D+00 0.100D+01
 Coeff:     -0.409D-02 0.713D-02-0.970D-02-0.397D-01 0.119D+00 0.116D+00
 Coeff:     -0.162D+00 0.974D+00
 Gap=     0.083 Goal=   None    Shift=    0.000
 Gap=     0.083 Goal=   None    Shift=    0.000
 RMSDP=4.62D-05 MaxDP=6.77D-04 DE=-7.65D-03 OVMax= 2.07D-03

 Cycle   9  Pass 1  IDiag  1:
 E= -92.8270914617999     Delta-E=       -0.000003770614 Rises=F Damp=F
 DIIS: error= 2.75D-04 at cycle   9 NSaved=   9.
 NSaved= 9 IEnMin= 9 EnMin= -92.8270914617999     IErMin= 9 ErrMin= 2.75D-04
 ErrMax= 2.75D-04  0.00D+00 EMaxC= 1.00D-01 BMatC= 1.36D-05 BMatP= 1.74D-05
 IDIUse=3 WtCom= 9.97D-01 WtEn= 2.75D-03
 Coeff-Com: -0.372D-03 0.972D-03-0.980D-03-0.426D-02-0.205D-02 0.222D-01
 Coeff-Com: -0.249D-01-0.578D+00 0.159D+01
 Coeff-En:   0.000D+00 0.000D+00 0.000D+00 0.000D+00 0.000D+00 0.000D+00
 Coeff-En:   0.000D+00 0.345D+00 0.655D+00
 Coeff:     -0.371D-03 0.969D-03-0.978D-03-0.425D-02-0.204D-02 0.222D-01
 Coeff:     -0.248D-01-0.575D+00 0.158D+01
 Gap=     0.084 Goal=   None    Shift=    0.000
 Gap=     0.084 Goal=   None    Shift=    0.000
 RMSDP=1.92D-05 MaxDP=3.61D-04 DE=-3.77D-06 OVMax= 5.99D-04

 Cycle  10  Pass 1  IDiag  1:
 E= -92.8270949861524     Delta-E=       -0.000003524353 Rises=F Damp=F
 DIIS: error= 9.31D-05 at cycle  10 NSaved=  10.
 NSaved=10 IEnMin=10 EnMin= -92.8270949861524     IErMin=10 ErrMin= 9.31D-05
 ErrMax= 9.31D-05  0.00D+00 EMaxC= 1.00D-01 BMatC= 1.12D-06 BMatP= 1.36D-05
 IDIUse=1 WtCom= 1.00D+00 WtEn= 0.00D+00
 Coeff-Com:  0.458D-04 0.408D-04-0.288D-04-0.129D-02-0.307D-03 0.583D-03
 Coeff-Com:  0.156D-02 0.121D-01-0.104D+00 0.109D+01
 Coeff:      0.458D-04 0.408D-04-0.288D-04-0.129D-02-0.307D-03 0.583D-03
 Coeff:      0.156D-02 0.121D-01-0.104D+00 0.109D+01
 Gap=     0.084 Goal=   None    Shift=    0.000
 Gap=     0.084 Goal=   None    Shift=    0.000
 RMSDP=5.27D-06 MaxDP=5.81D-05 DE=-3.52D-06 OVMax= 2.62D-04

 Cycle  11  Pass 1  IDiag  1:
 E= -92.8270953468697     Delta-E=       -0.000000360717 Rises=F Damp=F
 DIIS: error= 8.94D-06 at cycle  11 NSaved=  11.
 NSaved=11 IEnMin=11 EnMin= -92.8270953468697     IErMin=11 ErrMin= 8.94D-06
 ErrMax= 8.94D-06  0.00D+00 EMaxC= 1.00D-01 BMatC= 1.01D-08 BMatP= 1.12D-06
 IDIUse=1 WtCom= 1.00D+00 WtEn= 0.00D+00
 Coeff-Com:  0.961D-05 0.254D-06-0.186D-05 0.505D-05-0.128D-04 0.192D-03
 Coeff-Com: -0.110D-02 0.127D-01-0.202D-01-0.852D-01 0.109D+01
 Coeff:      0.961D-05 0.254D-06-0.186D-05 0.505D-05-0.128D-04 0.192D-03
 Coeff:     -0.110D-02 0.127D-01-0.202D-01-0.852D-01 0.109D+01
 Gap=     0.084 Goal=   None    Shift=    0.000
 DSYEVD-2 returned Info=         101 IAlg= 4 N=    50 NDim=    50 NE2=    10704689 trying  DSYEV.
 Gap=     0.084 Goal=   None    Shift=    0.000
 RMSDP=3.07D-07 MaxDP=2.63D-06 DE=-3.61D-07 OVMax= 1.31D-05

 Cycle  12  Pass 1  IDiag  1:
 E= -92.8270953482623     Delta-E=       -0.000000001393 Rises=F Damp=F
 DIIS: error= 7.16D-06 at cycle  12 NSaved=  12.
 NSaved=12 IEnMin=12 EnMin= -92.8270953482623     IErMin=12 ErrMin= 7.16D-06
 ErrMax= 7.16D-06  0.00D+00 EMaxC= 1.00D-01 BMatC= 5.91D-09 BMatP= 1.01D-08
 IDIUse=1 WtCom= 1.00D+00 WtEn= 0.00D+00
 Coeff-Com:  0.294D-06 0.350D-06 0.995D-06-0.427D-05-0.163D-03 0.674D-04
 Coeff-Com:  0.460D-04-0.163D-02 0.476D-02-0.139D-01-0.717D-01 0.108D+01
 Coeff:      0.294D-06 0.350D-06 0.995D-06-0.427D-05-0.163D-03 0.674D-04
 Coeff:      0.460D-04-0.163D-02 0.476D-02-0.139D-01-0.717D-01 0.108D+01
 Gap=     0.084 Goal=   None    Shift=    0.000
 Gap=     0.084 Goal=   None    Shift=    0.000
 RMSDP=4.06D-07 MaxDP=3.78D-06 DE=-1.39D-09 OVMax= 2.14D-05

 Cycle  13  Pass 1  IDiag  1:
 E= -92.8270953503185     Delta-E=       -0.000000002056 Rises=F Damp=F
 DIIS: error= 5.36D-07 at cycle  13 NSaved=  13.
 NSaved=13 IEnMin=13 EnMin= -92.8270953503185     IErMin=13 ErrMin= 5.36D-07
 ErrMax= 5.36D-07  0.00D+00 EMaxC= 1.00D-01 BMatC= 3.41D-11 BMatP= 5.91D-09
 IDIUse=1 WtCom= 1.00D+00 WtEn= 0.00D+00
 Coeff-Com: -0.798D-07 0.183D-06-0.150D-06-0.323D-05-0.159D-04 0.100D-04
 Coeff-Com:  0.754D-05-0.323D-03 0.913D-03-0.134D-02-0.229D-01 0.602D-01
 Coeff-Com:  0.964D+00
 Coeff:     -0.798D-07 0.183D-06-0.150D-06-0.323D-05-0.159D-04 0.100D-04
 Coeff:      0.754D-05-0.323D-03 0.913D-03-0.134D-02-0.229D-01 0.602D-01
 Coeff:      0.964D+00
 Gap=     0.084 Goal=   None    Shift=    0.000
 Gap=     0.084 Goal=   None    Shift=    0.000
 RMSDP=2.84D-08 MaxDP=2.57D-07 DE=-2.06D-09 OVMax= 1.44D-06

 Cycle  14  Pass 1  IDiag  1:
 E= -92.8270953503300     Delta-E=       -0.000000000012 Rises=F Damp=F
 DIIS: error= 8.20D-08 at cycle  14 NSaved=  14.
 NSaved=14 IEnMin=14 EnMin= -92.8270953503300     IErMin=14 ErrMin= 8.20D-08
 ErrMax= 8.20D-08  0.00D+00 EMaxC= 1.00D-01 BMatC= 8.30D-13 BMatP= 3.41D-11
 IDIUse=1 WtCom= 1.00D+00 WtEn= 0.00D+00
 Coeff-Com: -0.542D-08 0.156D-07-0.107D-06-0.232D-06 0.661D-05-0.144D-05
 Coeff-Com: -0.448D-05 0.237D-04-0.908D-04 0.381D-03 0.138D-02-0.648D-01
 Coeff-Com:  0.162D+00 0.901D+00
 Coeff:     -0.542D-08 0.156D-07-0.107D-06-0.232D-06 0.661D-05-0.144D-05
 Coeff:     -0.448D-05 0.237D-04-0.908D-04 0.381D-03 0.138D-02-0.648D-01
 Coeff:      0.162D+00 0.901D+00
 Gap=     0.084 Goal=   None    Shift=    0.000
 Gap=     0.084 Goal=   None    Shift=    0.000
 RMSDP=4.50D-09 MaxDP=4.23D-08 DE=-1.15D-11 OVMax= 2.21D-07

 SCF Done:  E(UM062X) =  -92.8270953503     A.U. after   14 cycles
            NFock= 14  Conv=0.45D-08     -V/T= 2.0028
 <Sx>= 0.0000 <Sy>= 0.0000 <Sz>= 0.0000 <S**2>=-0.0000 S=-0.0000
 <L.S>=  0.00000000000    
 KE= 9.256996743456D+01 PE=-2.372052772359D+02 EE= 4.176132385769D+01
 Annihilation of the first spin contaminant:
 S**2 before annihilation    -0.0000,   after    -0.0000
 Leave Link  502 at Mon Apr 21 18:39:37 2025, MaxMem=   536870912 cpu:              26.7 elap:               3.6
 (Enter /home/szhao/Apps/g16/l601.exe)
 Copying SCF densities to generalized density rwf, IOpCl= 1 IROHF=0.

 **********************************************************************

            Population analysis using the SCF density.

 **********************************************************************

 Alpha  occ. eigenvalues --  -14.81849 -10.75635  -0.81793  -0.76521  -0.45499
 Alpha  occ. eigenvalues --   -0.26457  -0.26457
 Alpha virt. eigenvalues --   -0.18034  -0.18034  -0.08067  -0.00049   0.06407
 Alpha virt. eigenvalues --    0.06407   0.07916   0.13535   0.16677   0.17337
 Alpha virt. eigenvalues --    0.17337   0.23779   0.42127   0.52189   0.52189
 Alpha virt. eigenvalues --    0.57645   0.70435   0.86889   0.86889   0.86979
 Alpha virt. eigenvalues --    1.07617   1.07617   1.07619   1.26660   1.26660
 Alpha virt. eigenvalues --    1.53756   1.83054   1.83054   2.02951   2.02951
 Alpha virt. eigenvalues --    2.04518   2.06958   2.06958   2.32779   2.50012
 Alpha virt. eigenvalues --    2.64372   2.64372   3.14252   3.85026   3.86716
 Alpha virt. eigenvalues --    3.86716  23.51501  35.26461
  Beta  occ. eigenvalues --  -14.81849 -10.75635  -0.81793  -0.76521  -0.45499
  Beta  occ. eigenvalues --   -0.26457  -0.26457
  Beta virt. eigenvalues --   -0.18034  -0.18034  -0.08067  -0.00049   0.06407
  Beta virt. eigenvalues --    0.06407   0.07916   0.13535   0.16677   0.17337
  Beta virt. eigenvalues --    0.17337   0.23779   0.42127   0.52189   0.52189
  Beta virt. eigenvalues --    0.57645   0.70435   0.86889   0.86889   0.86979
  Beta virt. eigenvalues --    1.07617   1.07617   1.07619   1.26660   1.26660
  Beta virt. eigenvalues --    1.53756   1.83054   1.83054   2.02951   2.02951
  Beta virt. eigenvalues --    2.04518   2.06958   2.06958   2.32779   2.50012
  Beta virt. eigenvalues --    2.64372   2.64372   3.14252   3.85026   3.86716
  Beta virt. eigenvalues --    3.86716  23.51501  35.26461
          Condensed to atoms (all electrons):
               1          2          3
     1  C    5.701933   0.032108   0.199609
     2  N    0.032108   7.209689   0.000925
     3  H    0.199609   0.000925   0.623094
          Atomic-Atomic Spin Densities.
               1          2          3
     1  C   -0.000000  -0.000000  -0.000000
     2  N   -0.000000   0.000000   0.000000
     3  H   -0.000000   0.000000  -0.000000
 Mulliken charges and spin densities:
               1          2
     1  C    0.066351  -0.000000
     2  N   -0.242722   0.000000
     3  H    0.176372  -0.000000
 Sum of Mulliken charges =  -0.00000  -0.00000
 Mulliken charges and spin densities with hydrogens summed into heavy atoms:
               1          2
     1  C    0.242722  -0.000000
     2  N   -0.242722   0.000000
 Electronic spatial extent (au):  <R**2>=            199.0564
 Charge=             -0.0000 electrons
 Dipole moment (field-independent basis, Debye):
    X=             -6.0929    Y=              0.0000    Z=             -0.0000  Tot=              6.0929
 Quadrupole moment (field-independent basis, Debye-Ang):
   XX=             -4.4394   YY=            -14.2017   ZZ=            -14.2017
   XY=             -0.0000   XZ=             -0.0000   YZ=              0.0000
 Traceless Quadrupole moment (field-independent basis, Debye-Ang):
   XX=              6.5081   YY=             -3.2541   ZZ=             -3.2541
   XY=             -0.0000   XZ=             -0.0000   YZ=              0.0000
 Octapole moment (field-independent basis, Debye-Ang**2):
  XXX=            -22.4914  YYY=              0.0000  ZZZ=              0.0000  XYY=             -2.6015
  XXY=             -0.0000  XXZ=             -0.0000  XZZ=             -2.6015  YZZ=              0.0000
  YYZ=              0.0000  XYZ=             -0.0000
 Hexadecapole moment (field-independent basis, Debye-Ang**3):
 XXXX=           -186.9983 YYYY=            -19.6299 ZZZZ=            -19.6299 XXXY=             -0.0000
 XXXZ=             -0.0000 YYYX=             -0.0000 YYYZ=              0.0000 ZZZX=             -0.0000
 ZZZY=              0.0000 XXYY=            -50.6691 XXZZ=            -50.6691 YYZZ=             -6.5433
 XXYZ=              0.0000 YYXZ=             -0.0000 ZZXY=             -0.0000
 N-N= 1.004689059332D+01 E-N=-2.372052781455D+02  KE= 9.256996743456D+01
                          Isotropic Fermi Contact Couplings
        Atom                 a.u.       MegaHertz       Gauss      10(-4) cm-1
     1  C(13)             -0.00000      -0.00000      -0.00000      -0.00000
     2  N(14)             -0.00000      -0.00000      -0.00000      -0.00000
     3  H(1)              -0.00000      -0.00000      -0.00000      -0.00000
 --------------------------------------------------------
       Center         ----  Spin Dipole Couplings  ----
                      3XX-RR        3YY-RR        3ZZ-RR
 --------------------------------------------------------
     1   Atom        0.000000      0.000000      0.000000
     2   Atom        0.000000      0.000000      0.000000
     3   Atom        0.000000      0.000000      0.000000
 --------------------------------------------------------
                        XY            XZ            YZ
 --------------------------------------------------------
     1   Atom        0.000000      0.000000      0.000000
     2   Atom        0.000000      0.000000      0.000000
     3   Atom        0.000000      0.000000      0.000000
 --------------------------------------------------------


 ---------------------------------------------------------------------------------
              Anisotropic Spin Dipole Couplings in Principal Axis System
 ---------------------------------------------------------------------------------

       Atom             a.u.   MegaHertz   Gauss  10(-4) cm-1        Axes

              Baa     0.0000     0.000     0.000     0.000  1.0000  0.0000  0.0000
     1 C(13)  Bbb     0.0000     0.000     0.000     0.000 -0.0000  1.0000  0.0000
              Bcc     0.0000     0.000     0.000     0.000  0.0000  0.0000  1.0000
 
              Baa     0.0000     0.000     0.000     0.000  1.0000  0.0000  0.0000
     2 N(14)  Bbb     0.0000     0.000     0.000     0.000 -0.0000  1.0000  0.0000
              Bcc     0.0000     0.000     0.000     0.000  0.0000  0.0000  1.0000
 
              Baa     0.0000     0.000     0.000     0.000  1.0000  0.0000  0.0000
     3 H(1)   Bbb     0.0000     0.000     0.000     0.000 -0.0000  1.0000  0.0000
              Bcc     0.0000     0.000     0.000     0.000  0.0000  0.0000  1.0000
 

 ---------------------------------------------------------------------------------

 No NMR shielding tensors so no spin-rotation constants.
 Leave Link  601 at Mon Apr 21 18:39:37 2025, MaxMem=   536870912 cpu:               2.3 elap:               0.3
 (Enter /home/szhao/Apps/g16/l701.exe)
 ... and contract with generalized density number  0.
 Compute integral first derivatives.
 Leave Link  701 at Mon Apr 21 18:39:38 2025, MaxMem=   536870912 cpu:               1.0 elap:               0.2
 (Enter /home/szhao/Apps/g16/l702.exe)
 L702 exits ... SP integral derivatives will be done elsewhere.
 Leave Link  702 at Mon Apr 21 18:39:38 2025, MaxMem=   536870912 cpu:               0.4 elap:               0.1
 (Enter /home/szhao/Apps/g16/l703.exe)
 Integral derivatives from FoFJK, PRISM(SPDF).
 Compute integral first derivatives, UseDBF=F ICtDFT=           0.
 Calling FoFJK, ICntrl=      2127 FMM=F ISym2X=0 I1Cent= 0 IOpClX= 1 NMat=1 NMatS=1 NMatT=0.
 FoFJK:  IHMeth= 1 ICntrl=    2127 DoSepK=F KAlg= 0 I1Cent=           0 FoldK=F
 IRaf=         0 NMat=       1 IRICut=       1 DoRegI=T DoRafI=F ISym2E= 0 IDoP0=0 IntGTp=1.
 FoFCou: FMM=F IPFlag=           0 FMFlag=      100000 FMFlg1=         800
         NFxFlg=           0 DoJE=F BraDBF=F KetDBF=F FulRan=T
         wScrn=  0.000000 ICntrl=      2127 IOpCl=  1 I1Cent=           0 NGrid=           0
         NMat0=    1 NMatS0=      1 NMatT0=    0 NMatD0=    1 NMtDS0=    0 NMtDT0=    0
 Symmetry not used in FoFCou.
 Leave Link  703 at Mon Apr 21 18:39:39 2025, MaxMem=   536870912 cpu:               3.9 elap:               0.5
 (Enter /home/szhao/Apps/g16/l716.exe)
 Dipole        =-2.39712706D+00 1.39475478D-15-1.12988405D-15
 -------------------------------------------------------------------
 Center     Atomic                   Forces (Hartrees/Bohr)
 Number     Number              X              Y              Z
 -------------------------------------------------------------------
      1        6          -0.000000000   -0.000000000   -0.000000000
      2        7          -0.000000000   -0.000000000   -0.000000000
      3        1          -0.038258854   -0.000000000   -0.000000000
 -------------------------------------------------------------------
 Cartesian Forces:  Max     0.038258854 RMS     0.012752951
 Leave Link  716 at Mon Apr 21 18:39:39 2025, MaxMem=   536870912 cpu:               0.7 elap:               0.3
 (Enter /home/szhao/Apps/g16/l103.exe)

 GradGradGradGradGradGradGradGradGradGradGradGradGradGradGradGradGradGrad
 Berny optimization.
 FormGI is forming the generalized inverse of G from B-inverse, IUseBI=4.
 Internal  Forces:  Max     0.038258854 RMS     0.018035397
 Search for a local minimum.
 Step number   1 out of a maximum of   20
 All quantities printed in internal units (Hartrees-Bohrs-Radians)
 RMS Force = .22089D-01 SwitMx=.10000D-02 MixMth= 1
 Mixed Optimization -- RFO/linear search
 Second derivative matrix not updated -- first step.
 The second derivative matrix:
                          X1        Y1        Z1        X2        Y2
           X1           0.50000
           Y1           0.00000   0.50000
           Z1           0.00000   0.00000   0.50000
           X2           0.00000   0.00000   0.00000   0.50000
           Y2           0.00000   0.00000   0.00000   0.00000   0.50000
           Z2           0.00000   0.00000   0.00000   0.00000   0.00000
           R1           0.00000   0.00000   0.00000   0.00000   0.00000
           A1           0.00000   0.00000   0.00000   0.00000   0.00000
           A2           0.00000   0.00000   0.00000   0.00000   0.00000
                          Z2        R1        A1        A2
           Z2           0.50000
           R1           0.00000   0.37530
           A1           0.00000   0.00000   0.00531
           A2           0.00000   0.00000   0.00000   0.00531
 ITU=  0
     Eigenvalues ---    0.00531   0.375301000.000001000.000001000.00000
     Eigenvalues --- 1000.000001000.000001000.000001000.00000
 RFO step:  Lambda=-3.86052144D-03 EMin= 5.30570372D-03
 Linear search not attempted -- first point.
 Iteration  1 RMS(Cart)=  0.03363507 RMS(Int)=  0.00000000
 Iteration  2 RMS(Cart)=  0.00000000 RMS(Int)=  0.00000000
 ITry= 1 IFail=0 DXMaxC= 1.01D-01 DCOld= 1.00D+10 DXMaxT= 3.00D-01 DXLimC= 3.00D+00 Rises=F
 Variable       Old X    -DE/DX   Delta X   Delta X   Delta X     New X
                                 (Linear)    (Quad)   (Total)
    X1       -3.34934  -0.03826   0.00000   0.00000   0.00000  -3.34934
    Y1        0.00000   0.00000   0.00000   0.00000   0.00000   0.00000
    Z1        0.00000  -0.00000   0.00000   0.00000   0.00000   0.00000
    X2        3.34934  -0.00000   0.00000   0.00000   0.00000   3.34934
    Y2        0.00000  -0.00000   0.00000   0.00000   0.00000   0.00000
    Z2        0.00000   0.00000   0.00000   0.00000   0.00000   0.00000
    R1        2.01755   0.03826   0.00000   0.10091   0.10091   2.11846
    A1        3.14159   0.00000   0.00000   0.00000   0.00000   3.14159
    A2        3.14159  -0.00000   0.00000  -0.00000   0.00000   3.14159
         Item               Value     Threshold  Converged?
 Maximum Force            0.038259     0.000450     NO 
 RMS     Force            0.022089     0.000300     NO 
 Maximum Displacement     0.100905     0.001800     NO 
 RMS     Displacement     0.033635     0.001200     NO 
 Predicted change in Energy=-1.949912D-03
 Lowest energy point so far.  Saving SCF results.
 GradGradGradGradGradGradGradGradGradGradGradGradGradGradGradGradGradGrad

 Leave Link  103 at Mon Apr 21 18:39:40 2025, MaxMem=   536870912 cpu:               0.8 elap:               0.2
 (Enter /home/szhao/Apps/g16/l202.exe)
                          Input orientation:                          
 ---------------------------------------------------------------------
 Center     Atomic      Atomic             Coordinates (Angstroms)
 Number     Number       Type             X           Y           Z
 ---------------------------------------------------------------------
      1          6           0       -1.772395    0.000000    0.000000
      2          7           0        1.772395    0.000000    0.000000
      3          1           0       -2.893434    0.000000   -0.000000
 ---------------------------------------------------------------------
                    Distance matrix (angstroms):
                    1          2          3
     1  C    0.000000
     2  N    3.544789   0.000000
     3  H    1.121040   4.665829   0.000000
 Symmetry turned off by external request.
 Stoichiometry    CHN
 Framework group  C*V[C*(HCN)]
 Deg. of freedom     2
 Full point group                 C*V     NOp   4
 Rotational constants (GHZ):           0.0000000           5.6085809           5.6085809
 Leave Link  202 at Mon Apr 21 18:39:40 2025, MaxMem=   536870912 cpu:               0.2 elap:               0.2
 (Enter /home/szhao/Apps/g16/l301.exe)
 Standard basis: 6-311+G(d,p) (5D, 7F)
 Ernie: Thresh=  0.10000D-02 Tol=  0.10000D-05 Strict=F.
    50 basis functions,    80 primitive gaussians,    52 cartesian basis functions
     7 alpha electrons        7 beta electrons
       nuclear repulsion energy         9.8960486420 Hartrees.
 IExCor= 4336 DFT=T Ex+Corr=M062X ExCW=0 ScaHFX=  0.540000
 ScaDFX=  1.000000  1.000000  1.000000  1.000000 ScalE2=  1.000000  1.000000
 IRadAn=      7 IRanWt=     -1 IRanGd=            0 ICorTp=0 IEmpDi=  4
 NAtoms=    3 NActive=    3 NUniq=    3 SFac= 1.00D+00 NAtFMM=   60 NAOKFM=F Big=F
 Integral buffers will be    131072 words long.
 Raffenetti 2 integral format.
 Two-electron integral symmetry is turned off.
 Leave Link  301 at Mon Apr 21 18:39:41 2025, MaxMem=   536870912 cpu:               1.8 elap:               0.3
 (Enter /home/szhao/Apps/g16/l302.exe)
 NPDir=0 NMtPBC=     1 NCelOv=     1 NCel=       1 NClECP=     1 NCelD=      1
         NCelK=      1 NCelE2=     1 NClLst=     1 CellRange=     0.0.
 One-electron integrals computed using PRISM.
 NBasis=    50 RedAO= T EigKep=  1.67D-02  NBF=    50
 NBsUse=    50 1.00D-06 EigRej= -1.00D+00 NBFU=    50
 Precomputing XC quadrature grid using
 IXCGrd= 4 IRadAn=           7 IRanWt=          -1 IRanGd=           0 AccXCQ= 0.00D+00.
 Generated NRdTot=       0 NPtTot=           0 NUsed=           0 NTot=          32
 NSgBfM=    52    52    52    52    52 MxSgAt=     3 MxSgA2=     3.
 Leave Link  302 at Mon Apr 21 18:39:42 2025, MaxMem=   536870912 cpu:               1.7 elap:               0.5
 (Enter /home/szhao/Apps/g16/l303.exe)
 DipDrv:  MaxL=1.
 Leave Link  303 at Mon Apr 21 18:39:42 2025, MaxMem=   536870912 cpu:               0.5 elap:               0.2
 (Enter /home/szhao/Apps/g16/l401.exe)
 Initial guess from the checkpoint file:  "opt.chk"
 B after Tr=    -0.007208    0.000000   -0.000000
         Rot=    1.000000   -0.000000    0.000000   -0.000000 Ang=   0.00 deg.
 Guess basis will be translated and rotated to current coordinates.
 JPrj=2 DoOrth=T DoCkMO=T.
 Initial guess <Sx>= 0.0000 <Sy>= 0.0000 <Sz>= 0.0000 <S**2>= 0.0000 S= 0.0000
 Generating alternative initial guess.
 ExpMin= 4.38D-02 ExpMax= 6.29D+03 ExpMxC= 9.49D+02 IAcc=3 IRadAn=         5 AccDes= 0.00D+00
 Harris functional with IExCor= 1009 and IRadAn=       5 diagonalized for initial guess.
 HarFok:  IExCor= 1009 AccDes= 0.00D+00 IRadAn=         5 IDoV= 1 UseB2=F ITyADJ=14
 ICtDFT=  3500011 ScaDFX=  1.000000  1.000000  1.000000  1.000000
 FoFCou: FMM=F IPFlag=           0 FMFlag=      100000 FMFlg1=           0
         NFxFlg=           0 DoJE=T BraDBF=F KetDBF=T FulRan=T
         wScrn=  0.000000 ICntrl=       500 IOpCl=  0 I1Cent=   200000004 NGrid=           0
         NMat0=    1 NMatS0=      1 NMatT0=    0 NMatD0=    1 NMtDS0=    0 NMtDT0=    0
 Symmetry not used in FoFCou.
 Harris En= -92.8405596015667    
 Leave Link  401 at Mon Apr 21 18:39:43 2025, MaxMem=   536870912 cpu:               3.4 elap:               0.6
 (Enter /home/szhao/Apps/g16/l502.exe)
 Keep R1 and R2 ints in memory in canonical form, NReq=8667815.
 FoFCou: FMM=F IPFlag=           0 FMFlag=           0 FMFlg1=           0
         NFxFlg=           0 DoJE=F BraDBF=F KetDBF=F FulRan=T
         wScrn=  0.000000 ICntrl=       600 IOpCl=  0 I1Cent=           0 NGrid=           0
         NMat0=    1 NMatS0=   1275 NMatT0=    0 NMatD0=    1 NMtDS0=    0 NMtDT0=    0
 Symmetry not used in FoFCou.
 Two-electron integral symmetry not used.
 UHF open shell SCF:
 Using DIIS extrapolation, IDIIS=  1040.
 NGot=   536870912 LenX=   535237675 LenY=   535234530
 Requested convergence on RMS density matrix=1.00D-08 within 128 cycles.
 Requested convergence on MAX density matrix=1.00D-06.
 Requested convergence on             energy=1.00D-06.
 No special actions if energy rises.

 Cycle   1  Pass 1  IDiag  1:
 E= -92.8285809552604    
 DIIS: error= 4.15D-03 at cycle   1 NSaved=   1.
 NSaved= 1 IEnMin= 1 EnMin= -92.8285809552604     IErMin= 1 ErrMin= 4.15D-03
 ErrMax= 4.15D-03  0.00D+00 EMaxC= 1.00D-01 BMatC= 2.01D-03 BMatP= 2.01D-03
 IDIUse=3 WtCom= 9.58D-01 WtEn= 4.15D-02
 Coeff-Com:  0.100D+01
 Coeff-En:   0.100D+01
 Coeff:      0.100D+01
 Gap=     0.450 Goal=   None    Shift=    0.000
 Gap=     0.450 Goal=   None    Shift=    0.000
 GapD=    0.450 DampG=2.000 DampE=1.000 DampFc=2.0000 IDamp=-1.
 RMSDP=4.04D-04 MaxDP=4.80D-03              OVMax= 1.10D-02

 Cycle   2  Pass 1  IDiag  1:
 E= -92.8286519351649     Delta-E=       -0.000070979905 Rises=F Damp=F
 DIIS: error= 4.11D-03 at cycle   2 NSaved=   2.
 NSaved= 2 IEnMin= 2 EnMin= -92.8286519351649     IErMin= 2 ErrMin= 4.11D-03
 ErrMax= 4.11D-03  0.00D+00 EMaxC= 1.00D-01 BMatC= 1.11D-03 BMatP= 2.01D-03
 IDIUse=3 WtCom= 9.59D-01 WtEn= 4.11D-02
 Coeff-Com:  0.366D+00 0.634D+00
 Coeff-En:   0.416D+00 0.584D+00
 Coeff:      0.368D+00 0.632D+00
 Gap=     0.076 Goal=   None    Shift=    0.000
 Gap=     0.076 Goal=   None    Shift=    0.000
 RMSDP=1.39D-03 MaxDP=1.26D-02 DE=-7.10D-05 OVMax= 7.39D-02

 Cycle   3  Pass 1  IDiag  1:
 E= -92.8129496603068     Delta-E=        0.015702274858 Rises=F Damp=F
 DIIS: error= 2.88D-02 at cycle   3 NSaved=   3.
 NSaved= 3 IEnMin= 2 EnMin= -92.8286519351649     IErMin= 2 ErrMin= 4.11D-03
 ErrMax= 2.88D-02  0.00D+00 EMaxC= 1.00D-01 BMatC= 5.02D-02 BMatP= 1.11D-03
 IDIUse=2 WtCom= 0.00D+00 WtEn= 1.00D+00
 Coeff-En:   0.000D+00 0.899D+00 0.101D+00
 Coeff:      0.000D+00 0.899D+00 0.101D+00
 Gap=     0.080 Goal=   None    Shift=    0.000
 Gap=     0.080 Goal=   None    Shift=    0.000
 RMSDP=7.02D-04 MaxDP=6.69D-03 DE= 1.57D-02 OVMax= 3.75D-02

 Cycle   4  Pass 1  IDiag  1:
 E= -92.8265163283989     Delta-E=       -0.013566668092 Rises=F Damp=F
 DIIS: error= 1.09D-02 at cycle   4 NSaved=   4.
 NSaved= 4 IEnMin= 2 EnMin= -92.8286519351649     IErMin= 2 ErrMin= 4.11D-03
 ErrMax= 1.09D-02  0.00D+00 EMaxC= 1.00D-01 BMatC= 7.49D-03 BMatP= 1.11D-03
 IDIUse=2 WtCom= 0.00D+00 WtEn= 1.00D+00
 Coeff-En:   0.000D+00 0.738D+00 0.000D+00 0.262D+00
 Coeff:      0.000D+00 0.738D+00 0.000D+00 0.262D+00
 Gap=     0.083 Goal=   None    Shift=    0.000
 Gap=     0.083 Goal=   None    Shift=    0.000
 RMSDP=3.52D-04 MaxDP=3.22D-03 DE=-1.36D-02 OVMax= 1.88D-02

 Cycle   5  Pass 1  IDiag  1:
 E= -92.8288830428843     Delta-E=       -0.002366714485 Rises=F Damp=F
 DIIS: error= 2.84D-03 at cycle   5 NSaved=   5.
 NSaved= 5 IEnMin= 5 EnMin= -92.8288830428843     IErMin= 5 ErrMin= 2.84D-03
 ErrMax= 2.84D-03  0.00D+00 EMaxC= 1.00D-01 BMatC= 5.15D-04 BMatP= 1.11D-03
 IDIUse=3 WtCom= 9.72D-01 WtEn= 2.84D-02
 Coeff-Com: -0.109D-01 0.354D-01 0.598D-01-0.515D+00 0.143D+01
 Coeff-En:   0.000D+00 0.386D+00 0.000D+00 0.000D+00 0.614D+00
 Coeff:     -0.106D-01 0.454D-01 0.581D-01-0.501D+00 0.141D+01
 Gap=     0.084 Goal=   None    Shift=    0.000
 Gap=     0.084 Goal=   None    Shift=    0.000
 RMSDP=1.46D-04 MaxDP=1.25D-03 DE=-2.37D-03 OVMax= 7.76D-03

 Cycle   6  Pass 1  IDiag  1:
 E= -92.8290636658638     Delta-E=       -0.000180622980 Rises=F Damp=F
 DIIS: error= 2.94D-04 at cycle   6 NSaved=   6.
 NSaved= 6 IEnMin= 6 EnMin= -92.8290636658638     IErMin= 6 ErrMin= 2.94D-04
 ErrMax= 2.94D-04  0.00D+00 EMaxC= 1.00D-01 BMatC= 5.67D-06 BMatP= 5.15D-04
 IDIUse=3 WtCom= 9.97D-01 WtEn= 2.94D-03
 Coeff-Com: -0.131D-02-0.379D-01 0.107D-01-0.725D-01 0.209D+00 0.892D+00
 Coeff-En:   0.000D+00 0.000D+00 0.000D+00 0.000D+00 0.508D-01 0.949D+00
 Coeff:     -0.131D-02-0.378D-01 0.107D-01-0.723D-01 0.209D+00 0.892D+00
 Gap=     0.084 Goal=   None    Shift=    0.000
 Gap=     0.084 Goal=   None    Shift=    0.000
 RMSDP=1.50D-05 MaxDP=1.97D-04 DE=-1.81D-04 OVMax= 7.14D-04

 Cycle   7  Pass 1  IDiag  1:
 E= -92.8290657289659     Delta-E=       -0.000002063102 Rises=F Damp=F
 DIIS: error= 1.32D-05 at cycle   7 NSaved=   7.
 NSaved= 7 IEnMin= 7 EnMin= -92.8290657289659     IErMin= 7 ErrMin= 1.32D-05
 ErrMax= 1.32D-05  0.00D+00 EMaxC= 1.00D-01 BMatC= 1.51D-08 BMatP= 5.67D-06
 IDIUse=1 WtCom= 1.00D+00 WtEn= 0.00D+00
 Coeff-Com:  0.437D-03-0.683D-02-0.186D-02 0.182D-01-0.435D-01 0.130D+00
 Coeff-Com:  0.904D+00
 Coeff:      0.437D-03-0.683D-02-0.186D-02 0.182D-01-0.435D-01 0.130D+00
 Coeff:      0.904D+00
 Gap=     0.084 Goal=   None    Shift=    0.000
 Gap=     0.084 Goal=   None    Shift=    0.000
 RMSDP=1.60D-06 MaxDP=1.94D-05 DE=-2.06D-06 OVMax= 6.44D-05

 Cycle   8  Pass 1  IDiag  1:
 E= -92.8290657309423     Delta-E=       -0.000000001976 Rises=F Damp=F
 DIIS: error= 1.27D-05 at cycle   8 NSaved=   8.
 NSaved= 8 IEnMin= 8 EnMin= -92.8290657309423     IErMin= 8 ErrMin= 1.27D-05
 ErrMax= 1.27D-05  0.00D+00 EMaxC= 1.00D-01 BMatC= 1.04D-08 BMatP= 1.51D-08
 IDIUse=1 WtCom= 1.00D+00 WtEn= 0.00D+00
 Coeff-Com:  0.309D-04 0.143D-03 0.336D-03-0.225D-02-0.602D-03-0.183D-01
 Coeff-Com:  0.429D-01 0.978D+00
 Coeff:      0.309D-04 0.143D-03 0.336D-03-0.225D-02-0.602D-03-0.183D-01
 Coeff:      0.429D-01 0.978D+00
 Gap=     0.084 Goal=   None    Shift=    0.000
 Gap=     0.084 Goal=   None    Shift=    0.000
 RMSDP=6.78D-07 MaxDP=6.22D-06 DE=-1.98D-09 OVMax= 3.56D-05

 Cycle   9  Pass 1  IDiag  1:
 E= -92.8290657346259     Delta-E=       -0.000000003684 Rises=F Damp=F
 DIIS: error= 1.45D-06 at cycle   9 NSaved=   9.
 NSaved= 9 IEnMin= 9 EnMin= -92.8290657346259     IErMin= 9 ErrMin= 1.45D-06
 ErrMax= 1.45D-06  0.00D+00 EMaxC= 1.00D-01 BMatC= 1.41D-10 BMatP= 1.04D-08
 IDIUse=1 WtCom= 1.00D+00 WtEn= 0.00D+00
 Coeff-Com: -0.691D-05 0.250D-03-0.724D-05-0.934D-04 0.105D-03-0.571D-02
 Coeff-Com: -0.169D-01 0.109D+00 0.913D+00
 Coeff:     -0.691D-05 0.250D-03-0.724D-05-0.934D-04 0.105D-03-0.571D-02
 Coeff:     -0.169D-01 0.109D+00 0.913D+00
 Gap=     0.084 Goal=   None    Shift=    0.000
 Gap=     0.084 Goal=   None    Shift=    0.000
 DSYEVD-2 returned Info=         101 IAlg= 4 N=    50 NDim=    50 NE2=    10704689 trying  DSYEV.
 RMSDP=5.44D-08 MaxDP=4.56D-07 DE=-3.68D-09 OVMax= 2.56D-06

 Cycle  10  Pass 1  IDiag  1:
 E= -92.8290657346714     Delta-E=       -0.000000000045 Rises=F Damp=F
 DIIS: error= 4.04D-07 at cycle  10 NSaved=  10.
 NSaved=10 IEnMin=10 EnMin= -92.8290657346714     IErMin=10 ErrMin= 4.04D-07
 ErrMax= 4.04D-07  0.00D+00 EMaxC= 1.00D-01 BMatC= 1.07D-11 BMatP= 1.41D-10
 IDIUse=1 WtCom= 1.00D+00 WtEn= 0.00D+00
 Coeff-Com: -0.193D-05 0.395D-04-0.254D-04 0.151D-03-0.976D-04-0.291D-03
 Coeff-Com: -0.374D-02-0.774D-02 0.989D-01 0.913D+00
 Coeff:     -0.193D-05 0.395D-04-0.254D-04 0.151D-03-0.976D-04-0.291D-03
 Coeff:     -0.374D-02-0.774D-02 0.989D-01 0.913D+00
 Gap=     0.084 Goal=   None    Shift=    0.000
 Gap=     0.084 Goal=   None    Shift=    0.000
 RMSDP=1.94D-08 MaxDP=1.77D-07 DE=-4.54D-11 OVMax= 1.02D-06

 Cycle  11  Pass 1  IDiag  1:
 E= -92.8290657346752     Delta-E=       -0.000000000004 Rises=F Damp=F
 DIIS: error= 6.42D-09 at cycle  11 NSaved=  11.
 NSaved=11 IEnMin=11 EnMin= -92.8290657346752     IErMin=11 ErrMin= 6.42D-09
 ErrMax= 6.42D-09  0.00D+00 EMaxC= 1.00D-01 BMatC= 4.92D-15 BMatP= 1.07D-11
 IDIUse=1 WtCom= 1.00D+00 WtEn= 0.00D+00
 Coeff-Com:  0.642D-07-0.763D-05 0.448D-05-0.314D-04 0.436D-04 0.702D-04
 Coeff-Com:  0.317D-03 0.126D-02-0.389D-01-0.115D-01 0.105D+01
 Coeff:      0.642D-07-0.763D-05 0.448D-05-0.314D-04 0.436D-04 0.702D-04
 Coeff:      0.317D-03 0.126D-02-0.389D-01-0.115D-01 0.105D+01
 Gap=     0.084 Goal=   None    Shift=    0.000
 Gap=     0.084 Goal=   None    Shift=    0.000
 RMSDP=1.04D-09 MaxDP=1.06D-08 DE=-3.85D-12 OVMax= 5.22D-08

 SCF Done:  E(UM062X) =  -92.8290657347     A.U. after   11 cycles
            NFock= 11  Conv=0.10D-08     -V/T= 2.0035
 <Sx>= 0.0000 <Sy>= 0.0000 <Sz>= 0.0000 <S**2>= 0.0000 S= 0.0000
 <L.S>=  0.00000000000    
 KE= 9.250414935366D+01 PE=-2.368685662514D+02 EE= 4.163930252111D+01
 Annihilation of the first spin contaminant:
 S**2 before annihilation     0.0000,   after    -0.0000
 Leave Link  502 at Mon Apr 21 18:39:46 2025, MaxMem=   536870912 cpu:              20.6 elap:               2.7
 (Enter /home/szhao/Apps/g16/l701.exe)
 ... and contract with generalized density number  0.
 Compute integral first derivatives.
 Leave Link  701 at Mon Apr 21 18:39:46 2025, MaxMem=   536870912 cpu:               0.9 elap:               0.1
 (Enter /home/szhao/Apps/g16/l702.exe)
 L702 exits ... SP integral derivatives will be done elsewhere.
 Leave Link  702 at Mon Apr 21 18:39:46 2025, MaxMem=   536870912 cpu:               0.4 elap:               0.1
 (Enter /home/szhao/Apps/g16/l703.exe)
 Integral derivatives from FoFJK, PRISM(SPDF).
 Compute integral first derivatives, UseDBF=F ICtDFT=           0.
 Calling FoFJK, ICntrl=      2127 FMM=F ISym2X=0 I1Cent= 0 IOpClX= 1 NMat=1 NMatS=1 NMatT=0.
 FoFJK:  IHMeth= 1 ICntrl=    2127 DoSepK=F KAlg= 0 I1Cent=           0 FoldK=F
 IRaf=         0 NMat=       1 IRICut=       1 DoRegI=T DoRafI=F ISym2E= 0 IDoP0=0 IntGTp=1.
 FoFCou: FMM=F IPFlag=           0 FMFlag=      100000 FMFlg1=         800
         NFxFlg=           0 DoJE=F BraDBF=F KetDBF=F FulRan=T
         wScrn=  0.000000 ICntrl=      2127 IOpCl=  1 I1Cent=           0 NGrid=           0
         NMat0=    1 NMatS0=      1 NMatT0=    0 NMatD0=    1 NMtDS0=    0 NMtDT0=    0
 Symmetry not used in FoFCou.
 Leave Link  703 at Mon Apr 21 18:39:47 2025, MaxMem=   536870912 cpu:               3.6 elap:               0.5
 (Enter /home/szhao/Apps/g16/l716.exe)
 Dipole        =-2.38488702D+00-8.06401287D-17 2.21367610D-13
 -------------------------------------------------------------------
 Center     Atomic                   Forces (Hartrees/Bohr)
 Number     Number              X              Y              Z
 -------------------------------------------------------------------
      1        6          -0.000000000   -0.000000000   -0.000000000
      2        7          -0.000000000   -0.000000000   -0.000000000
      3        1          -0.002546321   -0.000000000   -0.000000000
 -------------------------------------------------------------------
 Cartesian Forces:  Max     0.002546321 RMS     0.000848774
 Leave Link  716 at Mon Apr 21 18:39:47 2025, MaxMem=   536870912 cpu:               0.4 elap:               0.1
 (Enter /home/szhao/Apps/g16/l103.exe)

 GradGradGradGradGradGradGradGradGradGradGradGradGradGradGradGradGradGrad
 Berny optimization.
 Using GEDIIS/GDIIS optimizer.
 FormGI is forming the generalized inverse of G from B-inverse, IUseBI=4.
 Internal  Forces:  Max     0.002546321 RMS     0.001200347
 Search for a local minimum.
 Step number   2 out of a maximum of   20
 All quantities printed in internal units (Hartrees-Bohrs-Radians)
 RMS Force = .14701D-02 SwitMx=.10000D-02 MixMth= 1
 Mixed Optimization -- RFO/linear search
 Update second derivatives using D2CorX and points    1    2
 DE= -1.97D-03 DEPred=-1.95D-03 R= 1.01D+00
 TightC=F SS=  1.41D+00  RLast= 1.01D-01 DXNew= 5.0454D-01 3.0272D-01
 Trust test= 1.01D+00 RLast= 1.01D-01 DXMaxT set to 3.03D-01
 The second derivative matrix:
                          X1        Y1        Z1        X2        Y2
           X1           0.85392
           Y1          -0.00000   0.50000
           Z1           0.00000  -0.00000   0.50000
           X2           0.00000  -0.00000   0.00000   0.50000
           Y2           0.00000  -0.00000   0.00000   0.00000   0.50000
           Z2          -0.00000   0.00000  -0.00000  -0.00000  -0.00000
           R1          -0.35392   0.00000  -0.00000  -0.00000  -0.00000
           A1           0.00000  -0.00000   0.00000   0.00000   0.00000
           A2          -0.00000   0.00000  -0.00000  -0.00000  -0.00000
                          Z2        R1        A1        A2
           Z2           0.50000
           R1           0.00000   0.35392
           A1          -0.00000  -0.00000   0.00531
           A2           0.00000   0.00000  -0.00000   0.00531
 ITU=  1  0
 Use linear search instead of GDIIS.
     Eigenvalues ---    0.00531   0.353921000.000001000.000001000.00000
     Eigenvalues --- 1000.000001000.000001000.000001000.00000
 RFO step:  Lambda= 0.00000000D+00 EMin= 5.30570372D-03
 Quartic linear search produced a step of  0.08437.
 Iteration  1 RMS(Cart)=  0.00283785 RMS(Int)=  0.00000000
 Iteration  2 RMS(Cart)=  0.00000000 RMS(Int)=  0.00000000
 ITry= 1 IFail=0 DXMaxC= 8.51D-03 DCOld= 1.00D+10 DXMaxT= 3.03D-01 DXLimC= 3.00D+00 Rises=F
 Variable       Old X    -DE/DX   Delta X   Delta X   Delta X     New X
                                 (Linear)    (Quad)   (Total)
    X1       -3.34934  -0.00255   0.00000   0.00000   0.00000  -3.34934
    Y1        0.00000  -0.00000   0.00000   0.00000   0.00000   0.00000
    Z1        0.00000   0.00000   0.00000   0.00000   0.00000   0.00000
    X2        3.34934   0.00000   0.00000   0.00000   0.00000   3.34934
    Y2        0.00000   0.00000   0.00000   0.00000   0.00000   0.00000
    Z2        0.00000  -0.00000   0.00000   0.00000   0.00000   0.00000
    R1        2.11846   0.00255   0.00851   0.00000   0.00851   2.12697
    A1        3.14159   0.00000   0.00000   0.00000   0.00000   3.14159
    A2        3.14159  -0.00000   0.00000  -0.00000   0.00000   3.14159
         Item               Value     Threshold  Converged?
 Maximum Force            0.002546     0.000450     NO 
 RMS     Force            0.001470     0.000300     NO 
 Maximum Displacement     0.008514     0.001800     NO 
 RMS     Displacement     0.002838     0.001200     NO 
 Predicted change in Energy=-8.852020D-06
 Lowest energy point so far.  Saving SCF results.
 GradGradGradGradGradGradGradGradGradGradGradGradGradGradGradGradGradGrad

 Leave Link  103 at Mon Apr 21 18:39:47 2025, MaxMem=   536870912 cpu:               0.3 elap:               0.1
 (Enter /home/szhao/Apps/g16/l202.exe)
                          Input orientation:                          
 ---------------------------------------------------------------------
 Center     Atomic      Atomic             Coordinates (Angstroms)
 Number     Number       Type             X           Y           Z
 ---------------------------------------------------------------------
      1          6           0       -1.772395    0.000000    0.000000
      2          7           0        1.772395    0.000000    0.000000
      3          1           0       -2.897939   -0.000000   -0.000000
 ---------------------------------------------------------------------
                    Distance matrix (angstroms):
                    1          2          3
     1  C    0.000000
     2  N    3.544789   0.000000
     3  H    1.125545   4.670334   0.000000
 Symmetry turned off by external request.
 Stoichiometry    CHN
 Framework group  C*V[C*(HCN)]
 Deg. of freedom     2
 Full point group                 C*V     NOp   4
 Rotational constants (GHZ):           0.0000000           5.6069314           5.6069314
 Leave Link  202 at Mon Apr 21 18:39:48 2025, MaxMem=   536870912 cpu:               0.3 elap:               0.1
 (Enter /home/szhao/Apps/g16/l301.exe)
 Standard basis: 6-311+G(d,p) (5D, 7F)
 Ernie: Thresh=  0.10000D-02 Tol=  0.10000D-05 Strict=F.
    50 basis functions,    80 primitive gaussians,    52 cartesian basis functions
     7 alpha electrons        7 beta electrons
       nuclear repulsion energy         9.8839462893 Hartrees.
 IExCor= 4336 DFT=T Ex+Corr=M062X ExCW=0 ScaHFX=  0.540000
 ScaDFX=  1.000000  1.000000  1.000000  1.000000 ScalE2=  1.000000  1.000000
 IRadAn=      7 IRanWt=     -1 IRanGd=            0 ICorTp=0 IEmpDi=  4
 NAtoms=    3 NActive=    3 NUniq=    3 SFac= 1.00D+00 NAtFMM=   60 NAOKFM=F Big=F
 Integral buffers will be    131072 words long.
 Raffenetti 2 integral format.
 Two-electron integral symmetry is turned off.
 Leave Link  301 at Mon Apr 21 18:39:48 2025, MaxMem=   536870912 cpu:               0.8 elap:               0.2
 (Enter /home/szhao/Apps/g16/l302.exe)
 NPDir=0 NMtPBC=     1 NCelOv=     1 NCel=       1 NClECP=     1 NCelD=      1
         NCelK=      1 NCelE2=     1 NClLst=     1 CellRange=     0.0.
 One-electron integrals computed using PRISM.
 NBasis=    50 RedAO= T EigKep=  1.68D-02  NBF=    50
 NBsUse=    50 1.00D-06 EigRej= -1.00D+00 NBFU=    50
 Precomputing XC quadrature grid using
 IXCGrd= 4 IRadAn=           7 IRanWt=          -1 IRanGd=           0 AccXCQ= 0.00D+00.
 Generated NRdTot=       0 NPtTot=           0 NUsed=           0 NTot=          32
 NSgBfM=    52    52    52    52    52 MxSgAt=     3 MxSgA2=     3.
 Leave Link  302 at Mon Apr 21 18:39:48 2025, MaxMem=   536870912 cpu:               1.3 elap:               0.2
 (Enter /home/szhao/Apps/g16/l303.exe)
 DipDrv:  MaxL=1.
 Leave Link  303 at Mon Apr 21 18:39:49 2025, MaxMem=   536870912 cpu:               0.8 elap:               0.2
 (Enter /home/szhao/Apps/g16/l401.exe)
 Initial guess from the checkpoint file:  "opt.chk"
 B after Tr=    -0.000608   -0.000000   -0.000000
         Rot=    0.940733    0.339149    0.000000    0.000000 Ang=  39.65 deg.
 Guess basis will be translated and rotated to current coordinates.
 JPrj=2 DoOrth=T DoCkMO=T.
 Initial guess <Sx>= 0.0000 <Sy>= 0.0000 <Sz>= 0.0000 <S**2>=-0.0000 S=-0.0000
 Leave Link  401 at Mon Apr 21 18:39:49 2025, MaxMem=   536870912 cpu:               1.0 elap:               0.2
 (Enter /home/szhao/Apps/g16/l502.exe)
 Keep R1 and R2 ints in memory in canonical form, NReq=8667815.
 FoFCou: FMM=F IPFlag=           0 FMFlag=           0 FMFlg1=           0
         NFxFlg=           0 DoJE=F BraDBF=F KetDBF=F FulRan=T
         wScrn=  0.000000 ICntrl=       600 IOpCl=  0 I1Cent=           0 NGrid=           0
         NMat0=    1 NMatS0=   1275 NMatT0=    0 NMatD0=    1 NMtDS0=    0 NMtDT0=    0
 Symmetry not used in FoFCou.
 Two-electron integral symmetry not used.
 UHF open shell SCF:
 Using DIIS extrapolation, IDIIS=  1040.
 NGot=   536870912 LenX=   535237675 LenY=   535234530
 Requested convergence on RMS density matrix=1.00D-08 within 128 cycles.
 Requested convergence on MAX density matrix=1.00D-06.
 Requested convergence on             energy=1.00D-06.
 No special actions if energy rises.

 Cycle   1  Pass 1  IDiag  1:
 E= -92.8290732306039    
 DIIS: error= 3.29D-04 at cycle   1 NSaved=   1.
 NSaved= 1 IEnMin= 1 EnMin= -92.8290732306039     IErMin= 1 ErrMin= 3.29D-04
 ErrMax= 3.29D-04  0.00D+00 EMaxC= 1.00D-01 BMatC= 1.28D-05 BMatP= 1.28D-05
 IDIUse=3 WtCom= 9.97D-01 WtEn= 3.29D-03
 Coeff-Com:  0.100D+01
 Coeff-En:   0.100D+01
 Coeff:      0.100D+01
 Gap=     0.445 Goal=   None    Shift=    0.000
 Gap=     0.445 Goal=   None    Shift=    0.000
 RMSDP=3.31D-05 MaxDP=3.93D-04              OVMax= 9.36D-04

 Cycle   2  Pass 1  IDiag  1:
 E= -92.8290734149013     Delta-E=       -0.000000184297 Rises=F Damp=F
 DIIS: error= 3.72D-04 at cycle   2 NSaved=   2.
 NSaved= 2 IEnMin= 2 EnMin= -92.8290734149013     IErMin= 1 ErrMin= 3.29D-04
 ErrMax= 3.72D-04  0.00D+00 EMaxC= 1.00D-01 BMatC= 8.35D-06 BMatP= 1.28D-05
 IDIUse=3 WtCom= 9.96D-01 WtEn= 3.72D-03
 Coeff-Com:  0.404D+00 0.596D+00
 Coeff-En:   0.471D+00 0.529D+00
 Coeff:      0.404D+00 0.596D+00
 Gap=     0.084 Goal=   None    Shift=    0.000
 Gap=     0.084 Goal=   None    Shift=    0.000
 RMSDP=1.05D-04 MaxDP=9.32D-04 DE=-1.84D-07 OVMax= 5.56D-03

 Cycle   3  Pass 1  IDiag  1:
 E= -92.8289955917210     Delta-E=        0.000077823180 Rises=F Damp=F
 DIIS: error= 1.96D-03 at cycle   3 NSaved=   3.
 NSaved= 3 IEnMin= 2 EnMin= -92.8290734149013     IErMin= 1 ErrMin= 3.29D-04
 ErrMax= 1.96D-03  0.00D+00 EMaxC= 1.00D-01 BMatC= 2.32D-04 BMatP= 8.35D-06
 IDIUse=3 WtCom= 1.84D-01 WtEn= 8.16D-01
 Coeff-Com: -0.394D-02 0.845D+00 0.159D+00
 Coeff-En:   0.000D+00 0.875D+00 0.125D+00
 Coeff:     -0.726D-03 0.870D+00 0.131D+00
 Gap=     0.084 Goal=   None    Shift=    0.000
 Gap=     0.084 Goal=   None    Shift=    0.000
 RMSDP=5.83D-05 MaxDP=5.43D-04 DE= 7.78D-05 OVMax= 3.11D-03

 Cycle   4  Pass 1  IDiag  1:
 E= -92.8290677274878     Delta-E=       -0.000072135767 Rises=F Damp=F
 DIIS: error= 6.40D-04 at cycle   4 NSaved=   4.
 NSaved= 4 IEnMin= 2 EnMin= -92.8290734149013     IErMin= 1 ErrMin= 3.29D-04
 ErrMax= 6.40D-04  0.00D+00 EMaxC= 1.00D-01 BMatC= 2.46D-05 BMatP= 8.35D-06
 IDIUse=3 WtCom= 2.83D-01 WtEn= 7.17D-01
 Coeff-Com: -0.171D-01 0.287D+00-0.273D+00 0.100D+01
 Coeff-En:   0.000D+00 0.644D+00 0.000D+00 0.356D+00
 Coeff:     -0.483D-02 0.543D+00-0.773D-01 0.539D+00
 Gap=     0.084 Goal=   None    Shift=    0.000
 Gap=     0.084 Goal=   None    Shift=    0.000
 RMSDP=2.57D-05 MaxDP=2.29D-04 DE=-7.21D-05 OVMax= 1.37D-03

 Cycle   5  Pass 1  IDiag  1:
 E= -92.8290763720144     Delta-E=       -0.000008644527 Rises=F Damp=F
 DIIS: error= 6.89D-05 at cycle   5 NSaved=   5.
 NSaved= 5 IEnMin= 5 EnMin= -92.8290763720144     IErMin= 5 ErrMin= 6.89D-05
 ErrMax= 6.89D-05  0.00D+00 EMaxC= 1.00D-01 BMatC= 2.81D-07 BMatP= 8.35D-06
 IDIUse=1 WtCom= 1.00D+00 WtEn= 0.00D+00
 Coeff-Com: -0.282D-02-0.107D+00 0.156D+00-0.719D+00 0.167D+01
 Coeff:     -0.282D-02-0.107D+00 0.156D+00-0.719D+00 0.167D+01
 Gap=     0.084 Goal=   None    Shift=    0.000
 Gap=     0.084 Goal=   None    Shift=    0.000
 DSYEVD-2 returned Info=         101 IAlg= 4 N=    50 NDim=    50 NE2=    10704689 trying  DSYEV.
 RMSDP=3.22D-06 MaxDP=2.55D-05 DE=-8.64D-06 OVMax= 1.65D-04

 Cycle   6  Pass 1  IDiag  1:
 E= -92.8290764755385     Delta-E=       -0.000000103524 Rises=F Damp=F
 DIIS: error= 1.43D-06 at cycle   6 NSaved=   6.
 NSaved= 6 IEnMin= 6 EnMin= -92.8290764755385     IErMin= 6 ErrMin= 1.43D-06
 ErrMax= 1.43D-06  0.00D+00 EMaxC= 1.00D-01 BMatC= 2.06D-10 BMatP= 2.81D-07
 IDIUse=1 WtCom= 1.00D+00 WtEn= 0.00D+00
 Coeff-Com:  0.605D-03-0.257D-01 0.305D-01-0.131D+00 0.196D+00 0.930D+00
 Coeff:      0.605D-03-0.257D-01 0.305D-01-0.131D+00 0.196D+00 0.930D+00
 Gap=     0.084 Goal=   None    Shift=    0.000
 Gap=     0.084 Goal=   None    Shift=    0.000
 RMSDP=1.39D-07 MaxDP=2.48D-06 DE=-1.04D-07 OVMax= 4.59D-06

 Cycle   7  Pass 1  IDiag  1:
 E= -92.8290764755230     Delta-E=        0.000000000016 Rises=F Damp=F
 DIIS: error= 2.10D-06 at cycle   7 NSaved=   7.
 NSaved= 7 IEnMin= 6 EnMin= -92.8290764755385     IErMin= 6 ErrMin= 1.43D-06
 ErrMax= 2.10D-06  0.00D+00 EMaxC= 1.00D-01 BMatC= 2.60D-10 BMatP= 2.06D-10
 IDIUse=1 WtCom= 1.00D+00 WtEn= 0.00D+00
 Coeff-Com:  0.579D-04 0.141D-02-0.336D-02 0.108D-01-0.274D-01 0.481D-01
 Coeff-Com:  0.970D+00
 Coeff:      0.579D-04 0.141D-02-0.336D-02 0.108D-01-0.274D-01 0.481D-01
 Coeff:      0.970D+00
 Gap=     0.084 Goal=   None    Shift=    0.000
 Gap=     0.084 Goal=   None    Shift=    0.000
 RMSDP=1.04D-07 MaxDP=1.02D-06 DE= 1.55D-11 OVMax= 5.92D-06

 Cycle   8  Pass 1  IDiag  1:
 E= -92.8290764756154     Delta-E=       -0.000000000092 Rises=F Damp=F
 DIIS: error= 2.33D-07 at cycle   8 NSaved=   8.
 NSaved= 8 IEnMin= 8 EnMin= -92.8290764756154     IErMin= 8 ErrMin= 2.33D-07
 ErrMax= 2.33D-07  0.00D+00 EMaxC= 1.00D-01 BMatC= 2.34D-12 BMatP= 2.06D-10
 IDIUse=1 WtCom= 1.00D+00 WtEn= 0.00D+00
 Coeff-Com:  0.339D-05 0.830D-03-0.131D-02 0.524D-02-0.111D-01-0.604D-02
 Coeff-Com:  0.207D+00 0.805D+00
 Coeff:      0.339D-05 0.830D-03-0.131D-02 0.524D-02-0.111D-01-0.604D-02
 Coeff:      0.207D+00 0.805D+00
 Gap=     0.084 Goal=   None    Shift=    0.000
 Gap=     0.084 Goal=   None    Shift=    0.000
 RMSDP=1.68D-08 MaxDP=1.88D-07 DE=-9.25D-11 OVMax= 1.15D-06

 Cycle   9  Pass 1  IDiag  1:
 E= -92.8290764756172     Delta-E=       -0.000000000002 Rises=F Damp=F
 DIIS: error= 1.88D-07 at cycle   9 NSaved=   9.
 NSaved= 9 IEnMin= 9 EnMin= -92.8290764756172     IErMin= 9 ErrMin= 1.88D-07
 ErrMax= 1.88D-07  0.00D+00 EMaxC= 1.00D-01 BMatC= 8.71D-13 BMatP= 2.34D-12
 IDIUse=1 WtCom= 1.00D+00 WtEn= 0.00D+00
 Coeff-Com: -0.423D-05 0.112D-02-0.159D-02 0.673D-02-0.133D-01-0.178D-01
 Coeff-Com:  0.177D+00 0.134D+01-0.492D+00
 Coeff:     -0.423D-05 0.112D-02-0.159D-02 0.673D-02-0.133D-01-0.178D-01
 Coeff:      0.177D+00 0.134D+01-0.492D+00
 Gap=     0.084 Goal=   None    Shift=    0.000
 Gap=     0.084 Goal=   None    Shift=    0.000
 RMSDP=2.05D-08 MaxDP=1.93D-07 DE=-1.76D-12 OVMax= 1.21D-06

 Cycle  10  Pass 1  IDiag  1:
 E= -92.8290764756159     Delta-E=        0.000000000001 Rises=F Damp=F
 DIIS: error= 1.30D-07 at cycle  10 NSaved=  10.
 NSaved=10 IEnMin= 9 EnMin= -92.8290764756172     IErMin=10 ErrMin= 1.30D-07
 ErrMax= 1.30D-07  0.00D+00 EMaxC= 1.00D-01 BMatC= 6.82D-13 BMatP= 8.71D-13
 IDIUse=1 WtCom= 1.00D+00 WtEn= 0.00D+00
 Coeff-Com: -0.350D-05 0.126D-03-0.695D-04 0.691D-03-0.118D-02-0.583D-02
 Coeff-Com: -0.179D-01 0.208D+00-0.367D+00 0.118D+01
 Coeff:     -0.350D-05 0.126D-03-0.695D-04 0.691D-03-0.118D-02-0.583D-02
 Coeff:     -0.179D-01 0.208D+00-0.367D+00 0.118D+01
 Gap=     0.084 Goal=   None    Shift=    0.000
 Gap=     0.084 Goal=   None    Shift=    0.000
 RMSDP=7.97D-09 MaxDP=1.02D-07 DE= 1.28D-12 OVMax= 6.20D-07

 SCF Done:  E(UM062X) =  -92.8290764756     A.U. after   10 cycles
            NFock= 10  Conv=0.80D-08     -V/T= 2.0036
 <Sx>= 0.0000 <Sy>= 0.0000 <Sz>= 0.0000 <S**2>= 0.0000 S= 0.0000
 <L.S>=  0.00000000000    
 KE= 9.249904338018D+01 PE=-2.368413919960D+02 EE= 4.162932585093D+01
 Annihilation of the first spin contaminant:
 S**2 before annihilation     0.0000,   after    -0.0000
 Leave Link  502 at Mon Apr 21 18:39:52 2025, MaxMem=   536870912 cpu:              18.8 elap:               2.5
 (Enter /home/szhao/Apps/g16/l701.exe)
 ... and contract with generalized density number  0.
 Compute integral first derivatives.
 Leave Link  701 at Mon Apr 21 18:39:53 2025, MaxMem=   536870912 cpu:               1.3 elap:               0.2
 (Enter /home/szhao/Apps/g16/l702.exe)
 L702 exits ... SP integral derivatives will be done elsewhere.
 Leave Link  702 at Mon Apr 21 18:39:53 2025, MaxMem=   536870912 cpu:               0.4 elap:               0.1
 (Enter /home/szhao/Apps/g16/l703.exe)
 Integral derivatives from FoFJK, PRISM(SPDF).
 Compute integral first derivatives, UseDBF=F ICtDFT=           0.
 Calling FoFJK, ICntrl=      2127 FMM=F ISym2X=0 I1Cent= 0 IOpClX= 1 NMat=1 NMatS=1 NMatT=0.
 FoFJK:  IHMeth= 1 ICntrl=    2127 DoSepK=F KAlg= 0 I1Cent=           0 FoldK=F
 IRaf=         0 NMat=       1 IRICut=       1 DoRegI=T DoRafI=F ISym2E= 0 IDoP0=0 IntGTp=1.
 FoFCou: FMM=F IPFlag=           0 FMFlag=      100000 FMFlg1=         800
         NFxFlg=           0 DoJE=F BraDBF=F KetDBF=F FulRan=T
         wScrn=  0.000000 ICntrl=      2127 IOpCl=  1 I1Cent=           0 NGrid=           0
         NMat0=    1 NMatS0=      1 NMatT0=    0 NMatD0=    1 NMtDS0=    0 NMtDT0=    0
 Symmetry not used in FoFCou.
 Leave Link  703 at Mon Apr 21 18:39:54 2025, MaxMem=   536870912 cpu:               4.1 elap:               0.5
 (Enter /home/szhao/Apps/g16/l716.exe)
 Dipole        =-2.38373846D+00 1.50098430D-13 2.21115430D-13
 -------------------------------------------------------------------
 Center     Atomic                   Forces (Hartrees/Bohr)
 Number     Number              X              Y              Z
 -------------------------------------------------------------------
      1        6          -0.000000000   -0.000000000   -0.000000000
      2        7          -0.000000000   -0.000000000   -0.000000000
      3        1           0.000012419   -0.000000000   -0.000000000
 -------------------------------------------------------------------
 Cartesian Forces:  Max     0.000012419 RMS     0.000004140
 Leave Link  716 at Mon Apr 21 18:39:54 2025, MaxMem=   536870912 cpu:               0.5 elap:               0.2
 (Enter /home/szhao/Apps/g16/l103.exe)

 GradGradGradGradGradGradGradGradGradGradGradGradGradGradGradGradGradGrad
 Berny optimization.
 Using GEDIIS/GDIIS optimizer.
 FormGI is forming the generalized inverse of G from B-inverse, IUseBI=4.
 Internal  Forces:  Max     0.000012419 RMS     0.000005855
 Search for a local minimum.
 Step number   3 out of a maximum of   20
 All quantities printed in internal units (Hartrees-Bohrs-Radians)
 RMS Force = .71703D-05 SwitMx=.10000D-02 MixMth= 2
 Mixed Optimization -- En-DIIS/RFO-DIIS
 Update second derivatives using D2CorX and points    1    2    3
 DE= -1.07D-05 DEPred=-8.85D-06 R= 1.21D+00
 TightC=F SS=  1.41D+00  RLast= 8.51D-03 DXNew= 5.0910D-01 2.5541D-02
 Trust test= 1.21D+00 RLast= 8.51D-03 DXMaxT set to 3.03D-01
 The second derivative matrix:
                          X1        Y1        Z1        X2        Y2
           X1           0.80055
           Y1           0.00000   0.50000
           Z1          -0.00000  -0.00000   0.50000
           X2          -0.00000  -0.00000   0.00000   0.50000
           Y2          -0.00000  -0.00000   0.00000   0.00000   0.50000
           Z2           0.00000   0.00000  -0.00000  -0.00000  -0.00000
           R1          -0.30055  -0.00000   0.00000   0.00000   0.00000
           A1          -0.00000  -0.00000   0.00000   0.00000   0.00000
           A2          -0.00000  -0.00000   0.00000   0.00000   0.00000
                          Z2        R1        A1        A2
           Z2           0.50000
           R1          -0.00000   0.30055
           A1          -0.00000   0.00000   0.00531
           A2          -0.00000   0.00000   0.00000   0.00531
 ITU=  1  1  0
 Use linear search instead of GDIIS.
     Eigenvalues ---    0.00531   0.300551000.000001000.000001000.00000
     Eigenvalues --- 1000.000001000.000001000.000001000.00000
 RFO step:  Lambda= 0.00000000D+00 EMin= 5.30570372D-03
 Quartic linear search produced a step of -0.00491.
 Iteration  1 RMS(Cart)=  0.00001395 RMS(Int)=  0.00000000
 Iteration  2 RMS(Cart)=  0.00000000 RMS(Int)=  0.00000000
 ITry= 1 IFail=0 DXMaxC= 4.18D-05 DCOld= 1.00D+10 DXMaxT= 3.03D-01 DXLimC= 3.00D+00 Rises=F
 Variable       Old X    -DE/DX   Delta X   Delta X   Delta X     New X
                                 (Linear)    (Quad)   (Total)
    X1       -3.34934   0.00001   0.00000   0.00000   0.00000  -3.34934
    Y1        0.00000   0.00000   0.00000   0.00000   0.00000   0.00000
    Z1        0.00000   0.00000   0.00000   0.00000   0.00000   0.00000
    X2        3.34934   0.00000   0.00000   0.00000   0.00000   3.34934
    Y2        0.00000  -0.00000   0.00000   0.00000   0.00000   0.00000
    Z2        0.00000  -0.00000   0.00000   0.00000   0.00000   0.00000
    R1        2.12697  -0.00001  -0.00004   0.00000  -0.00004   2.12693
    A1        3.14159   0.00000   0.00000  -0.00000   0.00000   3.14159
    A2        3.14159  -0.00000   0.00000  -0.00000   0.00000   3.14159
         Item               Value     Threshold  Converged?
 Maximum Force            0.000012     0.000450     YES
 RMS     Force            0.000007     0.000300     YES
 Maximum Displacement     0.000042     0.001800     YES
 RMS     Displacement     0.000014     0.001200     YES
 Predicted change in Energy=-2.565591D-10
 Optimization completed.
    -- Stationary point found.
                           ----------------------------
                           !   Optimized Parameters   !
                           ! (Angstroms and Degrees)  !
 --------------------------                            --------------------------
 ! Name  Definition              Value          Derivative Info.                !
 --------------------------------------------------------------------------------
 ! X1    R(1,-1)                -1.7724         -DE/DX =    0.0                 !
 ! Y1    R(1,-2)                 0.0            -DE/DX =    0.0                 !
 ! Z1    R(1,-3)                 0.0            -DE/DX =    0.0                 !
 ! X2    R(2,-1)                 1.7724         -DE/DX =    0.0                 !
 ! Y2    R(2,-2)                 0.0            -DE/DX =    0.0                 !
 ! Z2    R(2,-3)                 0.0            -DE/DX =    0.0                 !
 ! R1    R(1,3)                  1.1255         -DE/DX =    0.0                 !
 ! A1    L(2,1,3,-2,-1)        180.0            -DE/DX =    0.0                 !
 ! A2    L(2,1,3,-3,-2)        180.0            -DE/DX =    0.0                 !
 --------------------------------------------------------------------------------
 Lowest energy point so far.  Saving SCF results.
 Largest change from initial coordinates is atom    3       0.058 Angstoms.
 GradGradGradGradGradGradGradGradGradGradGradGradGradGradGradGradGradGrad

 Leave Link  103 at Mon Apr 21 18:39:54 2025, MaxMem=   536870912 cpu:               0.3 elap:               0.1
 (Enter /home/szhao/Apps/g16/l202.exe)
                          Input orientation:                          
 ---------------------------------------------------------------------
 Center     Atomic      Atomic             Coordinates (Angstroms)
 Number     Number       Type             X           Y           Z
 ---------------------------------------------------------------------
      1          6           0       -1.772395    0.000000    0.000000
      2          7           0        1.772395    0.000000    0.000000
      3          1           0       -2.897939   -0.000000   -0.000000
 ---------------------------------------------------------------------
                    Distance matrix (angstroms):
                    1          2          3
     1  C    0.000000
     2  N    3.544789   0.000000
     3  H    1.125545   4.670334   0.000000
 Symmetry turned off by external request.
 Stoichiometry    CHN
 Framework group  C*V[C*(HCN)]
 Deg. of freedom     2
 Full point group                 C*V     NOp   4
 Rotational constants (GHZ):           0.0000000           5.6069314           5.6069314
 Leave Link  202 at Mon Apr 21 18:39:54 2025, MaxMem=   536870912 cpu:               0.1 elap:               0.1
 (Enter /home/szhao/Apps/g16/l601.exe)
 Copying SCF densities to generalized density rwf, IOpCl= 1 IROHF=0.

 **********************************************************************

            Population analysis using the SCF density.

 **********************************************************************

 Alpha  occ. eigenvalues --  -14.81847 -10.76255  -0.80199  -0.76528  -0.45342
 Alpha  occ. eigenvalues --   -0.26476  -0.26476
 Alpha virt. eigenvalues --   -0.18045  -0.18045  -0.08101  -0.00019   0.06388
 Alpha virt. eigenvalues --    0.06388   0.07869   0.12714   0.16139   0.17318
 Alpha virt. eigenvalues --    0.17318   0.23730   0.42051   0.52073   0.52073
 Alpha virt. eigenvalues --    0.56643   0.68665   0.86871   0.86871   0.86927
 Alpha virt. eigenvalues --    1.06936   1.06936   1.07634   1.26595   1.26595
 Alpha virt. eigenvalues --    1.51473   1.78796   1.78796   2.02939   2.02939
 Alpha virt. eigenvalues --    2.04421   2.06951   2.06951   2.33230   2.44288
 Alpha virt. eigenvalues --    2.63620   2.63620   3.10480   3.84974   3.86713
 Alpha virt. eigenvalues --    3.86713  23.42366  35.26483
  Beta  occ. eigenvalues --  -14.81847 -10.76255  -0.80199  -0.76528  -0.45342
  Beta  occ. eigenvalues --   -0.26476  -0.26476
  Beta virt. eigenvalues --   -0.18045  -0.18045  -0.08101  -0.00019   0.06388
  Beta virt. eigenvalues --    0.06388   0.07869   0.12714   0.16139   0.17318
  Beta virt. eigenvalues --    0.17318   0.23730   0.42051   0.52073   0.52073
  Beta virt. eigenvalues --    0.56643   0.68665   0.86871   0.86871   0.86927
  Beta virt. eigenvalues --    1.06936   1.06936   1.07634   1.26595   1.26595
  Beta virt. eigenvalues --    1.51473   1.78796   1.78796   2.02939   2.02939
  Beta virt. eigenvalues --    2.04421   2.06951   2.06951   2.33230   2.44288
  Beta virt. eigenvalues --    2.63620   2.63620   3.10480   3.84974   3.86713
  Beta virt. eigenvalues --    3.86713  23.42366  35.26483
          Condensed to atoms (all electrons):
               1          2          3
     1  C    5.690394   0.031923   0.207735
     2  N    0.031923   7.211299   0.000941
     3  H    0.207735   0.000941   0.617109
          Atomic-Atomic Spin Densities.
               1          2          3
     1  C    0.000000   0.000000   0.000000
     2  N    0.000000  -0.000000  -0.000000
     3  H    0.000000  -0.000000  -0.000000
 Mulliken charges and spin densities:
               1          2
     1  C    0.069948   0.000000
     2  N   -0.244163  -0.000000
     3  H    0.174215  -0.000000
 Sum of Mulliken charges =  -0.00000  -0.00000
 Mulliken charges and spin densities with hydrogens summed into heavy atoms:
               1          2
     1  C    0.244163   0.000000
     2  N   -0.244163  -0.000000
 Electronic spatial extent (au):  <R**2>=            200.4619
 Charge=             -0.0000 electrons
 Dipole moment (field-independent basis, Debye):
    X=             -6.0589    Y=              0.0000    Z=              0.0000  Tot=              6.0589
 Quadrupole moment (field-independent basis, Debye-Ang):
   XX=             -4.6263   YY=            -14.2556   ZZ=            -14.2556
   XY=             -0.0000   XZ=             -0.0000   YZ=             -0.0000
 Traceless Quadrupole moment (field-independent basis, Debye-Ang):
   XX=              6.4195   YY=             -3.2098   ZZ=             -3.2098
   XY=             -0.0000   XZ=             -0.0000   YZ=             -0.0000
 Octapole moment (field-independent basis, Debye-Ang**2):
  XXX=            -21.9513  YYY=              0.0000  ZZZ=              0.0000  XYY=             -2.3998
  XXY=              0.0000  XXZ=              0.0000  XZZ=             -2.3998  YZZ=              0.0000
  YYZ=              0.0000  XYZ=              0.0000
 Hexadecapole moment (field-independent basis, Debye-Ang**3):
 XXXX=           -189.8086 YYYY=            -19.6934 ZZZZ=            -19.6934 XXXY=             -0.0000
 XXXZ=             -0.0000 YYYX=             -0.0000 YYYZ=             -0.0000 ZZZX=             -0.0000
 ZZZY=             -0.0000 XXYY=            -51.4747 XXZZ=            -51.4747 YYZZ=             -6.5645
 XXYZ=             -0.0000 YYXZ=             -0.0000 ZZXY=             -0.0000
 N-N= 9.883946289252D+00 E-N=-2.368413911732D+02  KE= 9.249904338018D+01
                          Isotropic Fermi Contact Couplings
        Atom                 a.u.       MegaHertz       Gauss      10(-4) cm-1
     1  C(13)              0.00000       0.00000       0.00000       0.00000
     2  N(14)             -0.00000      -0.00000      -0.00000      -0.00000
     3  H(1)              -0.00000      -0.00000      -0.00000      -0.00000
 --------------------------------------------------------
       Center         ----  Spin Dipole Couplings  ----
                      3XX-RR        3YY-RR        3ZZ-RR
 --------------------------------------------------------
     1   Atom       -0.000000     -0.000000      0.000000
     2   Atom        0.000000      0.000000     -0.000000
     3   Atom        0.000000     -0.000000      0.000000
 --------------------------------------------------------
                        XY            XZ            YZ
 --------------------------------------------------------
     1   Atom       -0.000000      0.000000      0.000000
     2   Atom        0.000000      0.000000     -0.000000
     3   Atom       -0.000000     -0.000000      0.000000
 --------------------------------------------------------


 ---------------------------------------------------------------------------------
              Anisotropic Spin Dipole Couplings in Principal Axis System
 ---------------------------------------------------------------------------------

       Atom             a.u.   MegaHertz   Gauss  10(-4) cm-1        Axes

              Baa    -0.0000    -0.000    -0.000    -0.000  0.0000  0.8922 -0.4516
     1 C(13)  Bbb    -0.0000    -0.000    -0.000    -0.000  1.0000 -0.0000 -0.0000
              Bcc     0.0000     0.000     0.000     0.000  0.0000  0.4516  0.8922
 
              Baa    -0.0000    -0.000    -0.000    -0.000 -0.0000  0.4516  0.8922
     2 N(14)  Bbb     0.0000     0.000     0.000     0.000  1.0000  0.0000  0.0000
              Bcc     0.0000     0.000     0.000     0.000 -0.0000  0.8922 -0.4516
 
              Baa    -0.0000    -0.000    -0.000    -0.000 -0.0000  0.8922 -0.4516
     3 H(1)   Bbb     0.0000     0.000     0.000     0.000  1.0000  0.0000  0.0000
              Bcc     0.0000     0.000     0.000     0.000 -0.0000  0.4516  0.8922
 

 ---------------------------------------------------------------------------------

 No NMR shielding tensors so no spin-rotation constants.
 Leave Link  601 at Mon Apr 21 18:39:55 2025, MaxMem=   536870912 cpu:               1.8 elap:               0.3
 (Enter /home/szhao/Apps/g16/l9999.exe)
 1\1\GINC-NODE05\FOpt\UM062X\6-311+G(d,p)\C1H1N1\SZHAO\21-Apr-2025\0\\#
 p opt UM062X/6-311+G** nosymm int=superfine\\Title Card Required\\0,1\
 C,-1.7723945,0.,0.\N,1.7723945,0.,0.\H,-2.8979394018,0.,0.\\Version=ES
 64L-G16RevA.03\HF=-92.8290765\S2=0.\S2-1=0.\S2A=0.\RMSD=7.971e-09\RMSF
 =4.140e-06\Dipole=-2.3837385,0.,0.\Quadrupole=4.7727587,-2.3863793,-2.
 3863794,0.,0.,0.\PG=C*V [C*(H1C1N1)]\\@


 AN AIRPLANE IS A COLLECTION OF SPARE PARTS
 FLYING IN CLOSE FORMATION.
 Job cpu time:       0 days  0 hours  1 minutes 53.1 seconds.
 Elapsed time:       0 days  0 hours  0 minutes 17.7 seconds.
 File lengths (MBytes):  RWF=     17 Int=      0 D2E=      0 Chk=      2 Scr=      2
 Normal termination of Gaussian 16 at Mon Apr 21 18:39:55 2025.
