 Entering Gaussian System, Link 0=g16
 Initial command:
 /home/szhao/Apps/g16/l1.exe "/home/szhao/tmp/Gau-49281.inp" -scrdir="/home/szhao/tmp/"
 Default is to use a total of  16 processors:
                               16 via shared-memory
                                1 via Linda
 Entering Link 1 = /home/szhao/Apps/g16/l1.exe PID=     49283.
  
 Copyright (c) 1988,1990,1992,1993,1995,1998,2003,2009,2016,
            Gaussian, Inc.  All Rights Reserved.
  
 This is part of the Gaussian(R) 16 program.  It is based on
 the Gaussian(R) 09 system (copyright 2009, Gaussian, Inc.),
 the Gaussian(R) 03 system (copyright 2003, Gaussian, Inc.),
 the Gaussian(R) 98 system (copyright 1998, Gaussian, Inc.),
 the Gaussian(R) 94 system (copyright 1995, Gaussian, Inc.),
 the Gaussian 92(TM) system (copyright 1992, Gaussian, Inc.),
 the Gaussian 90(TM) system (copyright 1990, Gaussian, Inc.),
 the Gaussian 88(TM) system (copyright 1988, Gaussian, Inc.),
 the Gaussian 86(TM) system (copyright 1986, Carnegie Mellon
 University), and the Gaussian 82(TM) system (copyright 1983,
 Carnegie Mellon University). Gaussian is a federally registered
 trademark of Gaussian, Inc.
  
 This software contains proprietary and confidential information,
 including trade secrets, belonging to Gaussian, Inc.
  
 This software is provided under written license and may be
 used, copied, transmitted, or stored only in accord with that
 written license.
  
 The following legend is applicable only to US Government
 contracts under FAR:
  
                    RESTRICTED RIGHTS LEGEND
  
 Use, reproduction and disclosure by the US Government is
 subject to restrictions as set forth in subparagraphs (a)
 and (c) of the Commercial Computer Software - Restricted
 Rights clause in FAR 52.227-19.
  
 Gaussian, Inc.
 340 Quinnipiac St., Bldg. 40, Wallingford CT 06492
  
  
 ---------------------------------------------------------------
 Warning -- This program may not be used in any manner that
 competes with the business of Gaussian, Inc. or will provide
 assistance to any competitor of Gaussian, Inc.  The licensee
 of this program is prohibited from giving any competitor of
 Gaussian, Inc. access to this program.  By using this program,
 the user acknowledges that Gaussian, Inc. is engaged in the
 business of creating and licensing software in the field of
 computational chemistry and represents and warrants to the
 licensee that it is not a competitor of Gaussian, Inc. and that
 it will not use this program in any manner prohibited above.
 ---------------------------------------------------------------
  

 Cite this work as:
 Gaussian 16, Revision A.03,
 M. J. Frisch, G. W. Trucks, H. B. Schlegel, G. E. Scuseria, 
 M. A. Robb, J. R. Cheeseman, G. Scalmani, V. Barone, 
 G. A. Petersson, H. Nakatsuji, X. Li, M. Caricato, A. V. Marenich, 
 J. Bloino, B. G. Janesko, R. Gomperts, B. Mennucci, H. P. Hratchian, 
 J. V. Ortiz, A. F. Izmaylov, J. L. Sonnenberg, D. Williams-Young, 
 F. Ding, F. Lipparini, F. Egidi, J. Goings, B. Peng, A. Petrone, 
 T. Henderson, D. Ranasinghe, V. G. Zakrzewski, J. Gao, N. Rega, 
 G. Zheng, W. Liang, M. Hada, M. Ehara, K. Toyota, R. Fukuda, 
 J. Hasegawa, M. Ishida, T. Nakajima, Y. Honda, O. Kitao, H. Nakai, 
 T. Vreven, K. Throssell, J. A. Montgomery, Jr., J. E. Peralta, 
 F. Ogliaro, M. J. Bearpark, J. J. Heyd, E. N. Brothers, K. N. Kudin, 
 V. N. Staroverov, T. A. Keith, R. Kobayashi, J. Normand, 
 K. Raghavachari, A. P. Rendell, J. C. Burant, S. S. Iyengar, 
 J. Tomasi, M. Cossi, J. M. Millam, M. Klene, C. Adamo, R. Cammi, 
 J. W. Ochterski, R. L. Martin, K. Morokuma, O. Farkas, 
 J. B. Foresman, and D. J. Fox, Gaussian, Inc., Wallingford CT, 2016.
 
 ******************************************
 Gaussian 16:  ES64L-G16RevA.03 25-Dec-2016
                16-Nov-2024 
 ******************************************
 %chk=opt.chk
 %mem=16GB
 %nprocshared=28
 Will use up to   28 processors via shared memory.
 --------------------------------------------
 #p opt UM062X/6-311+G** nosymm int=superfine
 --------------------------------------------
 1/18=20,19=15,26=5,38=1/1,3;
 2/9=110,12=2,15=1,17=6,18=5,40=1/2;
 3/5=4,6=6,7=111,11=2,25=1,30=1,71=1,74=-55,75=-7,116=2/1,2,3;
 4//1;
 5/5=2,38=5/2;
 6/7=2,8=2,9=2,10=2,28=1/1;
 7/30=1/1,2,3,16;
 1/18=20,19=15,26=5/3(2);
 2/9=110,15=1/2;
 99//99;
 2/9=110,15=1/2;
 3/5=4,6=6,7=111,11=2,25=1,30=1,71=1,74=-55,75=-7,116=2/1,2,3;
 4/5=5,16=3,69=1/1;
 5/5=2,38=5/2;
 7/30=1/1,2,3,16;
 1/18=20,19=15,26=5/3(-5);
 2/9=110,15=1/2;
 6/7=2,8=2,9=2,10=2,19=2,28=1/1;
 99/9=1/99;
 Leave Link    1 at Sat Nov 16 15:34:16 2024, MaxMem=  2147483648 cpu:               2.3 elap:               0.1
 (Enter /home/szhao/Apps/g16/l101.exe)
 -------------------
 Title Card Required
 -------------------
 Symbolic Z-matrix:
 Charge =  1 Multiplicity = 2
 C                    -1   -0.58494   0.        0. 
 C                    -1    0.58494   0.        0. 
 H                    0     0.60915  -0.93683   0.54223 
 H                    0    -0.60854  -0.93793  -0.54043 
 H                    0     0.6089    0.93804   0.54019 
 H                    0     0.6086   -0.00115  -1.08249 
 H                    0    -0.60913   0.93691  -0.54208 
 H                    0    -0.60886   0.00092   1.08246 
 
 ITRead=  2  2  0  0  0  0  0  0
 MicOpt= -2 -2 -1 -1 -1 -1 -1 -1
 NAtoms=      8 NQM=        6 NQMF=       2 NMMI=      0 NMMIF=      0
                NMic=       0 NMicF=      0.
                    Isotopes and Nuclear Properties:
 (Nuclear quadrupole moments (NQMom) in fm**2, nuclear magnetic moments (NMagM)
  in nuclear magnetons)

  Atom         1           2           3           4           5           6           7           8
 IAtWgt=          12          12           1           1           1           1           1           1
 AtmWgt=  12.0000000  12.0000000   1.0078250   1.0078250   1.0078250   1.0078250   1.0078250   1.0078250
 NucSpn=           0           0           1           1           1           1           1           1
 AtZEff=  -0.0000000  -0.0000000  -0.0000000  -0.0000000  -0.0000000  -0.0000000  -0.0000000  -0.0000000
 NQMom=    0.0000000   0.0000000   0.0000000   0.0000000   0.0000000   0.0000000   0.0000000   0.0000000
 NMagM=    0.0000000   0.0000000   2.7928460   2.7928460   2.7928460   2.7928460   2.7928460   2.7928460
 AtZNuc=   6.0000000   6.0000000   1.0000000   1.0000000   1.0000000   1.0000000   1.0000000   1.0000000
 Leave Link  101 at Sat Nov 16 15:34:17 2024, MaxMem=  2147483648 cpu:              24.2 elap:               0.9
 (Enter /home/szhao/Apps/g16/l103.exe)

 GradGradGradGradGradGradGradGradGradGradGradGradGradGradGradGradGradGrad
 Berny optimization.
 Initialization pass.
                           ----------------------------
                           !    Initial Parameters    !
                           ! (Angstroms and Degrees)  !
 --------------------------                            --------------------------
 ! Name  Definition              Value          Derivative Info.                !
 --------------------------------------------------------------------------------
 ! X1    R(1,-1)                -0.5849         Frozen                          !
 ! Y1    R(1,-2)                 0.0            Frozen                          !
 ! Z1    R(1,-3)                 0.0            Frozen                          !
 ! X2    R(2,-1)                 0.5849         Frozen                          !
 ! Y2    R(2,-2)                 0.0            Frozen                          !
 ! Z2    R(2,-3)                 0.0            Frozen                          !
 ! R1    R(1,4)                  1.0827         estimate D2E/DX2                !
 ! R2    R(1,7)                  1.0827         estimate D2E/DX2                !
 ! R3    R(1,8)                  1.0827         estimate D2E/DX2                !
 ! R4    R(2,3)                  1.0827         estimate D2E/DX2                !
 ! R5    R(2,5)                  1.0827         estimate D2E/DX2                !
 ! R6    R(2,6)                  1.0828         estimate D2E/DX2                !
 ! A1    A(2,1,4)               91.2493         estimate D2E/DX2                !
 ! A2    A(2,1,7)               91.2804         estimate D2E/DX2                !
 ! A3    A(2,1,8)               91.2662         estimate D2E/DX2                !
 ! A4    A(4,1,7)              119.9485         estimate D2E/DX2                !
 ! A5    A(4,1,8)              119.9512         estimate D2E/DX2                !
 ! A6    A(7,1,8)              119.9552         estimate D2E/DX2                !
 ! A7    A(1,2,3)               91.2818         estimate D2E/DX2                !
 ! A8    A(1,2,5)               91.2684         estimate D2E/DX2                !
 ! A9    A(1,2,6)               91.2524         estimate D2E/DX2                !
 ! A10   A(3,2,5)              119.9527         estimate D2E/DX2                !
 ! A11   A(3,2,6)              119.9524         estimate D2E/DX2                !
 ! A12   A(5,2,6)              119.9492         estimate D2E/DX2                !
 ! D1    D(4,1,2,3)            -60.0122         estimate D2E/DX2                !
 ! D2    D(4,1,2,5)            179.9859         estimate D2E/DX2                !
 ! D3    D(4,1,2,6)             59.9887         estimate D2E/DX2                !
 ! D4    D(7,1,2,3)            179.9909         estimate D2E/DX2                !
 ! D5    D(7,1,2,5)             59.9891         estimate D2E/DX2                !
 ! D6    D(7,1,2,6)            -60.0082         estimate D2E/DX2                !
 ! D7    D(8,1,2,3)             59.9867         estimate D2E/DX2                !
 ! D8    D(8,1,2,5)            -60.0151         estimate D2E/DX2                !
 ! D9    D(8,1,2,6)            179.9877         estimate D2E/DX2                !
 --------------------------------------------------------------------------------
 Trust Radius=3.00D-01 FncErr=1.00D-07 GrdErr=1.00D-07 EigMax=2.50D+02 EigMin=1.00D-04
 Number of steps in this run=     43 maximum allowed number of steps=    100.
 GradGradGradGradGradGradGradGradGradGradGradGradGradGradGradGradGradGrad

 Leave Link  103 at Sat Nov 16 15:34:17 2024, MaxMem=  2147483648 cpu:               1.3 elap:               0.0
 (Enter /home/szhao/Apps/g16/l202.exe)
                          Input orientation:                          
 ---------------------------------------------------------------------
 Center     Atomic      Atomic             Coordinates (Angstroms)
 Number     Number       Type             X           Y           Z
 ---------------------------------------------------------------------
      1          6           0       -0.584936    0.000000    0.000000
      2          6           0        0.584936    0.000000    0.000000
      3          1           0        0.609155   -0.936832    0.542231
      4          1           0       -0.608542   -0.937931   -0.540431
      5          1           0        0.608903    0.938036    0.540185
      6          1           0        0.608601   -0.001152   -1.082495
      7          1           0       -0.609129    0.936911   -0.542078
      8          1           0       -0.608861    0.000919    1.082457
 ---------------------------------------------------------------------
                    Distance matrix (angstroms):
                    1          2          3          4          5
     1  C    0.000000
     2  C    1.169871   0.000000
     3  H    1.611682   1.082707   0.000000
     4  H    1.082745   1.611263   1.629400   0.000000
     5  H    1.611509   1.082721   1.874869   2.483779   0.000000
     6  H    1.611312   1.082754   1.874895   1.628749   1.874877
     7  H    1.082699   1.611658   2.484120   1.874843   1.629386
     8  H    1.082722   1.611479   1.629350   1.874888   1.629477
                    6          7          8
     6  H    0.000000
     7  H    1.629380   0.000000
     8  H    2.483794   1.874885   0.000000
 Symmetry turned off by external request.
 Stoichiometry    C2H6(1+,2)
 Framework group  C1[X(C2H6)]
 Deg. of freedom    18
 Full point group                 C1      NOp   1
 Rotational constants (GHZ):          71.3274764          36.1091168          36.1087114
 Leave Link  202 at Sat Nov 16 15:34:17 2024, MaxMem=  2147483648 cpu:               2.3 elap:               0.1
 (Enter /home/szhao/Apps/g16/l301.exe)
 Standard basis: 6-311+G(d,p) (5D, 7F)
 Ernie: Thresh=  0.10000D-02 Tol=  0.10000D-05 Strict=F.
    80 basis functions,   120 primitive gaussians,    82 cartesian basis functions
     9 alpha electrons        8 beta electrons
       nuclear repulsion energy        49.9820064878 Hartrees.
 IExCor= 4336 DFT=T Ex+Corr=M062X ExCW=0 ScaHFX=  0.540000
 ScaDFX=  1.000000  1.000000  1.000000  1.000000 ScalE2=  1.000000  1.000000
 IRadAn=      7 IRanWt=     -1 IRanGd=            0 ICorTp=0 IEmpDi=  4
 NAtoms=    8 NActive=    8 NUniq=    8 SFac= 1.00D+00 NAtFMM=   60 NAOKFM=F Big=F
 Integral buffers will be    131072 words long.
 Raffenetti 2 integral format.
 Two-electron integral symmetry is turned off.
 Leave Link  301 at Sat Nov 16 15:34:17 2024, MaxMem=  2147483648 cpu:               2.9 elap:               0.1
 (Enter /home/szhao/Apps/g16/l302.exe)
 NPDir=0 NMtPBC=     1 NCelOv=     1 NCel=       1 NClECP=     1 NCelD=      1
         NCelK=      1 NCelE2=     1 NClLst=     1 CellRange=     0.0.
 One-electron integrals computed using PRISM.
 NBasis=    80 RedAO= T EigKep=  5.05D-05  NBF=    80
 NBsUse=    80 1.00D-06 EigRej= -1.00D+00 NBFU=    80
 Precomputing XC quadrature grid using
 IXCGrd= 4 IRadAn=           7 IRanWt=          -1 IRanGd=           0 AccXCQ= 0.00D+00.
 Generated NRdTot=       0 NPtTot=           0 NUsed=           0 NTot=          32
 NSgBfM=    82    82    82    82    82 MxSgAt=     8 MxSgA2=     8.
 Leave Link  302 at Sat Nov 16 15:34:17 2024, MaxMem=  2147483648 cpu:               8.3 elap:               0.3
 (Enter /home/szhao/Apps/g16/l303.exe)
 DipDrv:  MaxL=1.
 Leave Link  303 at Sat Nov 16 15:34:18 2024, MaxMem=  2147483648 cpu:               5.0 elap:               0.2
 (Enter /home/szhao/Apps/g16/l401.exe)
 ExpMin= 4.38D-02 ExpMax= 4.56D+03 ExpMxC= 6.82D+02 IAcc=3 IRadAn=         7 AccDes= 0.00D+00
 Harris functional with IExCor= 1009 and IRadAn=       7 diagonalized for initial guess.
 HarFok:  IExCor= 1009 AccDes= 0.00D+00 IRadAn=         7 IDoV= 1 UseB2=F ITyADJ=14
 ICtDFT=  3500011 ScaDFX=  1.000000  1.000000  1.000000  1.000000
 FoFCou: FMM=F IPFlag=           0 FMFlag=      100000 FMFlg1=           0
         NFxFlg=           0 DoJE=T BraDBF=F KetDBF=T FulRan=T
         wScrn=  0.000000 ICntrl=       500 IOpCl=  0 I1Cent=   200000004 NGrid=           0
         NMat0=    1 NMatS0=      1 NMatT0=    0 NMatD0=    1 NMtDS0=    0 NMtDT0=    0
 Symmetry not used in FoFCou.
 Harris En= -79.1733483277800    
 JPrj=0 DoOrth=F DoCkMO=F.
 Initial guess <Sx>= 0.0000 <Sy>= 0.0000 <Sz>= 0.5000 <S**2>= 0.7500 S= 0.5000
 Leave Link  401 at Sat Nov 16 15:34:18 2024, MaxMem=  2147483648 cpu:               8.5 elap:               0.3
 (Enter /home/szhao/Apps/g16/l502.exe)
 Keep R1 and R2 ints in memory in canonical form, NReq=35964362.
 FoFCou: FMM=F IPFlag=           0 FMFlag=           0 FMFlg1=           0
         NFxFlg=           0 DoJE=F BraDBF=F KetDBF=F FulRan=T
         wScrn=  0.000000 ICntrl=       600 IOpCl=  0 I1Cent=           0 NGrid=           0
         NMat0=    1 NMatS0=   3240 NMatT0=    0 NMatD0=    1 NMtDS0=    0 NMtDT0=    0
 Symmetry not used in FoFCou.
 Two-electron integral symmetry not used.
 UHF open shell SCF:
 Using DIIS extrapolation, IDIIS=  1040.
 NGot=  2147483648 LenX=  2136966234 LenY=  2136959069
 Requested convergence on RMS density matrix=1.00D-08 within 128 cycles.
 Requested convergence on MAX density matrix=1.00D-06.
 Requested convergence on             energy=1.00D-06.
 No special actions if energy rises.

 Cycle   1  Pass 1  IDiag  1:
 E= -78.9315159092850    
 DIIS: error= 6.10D-02 at cycle   1 NSaved=   1.
 NSaved= 1 IEnMin= 1 EnMin= -78.9315159092850     IErMin= 1 ErrMin= 6.10D-02
 ErrMax= 6.10D-02  0.00D+00 EMaxC= 1.00D-01 BMatC= 6.11D-01 BMatP= 6.11D-01
 IDIUse=3 WtCom= 3.90D-01 WtEn= 6.10D-01
 Coeff-Com:  0.100D+01
 Coeff-En:   0.100D+01
 Coeff:      0.100D+01
 Gap=     0.438 Goal=   None    Shift=    0.000
 Gap=     0.165 Goal=   None    Shift=    0.000
 GapD=    0.165 DampG=1.000 DampE=0.500 DampFc=0.5000 IDamp=-1.
 Damping current iteration by 5.00D-01
 RMSDP=6.56D-03 MaxDP=1.54D-01              OVMax= 1.46D-01

 Cycle   2  Pass 1  IDiag  1:
 E= -78.9973151532755     Delta-E=       -0.065799243991 Rises=F Damp=T
 DIIS: error= 1.00D-02 at cycle   2 NSaved=   2.
 NSaved= 2 IEnMin= 2 EnMin= -78.9973151532755     IErMin= 2 ErrMin= 1.00D-02
 ErrMax= 1.00D-02  0.00D+00 EMaxC= 1.00D-01 BMatC= 2.65D-02 BMatP= 6.11D-01
 IDIUse=3 WtCom= 9.00D-01 WtEn= 1.00D-01
 Coeff-Com: -0.159D+00 0.116D+01
 Coeff-En:   0.000D+00 0.100D+01
 Coeff:     -0.143D+00 0.114D+01
 Gap=     0.465 Goal=   None    Shift=    0.000
 Gap=     0.170 Goal=   None    Shift=    0.000
 RMSDP=1.75D-03 MaxDP=3.15D-02 DE=-6.58D-02 OVMax= 7.95D-02

 Cycle   3  Pass 1  IDiag  1:
 E= -79.0551707103104     Delta-E=       -0.057855557035 Rises=F Damp=F
 DIIS: error= 2.53D-03 at cycle   3 NSaved=   3.
 NSaved= 3 IEnMin= 3 EnMin= -79.0551707103104     IErMin= 3 ErrMin= 2.53D-03
 ErrMax= 2.53D-03  0.00D+00 EMaxC= 1.00D-01 BMatC= 6.42D-04 BMatP= 2.65D-02
 IDIUse=3 WtCom= 9.75D-01 WtEn= 2.53D-02
 Coeff-Com: -0.314D-01 0.547D-01 0.977D+00
 Coeff-En:   0.000D+00 0.000D+00 0.100D+01
 Coeff:     -0.306D-01 0.533D-01 0.977D+00
 Gap=     0.448 Goal=   None    Shift=    0.000
 Gap=     0.163 Goal=   None    Shift=    0.000
 RMSDP=2.13D-04 MaxDP=6.09D-03 DE=-5.79D-02 OVMax= 6.14D-03

 Cycle   4  Pass 1  IDiag  1:
 E= -79.0553963788204     Delta-E=       -0.000225668510 Rises=F Damp=F
 DIIS: error= 5.30D-04 at cycle   4 NSaved=   4.
 NSaved= 4 IEnMin= 4 EnMin= -79.0553963788204     IErMin= 4 ErrMin= 5.30D-04
 ErrMax= 5.30D-04  0.00D+00 EMaxC= 1.00D-01 BMatC= 3.12D-05 BMatP= 6.42D-04
 IDIUse=3 WtCom= 9.95D-01 WtEn= 5.30D-03
 Coeff-Com:  0.102D-01-0.281D-01-0.184D+00 0.120D+01
 Coeff-En:   0.000D+00 0.000D+00 0.000D+00 0.100D+01
 Coeff:      0.102D-01-0.279D-01-0.183D+00 0.120D+01
 Gap=     0.448 Goal=   None    Shift=    0.000
 Gap=     0.164 Goal=   None    Shift=    0.000
 RMSDP=7.85D-05 MaxDP=1.74D-03 DE=-2.26D-04 OVMax= 2.39D-03

 Cycle   5  Pass 1  IDiag  1:
 E= -79.0554174495733     Delta-E=       -0.000021070753 Rises=F Damp=F
 DIIS: error= 1.32D-04 at cycle   5 NSaved=   5.
 NSaved= 5 IEnMin= 5 EnMin= -79.0554174495733     IErMin= 5 ErrMin= 1.32D-04
 ErrMax= 1.32D-04  0.00D+00 EMaxC= 1.00D-01 BMatC= 2.72D-06 BMatP= 3.12D-05
 IDIUse=3 WtCom= 9.99D-01 WtEn= 1.32D-03
 Coeff-Com:  0.280D-02-0.600D-02-0.749D-01 0.153D-01 0.106D+01
 Coeff-En:   0.000D+00 0.000D+00 0.000D+00 0.000D+00 0.100D+01
 Coeff:      0.279D-02-0.599D-02-0.748D-01 0.153D-01 0.106D+01
 Gap=     0.448 Goal=   None    Shift=    0.000
 Gap=     0.164 Goal=   None    Shift=    0.000
 RMSDP=2.60D-05 MaxDP=6.09D-04 DE=-2.11D-05 OVMax= 8.67D-04

 Cycle   6  Pass 1  IDiag  1:
 E= -79.0554195809066     Delta-E=       -0.000002131333 Rises=F Damp=F
 DIIS: error= 3.65D-05 at cycle   6 NSaved=   6.
 NSaved= 6 IEnMin= 6 EnMin= -79.0554195809066     IErMin= 6 ErrMin= 3.65D-05
 ErrMax= 3.65D-05  0.00D+00 EMaxC= 1.00D-01 BMatC= 1.92D-07 BMatP= 2.72D-06
 IDIUse=1 WtCom= 1.00D+00 WtEn= 0.00D+00
 Coeff-Com: -0.127D-02 0.295D-02 0.249D-01-0.917D-01-0.157D+00 0.122D+01
 Coeff:     -0.127D-02 0.295D-02 0.249D-01-0.917D-01-0.157D+00 0.122D+01
 Gap=     0.448 Goal=   None    Shift=    0.000
 Gap=     0.164 Goal=   None    Shift=    0.000
 RMSDP=7.87D-06 MaxDP=8.14D-05 DE=-2.13D-06 OVMax= 6.29D-04

 Cycle   7  Pass 1  IDiag  1:
 E= -79.0554198289988     Delta-E=       -0.000000248092 Rises=F Damp=F
 DIIS: error= 3.28D-05 at cycle   7 NSaved=   7.
 NSaved= 7 IEnMin= 7 EnMin= -79.0554198289988     IErMin= 7 ErrMin= 3.28D-05
 ErrMax= 3.28D-05  0.00D+00 EMaxC= 1.00D-01 BMatC= 1.96D-08 BMatP= 1.92D-07
 IDIUse=1 WtCom= 1.00D+00 WtEn= 0.00D+00
 Coeff-Com: -0.622D-04 0.188D-03 0.200D-02 0.230D-03-0.412D-01-0.147D-02
 Coeff-Com:  0.104D+01
 Coeff:     -0.622D-04 0.188D-03 0.200D-02 0.230D-03-0.412D-01-0.147D-02
 Coeff:      0.104D+01
 Gap=     0.448 Goal=   None    Shift=    0.000
 Gap=     0.164 Goal=   None    Shift=    0.000
 RMSDP=3.24D-06 MaxDP=3.00D-05 DE=-2.48D-07 OVMax= 4.76D-04

 Cycle   8  Pass 1  IDiag  1:
 E= -79.0554199099295     Delta-E=       -0.000000080931 Rises=F Damp=F
 DIIS: error= 3.36D-05 at cycle   8 NSaved=   8.
 NSaved= 8 IEnMin= 8 EnMin= -79.0554199099295     IErMin= 7 ErrMin= 3.28D-05
 ErrMax= 3.36D-05  0.00D+00 EMaxC= 1.00D-01 BMatC= 1.65D-08 BMatP= 1.96D-08
 IDIUse=1 WtCom= 1.00D+00 WtEn= 0.00D+00
 Coeff-Com:  0.991D-05-0.718D-05-0.114D-03 0.155D-02-0.417D-02-0.194D-01
 Coeff-Com:  0.156D+00 0.866D+00
 Coeff:      0.991D-05-0.718D-05-0.114D-03 0.155D-02-0.417D-02-0.194D-01
 Coeff:      0.156D+00 0.866D+00
 Gap=     0.448 Goal=   None    Shift=    0.000
 Gap=     0.164 Goal=   None    Shift=    0.000
 RMSDP=2.52D-06 MaxDP=2.31D-05 DE=-8.09D-08 OVMax= 3.91D-04

 Cycle   9  Pass 1  IDiag  1:
 E= -79.0554199741452     Delta-E=       -0.000000064216 Rises=F Damp=F
 DIIS: error= 3.41D-05 at cycle   9 NSaved=   9.
 NSaved= 9 IEnMin= 9 EnMin= -79.0554199741452     IErMin= 7 ErrMin= 3.28D-05
 ErrMax= 3.41D-05  0.00D+00 EMaxC= 1.00D-01 BMatC= 1.70D-08 BMatP= 1.65D-08
 IDIUse=1 WtCom= 1.00D+00 WtEn= 0.00D+00
 Coeff-Com:  0.117D-03-0.238D-03-0.243D-02 0.846D-02 0.141D-01-0.108D+00
 Coeff-Com: -0.158D+00 0.565D+01-0.441D+01
 Coeff:      0.117D-03-0.238D-03-0.243D-02 0.846D-02 0.141D-01-0.108D+00
 Coeff:     -0.158D+00 0.565D+01-0.441D+01
 Gap=     0.448 Goal=   None    Shift=    0.000
 Gap=     0.164 Goal=   None    Shift=    0.000
 RMSDP=9.92D-06 MaxDP=8.97D-05 DE=-6.42D-08 OVMax= 1.55D-03

 Cycle  10  Pass 1  IDiag  1:
 E= -79.0554197266967     Delta-E=        0.000000247448 Rises=F Damp=F
 DIIS: error= 3.19D-05 at cycle  10 NSaved=  10.
 NSaved=10 IEnMin= 9 EnMin= -79.0554199741452     IErMin=10 ErrMin= 3.19D-05
 ErrMax= 3.19D-05  0.00D+00 EMaxC= 1.00D-01 BMatC= 1.53D-08 BMatP= 1.65D-08
 IDIUse=1 WtCom= 1.00D+00 WtEn= 0.00D+00
 Coeff-Com:  0.184D-05-0.462D-04-0.660D-03 0.870D-03 0.117D-01-0.677D-03
 Coeff-Com: -0.289D+00-0.834D+00-0.207D+01 0.418D+01
 Coeff:      0.184D-05-0.462D-04-0.660D-03 0.870D-03 0.117D-01-0.677D-03
 Coeff:     -0.289D+00-0.834D+00-0.207D+01 0.418D+01
 Gap=     0.448 Goal=   None    Shift=    0.000
 Gap=     0.164 Goal=   None    Shift=    0.000
 RMSDP=2.57D-05 MaxDP=2.30D-04 DE= 2.47D-07 OVMax= 4.02D-03

 Cycle  11  Pass 1  IDiag  1:
 E= -79.0554191498493     Delta-E=        0.000000576847 Rises=F Damp=F
 DIIS: error= 2.66D-05 at cycle  11 NSaved=  11.
 NSaved=11 IEnMin= 9 EnMin= -79.0554199741452     IErMin=11 ErrMin= 2.66D-05
 ErrMax= 2.66D-05  0.00D+00 EMaxC= 1.00D-01 BMatC= 1.21D-08 BMatP= 1.53D-08
 IDIUse=1 WtCom= 1.00D+00 WtEn= 0.00D+00
 Coeff-Com: -0.854D-04 0.178D-03 0.155D-02-0.466D-02-0.115D-01 0.758D-01
 Coeff-Com:  0.270D+00-0.647D+01 0.386D+01 0.137D+01 0.191D+01
 Coeff:     -0.854D-04 0.178D-03 0.155D-02-0.466D-02-0.115D-01 0.758D-01
 Coeff:      0.270D+00-0.647D+01 0.386D+01 0.137D+01 0.191D+01
 Gap=     0.448 Goal=   None    Shift=    0.000
 Gap=     0.164 Goal=   None    Shift=    0.000
 RMSDP=2.98D-05 MaxDP=2.67D-04 DE= 5.77D-07 OVMax= 4.66D-03

 Cycle  12  Pass 1  IDiag  1:
 E= -79.0554186028102     Delta-E=        0.000000547039 Rises=F Damp=F
 DIIS: error= 2.08D-05 at cycle  12 NSaved=  12.
 NSaved=12 IEnMin= 9 EnMin= -79.0554199741452     IErMin=12 ErrMin= 2.08D-05
 ErrMax= 2.08D-05  0.00D+00 EMaxC= 1.00D-01 BMatC= 8.67D-09 BMatP= 1.21D-08
 IDIUse=1 WtCom= 1.00D+00 WtEn= 0.00D+00
 Coeff-Com:  0.146D-03-0.114D-03-0.113D-02 0.100D-01-0.250D-01-0.118D+00
 Coeff-Com:  0.120D+01 0.193D+01 0.454D+01-0.995D+01-0.122D+00 0.353D+01
 Coeff:      0.146D-03-0.114D-03-0.113D-02 0.100D-01-0.250D-01-0.118D+00
 Coeff:      0.120D+01 0.193D+01 0.454D+01-0.995D+01-0.122D+00 0.353D+01
 Gap=     0.448 Goal=   None    Shift=    0.000
 Gap=     0.164 Goal=   None    Shift=    0.000
 RMSDP=7.24D-05 MaxDP=6.54D-04 DE= 5.47D-07 OVMax= 1.13D-02

 Cycle  13  Pass 1  IDiag  1:
 E= -79.0554178019885     Delta-E=        0.000000800822 Rises=F Damp=F
 DIIS: error= 7.85D-06 at cycle  13 NSaved=  13.
 NSaved=13 IEnMin= 9 EnMin= -79.0554199741452     IErMin=13 ErrMin= 7.85D-06
 ErrMax= 7.85D-06  0.00D+00 EMaxC= 1.00D-01 BMatC= 2.64D-09 BMatP= 8.67D-09
 IDIUse=1 WtCom= 1.00D+00 WtEn= 0.00D+00
 Coeff-Com:  0.163D-03-0.216D-03-0.237D-02 0.129D-01-0.800D-02-0.142D+00
 Coeff-Com:  0.766D+00 0.278D+01 0.536D+00-0.462D+01-0.778D+00 0.141D+01
 Coeff-Com:  0.105D+01
 Coeff:      0.163D-03-0.216D-03-0.237D-02 0.129D-01-0.800D-02-0.142D+00
 Coeff:      0.766D+00 0.278D+01 0.536D+00-0.462D+01-0.778D+00 0.141D+01
 Coeff:      0.105D+01
 Gap=     0.448 Goal=   None    Shift=    0.000
 Gap=     0.164 Goal=   None    Shift=    0.000
 RMSDP=3.50D-05 MaxDP=3.16D-04 DE= 8.01D-07 OVMax= 5.48D-03

 Cycle  14  Pass 1  IDiag  1:
 E= -79.0554176707425     Delta-E=        0.000000131246 Rises=F Damp=F
 DIIS: error= 2.73D-06 at cycle  14 NSaved=  14.
 NSaved=14 IEnMin= 9 EnMin= -79.0554199741452     IErMin=14 ErrMin= 2.73D-06
 ErrMax= 2.73D-06  0.00D+00 EMaxC= 1.00D-01 BMatC= 9.48D-10 BMatP= 2.64D-09
 IDIUse=1 WtCom= 1.00D+00 WtEn= 0.00D+00
 Coeff-Com:  0.677D-04-0.999D-04-0.139D-02 0.747D-02-0.206D-02-0.685D-01
 Coeff-Com:  0.379D+00-0.670D+00 0.178D+00 0.282D+00-0.530D-01-0.199D+00
 Coeff-Com:  0.156D+00 0.992D+00
 Coeff:      0.677D-04-0.999D-04-0.139D-02 0.747D-02-0.206D-02-0.685D-01
 Coeff:      0.379D+00-0.670D+00 0.178D+00 0.282D+00-0.530D-01-0.199D+00
 Coeff:      0.156D+00 0.992D+00
 Gap=     0.448 Goal=   None    Shift=    0.000
 Gap=     0.164 Goal=   None    Shift=    0.000
 RMSDP=7.72D-06 MaxDP=6.97D-05 DE= 1.31D-07 OVMax= 1.21D-03

 Cycle  15  Pass 1  IDiag  1:
 E= -79.0554176643247     Delta-E=        0.000000006418 Rises=F Damp=F
 DIIS: error= 5.98D-07 at cycle  15 NSaved=  15.
 NSaved=15 IEnMin= 9 EnMin= -79.0554199741452     IErMin=15 ErrMin= 5.98D-07
 ErrMax= 5.98D-07  0.00D+00 EMaxC= 1.00D-01 BMatC= 5.24D-11 BMatP= 9.48D-10
 IDIUse=1 WtCom= 1.00D+00 WtEn= 0.00D+00
 Coeff-Com: -0.168D-04 0.256D-04 0.298D-03-0.114D-02-0.746D-03 0.129D-01
 Coeff-Com: -0.321D-01-0.469D+00 0.281D+00 0.201D+00 0.100D+00-0.541D-01
 Coeff-Com: -0.177D+00-0.117D+00 0.126D+01
 Coeff:     -0.168D-04 0.256D-04 0.298D-03-0.114D-02-0.746D-03 0.129D-01
 Coeff:     -0.321D-01-0.469D+00 0.281D+00 0.201D+00 0.100D+00-0.541D-01
 Coeff:     -0.177D+00-0.117D+00 0.126D+01
 Gap=     0.448 Goal=   None    Shift=    0.000
 Gap=     0.164 Goal=   None    Shift=    0.000
 RMSDP=2.37D-06 MaxDP=2.14D-05 DE= 6.42D-09 OVMax= 3.71D-04

 Cycle  16  Pass 1  IDiag  1:
 E= -79.0554176638849     Delta-E=        0.000000000440 Rises=F Damp=F
 DIIS: error= 2.37D-07 at cycle  16 NSaved=  16.
 NSaved=16 IEnMin= 9 EnMin= -79.0554199741452     IErMin=16 ErrMin= 2.37D-07
 ErrMax= 2.37D-07  0.00D+00 EMaxC= 1.00D-01 BMatC= 7.23D-12 BMatP= 5.24D-11
 IDIUse=1 WtCom= 1.00D+00 WtEn= 0.00D+00
 Coeff-Com: -0.109D-05 0.253D-06 0.210D-04-0.238D-03 0.503D-03 0.184D-02
 Coeff-Com: -0.245D-01 0.116D+00-0.140D+00 0.691D-01-0.220D-01-0.210D-01
 Coeff-Com:  0.352D-01 0.610D-01-0.121D+00 0.104D+01
 Coeff:     -0.109D-05 0.253D-06 0.210D-04-0.238D-03 0.503D-03 0.184D-02
 Coeff:     -0.245D-01 0.116D+00-0.140D+00 0.691D-01-0.220D-01-0.210D-01
 Coeff:      0.352D-01 0.610D-01-0.121D+00 0.104D+01
 Gap=     0.448 Goal=   None    Shift=    0.000
 Gap=     0.164 Goal=   None    Shift=    0.000
 RMSDP=3.92D-07 MaxDP=3.50D-06 DE= 4.40D-10 OVMax= 6.09D-05

 Cycle  17  Pass 1  IDiag  1:
 E= -79.0554176638821     Delta-E=        0.000000000003 Rises=F Damp=F
 DIIS: error= 1.07D-07 at cycle  17 NSaved=  17.
 NSaved=17 IEnMin= 9 EnMin= -79.0554199741452     IErMin=17 ErrMin= 1.07D-07
 ErrMax= 1.07D-07  0.00D+00 EMaxC= 1.00D-01 BMatC= 1.36D-12 BMatP= 7.23D-12
 IDIUse=1 WtCom= 1.00D+00 WtEn= 0.00D+00
 Coeff-Com:  0.388D-06-0.672D-07-0.430D-05 0.187D-04-0.377D-04-0.243D-03
 Coeff-Com:  0.329D-02-0.272D-02 0.171D-01-0.229D-01 0.137D-02 0.814D-02
 Coeff-Com: -0.142D-02-0.181D-01-0.266D-01 0.138D+00 0.904D+00
 Coeff:      0.388D-06-0.672D-07-0.430D-05 0.187D-04-0.377D-04-0.243D-03
 Coeff:      0.329D-02-0.272D-02 0.171D-01-0.229D-01 0.137D-02 0.814D-02
 Coeff:     -0.142D-02-0.181D-01-0.266D-01 0.138D+00 0.904D+00
 Gap=     0.448 Goal=   None    Shift=    0.000
 Gap=     0.164 Goal=   None    Shift=    0.000
 RMSDP=1.05D-07 MaxDP=9.29D-07 DE= 2.87D-12 OVMax= 1.62D-05

 Cycle  18  Pass 1  IDiag  1:
 E= -79.0554176638816     Delta-E=        0.000000000000 Rises=F Damp=F
 DIIS: error= 1.71D-08 at cycle  18 NSaved=  18.
 NSaved=18 IEnMin= 9 EnMin= -79.0554199741452     IErMin=18 ErrMin= 1.71D-08
 ErrMax= 1.71D-08  0.00D+00 EMaxC= 1.00D-01 BMatC= 3.01D-14 BMatP= 1.36D-12
 IDIUse=1 WtCom= 1.00D+00 WtEn= 0.00D+00
 Coeff-Com: -0.289D-08-0.231D-07-0.655D-06 0.934D-05-0.151D-04-0.616D-04
 Coeff-Com:  0.676D-03-0.595D-02 0.386D-02 0.169D-02 0.874D-03-0.828D-03
 Coeff-Com: -0.139D-02 0.279D-03 0.662D-02-0.711D-01 0.219D-01 0.104D+01
 Coeff:     -0.289D-08-0.231D-07-0.655D-06 0.934D-05-0.151D-04-0.616D-04
 Coeff:      0.676D-03-0.595D-02 0.386D-02 0.169D-02 0.874D-03-0.828D-03
 Coeff:     -0.139D-02 0.279D-03 0.662D-02-0.711D-01 0.219D-01 0.104D+01
 Gap=     0.448 Goal=   None    Shift=    0.000
 Gap=     0.164 Goal=   None    Shift=    0.000
 RMSDP=1.88D-09 MaxDP=2.22D-08 DE= 4.55D-13 OVMax= 1.67D-07

 SCF Done:  E(UM062X) =  -79.0554176639     A.U. after   18 cycles
            NFock= 18  Conv=0.19D-08     -V/T= 1.9825
 <Sx>= 0.0000 <Sy>= 0.0000 <Sz>= 0.5000 <S**2>= 0.7543 S= 0.5021
 <L.S>=  0.00000000000    
 KE= 8.046118738509D+01 PE=-2.783867314844D+02 EE= 6.888811994767D+01
 Annihilation of the first spin contaminant:
 S**2 before annihilation     0.7543,   after     0.7500
 Leave Link  502 at Sat Nov 16 15:34:26 2024, MaxMem=  2147483648 cpu:             203.3 elap:               7.6
 (Enter /home/szhao/Apps/g16/l601.exe)
 Copying SCF densities to generalized density rwf, IOpCl= 1 IROHF=0.

 **********************************************************************

            Population analysis using the SCF density.

 **********************************************************************

 Alpha  occ. eigenvalues --  -10.82654 -10.82316  -1.36448  -0.99076  -0.96622
 Alpha  occ. eigenvalues --   -0.91004  -0.71735  -0.68953  -0.64383
 Alpha virt. eigenvalues --   -0.19563  -0.14839  -0.14227  -0.12236  -0.12092
 Alpha virt. eigenvalues --   -0.10584  -0.09460  -0.05281  -0.04872  -0.02002
 Alpha virt. eigenvalues --   -0.00744   0.00664   0.01615   0.02810   0.15217
 Alpha virt. eigenvalues --    0.18068   0.18468   0.22379   0.24147   0.24295
 Alpha virt. eigenvalues --    0.37864   0.38371   0.38628   0.38902   0.40393
 Alpha virt. eigenvalues --    0.47483   0.52605   0.65226   0.67947   0.71649
 Alpha virt. eigenvalues --    0.76131   0.93654   1.03461   1.03475   1.32784
 Alpha virt. eigenvalues --    1.33460   1.33904   1.36957   1.38765   1.42647
 Alpha virt. eigenvalues --    1.49802   1.53837   1.55452   1.72565   1.78202
 Alpha virt. eigenvalues --    1.79413   1.87422   1.88096   1.88221   1.88923
 Alpha virt. eigenvalues --    1.98780   2.04775   2.07420   2.24806   2.32979
 Alpha virt. eigenvalues --    2.35109   2.35408   2.49508   2.51193   2.53487
 Alpha virt. eigenvalues --    2.55039   2.62837   2.91524   3.20969   3.60629
 Alpha virt. eigenvalues --    3.60679   3.63327   4.07672   4.10604  23.59332
 Alpha virt. eigenvalues --   24.82287
  Beta  occ. eigenvalues --  -10.82599 -10.82247  -1.34386  -0.94116  -0.93152
  Beta  occ. eigenvalues --   -0.88091  -0.70211  -0.62945
  Beta virt. eigenvalues --   -0.46542  -0.19554  -0.14912  -0.14199  -0.12258
  Beta virt. eigenvalues --   -0.12023  -0.10633  -0.09396  -0.05119  -0.04793
  Beta virt. eigenvalues --   -0.01232  -0.00273   0.01276   0.02059   0.03153
  Beta virt. eigenvalues --    0.15177   0.17873   0.18315   0.22194   0.24564
  Beta virt. eigenvalues --    0.24812   0.38233   0.38662   0.38715   0.38969
  Beta virt. eigenvalues --    0.40495   0.47791   0.52506   0.67031   0.68241
  Beta virt. eigenvalues --    0.71333   0.76568   0.93772   1.03402   1.03683
  Beta virt. eigenvalues --    1.32788   1.33819   1.34025   1.36869   1.38793
  Beta virt. eigenvalues --    1.43608   1.49214   1.55375   1.55867   1.72224
  Beta virt. eigenvalues --    1.79546   1.79784   1.87412   1.88110   1.88295
  Beta virt. eigenvalues --    1.89107   1.99891   2.04485   2.07122   2.26389
  Beta virt. eigenvalues --    2.34307   2.34864   2.35227   2.50721   2.51189
  Beta virt. eigenvalues --    2.52856   2.54338   2.62724   2.92067   3.20493
  Beta virt. eigenvalues --    3.60219   3.61417   3.63250   4.08039   4.10545
  Beta virt. eigenvalues --   23.59395  24.82588
          Condensed to atoms (all electrons):
               1          2          3          4          5          6
     1  C    5.547639  -0.257728  -0.099139   0.374724  -0.078190  -0.078213
     2  C   -0.257728   5.547672   0.466351  -0.078243   0.374738   0.374634
     3  H   -0.099139   0.466351   0.549474  -0.041658  -0.030196  -0.030160
     4  H    0.374724  -0.078243  -0.041658   0.474087   0.020208   0.003738
     5  H   -0.078190   0.374738  -0.030196   0.020208   0.474014   0.001123
     6  H   -0.078213   0.374634  -0.030160   0.003738   0.001123   0.473989
     7  H    0.466345  -0.099134   0.029352  -0.030200  -0.041658  -0.041604
     8  H    0.374652  -0.078161  -0.041606   0.001125   0.003725   0.020196
               7          8
     1  C    0.466345   0.374652
     2  C   -0.099134  -0.078161
     3  H    0.029352  -0.041606
     4  H   -0.030200   0.001125
     5  H   -0.041658   0.003725
     6  H   -0.041604   0.020196
     7  H    0.549477  -0.030158
     8  H   -0.030158   0.473920
          Atomic-Atomic Spin Densities.
               1          2          3          4          5          6
     1  C    0.083695  -0.029740   0.011467   0.082509  -0.038868  -0.039031
     2  C   -0.029740   0.083688  -0.004457  -0.038974   0.082369   0.082596
     3  H    0.011467  -0.004457  -0.018754   0.000736   0.000446   0.000419
     4  H    0.082509  -0.038974   0.000736   0.186679   0.009959  -0.035965
     5  H   -0.038868   0.082369   0.000446   0.009959   0.186614  -0.023985
     6  H   -0.039031   0.082596   0.000419  -0.035965  -0.023985   0.186910
     7  H   -0.004456   0.011467  -0.001536   0.000446   0.000737   0.000694
     8  H    0.082451  -0.038928   0.000696  -0.023984  -0.035909   0.009971
               7          8
     1  C   -0.004456   0.082451
     2  C    0.011467  -0.038928
     3  H   -0.001536   0.000696
     4  H    0.000446  -0.023984
     5  H    0.000737  -0.035909
     6  H    0.000694   0.009971
     7  H   -0.018755   0.000419
     8  H    0.000419   0.186827
 Mulliken charges and spin densities:
               1          2
     1  C   -0.250089   0.148027
     2  C   -0.250129   0.148021
     3  H    0.197581  -0.010984
     4  H    0.276218   0.181406
     5  H    0.276236   0.181363
     6  H    0.276296   0.181608
     7  H    0.197580  -0.010984
     8  H    0.276306   0.181542
 Sum of Mulliken charges =   1.00000   1.00000
 Mulliken charges and spin densities with hydrogens summed into heavy atoms:
               1          2
     1  C    0.500016   0.499991
     2  C    0.499984   0.500009
 Electronic spatial extent (au):  <R**2>=             71.8198
 Charge=              1.0000 electrons
 Dipole moment (field-independent basis, Debye):
    X=              0.0002    Y=             -0.0002    Z=             -0.0004  Tot=              0.0004
 Quadrupole moment (field-independent basis, Debye-Ang):
   XX=            -13.9380   YY=             -9.7049   ZZ=             -8.7845
   XY=              0.8626   XZ=             -0.5000   YZ=              0.7989
 Traceless Quadrupole moment (field-independent basis, Debye-Ang):
   XX=             -3.1289   YY=              1.1042   ZZ=              2.0246
   XY=              0.8626   XZ=             -0.5000   YZ=              0.7989
 Octapole moment (field-independent basis, Debye-Ang**2):
  XXX=             -0.0000  YYY=              0.0010  ZZZ=             -0.0001  XYY=              0.0004
  XXY=              0.0006  XXZ=              0.0008  XZZ=             -0.0003  YZZ=             -0.0009
  YYZ=              0.0000  XYZ=              0.0002
 Hexadecapole moment (field-independent basis, Debye-Ang**3):
 XXXX=            -46.5554 YYYY=            -19.7274 ZZZZ=            -17.8580 XXXY=              0.9837
 XXXZ=             -0.5701 YYYX=              1.2702 YYYZ=              0.9969 ZZZX=             -2.1407
 ZZZY=              0.6264 XXYY=            -11.4629 XXZZ=            -10.6110 YYZZ=             -6.4084
 XXYZ=              0.7397 YYXZ=              1.1620 ZZXY=              0.4179
 N-N= 4.998200648780D+01 E-N=-2.783867315419D+02  KE= 8.046118738509D+01
                          Isotropic Fermi Contact Couplings
        Atom                 a.u.       MegaHertz       Gauss      10(-4) cm-1
     1  C(13)             -0.02834     -31.86120     -11.36887     -10.62775
     2  C(13)             -0.02834     -31.86259     -11.36937     -10.62822
     3  H(1)              -0.00469     -20.94642      -7.47421      -6.98698
     4  H(1)               0.11025     492.81167     175.84746     164.38428
     5  H(1)               0.11021     492.63704     175.78515     164.32603
     6  H(1)               0.11038     493.36588     176.04522     164.56914
     7  H(1)              -0.00469     -20.94661      -7.47427      -6.98704
     8  H(1)               0.11032     493.13783     175.96384     164.49307
 --------------------------------------------------------
       Center         ----  Spin Dipole Couplings  ----
                      3XX-RR        3YY-RR        3ZZ-RR
 --------------------------------------------------------
     1   Atom       -0.189279     -0.047767      0.237046
     2   Atom       -0.189278     -0.047814      0.237092
     3   Atom       -0.008993      0.012933     -0.003940
     4   Atom       -0.030129      0.051412     -0.021283
     5   Atom       -0.030127      0.051423     -0.021296
     6   Atom       -0.030152     -0.033243      0.063395
     7   Atom       -0.008993      0.012953     -0.003961
     8   Atom       -0.030148     -0.033217      0.063365
 --------------------------------------------------------
                        XY            XZ            YZ
 --------------------------------------------------------
     1   Atom       -0.009075      0.005359      0.247257
     2   Atom       -0.009083      0.005345      0.247226
     3   Atom       -0.007788      0.004515     -0.014664
     4   Atom       -0.002133      0.000067      0.034707
     5   Atom       -0.002082      0.000095      0.034666
     6   Atom       -0.001117      0.001809     -0.013919
     7   Atom       -0.007792      0.004508     -0.014651
     8   Atom       -0.001116      0.001762     -0.013945
 --------------------------------------------------------


 ---------------------------------------------------------------------------------
              Anisotropic Spin Dipole Couplings in Principal Axis System
 ---------------------------------------------------------------------------------

       Atom             a.u.   MegaHertz   Gauss  10(-4) cm-1        Axes

              Baa    -0.2005   -26.912    -9.603    -8.977  0.6830  0.6323 -0.3656
     1 C(13)  Bbb    -0.1794   -24.077    -8.591    -8.031  0.7304 -0.5914  0.3417
              Bcc     0.3800    50.989    18.194    17.008  0.0002  0.5005  0.8658
 
              Baa    -0.2005   -26.912    -9.603    -8.977  0.6830  0.6323 -0.3656
     2 C(13)  Bbb    -0.1794   -24.077    -8.591    -8.031  0.7304 -0.5914  0.3417
              Bcc     0.3800    50.988    18.194    17.008  0.0001  0.5004  0.8658
 
              Baa    -0.0124    -6.627    -2.365    -2.211 -0.0095  0.4984  0.8669
     3 H(1)   Bbb    -0.0115    -6.114    -2.181    -2.039  0.9644  0.2335 -0.1238
              Bcc     0.0239    12.741     4.546     4.250 -0.2641  0.8349 -0.4829
 
              Baa    -0.0353   -18.852    -6.727    -6.288 -0.1634 -0.3699  0.9146
     4 H(1)   Bbb    -0.0300   -16.021    -5.717    -5.344  0.9864 -0.0420  0.1592
              Bcc     0.0654    34.874    12.444    11.633 -0.0205  0.9281  0.3718
 
              Baa    -0.0353   -18.844    -6.724    -6.286 -0.1649 -0.3694  0.9145
     5 H(1)   Bbb    -0.0300   -16.018    -5.716    -5.343  0.9861 -0.0431  0.1604
              Bcc     0.0653    34.862    12.439    11.629 -0.0199  0.9283  0.3714
 
              Baa    -0.0353   -18.861    -6.730    -6.291  0.1632  0.9773  0.1348
     6 H(1)   Bbb    -0.0301   -16.034    -5.721    -5.348  0.9864 -0.1588 -0.0427
              Bcc     0.0654    34.894    12.451    11.639  0.0204 -0.1399  0.9900
 
              Baa    -0.0124    -6.627    -2.365    -2.211 -0.0078  0.4982  0.8670
     7 H(1)   Bbb    -0.0115    -6.113    -2.181    -2.039  0.9645  0.2328 -0.1251
              Bcc     0.0239    12.740     4.546     4.250 -0.2641  0.8352 -0.4823
 
              Baa    -0.0353   -18.852    -6.727    -6.288  0.1643  0.9771  0.1351
     8 H(1)   Bbb    -0.0300   -16.030    -5.720    -5.347  0.9862 -0.1600 -0.0425
              Bcc     0.0654    34.882    12.447    11.635  0.0199 -0.1402  0.9899
 

 ---------------------------------------------------------------------------------

 No NMR shielding tensors so no spin-rotation constants.
 Leave Link  601 at Sat Nov 16 15:34:26 2024, MaxMem=  2147483648 cpu:               8.5 elap:               0.3
 (Enter /home/szhao/Apps/g16/l701.exe)
 ... and contract with generalized density number  0.
 Compute integral first derivatives.
 Leave Link  701 at Sat Nov 16 15:34:26 2024, MaxMem=  2147483648 cpu:               3.4 elap:               0.1
 (Enter /home/szhao/Apps/g16/l702.exe)
 L702 exits ... SP integral derivatives will be done elsewhere.
 Leave Link  702 at Sat Nov 16 15:34:26 2024, MaxMem=  2147483648 cpu:               1.0 elap:               0.0
 (Enter /home/szhao/Apps/g16/l703.exe)
 Integral derivatives from FoFJK, PRISM(SPDF).
 Compute integral first derivatives, UseDBF=F ICtDFT=           0.
 Calling FoFJK, ICntrl=      2127 FMM=F ISym2X=0 I1Cent= 0 IOpClX= 1 NMat=1 NMatS=1 NMatT=0.
 FoFJK:  IHMeth= 1 ICntrl=    2127 DoSepK=F KAlg= 0 I1Cent=           0 FoldK=F
 IRaf=         0 NMat=       1 IRICut=       1 DoRegI=T DoRafI=F ISym2E= 0 IDoP0=0 IntGTp=1.
 FoFCou: FMM=F IPFlag=           0 FMFlag=      100000 FMFlg1=         800
         NFxFlg=           0 DoJE=F BraDBF=F KetDBF=F FulRan=T
         wScrn=  0.000000 ICntrl=      2127 IOpCl=  1 I1Cent=           0 NGrid=           0
         NMat0=    1 NMatS0=      1 NMatT0=    0 NMatD0=    1 NMtDS0=    0 NMtDT0=    0
 Symmetry not used in FoFCou.
 Leave Link  703 at Sat Nov 16 15:34:27 2024, MaxMem=  2147483648 cpu:              22.5 elap:               0.8
 (Enter /home/szhao/Apps/g16/l716.exe)
 Dipole        = 6.68323975D-05-6.31994984D-05-1.46950691D-04
 -------------------------------------------------------------------
 Center     Atomic                   Forces (Hartrees/Bohr)
 Number     Number              X              Y              Z
 -------------------------------------------------------------------
      1        6          -0.000000000   -0.000000000   -0.000000000
      2        6          -0.000000000   -0.000000000   -0.000000000
      3        1           0.093683599   -0.009482573    0.005459961
      4        1          -0.067910510   -0.044132022   -0.012467686
      5        1           0.067910186    0.044100747    0.012440748
      6        1           0.067891674    0.011166034   -0.044497031
      7        1          -0.093686036    0.009479297   -0.005479161
      8        1          -0.067894917   -0.011174127    0.044466492
 -------------------------------------------------------------------
 Cartesian Forces:  Max     0.093686036 RMS     0.043130351
 Leave Link  716 at Sat Nov 16 15:34:27 2024, MaxMem=  2147483648 cpu:               2.1 elap:               0.1
 (Enter /home/szhao/Apps/g16/l103.exe)

 GradGradGradGradGradGradGradGradGradGradGradGradGradGradGradGradGradGrad
 Berny optimization.
 FormGI is forming the generalized inverse of G from B-inverse, IUseBI=4.
 Internal  Forces:  Max     0.229491463 RMS     0.092581016
 Search for a local minimum.
 Step number   1 out of a maximum of   43
 All quantities printed in internal units (Hartrees-Bohrs-Radians)
 RMS Force = .76106D-01 SwitMx=.10000D-02 MixMth= 1
 Mixed Optimization -- RFO/linear search
 Second derivative matrix not updated -- first step.
 ITU=  0
     Eigenvalues ---    0.05133   0.10557   0.10557   0.10557   0.10557
     Eigenvalues ---    0.16000   0.16000   0.16000   0.16000   0.16000
     Eigenvalues ---    0.16000   0.35664   0.35665   0.35667   0.35667
     Eigenvalues ---    0.35669   0.356701000.000001000.000001000.00000
     Eigenvalues --- 1000.000001000.000001000.000001000.000001000.00000
     Eigenvalues --- 1000.000001000.000001000.000001000.000001000.00000
     Eigenvalues --- 1000.000001000.000001000.00000
 RFO step:  Lambda=-3.20361966D-01 EMin= 5.13292077D-02
 Linear search not attempted -- first point.
 Maximum step size (   0.300) exceeded in Quadratic search.
    -- Step size scaled by   0.370
 Iteration  1 RMS(Cart)=  0.09866691 RMS(Int)=  0.01083317
 Iteration  2 RMS(Cart)=  0.00555210 RMS(Int)=  0.00930909
 Iteration  3 RMS(Cart)=  0.00001526 RMS(Int)=  0.00930908
 Iteration  4 RMS(Cart)=  0.00000043 RMS(Int)=  0.00930908
 ITry= 1 IFail=0 DXMaxC= 2.81D-01 DCOld= 1.00D+10 DXMaxT= 3.00D-01 DXLimC= 3.00D+00 Rises=F
 Variable       Old X    -DE/DX   Delta X   Delta X   Delta X     New X
                                 (Linear)    (Quad)   (Total)
    X1       -1.10537  -0.22949   0.00000   0.00000   0.00000  -1.10537
    Y1        0.00000  -0.08896   0.00000   0.00000   0.00000   0.00000
    Z1        0.00000   0.05152   0.00000   0.00000   0.00000   0.00000
    X2        1.10537   0.22949   0.00000   0.00000   0.00000   1.10537
    Y2        0.00000   0.08891   0.00000   0.00000   0.00000   0.00000
    Z2        0.00000  -0.05159   0.00000   0.00000   0.00000   0.00000
    R1        2.04609   0.04593   0.00000   0.02509   0.02509   2.07118
    R2        2.04600   0.01304   0.00000   0.00712   0.00712   2.05313
    R3        2.04605   0.04595   0.00000   0.02509   0.02509   2.07114
    R4        2.04602   0.01303   0.00000   0.00712   0.00712   2.05314
    R5        2.04605   0.04592   0.00000   0.02508   0.02508   2.07113
    R6        2.04611   0.04596   0.00000   0.02510   0.02510   2.07121
    A1        1.59260   0.13590   0.00000   0.10460   0.09602   1.68862
    A2        1.59314   0.19050   0.00000   0.14668   0.13728   1.73043
    A3        1.59290   0.13584   0.00000   0.10456   0.09597   1.68886
    A4        2.09350  -0.00829   0.00000  -0.00597  -0.02708   2.06642
    A5        2.09354  -0.01870   0.00000  -0.01522  -0.03240   2.06114
    A6        2.09361  -0.00834   0.00000  -0.00601  -0.02711   2.06650
    A7        1.59317   0.19049   0.00000   0.14667   0.13728   1.73045
    A8        1.59293   0.13587   0.00000   0.10458   0.09599   1.68892
    A9        1.59265   0.13586   0.00000   0.10457   0.09598   1.68864
   A10        2.09357  -0.00835   0.00000  -0.00601  -0.02711   2.06646
   A11        2.09356  -0.00833   0.00000  -0.00600  -0.02710   2.06646
   A12        2.09351  -0.01872   0.00000  -0.01523  -0.03241   2.06110
    D1       -1.04741   0.00421   0.00000   0.00366   0.00485  -1.04256
    D2        3.14135  -0.00001   0.00000  -0.00001  -0.00001   3.14134
    D3        1.04700   0.00837   0.00000   0.00727   0.00966   1.05666
    D4        3.14143   0.00004   0.00000   0.00003   0.00003   3.14146
    D5        1.04701  -0.00419   0.00000  -0.00364  -0.00483   1.04217
    D6       -1.04734   0.00420   0.00000   0.00364   0.00484  -1.04250
    D7        1.04697  -0.00417   0.00000  -0.00362  -0.00482   1.04215
    D8       -1.04746  -0.00840   0.00000  -0.00729  -0.00968  -1.05714
    D9        3.14138  -0.00001   0.00000  -0.00001  -0.00001   3.14137
         Item               Value     Threshold  Converged?
 Maximum Force            0.190498     0.000450     NO 
 RMS     Force            0.076106     0.000300     NO 
 Maximum Displacement     0.280634     0.001800     NO 
 RMS     Displacement     0.098036     0.001200     NO 
 Predicted change in Energy=-1.047837D-01
 Lowest energy point so far.  Saving SCF results.
 GradGradGradGradGradGradGradGradGradGradGradGradGradGradGradGradGradGrad

 Leave Link  103 at Sat Nov 16 15:34:27 2024, MaxMem=  2147483648 cpu:               4.6 elap:               0.2
 (Enter /home/szhao/Apps/g16/l202.exe)
                          Input orientation:                          
 ---------------------------------------------------------------------
 Center     Atomic      Atomic             Coordinates (Angstroms)
 Number     Number       Type             X           Y           Z
 ---------------------------------------------------------------------
      1          6           0       -0.584936    0.000000    0.000000
      2          6           0        0.584936    0.000000    0.000000
      3          1           0        0.757655   -0.928230    0.537573
      4          1           0       -0.713772   -0.945839   -0.538566
      5          1           0        0.714102    0.945917    0.538291
      6          1           0        0.713793    0.003794   -1.088431
      7          1           0       -0.757634    0.928296   -0.537450
      8          1           0       -0.714038   -0.004039    1.088364
 ---------------------------------------------------------------------
                    Distance matrix (angstroms):
                    1          2          3          4          5
     1  C    0.000000
     2  C    1.169871   0.000000
     3  H    1.718471   1.086475   0.000000
     4  H    1.096022   1.694493   1.823042   0.000000
     5  H    1.694702   1.095993   1.874653   2.603303   0.000000
     6  H    1.694518   1.096038   1.874695   1.800582   1.879846
     7  H    1.086467   1.718453   2.626493   1.874649   1.823057
     8  H    1.096001   1.694664   1.823014   1.879864   1.801272
                    6          7          8
     6  H    0.000000
     7  H    1.823015   0.000000
     8  H    2.603305   1.874678   0.000000
 Symmetry turned off by external request.
 Stoichiometry    C2H6(1+,2)
 Framework group  C1[X(C2H6)]
 Deg. of freedom    18
 Full point group                 C1      NOp   1
 Rotational constants (GHZ):          71.2377574          33.7898626          33.7250211
 Leave Link  202 at Sat Nov 16 15:34:27 2024, MaxMem=  2147483648 cpu:               1.6 elap:               0.1
 (Enter /home/szhao/Apps/g16/l301.exe)
 Standard basis: 6-311+G(d,p) (5D, 7F)
 Ernie: Thresh=  0.10000D-02 Tol=  0.10000D-05 Strict=F.
    80 basis functions,   120 primitive gaussians,    82 cartesian basis functions
     9 alpha electrons        8 beta electrons
       nuclear repulsion energy        48.9552781752 Hartrees.
 IExCor= 4336 DFT=T Ex+Corr=M062X ExCW=0 ScaHFX=  0.540000
 ScaDFX=  1.000000  1.000000  1.000000  1.000000 ScalE2=  1.000000  1.000000
 IRadAn=      7 IRanWt=     -1 IRanGd=            0 ICorTp=0 IEmpDi=  4
 NAtoms=    8 NActive=    8 NUniq=    8 SFac= 1.00D+00 NAtFMM=   60 NAOKFM=F Big=F
 Integral buffers will be    131072 words long.
 Raffenetti 2 integral format.
 Two-electron integral symmetry is turned off.
 Leave Link  301 at Sat Nov 16 15:34:28 2024, MaxMem=  2147483648 cpu:               2.4 elap:               0.1
 (Enter /home/szhao/Apps/g16/l302.exe)
 NPDir=0 NMtPBC=     1 NCelOv=     1 NCel=       1 NClECP=     1 NCelD=      1
         NCelK=      1 NCelE2=     1 NClLst=     1 CellRange=     0.0.
 One-electron integrals computed using PRISM.
 NBasis=    80 RedAO= T EigKep=  4.60D-05  NBF=    80
 NBsUse=    80 1.00D-06 EigRej= -1.00D+00 NBFU=    80
 Precomputing XC quadrature grid using
 IXCGrd= 4 IRadAn=           7 IRanWt=          -1 IRanGd=           0 AccXCQ= 0.00D+00.
 Generated NRdTot=       0 NPtTot=           0 NUsed=           0 NTot=          32
 NSgBfM=    82    82    82    82    82 MxSgAt=     8 MxSgA2=     8.
 Leave Link  302 at Sat Nov 16 15:34:28 2024, MaxMem=  2147483648 cpu:               5.5 elap:               0.2
 (Enter /home/szhao/Apps/g16/l303.exe)
 DipDrv:  MaxL=1.
 Leave Link  303 at Sat Nov 16 15:34:28 2024, MaxMem=  2147483648 cpu:               2.1 elap:               0.1
 (Enter /home/szhao/Apps/g16/l401.exe)
 Initial guess from the checkpoint file:  "opt.chk"
 B after Tr=    -0.000002   -0.000006   -0.000009
         Rot=    0.999982    0.000139   -0.003024   -0.005216 Ang=   0.69 deg.
 Guess basis will be translated and rotated to current coordinates.
 JPrj=2 DoOrth=T DoCkMO=T.
 Initial guess <Sx>= 0.0000 <Sy>= 0.0000 <Sz>= 0.5000 <S**2>= 0.7542 S= 0.5021
 Generating alternative initial guess.
 ExpMin= 4.38D-02 ExpMax= 4.56D+03 ExpMxC= 6.82D+02 IAcc=3 IRadAn=         5 AccDes= 0.00D+00
 Harris functional with IExCor= 1009 and IRadAn=       5 diagonalized for initial guess.
 HarFok:  IExCor= 1009 AccDes= 0.00D+00 IRadAn=         5 IDoV= 1 UseB2=F ITyADJ=14
 ICtDFT=  3500011 ScaDFX=  1.000000  1.000000  1.000000  1.000000
 FoFCou: FMM=F IPFlag=           0 FMFlag=      100000 FMFlg1=           0
         NFxFlg=           0 DoJE=T BraDBF=F KetDBF=T FulRan=T
         wScrn=  0.000000 ICntrl=       500 IOpCl=  0 I1Cent=   200000004 NGrid=           0
         NMat0=    1 NMatS0=      1 NMatT0=    0 NMatD0=    1 NMtDS0=    0 NMtDT0=    0
 Symmetry not used in FoFCou.
 Harris En= -79.2598720855257    
 Leave Link  401 at Sat Nov 16 15:34:28 2024, MaxMem=  2147483648 cpu:               8.1 elap:               0.3
 (Enter /home/szhao/Apps/g16/l502.exe)
 Keep R1 and R2 ints in memory in canonical form, NReq=35964362.
 FoFCou: FMM=F IPFlag=           0 FMFlag=           0 FMFlg1=           0
         NFxFlg=           0 DoJE=F BraDBF=F KetDBF=F FulRan=T
         wScrn=  0.000000 ICntrl=       600 IOpCl=  0 I1Cent=           0 NGrid=           0
         NMat0=    1 NMatS0=   3240 NMatT0=    0 NMatD0=    1 NMtDS0=    0 NMtDT0=    0
 Symmetry not used in FoFCou.
 Two-electron integral symmetry not used.
 UHF open shell SCF:
 Using DIIS extrapolation, IDIIS=  1040.
 NGot=  2147483648 LenX=  2136966234 LenY=  2136959069
 Requested convergence on RMS density matrix=1.00D-08 within 128 cycles.
 Requested convergence on MAX density matrix=1.00D-06.
 Requested convergence on             energy=1.00D-06.
 No special actions if energy rises.

 Cycle   1  Pass 1  IDiag  1:
 E= -79.1449385680953    
 DIIS: error= 1.05D-02 at cycle   1 NSaved=   1.
 NSaved= 1 IEnMin= 1 EnMin= -79.1449385680953     IErMin= 1 ErrMin= 1.05D-02
 ErrMax= 1.05D-02  0.00D+00 EMaxC= 1.00D-01 BMatC= 1.54D-02 BMatP= 1.54D-02
 IDIUse=3 WtCom= 8.95D-01 WtEn= 1.05D-01
 Coeff-Com:  0.100D+01
 Coeff-En:   0.100D+01
 Coeff:      0.100D+01
 Recover alternate guess density for next cycle.
 RMSDP=5.62D-03 MaxDP=1.47D-01              OVMax= 0.00D+00

 Cycle   2  Pass 1  IDiag  1:
 E= -79.0270162591819     Delta-E=        0.117922308913 Rises=F Damp=F
 Switch densities from cycles 1 and 2 for lowest energy.
 DIIS: error= 5.90D-02 at cycle   2 NSaved=   2.
 NSaved= 2 IEnMin= 1 EnMin= -79.1449385680953     IErMin= 1 ErrMin= 1.05D-02
 ErrMax= 5.90D-02  0.00D+00 EMaxC= 1.00D+00 BMatC= 5.97D-01 BMatP= 1.54D-02
 IDIUse=1 WtCom= 1.00D+00 WtEn= 0.00D+00
 Coeff-Com:  0.981D+00 0.190D-01
 Coeff:      0.981D+00 0.190D-01
 Gap=     0.501 Goal=   None    Shift=    0.000
 Gap=     0.171 Goal=   None    Shift=    0.000
 RMSDP=1.68D-03 MaxDP=4.90D-02 DE= 1.18D-01 OVMax= 9.55D-02

 Cycle   3  Pass 1  IDiag  1:
 E= -79.1488346172925     Delta-E=       -0.121818358111 Rises=F Damp=F
 DIIS: error= 2.19D-03 at cycle   3 NSaved=   3.
 NSaved= 3 IEnMin= 3 EnMin= -79.1488346172925     IErMin= 3 ErrMin= 2.19D-03
 ErrMax= 2.19D-03  0.00D+00 EMaxC= 1.00D+00 BMatC= 3.48D-04 BMatP= 1.54D-02
 IDIUse=1 WtCom= 1.00D+00 WtEn= 0.00D+00
 Coeff-Com: -0.556D-01 0.130D-01 0.104D+01
 Coeff:     -0.556D-01 0.130D-01 0.104D+01
 Gap=     0.468 Goal=   None    Shift=    0.000
 Gap=     0.166 Goal=   None    Shift=    0.000
 RMSDP=2.46D-04 MaxDP=6.30D-03 DE=-1.22D-01 OVMax= 5.12D-03

 Cycle   4  Pass 1  IDiag  1:
 E= -79.1489374528958     Delta-E=       -0.000102835603 Rises=F Damp=F
 DIIS: error= 3.43D-04 at cycle   4 NSaved=   4.
 NSaved= 4 IEnMin= 4 EnMin= -79.1489374528958     IErMin= 4 ErrMin= 3.43D-04
 ErrMax= 3.43D-04  0.00D+00 EMaxC= 1.00D+00 BMatC= 2.05D-05 BMatP= 3.48D-04
 IDIUse=1 WtCom= 1.00D+00 WtEn= 0.00D+00
 Coeff-Com: -0.262D-01 0.780D-03 0.189D+00 0.836D+00
 Coeff:     -0.262D-01 0.780D-03 0.189D+00 0.836D+00
 Gap=     0.468 Goal=   None    Shift=    0.000
 Gap=     0.167 Goal=   None    Shift=    0.000
 RMSDP=3.34D-05 MaxDP=8.87D-04 DE=-1.03D-04 OVMax= 5.53D-04

 Cycle   5  Pass 1  IDiag  1:
 E= -79.1489416158196     Delta-E=       -0.000004162924 Rises=F Damp=F
 DIIS: error= 4.59D-05 at cycle   5 NSaved=   5.
 NSaved= 5 IEnMin= 5 EnMin= -79.1489416158196     IErMin= 5 ErrMin= 4.59D-05
 ErrMax= 4.59D-05  0.00D+00 EMaxC= 1.00D+00 BMatC= 2.17D-07 BMatP= 2.05D-05
 IDIUse=1 WtCom= 1.00D+00 WtEn= 0.00D+00
 Coeff-Com:  0.340D-02-0.523D-03-0.329D-01-0.116D+00 0.115D+01
 Coeff:      0.340D-02-0.523D-03-0.329D-01-0.116D+00 0.115D+01
 Gap=     0.468 Goal=   None    Shift=    0.000
 Gap=     0.167 Goal=   None    Shift=    0.000
 RMSDP=6.99D-06 MaxDP=1.03D-04 DE=-4.16D-06 OVMax= 2.69D-04

 Cycle   6  Pass 1  IDiag  1:
 E= -79.1489417506775     Delta-E=       -0.000000134858 Rises=F Damp=F
 DIIS: error= 1.05D-05 at cycle   6 NSaved=   6.
 NSaved= 6 IEnMin= 6 EnMin= -79.1489417506775     IErMin= 6 ErrMin= 1.05D-05
 ErrMax= 1.05D-05  0.00D+00 EMaxC= 1.00D+00 BMatC= 9.59D-09 BMatP= 2.17D-07
 IDIUse=1 WtCom= 1.00D+00 WtEn= 0.00D+00
 Coeff-Com: -0.906D-04 0.109D-03 0.211D-02-0.316D-02-0.184D+00 0.119D+01
 Coeff:     -0.906D-04 0.109D-03 0.211D-02-0.316D-02-0.184D+00 0.119D+01
 Gap=     0.468 Goal=   None    Shift=    0.000
 Gap=     0.167 Goal=   None    Shift=    0.000
 RMSDP=1.72D-06 MaxDP=3.72D-05 DE=-1.35D-07 OVMax= 5.65D-05

 Cycle   7  Pass 1  IDiag  1:
 E= -79.1489417576574     Delta-E=       -0.000000006980 Rises=F Damp=F
 DIIS: error= 2.63D-06 at cycle   7 NSaved=   7.
 NSaved= 7 IEnMin= 7 EnMin= -79.1489417576574     IErMin= 7 ErrMin= 2.63D-06
 ErrMax= 2.63D-06  0.00D+00 EMaxC= 1.00D+00 BMatC= 7.91D-10 BMatP= 9.59D-09
 IDIUse=1 WtCom= 1.00D+00 WtEn= 0.00D+00
 Coeff-Com: -0.176D-03-0.423D-05 0.160D-02 0.811D-02-0.393D-01-0.213D+00
 Coeff-Com:  0.124D+01
 Coeff:     -0.176D-03-0.423D-05 0.160D-02 0.811D-02-0.393D-01-0.213D+00
 Coeff:      0.124D+01
 Gap=     0.468 Goal=   None    Shift=    0.000
 Gap=     0.167 Goal=   None    Shift=    0.000
 RMSDP=4.32D-07 MaxDP=9.45D-06 DE=-6.98D-09 OVMax= 1.85D-05

 Cycle   8  Pass 1  IDiag  1:
 E= -79.1489417583256     Delta-E=       -0.000000000668 Rises=F Damp=F
 DIIS: error= 8.03D-07 at cycle   8 NSaved=   8.
 NSaved= 8 IEnMin= 8 EnMin= -79.1489417583256     IErMin= 8 ErrMin= 8.03D-07
 ErrMax= 8.03D-07  0.00D+00 EMaxC= 1.00D+00 BMatC= 4.60D-11 BMatP= 7.91D-10
 IDIUse=1 WtCom= 1.00D+00 WtEn= 0.00D+00
 Coeff-Com:  0.294D-04-0.389D-05-0.365D-03-0.463D-03 0.144D-01-0.393D-01
 Coeff-Com: -0.158D+00 0.118D+01
 Coeff:      0.294D-04-0.389D-05-0.365D-03-0.463D-03 0.144D-01-0.393D-01
 Coeff:     -0.158D+00 0.118D+01
 Gap=     0.468 Goal=   None    Shift=    0.000
 Gap=     0.167 Goal=   None    Shift=    0.000
 RMSDP=1.43D-07 MaxDP=2.93D-06 DE=-6.68D-10 OVMax= 1.29D-05

 Cycle   9  Pass 1  IDiag  1:
 E= -79.1489417584025     Delta-E=       -0.000000000077 Rises=F Damp=F
 DIIS: error= 7.80D-07 at cycle   9 NSaved=   9.
 NSaved= 9 IEnMin= 9 EnMin= -79.1489417584025     IErMin= 9 ErrMin= 7.80D-07
 ErrMax= 7.80D-07  0.00D+00 EMaxC= 1.00D+00 BMatC= 1.44D-11 BMatP= 4.60D-11
 IDIUse=1 WtCom= 1.00D+00 WtEn= 0.00D+00
 Coeff-Com:  0.182D-04-0.114D-05-0.204D-03-0.505D-03 0.704D-02-0.534D-02
 Coeff-Com: -0.113D+00 0.436D+00 0.676D+00
 Coeff:      0.182D-04-0.114D-05-0.204D-03-0.505D-03 0.704D-02-0.534D-02
 Coeff:     -0.113D+00 0.436D+00 0.676D+00
 Gap=     0.468 Goal=   None    Shift=    0.000
 Gap=     0.167 Goal=   None    Shift=    0.000
 RMSDP=4.88D-08 MaxDP=4.96D-07 DE=-7.70D-11 OVMax= 7.17D-06

 Cycle  10  Pass 1  IDiag  1:
 E= -79.1489417584314     Delta-E=       -0.000000000029 Rises=F Damp=F
 DIIS: error= 7.66D-07 at cycle  10 NSaved=  10.
 NSaved=10 IEnMin=10 EnMin= -79.1489417584314     IErMin=10 ErrMin= 7.66D-07
 ErrMax= 7.66D-07  0.00D+00 EMaxC= 1.00D+00 BMatC= 8.78D-12 BMatP= 1.44D-11
 IDIUse=1 WtCom= 1.00D+00 WtEn= 0.00D+00
 Coeff-Com: -0.384D-05 0.534D-06 0.480D-04 0.474D-04-0.184D-02 0.590D-02
 Coeff-Com:  0.189D-01-0.165D+00 0.390D-01 0.110D+01
 Coeff:     -0.384D-05 0.534D-06 0.480D-04 0.474D-04-0.184D-02 0.590D-02
 Coeff:      0.189D-01-0.165D+00 0.390D-01 0.110D+01
 Gap=     0.468 Goal=   None    Shift=    0.000
 Gap=     0.167 Goal=   None    Shift=    0.000
 RMSDP=7.29D-08 MaxDP=6.19D-07 DE=-2.88D-11 OVMax= 1.17D-05

 Cycle  11  Pass 1  IDiag  1:
 E= -79.1489417584738     Delta-E=       -0.000000000042 Rises=F Damp=F
 DIIS: error= 7.43D-07 at cycle  11 NSaved=  11.
 NSaved=11 IEnMin=11 EnMin= -79.1489417584738     IErMin=11 ErrMin= 7.43D-07
 ErrMax= 7.43D-07  0.00D+00 EMaxC= 1.00D+00 BMatC= 7.98D-12 BMatP= 8.78D-12
 IDIUse=1 WtCom= 1.00D+00 WtEn= 0.00D+00
 Coeff-Com: -0.213D-05-0.402D-06 0.169D-04 0.154D-03-0.311D-03-0.714D-02
 Coeff-Com:  0.231D-01 0.658D-01-0.371D+00-0.170D+01 0.299D+01
 Coeff:     -0.213D-05-0.402D-06 0.169D-04 0.154D-03-0.311D-03-0.714D-02
 Coeff:      0.231D-01 0.658D-01-0.371D+00-0.170D+01 0.299D+01
 Gap=     0.468 Goal=   None    Shift=    0.000
 Gap=     0.167 Goal=   None    Shift=    0.000
 RMSDP=2.02D-07 MaxDP=1.76D-06 DE=-4.24D-11 OVMax= 3.30D-05

 Cycle  12  Pass 1  IDiag  1:
 E= -79.1489417585825     Delta-E=       -0.000000000109 Rises=F Damp=F
 DIIS: error= 6.77D-07 at cycle  12 NSaved=  12.
 NSaved=12 IEnMin=12 EnMin= -79.1489417585825     IErMin=12 ErrMin= 6.77D-07
 ErrMax= 6.77D-07  0.00D+00 EMaxC= 1.00D+00 BMatC= 6.90D-12 BMatP= 7.98D-12
 IDIUse=1 WtCom= 1.00D+00 WtEn= 0.00D+00
 Coeff-Com:  0.569D-05-0.128D-06-0.642D-04-0.170D-03 0.220D-02-0.504D-03
 Coeff-Com: -0.394D-01 0.125D+00 0.272D+00 0.295D+00-0.215D+01 0.249D+01
 Coeff:      0.569D-05-0.128D-06-0.642D-04-0.170D-03 0.220D-02-0.504D-03
 Coeff:     -0.394D-01 0.125D+00 0.272D+00 0.295D+00-0.215D+01 0.249D+01
 Gap=     0.468 Goal=   None    Shift=    0.000
 Gap=     0.167 Goal=   None    Shift=    0.000
 RMSDP=2.79D-07 MaxDP=2.47D-06 DE=-1.09D-10 OVMax= 4.59D-05

 Cycle  13  Pass 1  IDiag  1:
 E= -79.1489417587132     Delta-E=       -0.000000000131 Rises=F Damp=F
 DIIS: error= 5.83D-07 at cycle  13 NSaved=  13.
 NSaved=13 IEnMin=13 EnMin= -79.1489417587132     IErMin=13 ErrMin= 5.83D-07
 ErrMax= 5.83D-07  0.00D+00 EMaxC= 1.00D+00 BMatC= 5.65D-12 BMatP= 6.90D-12
 IDIUse=1 WtCom= 1.00D+00 WtEn= 0.00D+00
 Coeff-Com:  0.396D-05 0.757D-06-0.298D-04-0.304D-03 0.491D-03 0.148D-01
 Coeff-Com: -0.450D-01-0.140D+00 0.747D+00 0.354D+01-0.560D+01-0.437D+00
 Coeff-Com:  0.292D+01
 Coeff:      0.396D-05 0.757D-06-0.298D-04-0.304D-03 0.491D-03 0.148D-01
 Coeff:     -0.450D-01-0.140D+00 0.747D+00 0.354D+01-0.560D+01-0.437D+00
 Coeff:      0.292D+01
 Gap=     0.468 Goal=   None    Shift=    0.000
 Gap=     0.167 Goal=   None    Shift=    0.000
 RMSDP=5.58D-07 MaxDP=4.98D-06 DE=-1.31D-10 OVMax= 9.19D-05

 Cycle  14  Pass 1  IDiag  1:
 E= -79.1489417589154     Delta-E=       -0.000000000202 Rises=F Damp=F
 DIIS: error= 3.92D-07 at cycle  14 NSaved=  14.
 NSaved=14 IEnMin=14 EnMin= -79.1489417589154     IErMin=14 ErrMin= 3.92D-07
 ErrMax= 3.92D-07  0.00D+00 EMaxC= 1.00D+00 BMatC= 3.04D-12 BMatP= 5.65D-12
 IDIUse=1 WtCom= 1.00D+00 WtEn= 0.00D+00
 Coeff-Com: -0.912D-05-0.111D-06 0.104D-03 0.290D-03-0.360D-02 0.240D-04
 Coeff-Com:  0.685D-01-0.195D+00-0.491D+00-0.654D+00 0.415D+01-0.431D+01
 Coeff-Com: -0.255D+00 0.269D+01
 Coeff:     -0.912D-05-0.111D-06 0.104D-03 0.290D-03-0.360D-02 0.240D-04
 Coeff:      0.685D-01-0.195D+00-0.491D+00-0.654D+00 0.415D+01-0.431D+01
 Coeff:     -0.255D+00 0.269D+01
 Gap=     0.468 Goal=   None    Shift=    0.000
 Gap=     0.167 Goal=   None    Shift=    0.000
 RMSDP=8.99D-07 MaxDP=8.04D-06 DE=-2.02D-10 OVMax= 1.48D-04

 Cycle  15  Pass 1  IDiag  1:
 E= -79.1489417590738     Delta-E=       -0.000000000158 Rises=F Damp=F
 DIIS: error= 8.04D-08 at cycle  15 NSaved=  15.
 NSaved=15 IEnMin=15 EnMin= -79.1489417590738     IErMin=15 ErrMin= 8.04D-08
 ErrMax= 8.04D-08  0.00D+00 EMaxC= 1.00D+00 BMatC= 2.70D-13 BMatP= 3.04D-12
 IDIUse=1 WtCom= 1.00D+00 WtEn= 0.00D+00
 Coeff-Com:  0.231D-05-0.554D-07-0.306D-04-0.241D-04 0.118D-02-0.373D-02
 Coeff-Com: -0.130D-01 0.101D+00-0.177D-02-0.602D+00-0.165D+00 0.175D+01
 Coeff-Com: -0.661D+00-0.104D+01 0.164D+01
 Coeff:      0.231D-05-0.554D-07-0.306D-04-0.241D-04 0.118D-02-0.373D-02
 Coeff:     -0.130D-01 0.101D+00-0.177D-02-0.602D+00-0.165D+00 0.175D+01
 Coeff:     -0.661D+00-0.104D+01 0.164D+01
 Gap=     0.468 Goal=   None    Shift=    0.000
 Gap=     0.167 Goal=   None    Shift=    0.000
 RMSDP=2.19D-07 MaxDP=1.96D-06 DE=-1.58D-10 OVMax= 3.60D-05

 Cycle  16  Pass 1  IDiag  1:
 E= -79.1489417590810     Delta-E=       -0.000000000007 Rises=F Damp=F
 DIIS: error= 6.43D-09 at cycle  16 NSaved=  16.
 NSaved=16 IEnMin=16 EnMin= -79.1489417590810     IErMin=16 ErrMin= 6.43D-09
 ErrMax= 6.43D-09  0.00D+00 EMaxC= 1.00D+00 BMatC= 5.62D-15 BMatP= 2.70D-13
 IDIUse=1 WtCom= 1.00D+00 WtEn= 0.00D+00
 Large coefficients: NSaved= 16 BigCof=    0.00 CofMax=   10.00 Det=-7.46D-15
 Inversion failed.  Reducing to 15 matrices.
 Coeff-Com: -0.103D-06 0.209D-05-0.132D-04-0.680D-04 0.786D-03-0.234D-03
 Coeff-Com: -0.137D-01 0.229D-01 0.167D+00-0.153D+00-0.204D+00 0.171D+00
 Coeff-Com:  0.115D+00-0.410D+00 0.130D+01
 Coeff:     -0.103D-06 0.209D-05-0.132D-04-0.680D-04 0.786D-03-0.234D-03
 Coeff:     -0.137D-01 0.229D-01 0.167D+00-0.153D+00-0.204D+00 0.171D+00
 Coeff:      0.115D+00-0.410D+00 0.130D+01
 Gap=     0.468 Goal=   None    Shift=    0.000
 Gap=     0.167 Goal=   None    Shift=    0.000
 RMSDP=1.03D-08 MaxDP=9.11D-08 DE=-7.13D-12 OVMax= 1.67D-06

 Cycle  17  Pass 1  IDiag  1:
 E= -79.1489417590810     Delta-E=       -0.000000000000 Rises=F Damp=F
 DIIS: error= 7.20D-10 at cycle  17 NSaved=  16.
 NSaved=16 IEnMin=16 EnMin= -79.1489417590810     IErMin=16 ErrMin= 7.20D-10
 ErrMax= 7.20D-10  0.00D+00 EMaxC= 1.00D+00 BMatC= 7.27D-17 BMatP= 5.62D-15
 IDIUse=1 WtCom= 1.00D+00 WtEn= 0.00D+00
 Large coefficients: NSaved= 16 BigCof=    0.00 CofMax=   10.00 Det=-5.65D-16
 Inversion failed.  Reducing to 15 matrices.
 Coeff-Com:  0.127D-06-0.669D-06-0.847D-05 0.486D-04 0.966D-04-0.118D-02
 Coeff-Com:  0.120D-04 0.724D-02 0.596D-02-0.286D-01 0.908D-02 0.175D-01
 Coeff-Com: -0.246D-01-0.227D-01 0.104D+01
 Coeff:      0.127D-06-0.669D-06-0.847D-05 0.486D-04 0.966D-04-0.118D-02
 Coeff:      0.120D-04 0.724D-02 0.596D-02-0.286D-01 0.908D-02 0.175D-01
 Coeff:     -0.246D-01-0.227D-01 0.104D+01
 Gap=     0.468 Goal=   None    Shift=    0.000
 Gap=     0.167 Goal=   None    Shift=    0.000
 RMSDP=4.48D-10 MaxDP=3.67D-09 DE=-2.84D-14 OVMax= 6.80D-08

 SCF Done:  E(UM062X) =  -79.1489417591     A.U. after   17 cycles
            NFock= 17  Conv=0.45D-09     -V/T= 1.9859
 <Sx>= 0.0000 <Sy>= 0.0000 <Sz>= 0.5000 <S**2>= 0.7545 S= 0.5023
 <L.S>=  0.00000000000    
 KE= 8.027825706373D+01 PE=-2.765622839959D+02 EE= 6.817980699790D+01
 Annihilation of the first spin contaminant:
 S**2 before annihilation     0.7545,   after     0.7500
 Leave Link  502 at Sat Nov 16 15:34:35 2024, MaxMem=  2147483648 cpu:             185.4 elap:               7.0
 (Enter /home/szhao/Apps/g16/l701.exe)
 ... and contract with generalized density number  0.
 Compute integral first derivatives.
 Leave Link  701 at Sat Nov 16 15:34:36 2024, MaxMem=  2147483648 cpu:               6.7 elap:               0.3
 (Enter /home/szhao/Apps/g16/l702.exe)
 L702 exits ... SP integral derivatives will be done elsewhere.
 Leave Link  702 at Sat Nov 16 15:34:36 2024, MaxMem=  2147483648 cpu:               1.0 elap:               0.0
 (Enter /home/szhao/Apps/g16/l703.exe)
 Integral derivatives from FoFJK, PRISM(SPDF).
 Compute integral first derivatives, UseDBF=F ICtDFT=           0.
 Calling FoFJK, ICntrl=      2127 FMM=F ISym2X=0 I1Cent= 0 IOpClX= 1 NMat=1 NMatS=1 NMatT=0.
 FoFJK:  IHMeth= 1 ICntrl=    2127 DoSepK=F KAlg= 0 I1Cent=           0 FoldK=F
 IRaf=         0 NMat=       1 IRICut=       1 DoRegI=T DoRafI=F ISym2E= 0 IDoP0=0 IntGTp=1.
 FoFCou: FMM=F IPFlag=           0 FMFlag=      100000 FMFlg1=         800
         NFxFlg=           0 DoJE=F BraDBF=F KetDBF=F FulRan=T
         wScrn=  0.000000 ICntrl=      2127 IOpCl=  1 I1Cent=           0 NGrid=           0
         NMat0=    1 NMatS0=      1 NMatT0=    0 NMatD0=    1 NMtDS0=    0 NMtDT0=    0
 Symmetry not used in FoFCou.
 Leave Link  703 at Sat Nov 16 15:34:36 2024, MaxMem=  2147483648 cpu:              24.0 elap:               0.9
 (Enter /home/szhao/Apps/g16/l716.exe)
 Dipole        = 5.60584833D-05-7.92851028D-05-1.72641484D-04
 -------------------------------------------------------------------
 Center     Atomic                   Forces (Hartrees/Bohr)
 Number     Number              X              Y              Z
 -------------------------------------------------------------------
      1        6          -0.000000000   -0.000000000   -0.000000000
      2        6          -0.000000000   -0.000000000   -0.000000000
      3        1           0.060945775    0.001557615   -0.000911880
      4        1          -0.053404396   -0.032191023   -0.001026666
      5        1           0.053399695    0.032172262    0.001004741
      6        1           0.053404002    0.015131199   -0.028419771
      7        1          -0.060948667   -0.001560242    0.000897094
      8        1          -0.053403791   -0.015141451    0.028399101
 -------------------------------------------------------------------
 Cartesian Forces:  Max     0.060948667 RMS     0.030949504
 Leave Link  716 at Sat Nov 16 15:34:37 2024, MaxMem=  2147483648 cpu:               2.5 elap:               0.1
 (Enter /home/szhao/Apps/g16/l103.exe)

 GradGradGradGradGradGradGradGradGradGradGradGradGradGradGradGradGradGrad
 Berny optimization.
 Using GEDIIS/GDIIS optimizer.
 FormGI is forming the generalized inverse of G from B-inverse, IUseBI=4.
 Internal  Forces:  Max     0.167756854 RMS     0.064290916
 Search for a local minimum.
 Step number   2 out of a maximum of   43
 All quantities printed in internal units (Hartrees-Bohrs-Radians)
 RMS Force = .49857D-01 SwitMx=.10000D-02 MixMth= 1
 Mixed Optimization -- RFO/linear search
 Update second derivatives using D2CorX and points    1    2
 DE= -9.35D-02 DEPred=-1.05D-01 R= 8.93D-01
 TightC=F SS=  1.41D+00  RLast= 2.87D-01 DXNew= 5.0454D-01 8.6161D-01
 Trust test= 8.93D-01 RLast= 2.87D-01 DXMaxT set to 5.05D-01
 ITU=  1  0
 Use linear search instead of GDIIS.
     Eigenvalues ---    0.05133   0.10165   0.10200   0.10200   0.10293
     Eigenvalues ---    0.15461   0.16000   0.16000   0.16000   0.16000
     Eigenvalues ---    0.34006   0.35408   0.35664   0.35666   0.35667
     Eigenvalues ---    0.35670   0.375871000.000001000.000001000.00000
     Eigenvalues --- 1000.000001000.000001000.000001000.000001000.00000
     Eigenvalues --- 1000.000001000.000001000.000001000.000001000.00000
     Eigenvalues --- 1000.000001000.000001000.00000
 RFO step:  Lambda=-1.87144191D-02 EMin= 5.13292077D-02
 Quartic linear search produced a step of  1.27421.
 Iteration  1 RMS(Cart)=  0.14274721 RMS(Int)=  0.02796173
 Iteration  2 RMS(Cart)=  0.02133455 RMS(Int)=  0.02405779
 Iteration  3 RMS(Cart)=  0.00057153 RMS(Int)=  0.02405470
 Iteration  4 RMS(Cart)=  0.00003012 RMS(Int)=  0.02405469
 Iteration  5 RMS(Cart)=  0.00000175 RMS(Int)=  0.02405469
 Iteration  6 RMS(Cart)=  0.00000010 RMS(Int)=  0.02405469
 ITry= 1 IFail=0 DXMaxC= 4.04D-01 DCOld= 1.00D+10 DXMaxT= 5.05D-01 DXLimC= 3.00D+00 Rises=F
 Variable       Old X    -DE/DX   Delta X   Delta X   Delta X     New X
                                 (Linear)    (Quad)   (Total)
    X1       -1.10537  -0.16776   0.00000   0.00000   0.00000  -1.10537
    Y1        0.00000  -0.06980   0.00000   0.00000   0.00000   0.00000
    Z1        0.00000   0.04037   0.00000   0.00000   0.00000   0.00000
    X2        1.10537   0.16775   0.00000   0.00000   0.00000   1.10537
    Y2        0.00000   0.06976   0.00000   0.00000   0.00000   0.00000
    Z2        0.00000  -0.04043   0.00000   0.00000   0.00000   0.00000
    R1        2.07118   0.03456   0.03197   0.03850   0.07047   2.14165
    R2        2.05313   0.00791   0.00907  -0.00169   0.00739   2.06051
    R3        2.07114   0.03455   0.03198   0.03834   0.07032   2.14146
    R4        2.05314   0.00791   0.00907  -0.00170   0.00738   2.06052
    R5        2.07113   0.03455   0.03196   0.03850   0.07046   2.14159
    R6        2.07121   0.03455   0.03199   0.03834   0.07032   2.14153
    A1        1.68862   0.08430   0.12235   0.10319   0.18923   1.87785
    A2        1.73043   0.10732   0.17493  -0.05575   0.08035   1.81078
    A3        1.68886   0.08428   0.12229   0.10352   0.18948   1.87835
    A4        2.06642  -0.03776  -0.03450   0.03156  -0.04472   2.02170
    A5        2.06114  -0.04717  -0.04128  -0.13141  -0.21641   1.84474
    A6        2.06650  -0.03778  -0.03454   0.03171  -0.04465   2.02185
    A7        1.73045   0.10731   0.17492  -0.05581   0.08030   1.81074
    A8        1.68892   0.08426   0.12231   0.10300   0.18904   1.87796
    A9        1.68864   0.08429   0.12230   0.10356   0.18955   1.87819
   A10        2.06646  -0.03778  -0.03454   0.03160  -0.04468   2.02178
   A11        2.06646  -0.03777  -0.03453   0.03172  -0.04462   2.02184
   A12        2.06110  -0.04717  -0.04130  -0.13138  -0.21636   1.84474
    D1       -1.04256   0.00713   0.00618   0.04632   0.05186  -0.99070
    D2        3.14134  -0.00001  -0.00001  -0.00003  -0.00003   3.14130
    D3        1.05666   0.01423   0.01231   0.09294   0.10400   1.16067
    D4        3.14146   0.00002   0.00004  -0.00004  -0.00002   3.14144
    D5        1.04217  -0.00712  -0.00616  -0.04639  -0.05191   0.99026
    D6       -1.04250   0.00712   0.00616   0.04657   0.05212  -0.99038
    D7        1.04215  -0.00711  -0.00614  -0.04665  -0.05218   0.98996
    D8       -1.05714  -0.01425  -0.01234  -0.09300  -0.10408  -1.16122
    D9        3.14137  -0.00001  -0.00001  -0.00003  -0.00004   3.14133
         Item               Value     Threshold  Converged?
 Maximum Force            0.107321     0.000450     NO 
 RMS     Force            0.049857     0.000300     NO 
 Maximum Displacement     0.404463     0.001800     NO 
 RMS     Displacement     0.151157     0.001200     NO 
 Predicted change in Energy=-9.640228D-02
 Lowest energy point so far.  Saving SCF results.
 GradGradGradGradGradGradGradGradGradGradGradGradGradGradGradGradGradGrad

 Leave Link  103 at Sat Nov 16 15:34:37 2024, MaxMem=  2147483648 cpu:               3.2 elap:               0.1
 (Enter /home/szhao/Apps/g16/l202.exe)
                          Input orientation:                          
 ---------------------------------------------------------------------
 Center     Atomic      Atomic             Coordinates (Angstroms)
 Number     Number       Type             X           Y           Z
 ---------------------------------------------------------------------
      1          6           0       -0.584936    0.000000    0.000000
      2          6           0        0.584936    0.000000    0.000000
      3          1           0        0.844066   -0.915944    0.531809
      4          1           0       -0.927476   -0.965765   -0.484104
      5          1           0        0.927590    0.965843    0.483794
      6          1           0        0.927826    0.058869   -1.078526
      7          1           0       -0.844101    0.916018   -0.531664
      8          1           0       -0.927990   -0.059148    1.078419
 ---------------------------------------------------------------------
                    Distance matrix (angstroms):
                    1          2          3          4          5
     1  C    0.000000
     2  C    1.169871   0.000000
     3  H    1.778713   1.090378   0.000000
     4  H    1.133311   1.858615   2.042774   0.000000
     5  H    1.858667   1.133279   1.884251   2.847667   0.000000
     6  H    1.858798   1.133251   1.884265   2.201217   1.806501
     7  H    1.090377   1.778736   2.708684   1.884230   2.042676
     8  H    1.133214   1.858879   2.042808   1.806498   2.201673
                    6          7          8
     6  H    0.000000
     7  H    2.042911   0.000000
     8  H    2.847875   1.884239   0.000000
 Symmetry turned off by external request.
 Stoichiometry    C2H6(1+,2)
 Framework group  C1[X(C2H6)]
 Deg. of freedom    18
 Full point group                 C1      NOp   1
 Rotational constants (GHZ):          72.7512546          30.7701149          30.0945109
 Leave Link  202 at Sat Nov 16 15:34:37 2024, MaxMem=  2147483648 cpu:               2.1 elap:               0.1
 (Enter /home/szhao/Apps/g16/l301.exe)
 Standard basis: 6-311+G(d,p) (5D, 7F)
 Ernie: Thresh=  0.10000D-02 Tol=  0.10000D-05 Strict=F.
    80 basis functions,   120 primitive gaussians,    82 cartesian basis functions
     9 alpha electrons        8 beta electrons
       nuclear repulsion energy        47.5106977449 Hartrees.
 IExCor= 4336 DFT=T Ex+Corr=M062X ExCW=0 ScaHFX=  0.540000
 ScaDFX=  1.000000  1.000000  1.000000  1.000000 ScalE2=  1.000000  1.000000
 IRadAn=      7 IRanWt=     -1 IRanGd=            0 ICorTp=0 IEmpDi=  4
 NAtoms=    8 NActive=    8 NUniq=    8 SFac= 1.00D+00 NAtFMM=   60 NAOKFM=F Big=F
 Integral buffers will be    131072 words long.
 Raffenetti 2 integral format.
 Two-electron integral symmetry is turned off.
 Leave Link  301 at Sat Nov 16 15:34:37 2024, MaxMem=  2147483648 cpu:               3.0 elap:               0.1
 (Enter /home/szhao/Apps/g16/l302.exe)
 NPDir=0 NMtPBC=     1 NCelOv=     1 NCel=       1 NClECP=     1 NCelD=      1
         NCelK=      1 NCelE2=     1 NClLst=     1 CellRange=     0.0.
 One-electron integrals computed using PRISM.
 NBasis=    80 RedAO= T EigKep=  4.26D-05  NBF=    80
 NBsUse=    80 1.00D-06 EigRej= -1.00D+00 NBFU=    80
 Precomputing XC quadrature grid using
 IXCGrd= 4 IRadAn=           7 IRanWt=          -1 IRanGd=           0 AccXCQ= 0.00D+00.
 Generated NRdTot=       0 NPtTot=           0 NUsed=           0 NTot=          32
 NSgBfM=    82    82    82    82    82 MxSgAt=     8 MxSgA2=     8.
 Leave Link  302 at Sat Nov 16 15:34:37 2024, MaxMem=  2147483648 cpu:               6.5 elap:               0.2
 (Enter /home/szhao/Apps/g16/l303.exe)
 DipDrv:  MaxL=1.
 Leave Link  303 at Sat Nov 16 15:34:37 2024, MaxMem=  2147483648 cpu:               2.1 elap:               0.1
 (Enter /home/szhao/Apps/g16/l401.exe)
 Initial guess from the checkpoint file:  "opt.chk"
 B after Tr=    -0.000020   -0.000003   -0.000006
         Rot=    0.999982    0.000504    0.003044    0.005146 Ang=   0.69 deg.
 Guess basis will be translated and rotated to current coordinates.
 JPrj=2 DoOrth=T DoCkMO=T.
 Initial guess <Sx>= 0.0000 <Sy>= 0.0000 <Sz>= 0.5000 <S**2>= 0.7546 S= 0.5023
 Generating alternative initial guess.
 ExpMin= 4.38D-02 ExpMax= 4.56D+03 ExpMxC= 6.82D+02 IAcc=3 IRadAn=         5 AccDes= 0.00D+00
 Harris functional with IExCor= 1009 and IRadAn=       5 diagonalized for initial guess.
[...]
    A7        2.12769  -0.00014  -0.00092  -0.00000  -0.00092   2.12676
    A8        2.01989   0.00011   0.00057   0.00019   0.00076   2.02065
    A9        2.02005   0.00011   0.00055   0.00015   0.00071   2.02075
   A10        1.88287   0.00002   0.00006  -0.00008  -0.00002   1.88285
   A11        1.88308   0.00001   0.00004  -0.00012  -0.00008   1.88300
   A12        1.39354  -0.00006   0.00011  -0.00022  -0.00011   1.39343
    D1       -0.79347  -0.00001  -0.00031   0.00013  -0.00018  -0.79365
    D2        3.14134   0.00000   0.00001   0.00002   0.00002   3.14136
    D3        1.55549  -0.00003  -0.00068   0.00012  -0.00056   1.55492
    D4        3.14149   0.00000   0.00000   0.00001   0.00001   3.14150
    D5        0.79311   0.00001   0.00032  -0.00010   0.00022   0.79333
    D6       -0.79274  -0.00002  -0.00037  -0.00000  -0.00037  -0.79311
    D7        0.79236   0.00002   0.00038   0.00003   0.00041   0.79277
    D8       -1.55602   0.00003   0.00070  -0.00008   0.00061  -1.55540
    D9        3.14132   0.00000   0.00001   0.00002   0.00003   3.14135
         Item               Value     Threshold  Converged?
 Maximum Force            0.000144     0.000450     YES
 RMS     Force            0.000066     0.000300     YES
 Maximum Displacement     0.001541     0.001800     YES
 RMS     Displacement     0.000758     0.001200     YES
 Predicted change in Energy=-3.279125D-07
 Optimization completed.
    -- Stationary point found.
                           ----------------------------
                           !   Optimized Parameters   !
                           ! (Angstroms and Degrees)  !
 --------------------------                            --------------------------
 ! Name  Definition              Value          Derivative Info.                !
 --------------------------------------------------------------------------------
 ! X1    R(1,-1)                -0.5849         -DE/DX =   -0.0001              !
 ! Y1    R(1,-2)                 0.0            -DE/DX =    0.0003              !
 ! Z1    R(1,-3)                 0.0            -DE/DX =   -0.0002              !
 ! X2    R(2,-1)                 0.5849         -DE/DX =    0.0001              !
 ! Y2    R(2,-2)                 0.0            -DE/DX =   -0.0003              !
 ! Z2    R(2,-3)                 0.0            -DE/DX =    0.0002              !
 ! R1    R(1,4)                  1.1486         -DE/DX =    0.0                 !
 ! R2    R(1,7)                  1.0902         -DE/DX =    0.0001              !
 ! R3    R(1,8)                  1.1485         -DE/DX =    0.0001              !
 ! R4    R(2,3)                  1.0902         -DE/DX =    0.0001              !
 ! R5    R(2,5)                  1.1486         -DE/DX =    0.0                 !
 ! R6    R(2,6)                  1.1485         -DE/DX =    0.0001              !
 ! A1    A(2,1,4)              115.7291         -DE/DX =    0.0001              !
 ! A2    A(2,1,7)              121.9076         -DE/DX =   -0.0001              !
 ! A3    A(2,1,8)              115.7423         -DE/DX =    0.0001              !
 ! A4    A(4,1,7)              107.8769         -DE/DX =    0.0                 !
 ! A5    A(4,1,8)               79.8429         -DE/DX =   -0.0001              !
 ! A6    A(7,1,8)              107.8963         -DE/DX =    0.0                 !
 ! A7    A(1,2,3)              121.9075         -DE/DX =   -0.0001              !
 ! A8    A(1,2,5)              115.7312         -DE/DX =    0.0001              !
 ! A9    A(1,2,6)              115.7401         -DE/DX =    0.0001              !
 ! A10   A(3,2,5)              107.8804         -DE/DX =    0.0                 !
 ! A11   A(3,2,6)              107.8925         -DE/DX =    0.0                 !
 ! A12   A(5,2,6)               79.8438         -DE/DX =   -0.0001              !
 ! D1    D(4,1,2,3)            -45.4623         -DE/DX =    0.0                 !
 ! D2    D(4,1,2,5)            179.9854         -DE/DX =    0.0                 !
 ! D3    D(4,1,2,6)             89.1229         -DE/DX =    0.0                 !
 ! D4    D(7,1,2,3)            179.9941         -DE/DX =    0.0                 !
 ! D5    D(7,1,2,5)             45.4418         -DE/DX =    0.0                 !
 ! D6    D(7,1,2,6)            -45.4207         -DE/DX =    0.0                 !
 ! D7    D(8,1,2,3)             45.3991         -DE/DX =    0.0                 !
 ! D8    D(8,1,2,5)            -89.1532         -DE/DX =    0.0                 !
 ! D9    D(8,1,2,6)            179.9843         -DE/DX =    0.0                 !
 --------------------------------------------------------------------------------
 Lowest energy point so far.  Saving SCF results.
 Largest change from initial coordinates is atom    7       0.545 Angstoms.
 GradGradGradGradGradGradGradGradGradGradGradGradGradGradGradGradGradGrad

 Leave Link  103 at Sat Nov 16 15:35:17 2024, MaxMem=  2147483648 cpu:               5.1 elap:               0.2
 (Enter /home/szhao/Apps/g16/l202.exe)
                          Input orientation:                          
 ---------------------------------------------------------------------
 Center     Atomic      Atomic             Coordinates (Angstroms)
 Number     Number       Type             X           Y           Z
 ---------------------------------------------------------------------
      1          6           0       -0.584936    0.000000    0.000000
      2          6           0        0.584936    0.000000    0.000000
      3          1           0        1.161184   -0.798790    0.467448
      4          1           0       -1.083566   -0.998880   -0.270012
      5          1           0        1.083594    0.998912    0.269747
      6          1           0        1.083724    0.254646   -1.002725
      7          1           0       -1.161186    0.798837   -0.467366
      8          1           0       -1.083756   -0.254912    1.002619
 ---------------------------------------------------------------------
                    Distance matrix (angstroms):
                    1          2          3          4          5
     1  C    0.000000
     2  C    1.169871   0.000000
     3  H    1.976235   1.090246   0.000000
     4  H    1.148608   1.963305   2.371242   0.000000
     5  H    1.963308   1.148585   1.810204   2.996514   0.000000
     6  H    1.963345   1.148517   1.810286   2.608705   1.474149
     7  H    1.090246   1.976236   2.969796   1.810183   2.371160
     8  H    1.148497   1.963353   2.371068   1.474137   2.608942
                    6          7          8
     6  H    0.000000
     7  H    2.371154   0.000000
     8  H    2.996501   1.810314   0.000000
 Symmetry turned off by external request.
 Stoichiometry    C2H6(1+,2)
 Framework group  C1[X(C2H6)]
 Deg. of freedom    18
 Full point group                 C1      NOp   1
 Rotational constants (GHZ):          84.8403197          28.1728124          25.8967403
 Leave Link  202 at Sat Nov 16 15:35:18 2024, MaxMem=  2147483648 cpu:               2.0 elap:               0.1
 (Enter /home/szhao/Apps/g16/l601.exe)
 Copying SCF densities to generalized density rwf, IOpCl= 1 IROHF=0.

 **********************************************************************

            Population analysis using the SCF density.

 **********************************************************************

 Alpha  occ. eigenvalues --  -10.80772 -10.80445  -1.23638  -0.99619  -0.85103
 Alpha  occ. eigenvalues --   -0.82186  -0.80533  -0.67487  -0.61289
 Alpha virt. eigenvalues --   -0.16193  -0.14458  -0.13778  -0.12216  -0.08789
 Alpha virt. eigenvalues --   -0.07146  -0.07019  -0.06586  -0.04401  -0.02909
 Alpha virt. eigenvalues --   -0.00912  -0.00738   0.06409   0.06505   0.14647
 Alpha virt. eigenvalues --    0.21031   0.22042   0.22594   0.25829   0.26786
 Alpha virt. eigenvalues --    0.34615   0.37445   0.39163   0.43213   0.46583
 Alpha virt. eigenvalues --    0.49910   0.55063   0.63095   0.73815   0.80806
 Alpha virt. eigenvalues --    0.83934   0.95196   1.03326   1.22459   1.22820
 Alpha virt. eigenvalues --    1.25114   1.30712   1.37007   1.40290   1.43686
 Alpha virt. eigenvalues --    1.47865   1.50552   1.55621   1.60560   1.62399
 Alpha virt. eigenvalues --    1.87531   1.88579   1.89367   1.96148   1.99108
 Alpha virt. eigenvalues --    2.02413   2.04101   2.19960   2.22367   2.32724
 Alpha virt. eigenvalues --    2.36038   2.36912   2.43195   2.46968   2.53739
 Alpha virt. eigenvalues --    2.57464   2.65450   2.89560   3.17625   3.19564
 Alpha virt. eigenvalues --    3.57503   3.66115   3.84396   3.98883  23.52557
 Alpha virt. eigenvalues --   24.83242
  Beta  occ. eigenvalues --  -10.80719 -10.80380  -1.22239  -0.95798  -0.84313
  Beta  occ. eigenvalues --   -0.80252  -0.75536  -0.65959
  Beta virt. eigenvalues --   -0.41303  -0.16292  -0.14482  -0.13273  -0.12299
  Beta virt. eigenvalues --   -0.08833  -0.06855  -0.06555  -0.04974  -0.04329
  Beta virt. eigenvalues --   -0.02369  -0.00793  -0.00537   0.06601   0.07019
  Beta virt. eigenvalues --    0.14718   0.20920   0.22025   0.22821   0.25461
  Beta virt. eigenvalues --    0.26691   0.33845   0.38723   0.38732   0.43574
  Beta virt. eigenvalues --    0.46717   0.50139   0.55505   0.62480   0.74219
  Beta virt. eigenvalues --    0.81958   0.84249   0.95219   1.03666   1.23114
  Beta virt. eigenvalues --    1.23333   1.25120   1.31095   1.38078   1.40524
  Beta virt. eigenvalues --    1.44404   1.48080   1.50425   1.55417   1.60172
  Beta virt. eigenvalues --    1.62128   1.87824   1.89528   1.90147   1.97463
  Beta virt. eigenvalues --    1.99704   2.03705   2.03996   2.20529   2.22011
  Beta virt. eigenvalues --    2.33258   2.37515   2.38065   2.43488   2.48053
  Beta virt. eigenvalues --    2.53936   2.57547   2.65601   2.90094   3.18743
  Beta virt. eigenvalues --    3.19964   3.57868   3.66666   3.84543   3.98468
  Beta virt. eigenvalues --   23.52641  24.83597
          Condensed to atoms (all electrons):
               1          2          3          4          5          6
     1  C    5.185269   0.230624  -0.024053   0.346555  -0.048881  -0.048812
     2  C    0.230624   5.185279   0.405727  -0.048874   0.346588   0.346594
     3  H   -0.024053   0.405727   0.404812  -0.006350  -0.014586  -0.014579
     4  H    0.346555  -0.048874  -0.006350   0.425277   0.007254  -0.006996
     5  H   -0.048881   0.346588  -0.014586   0.007254   0.425251  -0.023639
     6  H   -0.048812   0.346594  -0.014579  -0.006996  -0.023639   0.425216
     7  H    0.405726  -0.024053   0.004990  -0.014590  -0.006352  -0.006349
     8  H    0.346623  -0.048818  -0.006351  -0.023639  -0.006989   0.007248
               7          8
     1  C    0.405726   0.346623
     2  C   -0.024053  -0.048818
     3  H    0.004990  -0.006351
     4  H   -0.014590  -0.023639
     5  H   -0.006352  -0.006989
     6  H   -0.006349   0.007248
     7  H    0.404811  -0.014575
     8  H   -0.014575   0.425194
          Atomic-Atomic Spin Densities.
               1          2          3          4          5          6
     1  C    0.158898  -0.116688   0.001765   0.069552  -0.019220  -0.019193
     2  C   -0.116688   0.158888  -0.002909  -0.019230   0.069537   0.069510
     3  H    0.001765  -0.002909  -0.007374   0.000001  -0.000255  -0.000242
     4  H    0.069552  -0.019230   0.000001   0.190444   0.005894  -0.010613
     5  H   -0.019220   0.069537  -0.000255   0.005894   0.190372  -0.051899
     6  H   -0.019193   0.069510  -0.000242  -0.010613  -0.051899   0.190213
     7  H   -0.002910   0.001765  -0.000184  -0.000259  -0.000000   0.000009
     8  H    0.069496  -0.019183   0.000008  -0.051900  -0.010606   0.005887
               7          8
     1  C   -0.002910   0.069496
     2  C    0.001765  -0.019183
     3  H   -0.000184   0.000008
     4  H   -0.000259  -0.051900
     5  H   -0.000000  -0.010606
     6  H    0.000009   0.005887
     7  H   -0.007375  -0.000238
     8  H   -0.000238   0.190145
 Mulliken charges and spin densities:
               1          2
     1  C   -0.393052   0.141698
     2  C   -0.393068   0.141689
     3  H    0.250390  -0.009190
     4  H    0.321361   0.183889
     5  H    0.321353   0.183823
     6  H    0.321316   0.183673
     7  H    0.250391  -0.009191
     8  H    0.321307   0.183609
 Sum of Mulliken charges =   1.00000   1.00000
 Mulliken charges and spin densities with hydrogens summed into heavy atoms:
               1          2
     1  C    0.500008   0.500005
     2  C    0.499992   0.499995
 Electronic spatial extent (au):  <R**2>=             83.1006
 Charge=              1.0000 electrons
 Dipole moment (field-independent basis, Debye):
    X=             -0.0000    Y=             -0.0003    Z=             -0.0004  Tot=              0.0005
 Quadrupole moment (field-independent basis, Debye-Ang):
   XX=             -7.0503   YY=             -9.9563   ZZ=            -10.7359
   XY=              1.8369   XZ=             -1.0725   YZ=             -0.6918
 Traceless Quadrupole moment (field-independent basis, Debye-Ang):
   XX=              2.1972   YY=             -0.7088   ZZ=             -1.4884
   XY=              1.8369   XZ=             -1.0725   YZ=             -0.6918
 Octapole moment (field-independent basis, Debye-Ang**2):
  XXX=             -0.0000  YYY=              0.0005  ZZZ=             -0.0000  XYY=             -0.0003
  XXY=             -0.0002  XXZ=             -0.0003  XZZ=              0.0003  YZZ=             -0.0005
  YYZ=              0.0000  XYZ=             -0.0001
 Hexadecapole moment (field-independent basis, Debye-Ang**3):
 XXXX=            -51.9463 YYYY=            -20.3973 ZZZZ=            -18.6267 XXXY=              0.6634
 XXXZ=             -0.3885 YYYX=              0.7973 YYYZ=              1.4787 ZZZX=             -2.7252
 ZZZY=              0.0982 XXYY=             -8.7686 XXZZ=             -9.6094 YYZZ=             -7.0616
 XXYZ=             -0.7477 YYXZ=              2.1341 ZZXY=              0.2145
 N-N= 4.656525944287D+01 E-N=-2.719737398991D+02  KE= 7.981530739994D+01
                          Isotropic Fermi Contact Couplings
        Atom                 a.u.       MegaHertz       Gauss      10(-4) cm-1
     1  C(13)             -0.01384     -15.55432      -5.55017      -5.18836
     2  C(13)             -0.01384     -15.55551      -5.55059      -5.18876
     3  H(1)              -0.00320     -14.29962      -5.10246      -4.76984
     4  H(1)               0.09531     426.02318     152.01567     142.10604
     5  H(1)               0.09528     425.87561     151.96301     142.05681
     6  H(1)               0.09521     425.55648     151.84913     141.95036
     7  H(1)              -0.00320     -14.30020      -5.10267      -4.77003
     8  H(1)               0.09517     425.41269     151.79783     141.90240
 --------------------------------------------------------
       Center         ----  Spin Dipole Couplings  ----
                      3XX-RR        3YY-RR        3ZZ-RR
 --------------------------------------------------------
     1   Atom       -0.131732     -0.038105      0.169837
     2   Atom       -0.131728     -0.038082      0.169809
     3   Atom       -0.010727      0.012060     -0.001333
     4   Atom       -0.006971      0.030408     -0.023438
     5   Atom       -0.006974      0.030403     -0.023429
     6   Atom       -0.006969     -0.004857      0.011826
     7   Atom       -0.010728      0.012061     -0.001333
     8   Atom       -0.006972     -0.004837      0.011809
 --------------------------------------------------------
                        XY            XZ            YZ
 --------------------------------------------------------
     1   Atom        0.003869     -0.002323      0.184962
     2   Atom        0.003888     -0.002290      0.184970
     3   Atom       -0.012427      0.007277     -0.011918
     4   Atom        0.032465     -0.002652     -0.006562
     5   Atom        0.032462     -0.002662     -0.006577
     6   Atom        0.018247     -0.026984     -0.026412
     7   Atom       -0.012428      0.007276     -0.011918
     8   Atom        0.018256     -0.026977     -0.026415
 --------------------------------------------------------


 ---------------------------------------------------------------------------------
              Anisotropic Spin Dipole Couplings in Principal Axis System
 ---------------------------------------------------------------------------------

       Atom             a.u.   MegaHertz   Gauss  10(-4) cm-1        Axes

              Baa    -0.1476   -19.806    -7.067    -6.607 -0.2735  0.8302 -0.4857
     1 C(13)  Bbb    -0.1304   -17.505    -6.246    -5.839  0.9619  0.2362 -0.1380
              Bcc     0.2780    37.311    13.314    12.446 -0.0001  0.5050  0.8631
 
              Baa    -0.1476   -19.806    -7.067    -6.607 -0.2735  0.8302 -0.4858
     2 C(13)  Bbb    -0.1304   -17.504    -6.246    -5.839  0.9619  0.2361 -0.1381
              Bcc     0.2780    37.310    13.313    12.445 -0.0000  0.5050  0.8631
 
              Baa    -0.0166    -8.833    -3.152    -2.946  0.9270  0.3235 -0.1899
     3 H(1)   Bbb    -0.0083    -4.432    -1.581    -1.478  0.0005  0.5052  0.8630
              Bcc     0.0249    13.265     4.733     4.425 -0.3751  0.8001 -0.4682
 
              Baa    -0.0262   -13.981    -4.989    -4.664  0.7639 -0.4871 -0.4233
     4 H(1)   Bbb    -0.0236   -12.616    -4.502    -4.208  0.4114 -0.1377  0.9010
              Bcc     0.0498    26.597     9.491     8.872  0.4972  0.8624 -0.0952
 
              Baa    -0.0262   -13.981    -4.989    -4.663  0.7643 -0.4874 -0.4222
     5 H(1)   Bbb    -0.0236   -12.615    -4.501    -4.208  0.4106 -0.1369  0.9015
              Bcc     0.0498    26.595     9.490     8.871  0.4972  0.8624 -0.0955
 
              Baa    -0.0262   -13.979    -4.988    -4.663  0.7653  0.1267  0.6311
     6 H(1)   Bbb    -0.0236   -12.614    -4.501    -4.207 -0.4087  0.8531  0.3244
              Bcc     0.0498    26.593     9.489     8.870 -0.4973 -0.5061  0.7047
 
              Baa    -0.0166    -8.833    -3.152    -2.946  0.9270  0.3235 -0.1898
     7 H(1)   Bbb    -0.0083    -4.432    -1.581    -1.478  0.0004  0.5052  0.8630
              Bcc     0.0249    13.265     4.733     4.425 -0.3751  0.8001 -0.4682
 
              Baa    -0.0262   -13.979    -4.988    -4.663  0.7658  0.1255  0.6307
     8 H(1)   Bbb    -0.0236   -12.612    -4.500    -4.207 -0.4078  0.8531  0.3254
              Bcc     0.0498    26.591     9.488     8.870 -0.4973 -0.5064  0.7045
 

 ---------------------------------------------------------------------------------

 No NMR shielding tensors so no spin-rotation constants.
 Leave Link  601 at Sat Nov 16 15:35:18 2024, MaxMem=  2147483648 cpu:               9.0 elap:               0.3
 (Enter /home/szhao/Apps/g16/l9999.exe)
 1\1\GINC-NODE01\FOpt\UM062X\6-311+G(d,p)\C2H6(1+,2)\SZHAO\16-Nov-2024\
 0\\#p opt UM062X/6-311+G** nosymm int=superfine\\Title Card Required\\
 1,2\C,-0.58493552,0.,0.\C,0.58493552,0.,0.\H,1.1611837905,-0.798790390
 4,0.4674481334\H,-1.0835663685,-0.9988802977,-0.2700119266\H,1.0835940
 87,0.9989116781,0.2697465129\H,1.0837236426,0.2546457398,-1.0027246276
 \H,-1.1611857054,0.7988370306,-0.4673655108\H,-1.0837557743,-0.2549115
 133,1.0026188662\\Version=ES64L-G16RevA.03\HF=-79.286457\S2=0.755628\S
 2-1=0.\S2A=0.750015\RMSD=8.845e-09\RMSF=4.365e-05\Dipole=-0.0000105,-0
 .0000865,-0.0001332\Quadrupole=1.6335453,-0.5269856,-1.1065597,1.36569
 38,-0.7973623,-0.5143421\PG=C01 [X(C2H6)]\\@


 A SOLDIER'S LIFE IS A LIFE OF HONOR, BUT A DOG WOULD NOT LEAD IT.
 -- PRINCE RUPERT, FOUNDER OF THE HUDSON'S BAY COMPANY
 Job cpu time:       0 days  0 hours 26 minutes 47.7 seconds.
 Elapsed time:       0 days  0 hours  1 minutes  0.3 seconds.
 File lengths (MBytes):  RWF=     10 Int=      0 D2E=      0 Chk=      2 Scr=      1
 Normal termination of Gaussian 16 at Sat Nov 16 15:35:18 2024.
