Title Card Required                                                     
FOpt      UM062X                                                      6-311+G(d,p)        
Number of atoms                            I                6
Info1-9                                    I   N=           9
          15          15           0           0           0         110
           2          18        -502
Full Title                                 C   N=           2
Title Card Required     
Route                                      C   N=           5
#p opt UM062X/6-311+G** nosymm int=superfine SCF=NoVarAcc   
Charge                                     I                0
Multiplicity                               I                1
Number of electrons                        I               16
Number of alpha electrons                  I                8
Number of beta electrons                   I                8
Number of basis functions                  I               68
Number of independent functions            I               68
Number of point charges in /Mol/           I                0
Number of translation vectors              I                0
Atomic numbers                             I   N=           6
           6           6           1           1           1           1
Nuclear charges                            R   N=           6
  6.00000000E+00  6.00000000E+00  1.00000000E+00  1.00000000E+00  1.00000000E+00
  1.00000000E+00
Current cartesian coordinates              R   N=          18
 -1.80196630E+01  0.00000000E+00  0.00000000E+00  1.80196630E+01  0.00000000E+00
  0.00000000E+00 -1.93395553E+01 -1.62717416E+00  2.61803699E-10 -1.93395010E+01
  1.62720542E+00  5.29983898E-10  1.93395553E+01  1.62717416E+00 -8.44307226E-10
  1.93395010E+01 -1.62720542E+00 -5.76097659E-10
Number of symbols in /Mol/                 I                0
Force Field                                I                0
Atom Types                                 C   N=           6
                                                            
            
Int Atom Types                             I   N=           6
           0           0           0           0           0           0
MM charges                                 R   N=           6
  0.00000000E+00  0.00000000E+00  0.00000000E+00  0.00000000E+00  0.00000000E+00
  0.00000000E+00
Integer atomic weights                     I   N=           6
          12          12           1           1           1           1
Real atomic weights                        R   N=           6
  1.20000000E+01  1.20000000E+01  1.00782504E+00  1.00782504E+00  1.00782504E+00
  1.00782504E+00
Atom fragment info                         I   N=           6
           0           0           0           0           0           0
Atom residue num                           I   N=           6
           0           0           0           0           0           0
Nuclear spins                              I   N=           6
           0           0           1           1           1           1
Nuclear ZEff                               R   N=           6
 -3.60000000E+00 -3.60000000E+00 -1.00000000E+00 -1.00000000E+00 -1.00000000E+00
 -1.00000000E+00
Nuclear ZNuc                               R   N=           6
  6.00000000E+00  6.00000000E+00  1.00000000E+00  1.00000000E+00  1.00000000E+00
  1.00000000E+00
Nuclear QMom                               R   N=           6
  0.00000000E+00  0.00000000E+00  0.00000000E+00  0.00000000E+00  0.00000000E+00
  0.00000000E+00
Nuclear GFac                               R   N=           6
  0.00000000E+00  0.00000000E+00  2.79284600E+00  2.79284600E+00  2.79284600E+00
  2.79284600E+00
MicOpt                                     I   N=           6
          -2          -2          -1          -1          -1          -1
Number of residues                         I                0
Number of secondary structures             I                0
Redundant internal dimensions              I   N=           4
          20          10           6           4
Redundant internal coordinate indices      I   N=          80
           1          -1           0           0           1          -2
           0           0           1          -3           0           0
           2          -1           0           0           2          -2
           0           0           2          -3           0           0
           1           3           0           0           1           4
           0           0           2           5           0           0
           2           6           0           0           2           1
           3           0           2           1           4           0
           3           1           4           0           1           2
           5           0           1           2           6           0
           5           2           6           0           3           1
           2           5           3           1           2           6
           4           1           2           5           4           1
           2           6
Redundant internal coordinates             R   N=          20
 -1.80196630E+01  0.00000000E+00  0.00000000E+00  1.80196630E+01  0.00000000E+00
  0.00000000E+00  2.09518769E+00  2.09517776E+00  2.09518769E+00  2.09517776E+00
  2.25230287E+00  2.25227335E+00  1.77860909E+00  2.25230287E+00  2.25227335E+00
  1.77860909E+00  3.14159265E+00  0.00000000E+00 -0.00000000E+00  3.14159265E+00
ZRed-IntVec                                I   N=          20
          -1          -1          -1          -1          -1          -1
           0           0           0           0           0           0
           0           0           0           0           0           0
           0           0
ZRed-FPVec                                 R   N=          20
  0.00000000E+00  0.00000000E+00  0.00000000E+00  0.00000000E+00  0.00000000E+00
  0.00000000E+00  0.00000000E+00  0.00000000E+00  0.00000000E+00  0.00000000E+00
  0.00000000E+00  0.00000000E+00  0.00000000E+00  0.00000000E+00  0.00000000E+00
  0.00000000E+00  0.00000000E+00  0.00000000E+00  0.00000000E+00  0.00000000E+00
ZRed-Constraint1                           R   N=          20
 -1.80196630E+01  0.00000000E+00  0.00000000E+00  1.80196630E+01  0.00000000E+00
  0.00000000E+00  2.03694512E+00  2.03669844E+00  2.03694512E+00  2.03669844E+00
  2.00316847E+00  2.00313852E+00  2.27687832E+00  2.00316847E+00  2.00313852E+00
  2.27687832E+00  3.14159265E+00  0.00000000E+00  0.00000000E+00  3.14159265E+00
ZRed-Constraint2                           R   N=          20
 -1.80196630E+01  0.00000000E+00  0.00000000E+00  1.80196630E+01  0.00000000E+00
  0.00000000E+00  0.00000000E+00  0.00000000E+00  0.00000000E+00  0.00000000E+00
  0.00000000E+00  0.00000000E+00  0.00000000E+00  0.00000000E+00  0.00000000E+00
  0.00000000E+00  0.00000000E+00  0.00000000E+00  0.00000000E+00  0.00000000E+00
Number of contracted shells                I               28
Number of primitive shells                 I               50
Pure/Cartesian d shells                    I                0
Pure/Cartesian f shells                    I                0
Highest angular momentum                   I                2
Largest degree of contraction              I                6
Shell types                                I   N=          28
           0          -1          -1          -1          -1          -2
           0          -1          -1          -1          -1          -2
           0           0           0           1           0           0
           0           1           0           0           0           1
           0           0           0           1
Number of primitives per shell             I   N=          28
           6           3           1           1           1           1
           6           3           1           1           1           1
           3           1           1           1           3           1
           1           1           3           1           1           1
           3           1           1           1
Shell to atom map                          I   N=          28
           1           1           1           1           1           1
           2           2           2           2           2           2
           3           3           3           3           4           4
           4           4           5           5           5           5
           6           6           6           6
Primitive exponents                        R   N=          50
  4.56324000E+03  6.82024000E+02  1.54973000E+02  4.44553000E+01  1.30290000E+01
  1.82773000E+00  2.09642000E+01  4.80331000E+00  1.45933000E+00  4.83456000E-01
  1.45585000E-01  4.38000000E-02  6.26000000E-01  4.56324000E+03  6.82024000E+02
  1.54973000E+02  4.44553000E+01  1.30290000E+01  1.82773000E+00  2.09642000E+01
  4.80331000E+00  1.45933000E+00  4.83456000E-01  1.45585000E-01  4.38000000E-02
  6.26000000E-01  3.38650000E+01  5.09479000E+00  1.15879000E+00  3.25840000E-01
  1.02741000E-01  7.50000000E-01  3.38650000E+01  5.09479000E+00  1.15879000E+00
  3.25840000E-01  1.02741000E-01  7.50000000E-01  3.38650000E+01  5.09479000E+00
  1.15879000E+00  3.25840000E-01  1.02741000E-01  7.50000000E-01  3.38650000E+01
  5.09479000E+00  1.15879000E+00  3.25840000E-01  1.02741000E-01  7.50000000E-01
Contraction coefficients                   R   N=          50
  1.96665025E-03  1.52306019E-02  7.61269097E-02  2.60801033E-01  6.16462078E-01
  2.21006028E-01  1.14660081E-01  9.19999648E-01 -3.03068213E-03  1.00000000E+00
  1.00000000E+00  1.00000000E+00  1.00000000E+00  1.96665025E-03  1.52306019E-02
  7.61269097E-02  2.60801033E-01  6.16462078E-01  2.21006028E-01  1.14660081E-01
  9.19999648E-01 -3.03068213E-03  1.00000000E+00  1.00000000E+00  1.00000000E+00
  1.00000000E+00  2.54938145E-02  1.90373109E-01  8.52161486E-01  1.00000000E+00
  1.00000000E+00  1.00000000E+00  2.54938145E-02  1.90373109E-01  8.52161486E-01
  1.00000000E+00  1.00000000E+00  1.00000000E+00  2.54938145E-02  1.90373109E-01
  8.52161486E-01  1.00000000E+00  1.00000000E+00  1.00000000E+00  2.54938145E-02
  1.90373109E-01  8.52161486E-01  1.00000000E+00  1.00000000E+00  1.00000000E+00
P(S=P) Contraction coefficients            R   N=          50
  0.00000000E+00  0.00000000E+00  0.00000000E+00  0.00000000E+00  0.00000000E+00
  0.00000000E+00  4.02486927E-02  2.37593957E-01  8.15853851E-01  1.00000000E+00
  1.00000000E+00  1.00000000E+00  0.00000000E+00  0.00000000E+00  0.00000000E+00
  0.00000000E+00  0.00000000E+00  0.00000000E+00  0.00000000E+00  4.02486927E-02
  2.37593957E-01  8.15853851E-01  1.00000000E+00  1.00000000E+00  1.00000000E+00
  0.00000000E+00  0.00000000E+00  0.00000000E+00  0.00000000E+00  0.00000000E+00
  0.00000000E+00  0.00000000E+00  0.00000000E+00  0.00000000E+00  0.00000000E+00
  0.00000000E+00  0.00000000E+00  0.00000000E+00  0.00000000E+00  0.00000000E+00
  0.00000000E+00  0.00000000E+00  0.00000000E+00  0.00000000E+00  0.00000000E+00
  0.00000000E+00  0.00000000E+00  0.00000000E+00  0.00000000E+00  0.00000000E+00
Coordinates of each shell                  R   N=          84
 -1.80196630E+01  0.00000000E+00  0.00000000E+00 -1.80196630E+01  0.00000000E+00
  0.00000000E+00 -1.80196630E+01  0.00000000E+00  0.00000000E+00 -1.80196630E+01
  0.00000000E+00  0.00000000E+00 -1.80196630E+01  0.00000000E+00  0.00000000E+00
 -1.80196630E+01  0.00000000E+00  0.00000000E+00  1.80196630E+01  0.00000000E+00
  0.00000000E+00  1.80196630E+01  0.00000000E+00  0.00000000E+00  1.80196630E+01
  0.00000000E+00  0.00000000E+00  1.80196630E+01  0.00000000E+00  0.00000000E+00
  1.80196630E+01  0.00000000E+00  0.00000000E+00  1.80196630E+01  0.00000000E+00
  0.00000000E+00 -1.93395553E+01 -1.62717416E+00  2.61803699E-10 -1.93395553E+01
 -1.62717416E+00  2.61803699E-10 -1.93395553E+01 -1.62717416E+00  2.61803699E-10
 -1.93395553E+01 -1.62717416E+00  2.61803699E-10 -1.93395010E+01  1.62720542E+00
  5.29983898E-10 -1.93395010E+01  1.62720542E+00  5.29983898E-10 -1.93395010E+01
  1.62720542E+00  5.29983898E-10 -1.93395010E+01  1.62720542E+00  5.29983898E-10
  1.93395553E+01  1.62717416E+00 -8.44307226E-10  1.93395553E+01  1.62717416E+00
 -8.44307226E-10  1.93395553E+01  1.62717416E+00 -8.44307226E-10  1.93395553E+01
  1.62717416E+00 -8.44307226E-10  1.93395010E+01 -1.62720542E+00 -5.76097659E-10
  1.93395010E+01 -1.62720542E+00 -5.76097659E-10  1.93395010E+01 -1.62720542E+00
 -5.76097659E-10  1.93395010E+01 -1.62720542E+00 -5.76097659E-10
Num ILSW                                   I              100
ILSW                                       I   N=         100
           1           0           0           0           2           0
           0           0           0           0        4336          -1
           7           0           0           0           2           0
           0           0           0           0           1           0
           1           1           0           0           0           0
           0           0      100000           0          -1           0
           0           0           0           0           0           0
           0           0           0           1           0           0
           0 -2000000000           1           0           0           0
           0           0           4          52           0           0
           0           0          55           0           0           0
           0           0           0           6           0           1
           0           0           0           0           0           0
           0           0           0           0           0           0
           0           0           0           0           0           0
           0           0           0           0           0           0
           0           0           0           0
Num RLSW                                   I               52
RLSW                                       R   N=          52
  1.00000000E+00  1.00000000E+00  1.00000000E+00  1.00000000E+00  5.40000000E-01
  0.00000000E+00  0.00000000E+00  1.00000000E+00  0.00000000E+00  0.00000000E+00
  0.00000000E+00  0.00000000E+00  1.00000000E+00  0.00000000E+00  0.00000000E+00
  0.00000000E+00  0.00000000E+00  1.00000000E+00  0.00000000E+00  0.00000000E+00
  0.00000000E+00  0.00000000E+00  1.00000000E+00  0.00000000E+00  0.00000000E+00
  0.00000000E+00  0.00000000E+00  1.00000000E+00  0.00000000E+00  0.00000000E+00
  0.00000000E+00  0.00000000E+00  1.00000000E+00  0.00000000E+00  0.00000000E+00
  0.00000000E+00  0.00000000E+00  0.00000000E+00  1.00000000E+00  1.00000000E+00
  0.00000000E+00  1.00000000E+00  0.00000000E+00  0.00000000E+00  0.00000000E+00
  0.00000000E+00  0.00000000E+00  0.00000000E+00  0.00000000E+00  0.00000000E+00
  0.00000000E+00  0.00000000E+00
MxBond                                     I                3
NBond                                      I   N=           6
           3           3           1           1           1           1
IBond                                      I   N=          18
           2           3           4           1           5           6
           1           0           0           1           0           0
           2           0           0           2           0           0
RBond                                      R   N=          18
  1.00000000E-01  1.00000000E+00  1.00000000E+00  1.00000000E-01  1.00000000E+00
  1.00000000E+00  1.00000000E+00  0.00000000E+00  0.00000000E+00  1.00000000E+00
  0.00000000E+00  0.00000000E+00  1.00000000E+00  0.00000000E+00  0.00000000E+00
  1.00000000E+00  0.00000000E+00  0.00000000E+00
Virial Ratio                               R      2.003523565728534E+00
SCF Energy                                 R     -7.823772673465051E+01
Total Energy                               R     -7.823772673465051E+01
S**2                                       R     -2.664535259100376E-14
S**2 after annihilation                    R     -3.126388037344396E-13
RMS Force                                  R      1.520777410468142E-04
RMS Density                                R      1.730044964543766E-09
Job Status                                 I                1
Nuclear derivative order                   I                1
External E-field                           R   N=          35
  0.00000000E+00  0.00000000E+00  0.00000000E+00  0.00000000E+00  0.00000000E+00
  0.00000000E+00  0.00000000E+00  0.00000000E+00  0.00000000E+00  0.00000000E+00
  0.00000000E+00  0.00000000E+00  0.00000000E+00  0.00000000E+00  0.00000000E+00
  0.00000000E+00  0.00000000E+00  0.00000000E+00  0.00000000E+00  0.00000000E+00
  0.00000000E+00  0.00000000E+00  0.00000000E+00  0.00000000E+00  0.00000000E+00
  0.00000000E+00  0.00000000E+00  0.00000000E+00  0.00000000E+00  0.00000000E+00
  0.00000000E+00  0.00000000E+00  0.00000000E+00  0.00000000E+00  0.00000000E+00
IOpCl                                      I                1
IROHF                                      I                0
Alpha Orbital Energies                     R   N=          68
 -1.06087170E+01 -1.06087170E+01 -7.57946862E-01 -7.57946862E-01 -4.76778906E-01
 -4.76778906E-01 -3.14994792E-01 -3.14994792E-01 -8.31464910E-02 -8.31464910E-02
  2.31986080E-02  2.31986080E-02  6.54520005E-02  6.54520005E-02  8.49110183E-02
  8.49110183E-02  9.12328267E-02  9.12328268E-02  1.75674761E-01  1.75674761E-01
  1.94459155E-01  1.94459155E-01  4.40643134E-01  4.40643134E-01  4.84435507E-01
  4.84435507E-01  5.87048541E-01  5.87048541E-01  6.22695985E-01  6.22695985E-01
  6.34451787E-01  6.34451787E-01  7.29410596E-01  7.29410596E-01  1.09105766E+00
  1.09105766E+00  1.10329932E+00  1.10329932E+00  1.19181523E+00  1.19181523E+00
  1.55272431E+00  1.55272431E+00  1.56662273E+00  1.56662273E+00  1.62858864E+00
  1.62858864E+00  1.86544732E+00  1.86544732E+00  1.87814033E+00  1.87814033E+00
  2.13450499E+00  2.13450499E+00  2.36549162E+00  2.36549162E+00  2.45212922E+00
  2.45212922E+00  2.50088229E+00  2.50088229E+00  2.55653433E+00  2.55653433E+00
  2.74998666E+00  2.74998666E+00  3.06658783E+00  3.06658783E+00  3.59113497E+00
  3.59113497E+00  2.37691012E+01  2.37691012E+01
Beta Orbital Energies                      R   N=          68
 -1.06087170E+01 -1.06087170E+01 -7.57946862E-01 -7.57946862E-01 -4.76778906E-01
 -4.76778906E-01 -3.14994792E-01 -3.14994792E-01 -8.31464910E-02 -8.31464910E-02
  2.31986080E-02  2.31986080E-02  6.54520005E-02  6.54520005E-02  8.49110183E-02
  8.49110183E-02  9.12328267E-02  9.12328268E-02  1.75674761E-01  1.75674761E-01
  1.94459155E-01  1.94459155E-01  4.40643134E-01  4.40643134E-01  4.84435507E-01
  4.84435507E-01  5.87048541E-01  5.87048541E-01  6.22695985E-01  6.22695985E-01
  6.34451787E-01  6.34451787E-01  7.29410596E-01  7.29410596E-01  1.09105766E+00
  1.09105766E+00  1.10329932E+00  1.10329932E+00  1.19181523E+00  1.19181523E+00
  1.55272431E+00  1.55272431E+00  1.56662273E+00  1.56662273E+00  1.62858864E+00
  1.62858864E+00  1.86544732E+00  1.86544732E+00  1.87814033E+00  1.87814033E+00
  2.13450499E+00  2.13450499E+00  2.36549162E+00  2.36549162E+00  2.45212922E+00
  2.45212922E+00  2.50088229E+00  2.50088229E+00  2.55653433E+00  2.55653433E+00
  2.74998666E+00  2.74998666E+00  3.06658783E+00  3.06658783E+00  3.59113497E+00
  3.59113497E+00  2.37691012E+01  2.37691012E+01
Alpha MO coefficients                      R   N=        4624
 -3.89390583E-01 -3.20457202E-01  1.46877712E-03 -1.88638918E-08 -3.99846284E-13
 -7.56263884E-03  1.15828252E-03 -6.16473227E-08 -3.55727536E-13  2.64525674E-03
  3.50919418E-05  1.32939149E-09 -9.15008597E-15  4.86451742E-04 -5.75782032E-04
  1.48514381E-08  1.71865476E-13  6.85051392E-04  3.14885343E-13 -1.40945681E-13
  2.47605087E-04  1.61879358E-08  4.08126632E-01  3.35876429E-01  1.53944930E-03
 -1.97715542E-08 -8.02190657E-13  7.92652533E-03  1.21401484E-03 -6.46135691E-08
 -6.43899614E-13 -2.77253681E-03  3.67804375E-05  1.39334965E-09 -1.81778790E-14
 -5.09858018E-04 -6.03486555E-04  1.55660283E-08  3.24479757E-13 -7.18013556E-04
 -5.28632686E-13 -1.47671098E-13 -2.59518937E-04 -1.69668427E-08 -2.38142014E-04
  1.89047555E-03 -1.59897929E-03  7.65724587E-04  9.88832876E-04 -1.46442514E-13
 -2.38132194E-04  1.89055067E-03 -1.59902416E-03  7.65724012E-04 -9.88887740E-04
 -2.95743650E-13  2.49600535E-04 -1.98143831E-03  1.67591632E-03  8.02568451E-04
  1.03641189E-03 -5.12733479E-13  2.49590243E-04 -1.98151704E-03  1.67596335E-03
  8.02567848E-04 -1.03646940E-03 -3.56496934E-13  4.08126632E-01  3.35876429E-01
 -1.53944930E-03  1.97715538E-08  4.19240392E-13  7.92652533E-03 -1.21401484E-03
  6.46135649E-08  3.72326061E-13 -2.77253681E-03 -3.67804375E-05 -1.39335809E-09
  8.66988861E-15 -5.09858018E-04  6.03486555E-04 -1.55660357E-08 -1.79371481E-13
 -7.18013556E-04 -3.29819423E-13  1.47691786E-13 -2.59518937E-04 -1.69668383E-08
  3.89390583E-01  3.20457202E-01  1.46877712E-03 -1.88638935E-08 -7.65627451E-13
  7.56263884E-03  1.15828252E-03 -6.16473226E-08 -6.13464948E-13 -2.64525674E-03
  3.50919418E-05  1.32938385E-09 -1.77695177E-14 -4.86451742E-04 -5.75782032E-04
  1.48514325E-08  3.09830628E-13 -6.85051392E-04 -5.03694000E-13 -1.41722522E-13
 -2.47605087E-04 -1.61879372E-08  2.49600535E-04 -1.98143831E-03  1.67591632E-03
 -8.02568451E-04 -1.03641189E-03  1.54210235E-13  2.49590243E-04 -1.98151704E-03
  1.67596335E-03 -8.02567848E-04  1.03646940E-03  3.10281932E-13  2.38142014E-04
 -1.89047555E-03  1.59897929E-03  7.65724587E-04  9.88832876E-04 -4.89334487E-13
  2.38132194E-04 -1.89055067E-03  1.59902416E-03  7.65724012E-04 -9.88887740E-04
 -3.39913116E-13  7.23428911E-02  1.16429892E-01  4.69613905E-02 -1.24169284E-06
 -1.38907487E-11 -3.17723941E-01  7.00514117E-02 -1.66778213E-06 -2.02788709E-11
 -2.17133891E-01  3.11379444E-02 -6.71938212E-07 -9.45007747E-12 -4.19525097E-03
  2.09743709E-03 -2.65752847E-08 -1.52959926E-13  5.03700636E-03  2.62303522E-12
 -6.30885020E-13  8.57368109E-05  1.16135699E-07 -7.58234839E-02 -1.22031618E-01
  4.92208175E-02 -1.30143373E-06 -2.65224450E-11  3.33010415E-01  7.34217559E-02
 -1.74802322E-06 -3.90714401E-11  2.27580732E-01  3.26360668E-02 -7.04266803E-07
 -1.77691133E-11  4.39709472E-03  2.19834990E-03 -2.78538790E-08 -6.83068166E-13
 -5.27934901E-03 -4.90750972E-12 -6.54008608E-13 -8.98618180E-05 -1.21723268E-07
 -7.88939047E-02 -9.55116959E-02 -5.73301885E-03 -6.54322955E-03 -1.15248694E-02
  1.05750274E-12 -7.88949618E-02 -9.55127176E-02 -5.73310098E-03 -6.54296653E-03
  1.15251340E-02  2.88087290E-12  8.26896829E-02  1.00106997E-01  6.00884836E-03
 -6.85804028E-03 -1.20793589E-02  4.66231061E-12  8.26907908E-02  1.00108067E-01
  6.00893445E-03 -6.85776460E-03  1.20796363E-02  2.78494440E-12 -7.58234839E-02
 -1.22031618E-01 -4.92208175E-02  1.30143371E-06  1.45592884E-11  3.33010415E-01
 -7.34217559E-02  1.74802319E-06  2.12550269E-11  2.27580732E-01 -3.26360668E-02
  7.04266797E-07  9.90437723E-12  4.39709472E-03 -2.19834990E-03  2.78538848E-08
  1.60556956E-13 -5.27934901E-03 -2.74940497E-12  6.61459335E-13 -8.98618180E-05
 -1.21723270E-07 -7.23428911E-02 -1.16429892E-01  4.69613905E-02 -1.24169286E-06
 -2.53049864E-11  3.17723941E-01  7.00514117E-02 -1.66778215E-06 -3.72780751E-11
  2.17133891E-01  3.11379444E-02 -6.71938214E-07 -1.69535421E-11  4.19525097E-03
  2.09743709E-03 -2.65752780E-08 -6.49883193E-13 -5.03700636E-03 -4.68244250E-12
 -6.23773064E-13 -8.57368109E-05 -1.16135695E-07  8.26896829E-02  1.00106997E-01
  6.00884836E-03  6.85804028E-03  1.20793589E-02 -1.10791815E-12  8.26907908E-02
  1.00108067E-01  6.00893445E-03  6.85776460E-03 -1.20796363E-02 -3.01943167E-12
  7.88939047E-02  9.55116959E-02  5.73301885E-03 -6.54322955E-03 -1.15248694E-02
  4.44825695E-12  7.88949618E-02  9.55127176E-02  5.73310098E-03 -6.54296653E-03
  1.15251340E-02  2.65623244E-12  2.05426863E-07  3.43535894E-07  1.90985554E-06
  1.42772443E-01  1.15667331E-11 -9.69498306E-07  3.01837077E-06  2.12876873E-01
  1.71840925E-11 -1.84266268E-06  1.86440661E-06  1.15912078E-01  9.00384569E-12
 -2.40909298E-07  1.35292165E-08 -1.11599082E-03 -3.05397117E-13 -2.64669950E-08
 -2.37010534E-12  9.18032314E-12 -9.49645194E-07 -3.15892904E-02 -2.15562366E-07
 -3.60485522E-07  2.00408546E-06  1.49816655E-01 -1.21396316E-11  1.01733212E-06
  3.16729346E-06  2.23379949E-01 -1.80263440E-11  1.93357737E-06  1.95639414E-06
  1.21631034E-01 -9.46643518E-12  2.52795479E-07  1.41967396E-08 -1.17105240E-03
  3.51235139E-13  2.77728422E-08 -2.48566451E-12 -1.76147659E-11  9.96499515E-07
  3.31478662E-02 -1.01320719E-01 -1.55853440E-01 -7.86410420E-02 -8.01499080E-03
 -3.13099685E-03  2.12429975E-12  1.01320479E-01  1.55852882E-01  7.86410481E-02
  8.01488476E-03 -3.13115384E-03 -2.58199476E-12  1.06319756E-01  1.63543052E-01
  8.25210918E-02 -8.41044034E-03 -3.28547628E-03  4.73441718E-12 -1.06319504E-01
 -1.63542467E-01 -8.25210983E-02  8.41032906E-03 -3.28564103E-03 -4.26525580E-12
  2.15562366E-07  3.60485521E-07  2.00408541E-06  1.49816655E-01  1.21372619E-11
 -1.01733213E-06  3.16729337E-06  2.23379949E-01  1.80323583E-11 -1.93357734E-06
  1.95639408E-06  1.21631034E-01  9.44683888E-12 -2.52795466E-07  1.41967322E-08
 -1.17105240E-03 -3.20189531E-13 -2.77728435E-08 -2.48706548E-12  9.63285999E-12
 -9.96499490E-07 -3.31478662E-02  2.05426863E-07  3.43535895E-07 -1.90985560E-06
 -1.42772443E-01  1.15682985E-11 -9.69498299E-07 -3.01837085E-06 -2.12876873E-01
  1.71785352E-11 -1.84266271E-06 -1.86440667E-06 -1.15912078E-01  9.02251150E-12
 -2.40909323E-07 -1.35292259E-08  1.11599082E-03 -3.36998296E-13 -2.64669945E-08
  2.36926095E-12  1.67861624E-11 -9.49645218E-07 -3.15892904E-02 -1.06319756E-01
 -1.63543052E-01 -8.25210918E-02 -8.41044034E-03 -3.28547628E-03  2.22854822E-12
  1.06319504E-01  1.63542467E-01  8.25210983E-02  8.41032906E-03 -3.28564103E-03
 -2.70929539E-12 -1.01320719E-01 -1.55853440E-01 -7.86410420E-02  8.01499080E-03
  3.13099685E-03 -4.51225133E-12  1.01320479E-01  1.55852882E-01  7.86410481E-02
 -8.01488476E-03  3.13115384E-03  4.06429075E-12 -3.99047619E-02 -6.62794420E-02
  1.65772835E-01 -2.46875462E-06 -4.87735556E-11  1.92889322E-01  2.39003500E-01
 -3.40929334E-06 -6.99740540E-11  3.01898768E-01  2.17927930E-01 -3.03901349E-06
 -6.45519615E-11  4.33951423E-02  3.81667392E-02 -5.16683216E-07 -9.96630714E-12
  1.80302495E-02  1.38763503E-11 -8.62583056E-13 -1.69709504E-02  5.03710632E-07
 -3.80835117E-02 -6.32544533E-02 -1.58206975E-01  2.35608091E-06  8.38034111E-11
  1.84085868E-01 -2.28095398E-01  3.25369354E-06  1.21058035E-10  2.88120132E-01
 -2.07981716E-01  2.90031324E-06  1.09103864E-10  4.14145913E-02 -3.64248121E-02
  4.93101857E-07  2.01957572E-11  1.72073503E-02  2.42888585E-11  8.22570171E-13
 -1.61963976E-02  4.80721326E-07 -4.99608578E-02 -9.23706499E-02 -6.20065789E-02
  7.43411407E-03 -1.01105052E-02 -2.86689659E-12 -4.99606940E-02 -9.23702898E-02
 -6.20061992E-02  7.43443506E-03  1.01103145E-02 -1.33993502E-12 -4.76806481E-02
 -8.81548605E-02 -5.91766034E-02 -7.09482167E-03  9.64906248E-03  2.99470889E-12
 -4.76804918E-02 -8.81545168E-02 -5.91762410E-02 -7.09512801E-03 -9.64888049E-03
  4.44890993E-12  3.80835117E-02  6.32544533E-02 -1.58206975E-01  2.35608084E-06
  4.65479970E-11 -1.84085868E-01 -2.28095398E-01  3.25369345E-06  6.67795979E-11
 -2.88120132E-01 -2.07981716E-01  2.90031315E-06  6.16048725E-11 -4.14145914E-02
 -3.64248121E-02  4.93101836E-07  9.51343669E-12 -1.72073503E-02 -1.32429271E-11
  8.23285609E-13  1.61963976E-02 -4.80721316E-07 -3.99047619E-02 -6.62794420E-02
 -1.65772835E-01  2.46875468E-06  8.78113228E-11  1.92889322E-01 -2.39003500E-01
  3.40929343E-06  1.26847986E-10  3.01898768E-01 -2.17927930E-01  3.03901359E-06
  1.14320833E-10  4.33951423E-02 -3.81667391E-02  5.16683242E-07  2.11617432E-11
  1.80302495E-02  2.54505092E-11  8.61867205E-13 -1.69709504E-02  5.03710641E-07
  4.76806481E-02  8.81548605E-02  5.91766034E-02 -7.09482167E-03  9.64906248E-03
  2.73608598E-12  4.76804918E-02  8.81545168E-02  5.91762410E-02 -7.09512801E-03
 -9.64888049E-03  1.27890637E-12 -4.99608578E-02 -9.23706499E-02 -6.20065789E-02
 -7.43411407E-03  1.01105052E-02  3.13777227E-12 -4.99606940E-02 -9.23702898E-02
 -6.20061992E-02 -7.43443506E-03 -1.01103145E-02  4.66153782E-12  1.37167025E-13
  1.76329887E-13  5.01388213E-11 -1.36894697E-11  1.70524614E-01 -6.63173663E-14
  8.05245886E-11 -2.38955861E-11  2.69618231E-01 -5.23726068E-12  9.38441004E-11
 -3.05822780E-11  3.18191057E-01 -4.16051187E-12  6.04234488E-11 -2.21219993E-11
  1.89894517E-01  9.31657309E-12 -1.81358625E-02  3.13753767E-07 -5.32437441E-12
  3.03400959E-12 -1.77567816E-13 -2.11063770E-13  8.15775222E-11  1.23485371E-11
  1.53212953E-01 -1.81747151E-13  1.29264336E-10  2.11753624E-11  2.42246586E-01
  6.58887243E-12  1.54735003E-10  2.75965611E-11  2.85888299E-01  2.68272983E-12
  9.17027789E-11  2.02799013E-11  1.70616424E-01 -1.54353527E-11  1.62947096E-02
 -2.81901488E-07  8.56197573E-12  2.56103861E-12  3.02032917E-14 -1.51871766E-12
 -4.48464696E-12  4.28096235E-12 -2.04045640E-12  1.71573243E-02  9.51342531E-13
  2.95290549E-12  1.35581441E-11  6.12279472E-12 -2.51115445E-12  1.71573942E-02
 -7.88773765E-13 -3.05239234E-12 -1.25099512E-11  9.06693856E-12  2.21644423E-12
  1.54155126E-02  9.52012516E-14  1.61290113E-13  5.28437428E-12  7.72430452E-12
  1.69219334E-12  1.54155754E-02 -1.23353398E-13 -1.58385953E-13 -4.50490429E-11
  1.22994506E-11 -1.53212953E-01  5.93798773E-14 -7.23492850E-11  2.14701868E-11
 -2.42246586E-01  4.70685004E-12 -8.43167544E-11  2.74768991E-11 -2.85888299E-01
  3.73802625E-12 -5.42906257E-11  1.98773231E-11 -1.70616424E-01 -8.37039446E-12
  1.62947096E-02 -2.81901482E-07  4.78390263E-12 -2.72588844E-12 -1.97719586E-13
 -2.34920691E-13  9.07946751E-11  1.37434369E-11  1.70524614E-01 -2.01628937E-13
  1.43870440E-10  2.35687612E-11  2.69618231E-01  7.33255392E-12  1.72217781E-10