 Entering Gaussian System, Link 0=g16
 Initial command:
 /home/szhao/Apps/g16/l1.exe "/home/szhao/tmp/Gau-2812.inp" -scrdir="/home/szhao/tmp/"
 Default is to use a total of  16 processors:
                               16 via shared-memory
                                1 via Linda
 Entering Link 1 = /home/szhao/Apps/g16/l1.exe PID=      2814.
  
 Copyright (c) 1988,1990,1992,1993,1995,1998,2003,2009,2016,
            Gaussian, Inc.  All Rights Reserved.
  
 This is part of the Gaussian(R) 16 program.  It is based on
 the Gaussian(R) 09 system (copyright 2009, Gaussian, Inc.),
 the Gaussian(R) 03 system (copyright 2003, Gaussian, Inc.),
 the Gaussian(R) 98 system (copyright 1998, Gaussian, Inc.),
 the Gaussian(R) 94 system (copyright 1995, Gaussian, Inc.),
 the Gaussian 92(TM) system (copyright 1992, Gaussian, Inc.),
 the Gaussian 90(TM) system (copyright 1990, Gaussian, Inc.),
 the Gaussian 88(TM) system (copyright 1988, Gaussian, Inc.),
 the Gaussian 86(TM) system (copyright 1986, Carnegie Mellon
 University), and the Gaussian 82(TM) system (copyright 1983,
 Carnegie Mellon University). Gaussian is a federally registered
 trademark of Gaussian, Inc.
  
 This software contains proprietary and confidential information,
 including trade secrets, belonging to Gaussian, Inc.
  
 This software is provided under written license and may be
 used, copied, transmitted, or stored only in accord with that
 written license.
  
 The following legend is applicable only to US Government
 contracts under FAR:
  
                    RESTRICTED RIGHTS LEGEND
  
 Use, reproduction and disclosure by the US Government is
 subject to restrictions as set forth in subparagraphs (a)
 and (c) of the Commercial Computer Software - Restricted
 Rights clause in FAR 52.227-19.
  
 Gaussian, Inc.
 340 Quinnipiac St., Bldg. 40, Wallingford CT 06492
  
  
 ---------------------------------------------------------------
 Warning -- This program may not be used in any manner that
 competes with the business of Gaussian, Inc. or will provide
 assistance to any competitor of Gaussian, Inc.  The licensee
 of this program is prohibited from giving any competitor of
 Gaussian, Inc. access to this program.  By using this program,
 the user acknowledges that Gaussian, Inc. is engaged in the
 business of creating and licensing software in the field of
 computational chemistry and represents and warrants to the
 licensee that it is not a competitor of Gaussian, Inc. and that
 it will not use this program in any manner prohibited above.
 ---------------------------------------------------------------
  

 Cite this work as:
 Gaussian 16, Revision A.03,
 M. J. Frisch, G. W. Trucks, H. B. Schlegel, G. E. Scuseria, 
 M. A. Robb, J. R. Cheeseman, G. Scalmani, V. Barone, 
 G. A. Petersson, H. Nakatsuji, X. Li, M. Caricato, A. V. Marenich, 
 J. Bloino, B. G. Janesko, R. Gomperts, B. Mennucci, H. P. Hratchian, 
 J. V. Ortiz, A. F. Izmaylov, J. L. Sonnenberg, D. Williams-Young, 
 F. Ding, F. Lipparini, F. Egidi, J. Goings, B. Peng, A. Petrone, 
 T. Henderson, D. Ranasinghe, V. G. Zakrzewski, J. Gao, N. Rega, 
 G. Zheng, W. Liang, M. Hada, M. Ehara, K. Toyota, R. Fukuda, 
 J. Hasegawa, M. Ishida, T. Nakajima, Y. Honda, O. Kitao, H. Nakai, 
 T. Vreven, K. Throssell, J. A. Montgomery, Jr., J. E. Peralta, 
 F. Ogliaro, M. J. Bearpark, J. J. Heyd, E. N. Brothers, K. N. Kudin, 
 V. N. Staroverov, T. A. Keith, R. Kobayashi, J. Normand, 
 K. Raghavachari, A. P. Rendell, J. C. Burant, S. S. Iyengar, 
 J. Tomasi, M. Cossi, J. M. Millam, M. Klene, C. Adamo, R. Cammi, 
 J. W. Ochterski, R. L. Martin, K. Morokuma, O. Farkas, 
 J. B. Foresman, and D. J. Fox, Gaussian, Inc., Wallingford CT, 2016.
 
 ******************************************
 Gaussian 16:  ES64L-G16RevA.03 25-Dec-2016
                13-Nov-2024 
 ******************************************
 %chk=opt.chk
 %mem=16GB
 %nprocshared=28
 Will use up to   28 processors via shared memory.
 --------------------------------------------
 #p opt UM062X/6-311+G** nosymm int=superfine
 --------------------------------------------
 1/18=20,19=15,26=5,38=1/1,3;
 2/9=110,12=2,15=1,17=6,18=5,40=1/2;
 3/5=4,6=6,7=111,11=2,25=1,30=1,71=1,74=-55,75=-7,116=2/1,2,3;
 4//1;
 5/5=2,38=5/2;
 6/7=2,8=2,9=2,10=2,28=1/1;
 7/30=1/1,2,3,16;
 1/18=20,19=15,26=5/3(2);
 2/9=110,15=1/2;
 99//99;
 2/9=110,15=1/2;
 3/5=4,6=6,7=111,11=2,25=1,30=1,71=1,74=-55,75=-7,116=2/1,2,3;
 4/5=5,16=3,69=1/1;
 5/5=2,38=5/2;
 7/30=1/1,2,3,16;
 1/18=20,19=15,26=5/3(-5);
 2/9=110,15=1/2;
 6/7=2,8=2,9=2,10=2,19=2,28=1/1;
 99/9=1/99;
 Leave Link    1 at Wed Nov 13 12:43:22 2024, MaxMem=  2147483648 cpu:               2.2 elap:               0.1
 (Enter /home/szhao/Apps/g16/l101.exe)
 -------------------
 Title Card Required
 -------------------
 Symbolic Z-matrix:
 Charge =  1 Multiplicity = 2
 C                    -1   -1.34107   0.        0. 
 C                    -1    1.34107   0.        0. 
 H                    0     1.3966   -0.93683   0.54223 
 H                    0    -1.39519  -0.93793  -0.54043 
 H                    0     1.39602   0.93804   0.54019 
 H                    0     1.39533  -0.00115  -1.08249 
 H                    0    -1.39654   0.93691  -0.54208 
 H                    0    -1.39592   0.00092   1.08246 
 
 Add virtual bond connecting atoms C2         and C1         Dist= 5.07D+00.
 ITRead=  2  2  0  0  0  0  0  0
 MicOpt= -2 -2 -1 -1 -1 -1 -1 -1
 NAtoms=      8 NQM=        6 NQMF=       2 NMMI=      0 NMMIF=      0
                NMic=       0 NMicF=      0.
                    Isotopes and Nuclear Properties:
 (Nuclear quadrupole moments (NQMom) in fm**2, nuclear magnetic moments (NMagM)
  in nuclear magnetons)

  Atom         1           2           3           4           5           6           7           8
 IAtWgt=          12          12           1           1           1           1           1           1
 AtmWgt=  12.0000000  12.0000000   1.0078250   1.0078250   1.0078250   1.0078250   1.0078250   1.0078250
 NucSpn=           0           0           1           1           1           1           1           1
 AtZEff=  -0.0000000  -0.0000000  -0.0000000  -0.0000000  -0.0000000  -0.0000000  -0.0000000  -0.0000000
 NQMom=    0.0000000   0.0000000   0.0000000   0.0000000   0.0000000   0.0000000   0.0000000   0.0000000
 NMagM=    0.0000000   0.0000000   2.7928460   2.7928460   2.7928460   2.7928460   2.7928460   2.7928460
 AtZNuc=   6.0000000   6.0000000   1.0000000   1.0000000   1.0000000   1.0000000   1.0000000   1.0000000
 Leave Link  101 at Wed Nov 13 12:43:23 2024, MaxMem=  2147483648 cpu:              30.9 elap:               1.1
 (Enter /home/szhao/Apps/g16/l103.exe)

 GradGradGradGradGradGradGradGradGradGradGradGradGradGradGradGradGradGrad
 Berny optimization.
 Initialization pass.
                           ----------------------------
                           !    Initial Parameters    !
                           ! (Angstroms and Degrees)  !
 --------------------------                            --------------------------
 ! Name  Definition              Value          Derivative Info.                !
 --------------------------------------------------------------------------------
 ! X1    R(1,-1)                -1.3411         Frozen                          !
 ! Y1    R(1,-2)                 0.0            Frozen                          !
 ! Z1    R(1,-3)                 0.0            Frozen                          !
 ! X2    R(2,-1)                 1.3411         Frozen                          !
 ! Y2    R(2,-2)                 0.0            Frozen                          !
 ! Z2    R(2,-3)                 0.0            Frozen                          !
 ! R1    R(1,4)                  1.0838         estimate D2E/DX2                !
 ! R2    R(1,7)                  1.0838         estimate D2E/DX2                !
 ! R3    R(1,8)                  1.0838         estimate D2E/DX2                !
 ! R4    R(2,3)                  1.0839         estimate D2E/DX2                !
 ! R5    R(2,5)                  1.0839         estimate D2E/DX2                !
 ! R6    R(2,6)                  1.0839         estimate D2E/DX2                !
 ! A1    A(2,1,4)               92.8623         estimate D2E/DX2                !
 ! A2    A(2,1,7)               92.9335         estimate D2E/DX2                !
 ! A3    A(2,1,8)               92.9009         estimate D2E/DX2                !
 ! A4    A(4,1,7)              119.7436         estimate D2E/DX2                !
 ! A5    A(4,1,8)              119.7485         estimate D2E/DX2                !
 ! A6    A(7,1,8)              119.7474         estimate D2E/DX2                !
 ! A7    A(1,2,3)               92.9366         estimate D2E/DX2                !
 ! A8    A(1,2,5)               92.9061         estimate D2E/DX2                !
 ! A9    A(1,2,6)               92.8694         estimate D2E/DX2                !
 ! A10   A(3,2,5)              119.7444         estimate D2E/DX2                !
 ! A11   A(3,2,6)              119.7467         estimate D2E/DX2                !
 ! A12   A(5,2,6)              119.7457         estimate D2E/DX2                !
 ! D1    D(4,1,2,3)            -60.0122         estimate D2E/DX2                !
 ! D2    D(4,1,2,5)            179.9859         estimate D2E/DX2                !
 ! D3    D(4,1,2,6)             59.9887         estimate D2E/DX2                !
 ! D4    D(7,1,2,3)            179.9909         estimate D2E/DX2                !
 ! D5    D(7,1,2,5)             59.9891         estimate D2E/DX2                !
 ! D6    D(7,1,2,6)            -60.0082         estimate D2E/DX2                !
 ! D7    D(8,1,2,3)             59.9867         estimate D2E/DX2                !
 ! D8    D(8,1,2,5)            -60.0151         estimate D2E/DX2                !
 ! D9    D(8,1,2,6)            179.9877         estimate D2E/DX2                !
 --------------------------------------------------------------------------------
 Trust Radius=3.00D-01 FncErr=1.00D-07 GrdErr=1.00D-07 EigMax=2.50D+02 EigMin=1.00D-04
 Number of steps in this run=     43 maximum allowed number of steps=    100.
 GradGradGradGradGradGradGradGradGradGradGradGradGradGradGradGradGradGrad

 Leave Link  103 at Wed Nov 13 12:43:23 2024, MaxMem=  2147483648 cpu:               1.3 elap:               0.1
 (Enter /home/szhao/Apps/g16/l202.exe)
                          Input orientation:                          
 ---------------------------------------------------------------------
 Center     Atomic      Atomic             Coordinates (Angstroms)
 Number     Number       Type             X           Y           Z
 ---------------------------------------------------------------------
      1          6           0       -1.341072    0.000000    0.000000
      2          6           0        1.341072    0.000000    0.000000
      3          1           0        1.396598   -0.936832    0.542231
      4          1           0       -1.395194   -0.937931   -0.540431
      5          1           0        1.396022    0.938036    0.540185
      6          1           0        1.395328   -0.001152   -1.082495
      7          1           0       -1.396540    0.936911   -0.542078
      8          1           0       -1.395924    0.000919    1.082457
 ---------------------------------------------------------------------
                    Distance matrix (angstroms):
                    1          2          3          4          5
     1  C    0.000000
     2  C    2.682143   0.000000
     3  H    2.943893   1.083860   0.000000
     4  H    1.083840   2.942606   2.994372   0.000000
     5  H    2.943364   1.083850   1.874869   3.532403   0.000000
     6  H    2.942734   1.083854   1.874896   2.993059   1.874877
     7  H    1.083848   2.943836   3.533873   1.874843   2.994946
     8  H    1.083846   2.943274   2.994896   1.874888   2.994531
                    6          7          8
     6  H    0.000000
     7  H    2.994419   0.000000
     8  H    3.532437   1.874885   0.000000
 Symmetry turned off by external request.
 Stoichiometry    C2H6(1+,2)
 Framework group  C1[X(C2H6)]
 Deg. of freedom    18
 Full point group                 C1      NOp   1
 Rotational constants (GHZ):          71.3274761           8.6405470           8.6405238
 Leave Link  202 at Wed Nov 13 12:43:23 2024, MaxMem=  2147483648 cpu:               1.4 elap:               0.1
 (Enter /home/szhao/Apps/g16/l301.exe)
 Standard basis: 6-311+G(d,p) (5D, 7F)
 Ernie: Thresh=  0.10000D-02 Tol=  0.10000D-05 Strict=F.
    80 basis functions,   120 primitive gaussians,    82 cartesian basis functions
     9 alpha electrons        8 beta electrons
       nuclear repulsion energy        34.3549244136 Hartrees.
 IExCor= 4336 DFT=T Ex+Corr=M062X ExCW=0 ScaHFX=  0.540000
 ScaDFX=  1.000000  1.000000  1.000000  1.000000 ScalE2=  1.000000  1.000000
 IRadAn=      7 IRanWt=     -1 IRanGd=            0 ICorTp=0 IEmpDi=  4
 NAtoms=    8 NActive=    8 NUniq=    8 SFac= 1.00D+00 NAtFMM=   60 NAOKFM=F Big=F
 Integral buffers will be    131072 words long.
 Raffenetti 2 integral format.
 Two-electron integral symmetry is turned off.
 Leave Link  301 at Wed Nov 13 12:43:24 2024, MaxMem=  2147483648 cpu:               3.0 elap:               0.1
 (Enter /home/szhao/Apps/g16/l302.exe)
 NPDir=0 NMtPBC=     1 NCelOv=     1 NCel=       1 NClECP=     1 NCelD=      1
         NCelK=      1 NCelE2=     1 NClLst=     1 CellRange=     0.0.
 One-electron integrals computed using PRISM.
 NBasis=    80 RedAO= T EigKep=  1.93D-03  NBF=    80
 NBsUse=    80 1.00D-06 EigRej= -1.00D+00 NBFU=    80
 Precomputing XC quadrature grid using
 IXCGrd= 4 IRadAn=           7 IRanWt=          -1 IRanGd=           0 AccXCQ= 0.00D+00.
 Generated NRdTot=       0 NPtTot=           0 NUsed=           0 NTot=          32
 NSgBfM=    82    82    82    82    82 MxSgAt=     8 MxSgA2=     8.
 Leave Link  302 at Wed Nov 13 12:43:24 2024, MaxMem=  2147483648 cpu:               7.5 elap:               0.3
 (Enter /home/szhao/Apps/g16/l303.exe)
 DipDrv:  MaxL=1.
 Leave Link  303 at Wed Nov 13 12:43:24 2024, MaxMem=  2147483648 cpu:               1.8 elap:               0.1
 (Enter /home/szhao/Apps/g16/l401.exe)
 ExpMin= 4.38D-02 ExpMax= 4.56D+03 ExpMxC= 6.82D+02 IAcc=3 IRadAn=         7 AccDes= 0.00D+00
 Harris functional with IExCor= 1009 and IRadAn=       7 diagonalized for initial guess.
 HarFok:  IExCor= 1009 AccDes= 0.00D+00 IRadAn=         7 IDoV= 1 UseB2=F ITyADJ=14
 ICtDFT=  3500011 ScaDFX=  1.000000  1.000000  1.000000  1.000000
 FoFCou: FMM=F IPFlag=           0 FMFlag=      100000 FMFlg1=           0
         NFxFlg=           0 DoJE=T BraDBF=F KetDBF=T FulRan=T
         wScrn=  0.000000 ICntrl=       500 IOpCl=  0 I1Cent=   200000004 NGrid=           0
         NMat0=    1 NMatS0=      1 NMatT0=    0 NMatD0=    1 NMtDS0=    0 NMtDT0=    0
 Symmetry not used in FoFCou.
 Harris En= -79.3687478274446    
 JPrj=0 DoOrth=F DoCkMO=F.
 Initial guess <Sx>= 0.0000 <Sy>= 0.0000 <Sz>= 0.5000 <S**2>= 0.7500 S= 0.5000
 Leave Link  401 at Wed Nov 13 12:43:25 2024, MaxMem=  2147483648 cpu:              17.7 elap:               0.7
 (Enter /home/szhao/Apps/g16/l502.exe)
 Keep R1 and R2 ints in memory in canonical form, NReq=35964362.
 FoFCou: FMM=F IPFlag=           0 FMFlag=           0 FMFlg1=           0
         NFxFlg=           0 DoJE=F BraDBF=F KetDBF=F FulRan=T
         wScrn=  0.000000 ICntrl=       600 IOpCl=  0 I1Cent=           0 NGrid=           0
         NMat0=    1 NMatS0=   3240 NMatT0=    0 NMatD0=    1 NMtDS0=    0 NMtDT0=    0
 Symmetry not used in FoFCou.
 Two-electron integral symmetry not used.
 UHF open shell SCF:
 Using DIIS extrapolation, IDIIS=  1040.
 NGot=  2147483648 LenX=  2136966234 LenY=  2136959069
 Requested convergence on RMS density matrix=1.00D-08 within 128 cycles.
 Requested convergence on MAX density matrix=1.00D-06.
 Requested convergence on             energy=1.00D-06.
 No special actions if energy rises.

 Cycle   1  Pass 1  IDiag  1:
 E= -79.3318789451627    
 DIIS: error= 2.61D-02 at cycle   1 NSaved=   1.
 NSaved= 1 IEnMin= 1 EnMin= -79.3318789451627     IErMin= 1 ErrMin= 2.61D-02
 ErrMax= 2.61D-02  0.00D+00 EMaxC= 1.00D-01 BMatC= 1.06D-01 BMatP= 1.06D-01
 IDIUse=3 WtCom= 7.39D-01 WtEn= 2.61D-01
 Coeff-Com:  0.100D+01
 Coeff-En:   0.100D+01
 Coeff:      0.100D+01
 Gap=     0.224 Goal=   None    Shift=    0.000
 Gap=     0.408 Goal=   None    Shift=    0.000
 GapD=    0.224 DampG=1.000 DampE=0.500 DampFc=0.5000 IDamp=-1.
 Damping current iteration by 5.00D-01
 RMSDP=1.75D-03 MaxDP=4.58D-02              OVMax= 7.11D-02

 Cycle   2  Pass 1  IDiag  1:
 E= -79.3418491260096     Delta-E=       -0.009970180847 Rises=F Damp=T
 DIIS: error= 9.68D-03 at cycle   2 NSaved=   2.
 NSaved= 2 IEnMin= 2 EnMin= -79.3418491260096     IErMin= 2 ErrMin= 9.68D-03
 ErrMax= 9.68D-03  0.00D+00 EMaxC= 1.00D-01 BMatC= 1.68D-02 BMatP= 1.06D-01
 IDIUse=3 WtCom= 9.03D-01 WtEn= 9.68D-02
 Coeff-Com: -0.477D+00 0.148D+01
 Coeff-En:   0.000D+00 0.100D+01
 Coeff:     -0.430D+00 0.143D+01
 Gap=     0.220 Goal=   None    Shift=    0.000
 Gap=     0.399 Goal=   None    Shift=    0.000
 RMSDP=6.96D-04 MaxDP=1.16D-02 DE=-9.97D-03 OVMax= 2.05D-02

 Cycle   3  Pass 1  IDiag  1:
 E= -79.3505927825397     Delta-E=       -0.008743656530 Rises=F Damp=F
 DIIS: error= 2.14D-03 at cycle   3 NSaved=   3.
 NSaved= 3 IEnMin= 3 EnMin= -79.3505927825397     IErMin= 3 ErrMin= 2.14D-03
 ErrMax= 2.14D-03  0.00D+00 EMaxC= 1.00D-01 BMatC= 5.96D-04 BMatP= 1.68D-02
 IDIUse=3 WtCom= 9.79D-01 WtEn= 2.14D-02
 Coeff-Com: -0.136D+00 0.263D+00 0.873D+00
 Coeff-En:   0.000D+00 0.000D+00 0.100D+01
 Coeff:     -0.133D+00 0.258D+00 0.875D+00
 Gap=     0.221 Goal=   None    Shift=    0.000
 Gap=     0.402 Goal=   None    Shift=    0.000
 RMSDP=1.09D-04 MaxDP=3.62D-03 DE=-8.74D-03 OVMax= 4.28D-03

 Cycle   4  Pass 1  IDiag  1:
 E= -79.3507596914888     Delta-E=       -0.000166908949 Rises=F Damp=F
 DIIS: error= 3.33D-04 at cycle   4 NSaved=   4.
 NSaved= 4 IEnMin= 4 EnMin= -79.3507596914888     IErMin= 4 ErrMin= 3.33D-04
 ErrMax= 3.33D-04  0.00D+00 EMaxC= 1.00D-01 BMatC= 2.06D-05 BMatP= 5.96D-04
 IDIUse=3 WtCom= 9.97D-01 WtEn= 3.33D-03
 Coeff-Com:  0.102D-02-0.105D-01 0.652D-01 0.944D+00
 Coeff-En:   0.000D+00 0.000D+00 0.000D+00 0.100D+01
 Coeff:      0.101D-02-0.105D-01 0.650D-01 0.944D+00
 Gap=     0.221 Goal=   None    Shift=    0.000
 Gap=     0.402 Goal=   None    Shift=    0.000
 RMSDP=2.90D-05 MaxDP=6.13D-04 DE=-1.67D-04 OVMax= 9.78D-04

 Cycle   5  Pass 1  IDiag  1:
 E= -79.3507683252604     Delta-E=       -0.000008633772 Rises=F Damp=F
 DIIS: error= 1.12D-04 at cycle   5 NSaved=   5.
 NSaved= 5 IEnMin= 5 EnMin= -79.3507683252604     IErMin= 5 ErrMin= 1.12D-04
 ErrMax= 1.12D-04  0.00D+00 EMaxC= 1.00D-01 BMatC= 2.63D-06 BMatP= 2.06D-05
 IDIUse=3 WtCom= 9.99D-01 WtEn= 1.12D-03
 Coeff-Com:  0.182D-01-0.355D-01-0.118D+00-0.259D-01 0.116D+01
 Coeff-En:   0.000D+00 0.000D+00 0.000D+00 0.000D+00 0.100D+01
 Coeff:      0.182D-01-0.354D-01-0.118D+00-0.259D-01 0.116D+01
 Gap=     0.221 Goal=   None    Shift=    0.000
 Gap=     0.402 Goal=   None    Shift=    0.000
 RMSDP=1.60D-05 MaxDP=2.88D-04 DE=-8.63D-06 OVMax= 5.22D-04

 Cycle   6  Pass 1  IDiag  1:
 E= -79.3507700595938     Delta-E=       -0.000001734333 Rises=F Damp=F
 DIIS: error= 2.08D-05 at cycle   6 NSaved=   6.
 NSaved= 6 IEnMin= 6 EnMin= -79.3507700595938     IErMin= 6 ErrMin= 2.08D-05
 ErrMax= 2.08D-05  0.00D+00 EMaxC= 1.00D-01 BMatC= 1.10D-07 BMatP= 2.63D-06
 IDIUse=1 WtCom= 1.00D+00 WtEn= 0.00D+00
 Coeff-Com: -0.484D-02 0.988D-02 0.258D-01-0.387D-01-0.316D+00 0.132D+01
 Coeff:     -0.484D-02 0.988D-02 0.258D-01-0.387D-01-0.316D+00 0.132D+01
 Gap=     0.221 Goal=   None    Shift=    0.000
 Gap=     0.402 Goal=   None    Shift=    0.000
 RMSDP=3.73D-06 MaxDP=8.43D-05 DE=-1.73D-06 OVMax= 1.14D-04

 Cycle   7  Pass 1  IDiag  1:
 E= -79.3507701406508     Delta-E=       -0.000000081057 Rises=F Damp=F
 DIIS: error= 4.24D-06 at cycle   7 NSaved=   7.
 NSaved= 7 IEnMin= 7 EnMin= -79.3507701406508     IErMin= 7 ErrMin= 4.24D-06
 ErrMax= 4.24D-06  0.00D+00 EMaxC= 1.00D-01 BMatC= 1.91D-09 BMatP= 1.10D-07
 IDIUse=1 WtCom= 1.00D+00 WtEn= 0.00D+00
 Coeff-Com: -0.623D-04 0.121D-03 0.775D-03 0.743D-02-0.122D-01-0.114D+00
 Coeff-Com:  0.112D+01
 Coeff:     -0.623D-04 0.121D-03 0.775D-03 0.743D-02-0.122D-01-0.114D+00
 Coeff:      0.112D+01
 Gap=     0.221 Goal=   None    Shift=    0.000
 Gap=     0.402 Goal=   None    Shift=    0.000
 RMSDP=4.26D-07 MaxDP=1.24D-05 DE=-8.11D-08 OVMax= 2.44D-05

 Cycle   8  Pass 1  IDiag  1:
 E= -79.3507701415888     Delta-E=       -0.000000000938 Rises=F Damp=F
 DIIS: error= 1.67D-06 at cycle   8 NSaved=   8.
 NSaved= 8 IEnMin= 8 EnMin= -79.3507701415888     IErMin= 8 ErrMin= 1.67D-06
 ErrMax= 1.67D-06  0.00D+00 EMaxC= 1.00D-01 BMatC= 4.53D-10 BMatP= 1.91D-09
 IDIUse=1 WtCom= 1.00D+00 WtEn= 0.00D+00
 Coeff-Com:  0.622D-04-0.130D-03-0.842D-04 0.441D-02-0.692D-03-0.772D-01
 Coeff-Com:  0.521D+00 0.553D+00
 Coeff:      0.622D-04-0.130D-03-0.842D-04 0.441D-02-0.692D-03-0.772D-01
 Coeff:      0.521D+00 0.553D+00
 Gap=     0.221 Goal=   None    Shift=    0.000
 Gap=     0.402 Goal=   None    Shift=    0.000
 RMSDP=1.04D-07 MaxDP=2.90D-06 DE=-9.38D-10 OVMax= 1.24D-05

 Cycle   9  Pass 1  IDiag  1:
 E= -79.3507701417181     Delta-E=       -0.000000000129 Rises=F Damp=F
 DIIS: error= 3.35D-07 at cycle   9 NSaved=   9.
 NSaved= 9 IEnMin= 9 EnMin= -79.3507701417181     IErMin= 9 ErrMin= 3.35D-07
 ErrMax= 3.35D-07  0.00D+00 EMaxC= 1.00D-01 BMatC= 2.19D-11 BMatP= 4.53D-10
 IDIUse=1 WtCom= 1.00D+00 WtEn= 0.00D+00
 Coeff-Com:  0.234D-04-0.483D-04-0.114D-03-0.259D-03 0.114D-02 0.626D-02
 Coeff-Com: -0.977D-01 0.123D+00 0.968D+00
 Coeff:      0.234D-04-0.483D-04-0.114D-03-0.259D-03 0.114D-02 0.626D-02
 Coeff:     -0.977D-01 0.123D+00 0.968D+00
 Gap=     0.221 Goal=   None    Shift=    0.000
 Gap=     0.402 Goal=   None    Shift=    0.000
 RMSDP=2.41D-08 MaxDP=7.58D-07 DE=-1.29D-10 OVMax= 2.35D-06

 Cycle  10  Pass 1  IDiag  1:
 E= -79.3507701417254     Delta-E=       -0.000000000007 Rises=F Damp=F
 DIIS: error= 2.06D-08 at cycle  10 NSaved=  10.
 NSaved=10 IEnMin=10 EnMin= -79.3507701417254     IErMin=10 ErrMin= 2.06D-08
 ErrMax= 2.06D-08  0.00D+00 EMaxC= 1.00D-01 BMatC= 7.75D-14 BMatP= 2.19D-11
 IDIUse=1 WtCom= 1.00D+00 WtEn= 0.00D+00
 Coeff-Com: -0.417D-05 0.832D-05 0.165D-04 0.236D-04-0.251D-03 0.486D-04
 Coeff-Com:  0.794D-02-0.232D-01-0.133D+00 0.115D+01
 Coeff:     -0.417D-05 0.832D-05 0.165D-04 0.236D-04-0.251D-03 0.486D-04
 Coeff:      0.794D-02-0.232D-01-0.133D+00 0.115D+01
 Gap=     0.221 Goal=   None    Shift=    0.000
 Gap=     0.402 Goal=   None    Shift=    0.000
 RMSDP=3.08D-09 MaxDP=5.43D-08 DE=-7.25D-12 OVMax= 1.29D-07

 SCF Done:  E(UM062X) =  -79.3507701417     A.U. after   10 cycles
            NFock= 10  Conv=0.31D-08     -V/T= 2.0056
 <Sx>= 0.0000 <Sy>= 0.0000 <Sz>= 0.5000 <S**2>= 0.7533 S= 0.5017
 <L.S>=  0.00000000000    
 KE= 7.890562335433D+01 PE=-2.472900605684D+02 EE= 5.467874265874D+01
 Annihilation of the first spin contaminant:
 S**2 before annihilation     0.7533,   after     0.7500
 Leave Link  502 at Wed Nov 13 12:43:32 2024, MaxMem=  2147483648 cpu:             188.5 elap:               7.3
 (Enter /home/szhao/Apps/g16/l601.exe)
 Copying SCF densities to generalized density rwf, IOpCl= 1 IROHF=0.

 **********************************************************************

            Population analysis using the SCF density.

 **********************************************************************

 Alpha  occ. eigenvalues --  -10.85500 -10.85496  -1.05554  -1.02614  -0.75798
 Alpha  occ. eigenvalues --   -0.75797  -0.74270  -0.74270  -0.55377
 Alpha virt. eigenvalues --   -0.33236  -0.14900  -0.10517  -0.10516  -0.10017
 Alpha virt. eigenvalues --   -0.06196  -0.06196  -0.05988  -0.03400  -0.03398
 Alpha virt. eigenvalues --   -0.03012   0.01598   0.01601   0.05379   0.07393
 Alpha virt. eigenvalues --    0.19574   0.19579   0.21866   0.27490   0.27499
 Alpha virt. eigenvalues --    0.31195   0.38460   0.40718   0.40718   0.44813
 Alpha virt. eigenvalues --    0.44815   0.53086   0.59011   0.70497   0.82761
 Alpha virt. eigenvalues --    0.82764   0.85824   0.85825   1.20459   1.20500
 Alpha virt. eigenvalues --    1.21644   1.21647   1.27504   1.28063   1.29694
 Alpha virt. eigenvalues --    1.29697   1.52492   1.57027   1.67630   1.67632
 Alpha virt. eigenvalues --    1.67766   1.67768   1.75896   1.75902   1.77196
 Alpha virt. eigenvalues --    1.77203   2.19552   2.22151   2.22162   2.27146
 Alpha virt. eigenvalues --    2.27155   2.28280   2.40965   2.40971   2.42534
 Alpha virt. eigenvalues --    2.42538   2.50242   2.50575   2.71028   2.71343
 Alpha virt. eigenvalues --    3.48940   3.48942   3.49273   3.49274  23.68363
 Alpha virt. eigenvalues --   23.69814
  Beta  occ. eigenvalues --  -10.85302 -10.85302  -1.02409  -1.00206  -0.75137
  Beta  occ. eigenvalues --   -0.75135  -0.73742  -0.73742
  Beta virt. eigenvalues --   -0.33496  -0.24031  -0.15560  -0.11122  -0.11122
  Beta virt. eigenvalues --   -0.09645  -0.06539  -0.06539  -0.05947  -0.03381
  Beta virt. eigenvalues --   -0.03379  -0.02215   0.01950   0.01953   0.05962
  Beta virt. eigenvalues --    0.07725   0.19592   0.19597   0.23808   0.26977
  Beta virt. eigenvalues --    0.26986   0.31311   0.40895   0.41812   0.41813
  Beta virt. eigenvalues --    0.45988   0.45990   0.53992   0.60112   0.71277
  Beta virt. eigenvalues --    0.85501   0.85503   0.88339   0.88340   1.21609
  Beta virt. eigenvalues --    1.21649   1.23006   1.23010   1.30849   1.30851
  Beta virt. eigenvalues --    1.31687   1.33447   1.54704   1.57770   1.69285
  Beta virt. eigenvalues --    1.69286   1.69350   1.69351   1.77247   1.77253
  Beta virt. eigenvalues --    1.78774   1.78781   2.23015   2.23457   2.23469
  Beta virt. eigenvalues --    2.28387   2.28396   2.31901   2.43507   2.43514
  Beta virt. eigenvalues --    2.45058   2.45061   2.52717   2.54595   2.73731
  Beta virt. eigenvalues --    2.73879   3.53070   3.53072   3.53408   3.53410
  Beta virt. eigenvalues --   23.69570  23.71023
          Condensed to atoms (all electrons):
               1          2          3          4          5          6
     1  C    5.094755   0.071372  -0.004307   0.375196  -0.004289  -0.004294
     2  C    0.071372   5.094785   0.375236  -0.004294   0.375207   0.375193
     3  H   -0.004307   0.375236   0.403373  -0.000345  -0.016834  -0.016836
     4  H    0.375196  -0.004294  -0.000345   0.403466   0.000400  -0.000345
     5  H   -0.004289   0.375207  -0.016834   0.000400   0.403413  -0.016835
     6  H   -0.004294   0.375193  -0.016836  -0.000345  -0.016835   0.403449
     7  H    0.375239  -0.004307   0.000401  -0.016838  -0.000344  -0.000345
     8  H    0.375207  -0.004288  -0.000344  -0.016834  -0.000345   0.000400
               7          8
     1  C    0.375239   0.375207
     2  C   -0.004307  -0.004288
     3  H    0.000401  -0.000344
     4  H   -0.016838  -0.016834
     5  H   -0.000344  -0.000345
     6  H   -0.000345   0.000400
     7  H    0.403373  -0.016834
     8  H   -0.016834   0.403398
          Atomic-Atomic Spin Densities.
               1          2          3          4          5          6
     1  C    0.512810   0.094655  -0.003028  -0.007634  -0.003033  -0.003037
     2  C    0.094655   0.512822  -0.007636  -0.003037  -0.007634  -0.007632
     3  H   -0.003028  -0.007636  -0.017523   0.000082   0.001400   0.001401
     4  H   -0.007634  -0.003037   0.000082  -0.017508   0.000053   0.000083
     5  H   -0.003033  -0.007634   0.001400   0.000053  -0.017517   0.001402
     6  H   -0.003037  -0.007632   0.001401   0.000083   0.001402  -0.017493
     7  H   -0.007635  -0.003028   0.000053   0.001399   0.000082   0.000082
     8  H   -0.007631  -0.003033   0.000082   0.001402   0.000082   0.000053
               7          8
     1  C   -0.007635  -0.007631
     2  C   -0.003028  -0.003033
     3  H    0.000053   0.000082
     4  H    0.001399   0.001402
     5  H    0.000082   0.000082
     6  H    0.000082   0.000053
     7  H   -0.017525   0.001401
     8  H    0.001401  -0.017504
 Mulliken charges and spin densities:
               1          2
     1  C   -0.278880   0.575467
     2  C   -0.278904   0.575479
     3  H    0.259656  -0.025167
     4  H    0.259594  -0.025159
     5  H    0.259627  -0.025164
     6  H    0.259611  -0.025139
     7  H    0.259656  -0.025170
     8  H    0.259640  -0.025147
 Sum of Mulliken charges =   1.00000   1.00000
 Mulliken charges and spin densities with hydrogens summed into heavy atoms:
               1          2
     1  C    0.500010   0.499991
     2  C    0.499990   0.500009
 Electronic spatial extent (au):  <R**2>=            162.2914
 Charge=              1.0000 electrons
 Dipole moment (field-independent basis, Debye):
    X=              0.0001    Y=             -0.0000    Z=             -0.0001  Tot=              0.0001
 Quadrupole moment (field-independent basis, Debye-Ang):
   XX=             -2.7791   YY=            -10.9606   ZZ=            -10.9603
   XY=             -0.0016   XZ=              0.0009   YZ=             -0.0001
 Traceless Quadrupole moment (field-independent basis, Debye-Ang):
   XX=              5.4543   YY=             -2.7273   ZZ=             -2.7270
   XY=             -0.0016   XZ=              0.0009   YZ=             -0.0001
 Octapole moment (field-independent basis, Debye-Ang**2):
  XXX=              0.0000  YYY=              0.0009  ZZZ=              0.0000  XYY=              0.0011
  XXY=              0.0018  XXZ=              0.0028  XZZ=             -0.0011  YZZ=             -0.0009
  YYZ=              0.0000  XYZ=              0.0006
 Hexadecapole moment (field-independent basis, Debye-Ang**3):
 XXXX=           -136.9130 YYYY=            -21.3090 ZZZZ=            -21.3087 XXXY=             -0.0065
 XXXZ=              0.0033 YYYX=              0.0123 YYYZ=              0.0001 ZZZX=             -4.0823
 ZZZY=             -0.0001 XXYY=            -25.4537 XXZZ=            -25.4579 YYZZ=             -7.1030
 XXYZ=             -0.0045 YYXZ=              4.0818 ZZXY=             -0.0119
 N-N= 3.435492441364D+01 E-N=-2.472900601376D+02  KE= 7.890562335433D+01
                          Isotropic Fermi Contact Couplings
        Atom                 a.u.       MegaHertz       Gauss      10(-4) cm-1
     1  C(13)              0.07883      88.61494      31.62001      29.55876
     2  C(13)              0.07881      88.60110      31.61508      29.55415
     3  H(1)              -0.00703     -31.43669     -11.21739     -10.48615
     4  H(1)              -0.00703     -31.42073     -11.21170     -10.48083
     5  H(1)              -0.00703     -31.42465     -11.21310     -10.48213
     6  H(1)              -0.00703     -31.40353     -11.20556     -10.47509
     7  H(1)              -0.00703     -31.44285     -11.21959     -10.48821
     8  H(1)              -0.00703     -31.41804     -11.21074     -10.47993
 --------------------------------------------------------
       Center         ----  Spin Dipole Couplings  ----
                      3XX-RR        3YY-RR        3ZZ-RR
 --------------------------------------------------------
     1   Atom        0.522656     -0.261327     -0.261328
     2   Atom        0.522678     -0.261338     -0.261340
     3   Atom        0.004204      0.016511     -0.020714
     4   Atom        0.004228      0.016623     -0.020851
     5   Atom        0.004217      0.016642     -0.020859
     6   Atom        0.004223     -0.039486      0.035263
     7   Atom        0.004207      0.016526     -0.020733
     8   Atom        0.004219     -0.039483      0.035264
 --------------------------------------------------------
                        XY            XZ            YZ
 --------------------------------------------------------
     1   Atom        0.000725     -0.000018     -0.000001
     2   Atom        0.000341     -0.000614     -0.000000
     3   Atom       -0.000074      0.000025     -0.032408
     4   Atom        0.000008     -0.000009      0.032336
     5   Atom        0.000048     -0.000002      0.032330
     6   Atom        0.000010     -0.000005      0.000085
     7   Atom       -0.000056      0.000049     -0.032397
     8   Atom        0.000027     -0.000031      0.000074
 --------------------------------------------------------


 ---------------------------------------------------------------------------------
              Anisotropic Spin Dipole Couplings in Principal Axis System
 ---------------------------------------------------------------------------------

       Atom             a.u.   MegaHertz   Gauss  10(-4) cm-1        Axes

              Baa    -0.2613   -35.068   -12.513   -11.697 -0.0005  0.6121  0.7908
     1 C(13)  Bbb    -0.2613   -35.068   -12.513   -11.697 -0.0007  0.7908 -0.6121
              Bcc     0.5227    70.135    25.026    23.395  1.0000  0.0009 -0.0000
 
              Baa    -0.2613   -35.069   -12.514   -11.698  0.0008 -0.0830  0.9965
     2 C(13)  Bbb    -0.2613   -35.069   -12.514   -11.698 -0.0004  0.9965  0.0830
              Bcc     0.5227    70.138    25.027    23.396  1.0000  0.0004 -0.0008
 
              Baa    -0.0395   -21.062    -7.515    -7.025  0.0004  0.5010  0.8655
     3 H(1)   Bbb     0.0042     2.243     0.800     0.748  1.0000  0.0019 -0.0015
              Bcc     0.0353    18.819     6.715     6.277 -0.0025  0.8655 -0.5010
 
              Baa    -0.0395   -21.068    -7.518    -7.028  0.0003 -0.4993  0.8664
     4 H(1)   Bbb     0.0042     2.256     0.805     0.752  1.0000  0.0001 -0.0003
              Bcc     0.0353    18.812     6.713     6.275  0.0001  0.8664  0.4993
 
              Baa    -0.0395   -21.066    -7.517    -7.027  0.0006 -0.4992  0.8665
     5 H(1)   Bbb     0.0042     2.250     0.803     0.750  1.0000 -0.0008 -0.0012
              Bcc     0.0353    18.816     6.714     6.276  0.0013  0.8665  0.4991
 
              Baa    -0.0395   -21.068    -7.518    -7.027 -0.0002  1.0000 -0.0011
     6 H(1)   Bbb     0.0042     2.253     0.804     0.752  1.0000  0.0002  0.0002
              Bcc     0.0353    18.815     6.714     6.276 -0.0002  0.0011  1.0000
 
              Baa    -0.0395   -21.062    -7.515    -7.025 -0.0003  0.5008  0.8656
     7 H(1)   Bbb     0.0042     2.244     0.801     0.749  1.0000  0.0022 -0.0009
              Bcc     0.0353    18.817     6.715     6.277 -0.0024  0.8656 -0.5008
 
              Baa    -0.0395   -21.066    -7.517    -7.027 -0.0006  1.0000 -0.0010
     8 H(1)   Bbb     0.0042     2.251     0.803     0.751  1.0000  0.0006  0.0010
              Bcc     0.0353    18.815     6.714     6.276 -0.0010  0.0010  1.0000
 

 ---------------------------------------------------------------------------------

 No NMR shielding tensors so no spin-rotation constants.
 Leave Link  601 at Wed Nov 13 12:43:33 2024, MaxMem=  2147483648 cpu:              10.5 elap:               0.4
 (Enter /home/szhao/Apps/g16/l701.exe)
 ... and contract with generalized density number  0.
 Compute integral first derivatives.
 Leave Link  701 at Wed Nov 13 12:43:33 2024, MaxMem=  2147483648 cpu:               8.1 elap:               0.3
 (Enter /home/szhao/Apps/g16/l702.exe)
 L702 exits ... SP integral derivatives will be done elsewhere.
 Leave Link  702 at Wed Nov 13 12:43:33 2024, MaxMem=  2147483648 cpu:               2.0 elap:               0.1
 (Enter /home/szhao/Apps/g16/l703.exe)
 Integral derivatives from FoFJK, PRISM(SPDF).
 Compute integral first derivatives, UseDBF=F ICtDFT=           0.
 Calling FoFJK, ICntrl=      2127 FMM=F ISym2X=0 I1Cent= 0 IOpClX= 1 NMat=1 NMatS=1 NMatT=0.
 FoFJK:  IHMeth= 1 ICntrl=    2127 DoSepK=F KAlg= 0 I1Cent=           0 FoldK=F
 IRaf=         0 NMat=       1 IRICut=       1 DoRegI=T DoRafI=F ISym2E= 0 IDoP0=0 IntGTp=1.
 FoFCou: FMM=F IPFlag=           0 FMFlag=      100000 FMFlg1=         800
         NFxFlg=           0 DoJE=F BraDBF=F KetDBF=F FulRan=T
         wScrn=  0.000000 ICntrl=      2127 IOpCl=  1 I1Cent=           0 NGrid=           0
         NMat0=    1 NMatS0=      1 NMatT0=    0 NMatD0=    1 NMtDS0=    0 NMtDT0=    0
 Symmetry not used in FoFCou.
 Leave Link  703 at Wed Nov 13 12:43:34 2024, MaxMem=  2147483648 cpu:              37.3 elap:               1.3
 (Enter /home/szhao/Apps/g16/l716.exe)
 Dipole        = 2.13170229D-05-9.68622504D-06-2.68723147D-05
 -------------------------------------------------------------------
 Center     Atomic                   Forces (Hartrees/Bohr)
 Number     Number              X              Y              Z
 -------------------------------------------------------------------
      1        6          -0.000000000   -0.000000000   -0.000000000
      2        6          -0.000000000   -0.000000000   -0.000000000
      3        1           0.001012514   -0.000014056    0.000003154
      4        1          -0.001037723   -0.000026495   -0.000007282
      5        1           0.001022993    0.000019633    0.000006845
      6        1           0.001024268   -0.000000017   -0.000016482
      7        1          -0.001019460    0.000021348   -0.000006164
      8        1          -0.001024534   -0.000001620    0.000021727
 -------------------------------------------------------------------
 Cartesian Forces:  Max     0.001037723 RMS     0.000511912
 Leave Link  716 at Wed Nov 13 12:43:35 2024, MaxMem=  2147483648 cpu:               2.1 elap:               0.1
 (Enter /home/szhao/Apps/g16/l103.exe)

 GradGradGradGradGradGradGradGradGradGradGradGradGradGradGradGradGradGrad
 Berny optimization.
 FormGI is forming the generalized inverse of G from B-inverse, IUseBI=4.
 Internal  Forces:  Max     0.003081717 RMS     0.001159495
 Search for a local minimum.
 Step number   1 out of a maximum of   43
 All quantities printed in internal units (Hartrees-Bohrs-Radians)
 RMS Force = .97196D-03 SwitMx=.10000D-02 MixMth= 2
 Mixed Optimization -- En-DIIS/RFO-DIIS
 Second derivative matrix not updated -- first step.
 ITU=  0
     Eigenvalues ---    0.00230   0.08044   0.08044   0.08045   0.08046
     Eigenvalues ---    0.16000   0.16000   0.16000   0.16000   0.16000
     Eigenvalues ---    0.16000   0.35532   0.35533   0.35533   0.35533
     Eigenvalues ---    0.35534   0.355341000.000001000.000001000.00000
     Eigenvalues --- 1000.000001000.000001000.000001000.000001000.00000
     Eigenvalues --- 1000.000001000.000001000.000001000.000001000.00000
     Eigenvalues --- 1000.000001000.000001000.00000
 RFO step:  Lambda=-1.59152939D-04 EMin= 2.30000000D-03
 Linear search not attempted -- first point.
 Iteration  1 RMS(Cart)=  0.01102151 RMS(Int)=  0.00013350
 Iteration  2 RMS(Cart)=  0.00006917 RMS(Int)=  0.00011419
 Iteration  3 RMS(Cart)=  0.00000000 RMS(Int)=  0.00011419
 ITry= 1 IFail=0 DXMaxC= 2.62D-02 DCOld= 1.00D+10 DXMaxT= 3.00D-01 DXLimC= 3.00D+00 Rises=F
 Variable       Old X    -DE/DX   Delta X   Delta X   Delta X     New X
                                 (Linear)    (Quad)   (Total)
    X1       -2.53426  -0.00308   0.00000   0.00000   0.00000  -2.53426
    Y1        0.00000   0.00000   0.00000   0.00000   0.00000   0.00000
    Z1        0.00000   0.00001   0.00000   0.00000   0.00000   0.00000
    X2        2.53426   0.00306   0.00000   0.00000   0.00000   2.53426
    Y2        0.00000  -0.00000   0.00000   0.00000   0.00000   0.00000
    Z2        0.00000  -0.00001   0.00000   0.00000   0.00000   0.00000
    R1        2.04816   0.00008   0.00000   0.00022   0.00022   2.04838
    R2        2.04818   0.00007   0.00000   0.00021   0.00021   2.04838
    R3        2.04817   0.00007   0.00000   0.00021   0.00021   2.04838
    R4        2.04820   0.00007   0.00000   0.00018   0.00018   2.04838
    R5        2.04818   0.00007   0.00000   0.00020   0.00020   2.04838
    R6        2.04819   0.00007   0.00000   0.00019   0.00019   2.04838
    A1        1.62075   0.00206   0.00000   0.01285   0.01279   1.63355
    A2        1.62200   0.00202   0.00000   0.01262   0.01256   1.63456
    A3        1.62143   0.00203   0.00000   0.01268   0.01262   1.63405
    A4        2.08992  -0.00035   0.00000  -0.00217  -0.00243   2.08749
    A5        2.09001  -0.00036   0.00000  -0.00226  -0.00252   2.08749
    A6        2.08999  -0.00036   0.00000  -0.00224  -0.00250   2.08749
    A7        1.62205   0.00201   0.00000   0.01254   0.01248   1.63453
    A8        1.62152   0.00203   0.00000   0.01267   0.01261   1.63413
    A9        1.62088   0.00203   0.00000   0.01268   0.01263   1.63350
   A10        2.08993  -0.00035   0.00000  -0.00217  -0.00243   2.08750
   A11        2.08997  -0.00035   0.00000  -0.00223  -0.00249   2.08749
   A12        2.08996  -0.00035   0.00000  -0.00222  -0.00248   2.08747
    D1       -1.04741   0.00000   0.00000   0.00007   0.00007  -1.04734
    D2        3.14135   0.00000   0.00000   0.00003   0.00003   3.14138
    D3        1.04700   0.00000   0.00000   0.00005   0.00005   1.04705
    D4        3.14143  -0.00000   0.00000   0.00002   0.00002   3.14145
    D5        1.04701  -0.00000   0.00000  -0.00003  -0.00003   1.04698
    D6       -1.04734  -0.00000   0.00000  -0.00001  -0.00001  -1.04735
    D7        1.04697   0.00000   0.00000   0.00003   0.00003   1.04700
    D8       -1.04746  -0.00000   0.00000  -0.00001  -0.00001  -1.04747
    D9        3.14138  -0.00000   0.00000   0.00001   0.00001   3.14139
         Item               Value     Threshold  Converged?
 Maximum Force            0.002058     0.000450     NO 
 RMS     Force            0.000972     0.000300     NO 
 Maximum Displacement     0.026176     0.001800     NO 
 RMS     Displacement     0.011020     0.001200     NO 
 Predicted change in Energy=-7.962104D-05
 Lowest energy point so far.  Saving SCF results.
 GradGradGradGradGradGradGradGradGradGradGradGradGradGradGradGradGradGrad

 Leave Link  103 at Wed Nov 13 12:43:35 2024, MaxMem=  2147483648 cpu:               3.6 elap:               0.2
 (Enter /home/szhao/Apps/g16/l202.exe)
                          Input orientation:                          
 ---------------------------------------------------------------------
 Center     Atomic      Atomic             Coordinates (Angstroms)
 Number     Number       Type             X           Y           Z
 ---------------------------------------------------------------------
      1          6           0       -1.341072    0.000000    0.000000
      2          6           0        1.341072    0.000000    0.000000
      3          1           0        1.410110   -0.936260    0.541862
      4          1           0       -1.409046   -0.937377   -0.540061
      5          1           0        1.409676    0.937461    0.539838
      6          1           0        1.408998   -0.001143   -1.081824
      7          1           0       -1.410143    0.936337   -0.541727
      8          1           0       -1.409590    0.000919    1.081788
 ---------------------------------------------------------------------
                    Distance matrix (angstroms):
                    1          2          3          4          5
     1  C    0.000000
     2  C    2.682143   0.000000
     3  H    2.956214   1.083957   0.000000
     4  H    1.083957   2.955247   3.019636   0.000000
     5  H    2.955819   1.083958   1.873722   3.553363   0.000000
     6  H    2.955204   1.083955   1.873714   3.018511   1.873704
     7  H    1.083958   2.956243   3.554520   1.873715   3.020126
     8  H    1.083956   2.955741   3.020022   1.873711   3.019781
                    6          7          8
     6  H    0.000000
     7  H    3.019624   0.000000
     8  H    3.553260   1.873715   0.000000
 Symmetry turned off by external request.
 Stoichiometry    C2H6(1+,2)
 Framework group  C1[X(C2H6)]
 Deg. of freedom    18
 Full point group                 C1      NOp   1
 Rotational constants (GHZ):          71.4160538           8.6070858           8.6070793
 Leave Link  202 at Wed Nov 13 12:43:35 2024, MaxMem=  2147483648 cpu:               2.7 elap:               0.1
 (Enter /home/szhao/Apps/g16/l301.exe)
 Standard basis: 6-311+G(d,p) (5D, 7F)
 Ernie: Thresh=  0.10000D-02 Tol=  0.10000D-05 Strict=F.
    80 basis functions,   120 primitive gaussians,    82 cartesian basis functions
     9 alpha electrons        8 beta electrons
       nuclear repulsion energy        34.3154590980 Hartrees.
 IExCor= 4336 DFT=T Ex+Corr=M062X ExCW=0 ScaHFX=  0.540000
 ScaDFX=  1.000000  1.000000  1.000000  1.000000 ScalE2=  1.000000  1.000000
 IRadAn=      7 IRanWt=     -1 IRanGd=            0 ICorTp=0 IEmpDi=  4
 NAtoms=    8 NActive=    8 NUniq=    8 SFac= 1.00D+00 NAtFMM=   60 NAOKFM=F Big=F
 Integral buffers will be    131072 words long.
 Raffenetti 2 integral format.
 Two-electron integral symmetry is turned off.
 Leave Link  301 at Wed Nov 13 12:43:35 2024, MaxMem=  2147483648 cpu:               2.5 elap:               0.1
 (Enter /home/szhao/Apps/g16/l302.exe)
 NPDir=0 NMtPBC=     1 NCelOv=     1 NCel=       1 NClECP=     1 NCelD=      1
         NCelK=      1 NCelE2=     1 NClLst=     1 CellRange=     0.0.
 One-electron integrals computed using PRISM.
 NBasis=    80 RedAO= T EigKep=  1.93D-03  NBF=    80
 NBsUse=    80 1.00D-06 EigRej= -1.00D+00 NBFU=    80
 Precomputing XC quadrature grid using
 IXCGrd= 4 IRadAn=           7 IRanWt=          -1 IRanGd=           0 AccXCQ= 0.00D+00.
 Generated NRdTot=       0 NPtTot=           0 NUsed=           0 NTot=          32
 NSgBfM=    82    82    82    82    82 MxSgAt=     8 MxSgA2=     8.
 Leave Link  302 at Wed Nov 13 12:43:35 2024, MaxMem=  2147483648 cpu:              10.4 elap:               0.4
 (Enter /home/szhao/Apps/g16/l303.exe)
 DipDrv:  MaxL=1.
 Leave Link  303 at Wed Nov 13 12:43:36 2024, MaxMem=  2147483648 cpu:               5.9 elap:               0.2
 (Enter /home/szhao/Apps/g16/l401.exe)
 Initial guess from the checkpoint file:  "opt.chk"
 B after Tr=    -0.000030   -0.000002    0.000001
         Rot=    1.000000    0.000000   -0.000001    0.000004 Ang=   0.00 deg.
 Guess basis will be translated and rotated to current coordinates.
 JPrj=2 DoOrth=T DoCkMO=T.
 Initial guess <Sx>= 0.0000 <Sy>= 0.0000 <Sz>= 0.5000 <S**2>= 0.7533 S= 0.5017
 Generating alternative initial guess.
 ExpMin= 4.38D-02 ExpMax= 4.56D+03 ExpMxC= 6.82D+02 IAcc=3 IRadAn=         5 AccDes= 0.00D+00
 Harris functional with IExCor= 1009 and IRadAn=       5 diagonalized for initial guess.
 HarFok:  IExCor= 1009 AccDes= 0.00D+00 IRadAn=         5 IDoV= 1 UseB2=F ITyADJ=14
 ICtDFT=  3500011 ScaDFX=  1.000000  1.000000  1.000000  1.000000
 FoFCou: FMM=F IPFlag=           0 FMFlag=      100000 FMFlg1=           0
         NFxFlg=           0 DoJE=T BraDBF=F KetDBF=T FulRan=T
         wScrn=  0.000000 ICntrl=       500 IOpCl=  0 I1Cent=   200000004 NGrid=           0
         NMat0=    1 NMatS0=      1 NMatT0=    0 NMatD0=    1 NMtDS0=    0 NMtDT0=    0
 Symmetry not used in FoFCou.
 Harris En= -79.3691427175564    
 Leave Link  401 at Wed Nov 13 12:43:36 2024, MaxMem=  2147483648 cpu:              11.3 elap:               0.4
 (Enter /home/szhao/Apps/g16/l502.exe)
 Keep R1 and R2 ints in memory in canonical form, NReq=35964362.
 FoFCou: FMM=F IPFlag=           0 FMFlag=           0 FMFlg1=           0
         NFxFlg=           0 DoJE=F BraDBF=F KetDBF=F FulRan=T
         wScrn=  0.000000 ICntrl=       600 IOpCl=  0 I1Cent=           0 NGrid=           0
         NMat0=    1 NMatS0=   3240 NMatT0=    0 NMatD0=    1 NMtDS0=    0 NMtDT0=    0
 Symmetry not used in FoFCou.
 Two-electron integral symmetry not used.
 UHF open shell SCF:
 Using DIIS extrapolation, IDIIS=  1040.
 NGot=  2147483648 LenX=  2136966234 LenY=  2136959069
 Requested convergence on RMS density matrix=1.00D-08 within 128 cycles.
 Requested convergence on MAX density matrix=1.00D-06.
 Requested convergence on             energy=1.00D-06.
 No special actions if energy rises.

 Cycle   1  Pass 1  IDiag  1:
 E= -79.3507935550713    
 DIIS: error= 1.55D-03 at cycle   1 NSaved=   1.
 NSaved= 1 IEnMin= 1 EnMin= -79.3507935550713     IErMin= 1 ErrMin= 1.55D-03
 ErrMax= 1.55D-03  0.00D+00 EMaxC= 1.00D-01 BMatC= 1.30D-04 BMatP= 1.30D-04
 IDIUse=3 WtCom= 9.84D-01 WtEn= 1.55D-02
 Coeff-Com:  0.100D+01
 Coeff-En:   0.100D+01
 Coeff:      0.100D+01
 Gap=     0.527 Goal=   None    Shift=    0.000
 Gap=     0.676 Goal=   None    Shift=    0.000
 GapD=    0.527 DampG=2.000 DampE=1.000 DampFc=2.0000 IDamp=-1.
 RMSDP=5.68D-05 MaxDP=9.19D-04              OVMax= 3.60D-03

 Cycle   2  Pass 1  IDiag  1:
 E= -79.3508418459932     Delta-E=       -0.000048290922 Rises=F Damp=F
 DIIS: error= 4.72D-04 at cycle   2 NSaved=   2.
 NSaved= 2 IEnMin= 2 EnMin= -79.3508418459932     IErMin= 2 ErrMin= 4.72D-04
 ErrMax= 4.72D-04  0.00D+00 EMaxC= 1.00D-01 BMatC= 1.03D-05 BMatP= 1.30D-04
 IDIUse=3 WtCom= 9.95D-01 WtEn= 4.72D-03
 Coeff-Com:  0.473D-01 0.953D+00
 Coeff-En:   0.000D+00 0.100D+01
 Coeff:      0.471D-01 0.953D+00
 Gap=     0.223 Goal=   None    Shift=    0.000
 Gap=     0.401 Goal=   None    Shift=    0.000
 RMSDP=2.87D-05 MaxDP=6.03D-04 DE=-4.83D-05 OVMax= 1.74D-03

 Cycle   3  Pass 1  IDiag  1:
 E= -79.3508459492247     Delta-E=       -0.000004103232 Rises=F Damp=F
 DIIS: error= 1.62D-04 at cycle   3 NSaved=   3.
 NSaved= 3 IEnMin= 3 EnMin= -79.3508459492247     IErMin= 3 ErrMin= 1.62D-04
 ErrMax= 1.62D-04  0.00D+00 EMaxC= 1.00D-01 BMatC= 1.07D-06 BMatP= 1.03D-05
 IDIUse=3 WtCom= 9.98D-01 WtEn= 1.62D-03
 Coeff-Com: -0.545D-01 0.817D-01 0.973D+00
 Coeff-En:   0.000D+00 0.000D+00 0.100D+01
 Coeff:     -0.545D-01 0.816D-01 0.973D+00
 Gap=     0.223 Goal=   None    Shift=    0.000
 Gap=     0.402 Goal=   None    Shift=    0.000
 RMSDP=8.31D-06 MaxDP=1.61D-04 DE=-4.10D-06 OVMax= 5.96D-04

 Cycle   4  Pass 1  IDiag  1:
 E= -79.3508466769018     Delta-E=       -0.000000727677 Rises=F Damp=F
 DIIS: error= 4.14D-05 at cycle   4 NSaved=   4.
 NSaved= 4 IEnMin= 4 EnMin= -79.3508466769018     IErMin= 4 ErrMin= 4.14D-05
 ErrMax= 4.14D-05  0.00D+00 EMaxC= 1.00D-01 BMatC= 1.16D-07 BMatP= 1.07D-06
 IDIUse=1 WtCom= 1.00D+00 WtEn= 0.00D+00
 Coeff-Com:  0.181D-01-0.115D+00-0.332D+00 0.143D+01
 Coeff:      0.181D-01-0.115D+00-0.332D+00 0.143D+01
 Gap=     0.223 Goal=   None    Shift=    0.000
 Gap=     0.402 Goal=   None    Shift=    0.000
 RMSDP=4.98D-06 MaxDP=1.01D-04 DE=-7.28D-07 OVMax= 2.78D-04

 Cycle   5  Pass 1  IDiag  1:
 E= -79.3508467861152     Delta-E=       -0.000000109213 Rises=F Damp=F
 DIIS: error= 7.17D-06 at cycle   5 NSaved=   5.
 NSaved= 5 IEnMin= 5 EnMin= -79.3508467861152     IErMin= 5 ErrMin= 7.17D-06
 ErrMax= 7.17D-06  0.00D+00 EMaxC= 1.00D-01 BMatC= 5.34D-09 BMatP= 1.16D-07
 IDIUse=1 WtCom= 1.00D+00 WtEn= 0.00D+00
 Coeff-Com:  0.553D-02-0.250D-01-0.101D+00 0.276D+00 0.844D+00
 Coeff:      0.553D-02-0.250D-01-0.101D+00 0.276D+00 0.844D+00
 Gap=     0.223 Goal=   None    Shift=    0.000
 Gap=     0.402 Goal=   None    Shift=    0.000
 RMSDP=4.20D-07 MaxDP=1.07D-05 DE=-1.09D-07 OVMax= 2.79D-05

 Cycle   6  Pass 1  IDiag  1:
 E= -79.3508467884701     Delta-E=       -0.000000002355 Rises=F Damp=F
 DIIS: error= 2.21D-06 at cycle   6 NSaved=   6.
 NSaved= 6 IEnMin= 6 EnMin= -79.3508467884701     IErMin= 6 ErrMin= 2.21D-06
 ErrMax= 2.21D-06  0.00D+00 EMaxC= 1.00D-01 BMatC= 5.97D-10 BMatP= 5.34D-09
 IDIUse=1 WtCom= 1.00D+00 WtEn= 0.00D+00
 Coeff-Com: -0.173D-02 0.133D-01 0.316D-01-0.167D+00 0.152D+00 0.972D+00
 Coeff:     -0.173D-02 0.133D-01 0.316D-01-0.167D+00 0.152D+00 0.972D+00
 Gap=     0.223 Goal=   None    Shift=    0.000
 Gap=     0.402 Goal=   None    Shift=    0.000
 RMSDP=1.89D-07 MaxDP=3.86D-06 DE=-2.35D-09 OVMax= 1.24D-05

 Cycle   7  Pass 1  IDiag  1:
 E= -79.3508467887292     Delta-E=       -0.000000000259 Rises=F Damp=F
 DIIS: error= 2.61D-07 at cycle   7 NSaved=   7.
 NSaved= 7 IEnMin= 7 EnMin= -79.3508467887292     IErMin= 7 ErrMin= 2.61D-07
 ErrMax= 2.61D-07  0.00D+00 EMaxC= 1.00D-01 BMatC= 1.19D-11 BMatP= 5.97D-10
 IDIUse=1 WtCom= 1.00D+00 WtEn= 0.00D+00
 Coeff-Com: -0.499D-03 0.366D-02 0.929D-02-0.458D-01 0.312D-01 0.246D+00
 Coeff-Com:  0.757D+00
 Coeff:     -0.499D-03 0.366D-02 0.929D-02-0.458D-01 0.312D-01 0.246D+00
 Coeff:      0.757D+00
 Gap=     0.223 Goal=   None    Shift=    0.000
 Gap=     0.402 Goal=   None    Shift=    0.000
 RMSDP=2.74D-08 MaxDP=6.77D-07 DE=-2.59D-10 OVMax= 2.79D-06

 Cycle   8  Pass 1  IDiag  1:
 E= -79.3508467887317     Delta-E=       -0.000000000003 Rises=F Damp=F
 DIIS: error= 1.71D-07 at cycle   8 NSaved=   8.
 NSaved= 8 IEnMin= 8 EnMin= -79.3508467887317     IErMin= 8 ErrMin= 1.71D-07
 ErrMax= 1.71D-07  0.00D+00 EMaxC= 1.00D-01 BMatC= 4.91D-12 BMatP= 1.19D-11
 IDIUse=1 WtCom= 1.00D+00 WtEn= 0.00D+00
 Coeff-Com:  0.707D-04-0.624D-03-0.114D-02 0.797D-02-0.121D-01-0.576D-01
 Coeff-Com:  0.392D+00 0.671D+00
 Coeff:      0.707D-04-0.624D-03-0.114D-02 0.797D-02-0.121D-01-0.576D-01
 Coeff:      0.392D+00 0.671D+00
 Gap=     0.223 Goal=   None    Shift=    0.000
 Gap=     0.402 Goal=   None    Shift=    0.000
 RMSDP=1.16D-08 MaxDP=2.84D-07 DE=-2.50D-12 OVMax= 1.15D-06

 Cycle   9  Pass 1  IDiag  1:
 E= -79.3508467887332     Delta-E=       -0.000000000002 Rises=F Damp=F
 DIIS: error= 1.34D-08 at cycle   9 NSaved=   9.
 NSaved= 9 IEnMin= 9 EnMin= -79.3508467887332     IErMin= 9 ErrMin= 1.34D-08
 ErrMax= 1.34D-08  0.00D+00 EMaxC= 1.00D-01 BMatC= 1.13D-14 BMatP= 4.91D-12
 IDIUse=1 WtCom= 1.00D+00 WtEn= 0.00D+00
 Coeff-Com: -0.614D-05 0.671D-04 0.664D-04-0.834D-03 0.203D-02 0.778D-02
 Coeff-Com: -0.940D-01-0.140D+00 0.122D+01
 Coeff:     -0.614D-05 0.671D-04 0.664D-04-0.834D-03 0.203D-02 0.778D-02
 Coeff:     -0.940D-01-0.140D+00 0.122D+01
 Gap=     0.223 Goal=   None    Shift=    0.000
 Gap=     0.402 Goal=   None    Shift=    0.000
 RMSDP=1.43D-09 MaxDP=1.76D-08 DE=-1.51D-12 OVMax= 1.08D-07

 SCF Done:  E(UM062X) =  -79.3508467887     A.U. after    9 cycles
            NFock=  9  Conv=0.14D-08     -V/T= 2.0057
 <Sx>= 0.0000 <Sy>= 0.0000 <Sz>= 0.5000 <S**2>= 0.7532 S= 0.5016
 <L.S>=  0.00000000000    
 KE= 7.890337502360D+01 PE=-2.472135147724D+02 EE= 5.464383386212D+01
 Annihilation of the first spin contaminant:
 S**2 before annihilation     0.7532,   after     0.7500
 Leave Link  502 at Wed Nov 13 12:43:42 2024, MaxMem=  2147483648 cpu:             157.8 elap:               6.0
 (Enter /home/szhao/Apps/g16/l701.exe)
 ... and contract with generalized density number  0.
 Compute integral first derivatives.
 Leave Link  701 at Wed Nov 13 12:43:43 2024, MaxMem=  2147483648 cpu:              10.9 elap:               0.4
 (Enter /home/szhao/Apps/g16/l702.exe)
 L702 exits ... SP integral derivatives will be done elsewhere.
 Leave Link  702 at Wed Nov 13 12:43:43 2024, MaxMem=  2147483648 cpu:               3.2 elap:               0.1
 (Enter /home/szhao/Apps/g16/l703.exe)
 Integral derivatives from FoFJK, PRISM(SPDF).
 Compute integral first derivatives, UseDBF=F ICtDFT=           0.
 Calling FoFJK, ICntrl=      2127 FMM=F ISym2X=0 I1Cent= 0 IOpClX= 1 NMat=1 NMatS=1 NMatT=0.
 FoFJK:  IHMeth= 1 ICntrl=    2127 DoSepK=F KAlg= 0 I1Cent=           0 FoldK=F
 IRaf=         0 NMat=       1 IRICut=       1 DoRegI=T DoRafI=F ISym2E= 0 IDoP0=0 IntGTp=1.
 FoFCou: FMM=F IPFlag=           0 FMFlag=      100000 FMFlg1=         800
         NFxFlg=           0 DoJE=F BraDBF=F KetDBF=F FulRan=T
         wScrn=  0.000000 ICntrl=      2127 IOpCl=  1 I1Cent=           0 NGrid=           0
         NMat0=    1 NMatS0=      1 NMatT0=    0 NMatD0=    1 NMtDS0=    0 NMtDT0=    0
 Symmetry not used in FoFCou.
 Leave Link  703 at Wed Nov 13 12:43:44 2024, MaxMem=  2147483648 cpu:              38.6 elap:               1.4
 (Enter /home/szhao/Apps/g16/l716.exe)
 Dipole        =-1.04591473D-08-1.37914833D-05-2.70614534D-05
 -------------------------------------------------------------------
 Center     Atomic                   Forces (Hartrees/Bohr)
 Number     Number              X              Y              Z
 -------------------------------------------------------------------
      1        6          -0.000000000   -0.000000000   -0.000000000
      2        6          -0.000000000   -0.000000000   -0.000000000
      3        1          -0.000038063   -0.000050444    0.000027275
      4        1           0.000023698   -0.000050014   -0.000025843
      5        1          -0.000030225    0.000049524    0.000027391
      6        1          -0.000030479   -0.000000351   -0.000057606
      7        1           0.000038357    0.000050651   -0.000026126
      8        1           0.000036326    0.000000161    0.000057995
 -------------------------------------------------------------------
 Cartesian Forces:  Max     0.000057995 RMS     0.000033062
 Leave Link  716 at Wed Nov 13 12:43:44 2024, MaxMem=  2147483648 cpu:               3.3 elap:               0.1
 (Enter /home/szhao/Apps/g16/l103.exe)

 GradGradGradGradGradGradGradGradGradGradGradGradGradGradGradGradGradGrad
 Berny optimization.
 Using GEDIIS/GDIIS optimizer.
 FormGI is forming the generalized inverse of G from B-inverse, IUseBI=4.
 Internal  Forces:  Max     0.000098767 RMS     0.000046162
 Search for a local minimum.
 Step number   2 out of a maximum of   43
 All quantities printed in internal units (Hartrees-Bohrs-Radians)
 RMS Force = .43318D-04 SwitMx=.10000D-02 MixMth= 2
 Mixed Optimization -- En-DIIS/RFO-DIIS
 Swapping is turned off.
 Update second derivatives using D2CorX and points    1    2
 DE= -7.66D-05 DEPred=-7.96D-05 R= 9.63D-01
 TightC=F SS=  1.41D+00  RLast= 3.15D-02 DXNew= 5.0454D-01 9.4495D-02
 Trust test= 9.63D-01 RLast= 3.15D-02 DXMaxT set to 3.00D-01
 ITU=  1  0
     Eigenvalues ---    0.00230   0.08005   0.08005   0.08007   0.08007
     Eigenvalues ---    0.15987   0.16000   0.16000   0.16000   0.16000
     Eigenvalues ---    0.16585   0.35524   0.35532   0.35533   0.35533
     Eigenvalues ---    0.35533   0.355341000.000001000.000001000.00000
     Eigenvalues --- 1000.000001000.000001000.000001000.000001000.00000
     Eigenvalues --- 1000.000001000.000001000.000001000.000001000.00000
     Eigenvalues --- 1000.000001000.000001000.00000
 En-DIIS/RFO-DIIS/Sim-DIIS IScMMF=       -3 using points:     2    1
 RFO step:  Lambda=-2.43956050D-07.
 NNeg= 0 NGDIIS= 2 SimSw=  2.50D-03 Rises=F DC= -7.66D-05 SmlDif=  1.00D-05
 NRisDI= 0 DoIntr=F SqrtH=F CThrHd= 10.0 CDAdj=  3.0
 RMS Error=  0.1985476752D-03 NUsed= 2 OKEnD=T EnDIS=F
 InvSVX:  RCond= 1.12D-03 Info=           0 Equed=N FErr=  9.20D-16 BErr=  2.65D-17
 DidBck=F Rises=F RFO-DIIS coefs:    0.96639    0.03361
 Iteration  1 RMS(Cart)=  0.00038118 RMS(Int)=  0.00000367
 Iteration  2 RMS(Cart)=  0.00000013 RMS(Int)=  0.00000367
 ITry= 1 IFail=0 DXMaxC= 9.97D-04 DCOld= 1.00D+10 DXMaxT= 3.00D-01 DXLimC= 3.00D+00 Rises=F
 Variable       Old X    -DE/DX   Delta X   Delta X   Delta X     New X
                                 (Linear)    (Quad)   (Total)
    X1       -2.53426   0.00010   0.00000   0.00000   0.00000  -2.53426
    Y1        0.00000   0.00001   0.00000   0.00000   0.00000   0.00000
    Z1        0.00000   0.00001   0.00000   0.00000   0.00000   0.00000
    X2        2.53426  -0.00010   0.00000   0.00000   0.00000   2.53426
    Y2        0.00000  -0.00001   0.00000   0.00000   0.00000   0.00000
    Z2        0.00000  -0.00000   0.00000   0.00000   0.00000   0.00000
    R1        2.04838   0.00005  -0.00001   0.00016   0.00015   2.04853
    R2        2.04838   0.00005  -0.00001   0.00015   0.00015   2.04853
    R3        2.04838   0.00006  -0.00001   0.00016   0.00015   2.04853
    R4        2.04838   0.00005  -0.00001   0.00016   0.00015   2.04853
    R5        2.04838   0.00005  -0.00001   0.00016   0.00015   2.04853
    R6        2.04838   0.00006  -0.00001   0.00016   0.00015   2.04853
    A1        1.63355  -0.00005  -0.00043   0.00012  -0.00031   1.63324
    A2        1.63456  -0.00008  -0.00042  -0.00007  -0.00049   1.63407
    A3        1.63405  -0.00008  -0.00042  -0.00005  -0.00047   1.63358
    A4        2.08749   0.00002   0.00008   0.00002   0.00011   2.08760
    A5        2.08749   0.00001   0.00008  -0.00001   0.00008   2.08757
    A6        2.08749   0.00002   0.00008  -0.00001   0.00008   2.08757
    A7        1.63453  -0.00008  -0.00042  -0.00007  -0.00049   1.63404
    A8        1.63413  -0.00007  -0.00042   0.00003  -0.00039   1.63374
    A9        1.63350  -0.00007  -0.00042   0.00003  -0.00040   1.63311
   A10        2.08750   0.00002   0.00008   0.00001   0.00010   2.08760
   A11        2.08749   0.00002   0.00008  -0.00001   0.00008   2.08757
   A12        2.08747   0.00001   0.00008  -0.00000   0.00009   2.08756
    D1       -1.04734   0.00000  -0.00000   0.00003   0.00003  -1.04731
    D2        3.14138   0.00000  -0.00000   0.00003   0.00002   3.14140
    D3        1.04705   0.00000  -0.00000   0.00002   0.00002   1.04707
    D4        3.14145  -0.00000  -0.00000   0.00001   0.00000   3.14145
    D5        1.04698  -0.00000   0.00000  -0.00000  -0.00000   1.04698
    D6       -1.04735  -0.00000   0.00000  -0.00001  -0.00001  -1.04735
    D7        1.04700   0.00000  -0.00000   0.00003   0.00003   1.04703
    D8       -1.04747   0.00000   0.00000   0.00002   0.00002  -1.04745
    D9        3.14139   0.00000  -0.00000   0.00002   0.00002   3.14140
         Item               Value     Threshold  Converged?
 Maximum Force            0.000082     0.000450     YES
 RMS     Force            0.000043     0.000300     YES
 Maximum Displacement     0.000997     0.001800     YES
 RMS     Displacement     0.000381     0.001200     YES
 Predicted change in Energy=-1.219654D-07
 Optimization completed.
    -- Stationary point found.
                           ----------------------------
                           !   Optimized Parameters   !
                           ! (Angstroms and Degrees)  !
 --------------------------                            --------------------------
 ! Name  Definition              Value          Derivative Info.                !
 --------------------------------------------------------------------------------
 ! X1    R(1,-1)                -1.3411         -DE/DX =    0.0001              !
 ! Y1    R(1,-2)                 0.0            -DE/DX =    0.0                 !
 ! Z1    R(1,-3)                 0.0            -DE/DX =    0.0                 !
 ! X2    R(2,-1)                 1.3411         -DE/DX =   -0.0001              !
 ! Y2    R(2,-2)                 0.0            -DE/DX =    0.0                 !
 ! Z2    R(2,-3)                 0.0            -DE/DX =    0.0                 !
 ! R1    R(1,4)                  1.084          -DE/DX =    0.0001              !
 ! R2    R(1,7)                  1.084          -DE/DX =    0.0001              !
 ! R3    R(1,8)                  1.084          -DE/DX =    0.0001              !
 ! R4    R(2,3)                  1.084          -DE/DX =    0.0001              !
 ! R5    R(2,5)                  1.084          -DE/DX =    0.0001              !
 ! R6    R(2,6)                  1.084          -DE/DX =    0.0001              !
 ! A1    A(2,1,4)               93.5953         -DE/DX =   -0.0001              !
 ! A2    A(2,1,7)               93.6534         -DE/DX =   -0.0001              !
 ! A3    A(2,1,8)               93.6241         -DE/DX =   -0.0001              !
 ! A4    A(4,1,7)              119.6042         -DE/DX =    0.0                 !
 ! A5    A(4,1,8)              119.6041         -DE/DX =    0.0                 !
 ! A6    A(7,1,8)              119.6044         -DE/DX =    0.0                 !
 ! A7    A(1,2,3)               93.6517         -DE/DX =   -0.0001              !
 ! A8    A(1,2,5)               93.6287         -DE/DX =   -0.0001              !
 ! A9    A(1,2,6)               93.5928         -DE/DX =   -0.0001              !
 ! A10   A(3,2,5)              119.605          -DE/DX =    0.0                 !
 ! A11   A(3,2,6)              119.6043         -DE/DX =    0.0                 !
 ! A12   A(5,2,6)              119.6033         -DE/DX =    0.0                 !
 ! D1    D(4,1,2,3)            -60.0082         -DE/DX =    0.0                 !
 ! D2    D(4,1,2,5)            179.9875         -DE/DX =    0.0                 !
 ! D3    D(4,1,2,6)             59.9914         -DE/DX =    0.0                 !
 ! D4    D(7,1,2,3)            179.9918         -DE/DX =    0.0                 !
 ! D5    D(7,1,2,5)             59.9875         -DE/DX =    0.0                 !
 ! D6    D(7,1,2,6)            -60.0086         -DE/DX =    0.0                 !
 ! D7    D(8,1,2,3)             59.9885         -DE/DX =    0.0                 !
 ! D8    D(8,1,2,5)            -60.0158         -DE/DX =    0.0                 !
 ! D9    D(8,1,2,6)            179.9881         -DE/DX =    0.0                 !
 --------------------------------------------------------------------------------
 Lowest energy point so far.  Saving SCF results.
 Largest change from initial coordinates is atom    4       0.014 Angstoms.
 GradGradGradGradGradGradGradGradGradGradGradGradGradGradGradGradGradGrad

 Leave Link  103 at Wed Nov 13 12:43:45 2024, MaxMem=  2147483648 cpu:              22.8 elap:               0.9
 (Enter /home/szhao/Apps/g16/l202.exe)
                          Input orientation:                          
 ---------------------------------------------------------------------
 Center     Atomic      Atomic             Coordinates (Angstroms)
 Number     Number       Type             X           Y           Z
 ---------------------------------------------------------------------
      1          6           0       -1.341072    0.000000    0.000000
      2          6           0        1.341072    0.000000    0.000000
      3          1           0        1.410110   -0.936260    0.541862
      4          1           0       -1.409046   -0.937377   -0.540061
      5          1           0        1.409676    0.937461    0.539838
      6          1           0        1.408998   -0.001143   -1.081824
      7          1           0       -1.410143    0.936337   -0.541727
      8          1           0       -1.409590    0.000919    1.081788
 ---------------------------------------------------------------------
                    Distance matrix (angstroms):
                    1          2          3          4          5
     1  C    0.000000
     2  C    2.682143   0.000000
     3  H    2.956214   1.083957   0.000000
     4  H    1.083957   2.955247   3.019636   0.000000
     5  H    2.955819   1.083958   1.873722   3.553363   0.000000
     6  H    2.955204   1.083955   1.873714   3.018511   1.873704
     7  H    1.083958   2.956243   3.554520   1.873715   3.020126
     8  H    1.083956   2.955741   3.020022   1.873711   3.019781
                    6          7          8
     6  H    0.000000
     7  H    3.019624   0.000000
     8  H    3.553260   1.873715   0.000000
 Symmetry turned off by external request.
 Stoichiometry    C2H6(1+,2)
 Framework group  C1[X(C2H6)]
 Deg. of freedom    18
 Full point group                 C1      NOp   1
 Rotational constants (GHZ):          71.4160538           8.6070858           8.6070793
 Leave Link  202 at Wed Nov 13 12:43:45 2024, MaxMem=  2147483648 cpu:               2.6 elap:               0.1
 (Enter /home/szhao/Apps/g16/l601.exe)
 Copying SCF densities to generalized density rwf, IOpCl= 1 IROHF=0.

 **********************************************************************

            Population analysis using the SCF density.

 **********************************************************************

 Alpha  occ. eigenvalues --  -10.85489 -10.85485  -1.05504  -1.02614  -0.75735
 Alpha  occ. eigenvalues --   -0.75734  -0.74238  -0.74238  -0.55481
 Alpha virt. eigenvalues --   -0.33197  -0.14847  -0.10491  -0.10491  -0.10045
 Alpha virt. eigenvalues --   -0.06205  -0.06205  -0.05988  -0.03318  -0.03315
 Alpha virt. eigenvalues --   -0.03008   0.01522   0.01524   0.05446   0.07447
 Alpha virt. eigenvalues --    0.19520   0.19523   0.21941   0.27657   0.27664
 Alpha virt. eigenvalues --    0.31009   0.38473   0.40724   0.40724   0.44775
 Alpha virt. eigenvalues --    0.44776   0.53198   0.58952   0.70418   0.82675
 Alpha virt. eigenvalues --    0.82677   0.85887   0.85888   1.20565   1.20600
 Alpha virt. eigenvalues --    1.21719   1.21723   1.26859   1.28505   1.29895
 Alpha virt. eigenvalues --    1.29897   1.52953   1.57544   1.66622   1.66623
 Alpha virt. eigenvalues --    1.66698   1.66699   1.76915   1.76918   1.78369
 Alpha virt. eigenvalues --    1.78376   2.19389   2.22471   2.22482   2.26986
 Alpha virt. eigenvalues --    2.26994   2.28124   2.41100   2.41106   2.42186
 Alpha virt. eigenvalues --    2.42189   2.50243   2.50390   2.70637   2.71708
 Alpha virt. eigenvalues --    3.48891   3.48892   3.49202   3.49203  23.68371
 Alpha virt. eigenvalues --   23.69707
  Beta  occ. eigenvalues --  -10.85293 -10.85293  -1.02355  -1.00213  -0.75069
  Beta  occ. eigenvalues --   -0.75068  -0.73707  -0.73706
  Beta virt. eigenvalues --   -0.33549  -0.23986  -0.15526  -0.11113  -0.11113
  Beta virt. eigenvalues --   -0.09680  -0.06536  -0.06536  -0.05969  -0.03308
  Beta virt. eigenvalues --   -0.03306  -0.02240   0.01898   0.01900   0.06013
  Beta virt. eigenvalues --    0.07761   0.19528   0.19532   0.23826   0.27137
  Beta virt. eigenvalues --    0.27144   0.31158   0.40952   0.41812   0.41813
  Beta virt. eigenvalues --    0.45957   0.45958   0.54111   0.60060   0.71208
  Beta virt. eigenvalues --    0.85398   0.85400   0.88394   0.88394   1.21706
  Beta virt. eigenvalues --    1.21739   1.23069   1.23073   1.31020   1.31055
  Beta virt. eigenvalues --    1.31057   1.33860   1.55170   1.58260   1.68156
  Beta virt. eigenvalues --    1.68157   1.68413   1.68413   1.78281   1.78284
  Beta virt. eigenvalues --    1.79935   1.79942   2.22831   2.23778   2.23789
  Beta virt. eigenvalues --    2.28202   2.28210   2.31735   2.43623   2.43629
  Beta virt. eigenvalues --    2.44709   2.44712   2.52629   2.54393   2.73537
  Beta virt. eigenvalues --    2.74061   3.52978   3.52979   3.53293   3.53293
  Beta virt. eigenvalues --   23.69577  23.70914
          Condensed to atoms (all electrons):
               1          2          3          4          5          6
     1  C    5.095396   0.072178  -0.004325   0.375058  -0.004312  -0.004315
     2  C    0.072178   5.095396   0.375092  -0.004317   0.375069   0.375055
     3  H   -0.004325   0.375092   0.402981  -0.000338  -0.016718  -0.016722
     4  H    0.375058  -0.004317  -0.000338   0.403053   0.000402  -0.000338
     5  H   -0.004312   0.375069  -0.016718   0.000402   0.403010  -0.016721
     6  H   -0.004315   0.375055  -0.016722  -0.000338  -0.016721   0.403049
     7  H    0.375092  -0.004325   0.000402  -0.016720  -0.000337  -0.000338
     8  H    0.375065  -0.004311  -0.000337  -0.016720  -0.000338   0.000402
               7          8
     1  C    0.375092   0.375065
     2  C   -0.004325  -0.004311
     3  H    0.000402  -0.000337
     4  H   -0.016720  -0.016720
     5  H   -0.000337  -0.000338
     6  H   -0.000338   0.000402
     7  H    0.402979  -0.016719
     8  H   -0.016719   0.403007
          Atomic-Atomic Spin Densities.
               1          2          3          4          5          6
     1  C    0.510630   0.095373  -0.003073  -0.007624  -0.003077  -0.003080
     2  C    0.095373   0.510630  -0.007626  -0.003080  -0.007624  -0.007622
     3  H   -0.003073  -0.007626  -0.017075   0.000085   0.001453   0.001454
     4  H   -0.007624  -0.003080   0.000085  -0.017060   0.000054   0.000085
     5  H   -0.003077  -0.007624   0.001453   0.000054  -0.017070   0.001455
     6  H   -0.003080  -0.007622   0.001454   0.000085   0.001455  -0.017050
     7  H   -0.007626  -0.003072   0.000054   0.001453   0.000085   0.000085
     8  H   -0.007622  -0.003078   0.000085   0.001455   0.000085   0.000054
               7          8
     1  C   -0.007626  -0.007622
     2  C   -0.003072  -0.003078
     3  H    0.000054   0.000085
     4  H    0.001453   0.001455
     5  H    0.000085   0.000085
     6  H    0.000085   0.000054
     7  H   -0.017075   0.001454
     8  H    0.001454  -0.017059
 Mulliken charges and spin densities:
               1          2
     1  C   -0.279838   0.573900
     2  C   -0.279838   0.573901
     3  H    0.259965  -0.024642
     4  H    0.259920  -0.024633
     5  H    0.259945  -0.024639
     6  H    0.259928  -0.024619
     7  H    0.259967  -0.024643
     8  H    0.259952  -0.024625
 Sum of Mulliken charges =   1.00000   1.00000
 Mulliken charges and spin densities with hydrogens summed into heavy atoms:
               1          2
     1  C    0.500000   0.500000
     2  C    0.500000   0.500000
 Electronic spatial extent (au):  <R**2>=            162.9696
 Charge=              1.0000 electrons
 Dipole moment (field-independent basis, Debye):
    X=             -0.0000    Y=             -0.0000    Z=             -0.0001  Tot=              0.0001
 Quadrupole moment (field-independent basis, Debye-Ang):
   XX=             -2.6107   YY=            -10.9695   ZZ=            -10.9696
   XY=             -0.0012   XZ=              0.0008   YZ=             -0.0001
 Traceless Quadrupole moment (field-independent basis, Debye-Ang):
   XX=              5.5726   YY=             -2.7862   ZZ=             -2.7863
   XY=             -0.0012   XZ=              0.0008   YZ=             -0.0001
 Octapole moment (field-independent basis, Debye-Ang**2):
  XXX=              0.0000  YYY=              0.0008  ZZZ=             -0.0000  XYY=              0.0009
  XXY=              0.0016  XXZ=              0.0024  XZZ=             -0.0009  YZZ=             -0.0008
  YYZ=             -0.0000  XYZ=              0.0005
 Hexadecapole moment (field-independent basis, Debye-Ang**3):
 XXXX=           -137.0222 YYYY=            -21.3184 ZZZZ=            -21.3182 XXXY=             -0.0054
 XXXZ=              0.0035 YYYX=              0.0124 YYYZ=              0.0002 ZZZX=             -4.1292
 ZZZY=             -0.0002 XXYY=            -25.3881 XXZZ=            -25.3929 YYZZ=             -7.1063
 XXYZ=             -0.0036 YYXZ=              4.1289 ZZXY=             -0.0121
 N-N= 3.431545909797D+01 E-N=-2.472135147634D+02  KE= 7.890337502360D+01
                          Isotropic Fermi Contact Couplings
        Atom                 a.u.       MegaHertz       Gauss      10(-4) cm-1
     1  C(13)              0.07683      86.37216      30.81974      28.81065
     2  C(13)              0.07683      86.37179      30.81960      28.81053
     3  H(1)              -0.00677     -30.28280     -10.80565     -10.10125
     4  H(1)              -0.00677     -30.26218     -10.79830     -10.09438
     5  H(1)              -0.00677     -30.27160     -10.80166     -10.09752
     6  H(1)              -0.00677     -30.25226     -10.79476     -10.09107
     7  H(1)              -0.00678     -30.28350     -10.80591     -10.10149
     8  H(1)              -0.00677     -30.26125     -10.79797     -10.09407
 --------------------------------------------------------
       Center         ----  Spin Dipole Couplings  ----
                      3XX-RR        3YY-RR        3ZZ-RR
 --------------------------------------------------------
     1   Atom        0.522158     -0.261079     -0.261079
     2   Atom        0.522158     -0.261078     -0.261080
     3   Atom        0.003927      0.016635     -0.020562
     4   Atom        0.003941      0.016754     -0.020696
     5   Atom        0.003936      0.016768     -0.020704
     6   Atom        0.003941     -0.039314      0.035373
     7   Atom        0.003927      0.016651     -0.020577
     8   Atom        0.003936     -0.039310      0.035374
 --------------------------------------------------------
                        XY            XZ            YZ
 --------------------------------------------------------
     1   Atom        0.000589     -0.000048     -0.000001
     2   Atom        0.000259     -0.000558      0.000000
     3   Atom       -0.000717      0.000398     -0.032379
     4   Atom        0.000667      0.000372      0.032308
     5   Atom        0.000698      0.000376      0.032301
     6   Atom        0.000007     -0.000758      0.000083
     7   Atom       -0.000705      0.000421     -0.032370
     8   Atom        0.000021     -0.000784      0.000072
 --------------------------------------------------------


 ---------------------------------------------------------------------------------
              Anisotropic Spin Dipole Couplings in Principal Axis System
 ---------------------------------------------------------------------------------

       Atom             a.u.   MegaHertz   Gauss  10(-4) cm-1        Axes

              Baa    -0.2611   -35.034   -12.501   -11.686 -0.0005  0.7303  0.6831
     1 C(13)  Bbb    -0.2611   -35.034   -12.501   -11.686  0.0006 -0.6831  0.7303
              Bcc     0.5222    70.069    25.002    23.372  1.0000  0.0008 -0.0001
 
              Baa    -0.2611   -35.034   -12.501   -11.686  0.0008 -0.1394  0.9902
     2 C(13)  Bbb    -0.2611   -35.034   -12.501   -11.686 -0.0002  0.9902  0.1394
              Bcc     0.5222    70.069    25.002    23.372  1.0000  0.0003 -0.0007
 
              Baa    -0.0393   -20.971    -7.483    -6.995  0.0003  0.5010  0.8655
     3 H(1)   Bbb     0.0039     2.084     0.744     0.695  0.9997  0.0224 -0.0133
              Bcc     0.0354    18.887     6.739     6.300 -0.0260  0.8652 -0.5008
 
              Baa    -0.0393   -20.975    -7.485    -6.997  0.0002 -0.4993  0.8664
     4 H(1)   Bbb     0.0039     2.093     0.747     0.698  0.9997 -0.0209 -0.0123
              Bcc     0.0354    18.883     6.738     6.299  0.0243  0.8662  0.4991
 
              Baa    -0.0393   -20.973    -7.484    -6.996  0.0005 -0.4991  0.8665
     5 H(1)   Bbb     0.0039     2.089     0.745     0.697  0.9997 -0.0216 -0.0130
              Bcc     0.0354    18.884     6.738     6.299  0.0252  0.8663  0.4990
 
              Baa    -0.0393   -20.976    -7.485    -6.997 -0.0002  1.0000 -0.0011
     6 H(1)   Bbb     0.0039     2.093     0.747     0.698  0.9997  0.0002  0.0241
              Bcc     0.0354    18.883     6.738     6.299 -0.0241  0.0011  0.9997
 
              Baa    -0.0393   -20.970    -7.483    -6.995 -0.0003  0.5007  0.8656
     7 H(1)   Bbb     0.0039     2.084     0.743     0.695  0.9997  0.0227 -0.0128
              Bcc     0.0354    18.887     6.739     6.300 -0.0261  0.8653 -0.5006
 
              Baa    -0.0393   -20.974    -7.484    -6.996 -0.0005  1.0000 -0.0010
     8 H(1)   Bbb     0.0039     2.090     0.746     0.697  0.9997  0.0005  0.0249
              Bcc     0.0354    18.885     6.738     6.299 -0.0249  0.0010  0.9997
 

 ---------------------------------------------------------------------------------

 No NMR shielding tensors so no spin-rotation constants.
 Leave Link  601 at Wed Nov 13 12:43:46 2024, MaxMem=  2147483648 cpu:              12.7 elap:               0.5
 (Enter /home/szhao/Apps/g16/l9999.exe)
 1\1\GINC-NODE01\FOpt\UM062X\6-311+G(d,p)\C2H6(1+,2)\SZHAO\13-Nov-2024\
 0\\#p opt UM062X/6-311+G** nosymm int=superfine\\Title Card Required\\
 1,2\C,-1.34107168,0.,0.\C,1.34107168,0.,0.\H,1.4101103761,-0.936259841
 8,0.5418622812\H,-1.4090455914,-0.9373769655,-0.540061428\H,1.40967551
 52,0.9374605474,0.5398382844\H,1.4089979028,-0.0011433307,-1.081824318
 \H,-1.4101426229,0.936336519,-0.5417273446\H,-1.4095895057,0.000918911
 6,1.0817876988\\Version=ES64L-G16RevA.03\HF=-79.3508468\S2=0.753199\S2
 -1=0.\S2A=0.750008\RMSD=1.432e-09\RMSF=3.306e-05\Dipole=-0.0000006,-0.
 0000071,-0.000014\Quadrupole=4.143066,-2.0715026,-2.0715634,-0.0008743
 ,0.0005657,-0.000054\PG=C01 [X(C2H6)]\\@


 ERWIN WITH HIS PSI CAN DO
 CALCULATIONS QUITE A FEW.
 BUT ONE THING HAS NOT BEEN SEEN
 JUST WHAT DOES PSI REALLY MEAN.
 -- WALTER HUCKEL, TRANS. BY FELIX BLOCH
 Job cpu time:       0 days  0 hours 10 minutes  7.0 seconds.
 Elapsed time:       0 days  0 hours  0 minutes 23.0 seconds.
 File lengths (MBytes):  RWF=     10 Int=      0 D2E=      0 Chk=      2 Scr=      1
 Normal termination of Gaussian 16 at Wed Nov 13 12:43:46 2024.
