Title Card Required                                                     
FOpt      UM062X                                                      6-311+G(d,p)        
Number of atoms                            I                6
Info1-9                                    I   N=           9
          15          15           0           0           0         110
           2          18        -502
Full Title                                 C   N=           2
Title Card Required     
Route                                      C   N=           4
#p opt UM062X/6-311+G** nosymm int=superfine    
Charge                                     I                1
Multiplicity                               I                2
Number of electrons                        I               15
Number of alpha electrons                  I                8
Number of beta electrons                   I                7
Number of basis functions                  I               68
Number of independent functions            I               68
Number of point charges in /Mol/           I                0
Number of translation vectors              I                0
Atomic numbers                             I   N=           6
           6           6           1           1           1           1
Nuclear charges                            R   N=           6
  6.00000000E+00  6.00000000E+00  1.00000000E+00  1.00000000E+00  1.00000000E+00
  1.00000000E+00
Current cartesian coordinates              R   N=          18
 -2.08389836E+00  0.00000000E+00  0.00000000E+00  2.08389836E+00  0.00000000E+00
  0.00000000E+00 -2.91488538E+00 -1.87487231E+00  2.64290023E-08 -2.91481402E+00
  1.87516206E+00  2.75020156E-08  2.91488554E+00  1.87487237E+00  8.04177988E-09
  2.91481418E+00 -1.87516212E+00  9.12425439E-09
Number of symbols in /Mol/                 I                0
Force Field                                I                0
Atom Types                                 C   N=           6
                                                            
            
Int Atom Types                             I   N=           6
           0           0           0           0           0           0
MM charges                                 R   N=           6
  0.00000000E+00  0.00000000E+00  0.00000000E+00  0.00000000E+00  0.00000000E+00
  0.00000000E+00
Integer atomic weights                     I   N=           6
          12          12           1           1           1           1
Real atomic weights                        R   N=           6
  1.20000000E+01  1.20000000E+01  1.00782504E+00  1.00782504E+00  1.00782504E+00
  1.00782504E+00
Atom fragment info                         I   N=           6
           0           0           0           0           0           0
Atom residue num                           I   N=           6
           0           0           0           0           0           0
Nuclear spins                              I   N=           6
           0           0           1           1           1           1
Nuclear ZEff                               R   N=           6
 -3.60000000E+00 -3.60000000E+00 -1.00000000E+00 -1.00000000E+00 -1.00000000E+00
 -1.00000000E+00
Nuclear ZNuc                               R   N=           6
  6.00000000E+00  6.00000000E+00  1.00000000E+00  1.00000000E+00  1.00000000E+00
  1.00000000E+00
Nuclear QMom                               R   N=           6
  0.00000000E+00  0.00000000E+00  0.00000000E+00  0.00000000E+00  0.00000000E+00
  0.00000000E+00
Nuclear GFac                               R   N=           6
  0.00000000E+00  0.00000000E+00  2.79284600E+00  2.79284600E+00  2.79284600E+00
  2.79284600E+00
MicOpt                                     I   N=           6
          -2          -2          -1          -1          -1          -1
Number of residues                         I                0
Number of secondary structures             I                0
Redundant internal dimensions              I   N=           4
          20          10           6           4
Redundant internal coordinate indices      I   N=          80
           1          -1           0           0           1          -2
           0           0           1          -3           0           0
           2          -1           0           0           2          -2
           0           0           2          -3           0           0
           1           3           0           0           1           4
           0           0           2           5           0           0
           2           6           0           0           2           1
           3           0           2           1           4           0
           3           1           4           0           1           2
           5           0           1           2           6           0
           5           2           6           0           3           1
           2           5           3           1           2           6
           4           1           2           5           4           1
           2           6
Redundant internal coordinates             R   N=          20
 -2.08389836E+00  0.00000000E+00  0.00000000E+00  2.08389836E+00  0.00000000E+00
  0.00000000E+00  2.05077683E+00  2.05101282E+00  2.05077695E+00  2.05101294E+00
  1.98800045E+00  1.98791139E+00  2.30727347E+00  1.98800051E+00  1.98791145E+00
  2.30727335E+00 -3.14159264E+00  0.00000000E+00 -0.00000000E+00  3.14159263E+00
ZRed-IntVec                                I   N=          20
          -1          -1          -1          -1          -1          -1
           0           0           0           0           0           0
           0           0           0           0           0           0
           0           0
ZRed-FPVec                                 R   N=          20
  0.00000000E+00  0.00000000E+00  0.00000000E+00  0.00000000E+00  0.00000000E+00
  0.00000000E+00  0.00000000E+00  0.00000000E+00  0.00000000E+00  0.00000000E+00
  0.00000000E+00  0.00000000E+00  0.00000000E+00  0.00000000E+00  0.00000000E+00
  0.00000000E+00  0.00000000E+00  0.00000000E+00  0.00000000E+00  0.00000000E+00
ZRed-Constraint1                           R   N=          20
 -2.08389836E+00  0.00000000E+00  0.00000000E+00  2.08389836E+00  0.00000000E+00
  0.00000000E+00  2.40598596E+00  2.40545686E+00  2.40598596E+00  2.40545686E+00
  2.31997106E+00  2.31468896E+00  1.64852529E+00  2.31997106E+00  2.31468896E+00
  1.64852529E+00  3.14159265E+00  0.00000000E+00  0.00000000E+00  3.14159265E+00
ZRed-Constraint2                           R   N=          20
 -2.08389836E+00  0.00000000E+00  0.00000000E+00  2.08389836E+00  0.00000000E+00
  0.00000000E+00  0.00000000E+00  0.00000000E+00  0.00000000E+00  0.00000000E+00
  0.00000000E+00  0.00000000E+00  0.00000000E+00  0.00000000E+00  0.00000000E+00
  0.00000000E+00  0.00000000E+00  0.00000000E+00  0.00000000E+00  0.00000000E+00
Number of contracted shells                I               28
Number of primitive shells                 I               50
Pure/Cartesian d shells                    I                0
Pure/Cartesian f shells                    I                0
Highest angular momentum                   I                2
Largest degree of contraction              I                6
Shell types                                I   N=          28
           0          -1          -1          -1          -1          -2
           0          -1          -1          -1          -1          -2
           0           0           0           1           0           0
           0           1           0           0           0           1
           0           0           0           1
Number of primitives per shell             I   N=          28
           6           3           1           1           1           1
           6           3           1           1           1           1
           3           1           1           1           3           1
           1           1           3           1           1           1
           3           1           1           1
Shell to atom map                          I   N=          28
           1           1           1           1           1           1
           2           2           2           2           2           2
           3           3           3           3           4           4
           4           4           5           5           5           5
           6           6           6           6
Primitive exponents                        R   N=          50
  4.56324000E+03  6.82024000E+02  1.54973000E+02  4.44553000E+01  1.30290000E+01
  1.82773000E+00  2.09642000E+01  4.80331000E+00  1.45933000E+00  4.83456000E-01
  1.45585000E-01  4.38000000E-02  6.26000000E-01  4.56324000E+03  6.82024000E+02
  1.54973000E+02  4.44553000E+01  1.30290000E+01  1.82773000E+00  2.09642000E+01
  4.80331000E+00  1.45933000E+00  4.83456000E-01  1.45585000E-01  4.38000000E-02
  6.26000000E-01  3.38650000E+01  5.09479000E+00  1.15879000E+00  3.25840000E-01
  1.02741000E-01  7.50000000E-01  3.38650000E+01  5.09479000E+00  1.15879000E+00
  3.25840000E-01  1.02741000E-01  7.50000000E-01  3.38650000E+01  5.09479000E+00
  1.15879000E+00  3.25840000E-01  1.02741000E-01  7.50000000E-01  3.38650000E+01
  5.09479000E+00  1.15879000E+00  3.25840000E-01  1.02741000E-01  7.50000000E-01
Contraction coefficients                   R   N=          50
  1.96665025E-03  1.52306019E-02  7.61269097E-02  2.60801033E-01  6.16462078E-01
  2.21006028E-01  1.14660081E-01  9.19999648E-01 -3.03068213E-03  1.00000000E+00
  1.00000000E+00  1.00000000E+00  1.00000000E+00  1.96665025E-03  1.52306019E-02
  7.61269097E-02  2.60801033E-01  6.16462078E-01  2.21006028E-01  1.14660081E-01
  9.19999648E-01 -3.03068213E-03  1.00000000E+00  1.00000000E+00  1.00000000E+00
  1.00000000E+00  2.54938145E-02  1.90373109E-01  8.52161486E-01  1.00000000E+00
  1.00000000E+00  1.00000000E+00  2.54938145E-02  1.90373109E-01  8.52161486E-01
  1.00000000E+00  1.00000000E+00  1.00000000E+00  2.54938145E-02  1.90373109E-01
  8.52161486E-01  1.00000000E+00  1.00000000E+00  1.00000000E+00  2.54938145E-02
  1.90373109E-01  8.52161486E-01  1.00000000E+00  1.00000000E+00  1.00000000E+00
P(S=P) Contraction coefficients            R   N=          50
  0.00000000E+00  0.00000000E+00  0.00000000E+00  0.00000000E+00  0.00000000E+00
  0.00000000E+00  4.02486927E-02  2.37593957E-01  8.15853851E-01  1.00000000E+00
  1.00000000E+00  1.00000000E+00  0.00000000E+00  0.00000000E+00  0.00000000E+00
  0.00000000E+00  0.00000000E+00  0.00000000E+00  0.00000000E+00  4.02486927E-02
  2.37593957E-01  8.15853851E-01  1.00000000E+00  1.00000000E+00  1.00000000E+00
  0.00000000E+00  0.00000000E+00  0.00000000E+00  0.00000000E+00  0.00000000E+00
  0.00000000E+00  0.00000000E+00  0.00000000E+00  0.00000000E+00  0.00000000E+00
  0.00000000E+00  0.00000000E+00  0.00000000E+00  0.00000000E+00  0.00000000E+00
  0.00000000E+00  0.00000000E+00  0.00000000E+00  0.00000000E+00  0.00000000E+00
  0.00000000E+00  0.00000000E+00  0.00000000E+00  0.00000000E+00  0.00000000E+00
Coordinates of each shell                  R   N=          84
 -2.08389836E+00  0.00000000E+00  0.00000000E+00 -2.08389836E+00  0.00000000E+00
  0.00000000E+00 -2.08389836E+00  0.00000000E+00  0.00000000E+00 -2.08389836E+00
  0.00000000E+00  0.00000000E+00 -2.08389836E+00  0.00000000E+00  0.00000000E+00
 -2.08389836E+00  0.00000000E+00  0.00000000E+00  2.08389836E+00  0.00000000E+00
  0.00000000E+00  2.08389836E+00  0.00000000E+00  0.00000000E+00  2.08389836E+00
  0.00000000E+00  0.00000000E+00  2.08389836E+00  0.00000000E+00  0.00000000E+00
  2.08389836E+00  0.00000000E+00  0.00000000E+00  2.08389836E+00  0.00000000E+00
  0.00000000E+00 -2.91488538E+00 -1.87487231E+00  2.64290023E-08 -2.91488538E+00
 -1.87487231E+00  2.64290023E-08 -2.91488538E+00 -1.87487231E+00  2.64290023E-08
 -2.91488538E+00 -1.87487231E+00  2.64290023E-08 -2.91481402E+00  1.87516206E+00
  2.75020156E-08 -2.91481402E+00  1.87516206E+00  2.75020156E-08 -2.91481402E+00
  1.87516206E+00  2.75020156E-08 -2.91481402E+00  1.87516206E+00  2.75020156E-08
  2.91488554E+00  1.87487237E+00  8.04177988E-09  2.91488554E+00  1.87487237E+00
  8.04177988E-09  2.91488554E+00  1.87487237E+00  8.04177988E-09  2.91488554E+00
  1.87487237E+00  8.04177988E-09  2.91481418E+00 -1.87516212E+00  9.12425439E-09
  2.91481418E+00 -1.87516212E+00  9.12425439E-09  2.91481418E+00 -1.87516212E+00
  9.12425439E-09  2.91481418E+00 -1.87516212E+00  9.12425439E-09
Num ILSW                                   I              100
ILSW                                       I   N=         100
           1           0           0           1           2           0
           0           0           0           0        4336          -1
           7           0           0           0           2           0
           0           0           0           0           1           0
           1           1           0           0           0           0
           0           0      100000           0          -1           0
           0           0           0           0           0           0
           0           0           0           1           0           0
           0 -2000000000           1           0           0           0
           0           0           4          52           0           0
           0           0          55           0           0           0
           0           0           0           6           0           1
           0           0           0           0           0           0
           0           0           0           0           0           0
           0           0           0           0           0           0
           0           0           0           0           0           0
           0           0           0           0
Num RLSW                                   I               52
RLSW                                       R   N=          52
  1.00000000E+00  1.00000000E+00  1.00000000E+00  1.00000000E+00  5.40000000E-01
  0.00000000E+00  0.00000000E+00  1.00000000E+00  0.00000000E+00  0.00000000E+00
  0.00000000E+00  0.00000000E+00  1.00000000E+00  0.00000000E+00  0.00000000E+00
  0.00000000E+00  0.00000000E+00  1.00000000E+00  0.00000000E+00  0.00000000E+00
  0.00000000E+00  0.00000000E+00  1.00000000E+00  0.00000000E+00  0.00000000E+00
  0.00000000E+00  0.00000000E+00  1.00000000E+00  0.00000000E+00  0.00000000E+00
  0.00000000E+00  0.00000000E+00  1.00000000E+00  0.00000000E+00  0.00000000E+00
  0.00000000E+00  0.00000000E+00  0.00000000E+00  1.00000000E+00  1.00000000E+00
  0.00000000E+00  1.00000000E+00  0.00000000E+00  0.00000000E+00  0.00000000E+00
  0.00000000E+00  0.00000000E+00  0.00000000E+00  0.00000000E+00  0.00000000E+00
  0.00000000E+00  0.00000000E+00
MxBond                                     I                3
NBond                                      I   N=           6
           3           3           1           1           1           1
IBond                                      I   N=          18
           2           3           4           1           5           6
           1           0           0           1           0           0
           2           0           0           2           0           0
RBond                                      R   N=          18
  1.00000000E-01  1.00000000E+00  1.00000000E+00  1.00000000E-01  1.00000000E+00
  1.00000000E+00  1.00000000E+00  0.00000000E+00  0.00000000E+00  1.00000000E+00
  0.00000000E+00  0.00000000E+00  1.00000000E+00  0.00000000E+00  0.00000000E+00
  1.00000000E+00  0.00000000E+00  0.00000000E+00
Virial Ratio                               R      2.010125348621765E+00
SCF Energy                                 R     -7.802086579130845E+01
Total Energy                               R     -7.802086579130845E+01
S**2                                       R      7.521569460919277E-01
S**2 after annihilation                    R      7.500035467422334E-01
RMS Force                                  R      8.123446220567266E-05
RMS Density                                R      6.648252141003073E-09
Job Status                                 I                1
Nuclear derivative order                   I                1
External E-field                           R   N=          35
  0.00000000E+00  0.00000000E+00  0.00000000E+00  0.00000000E+00  0.00000000E+00
  0.00000000E+00  0.00000000E+00  0.00000000E+00  0.00000000E+00  0.00000000E+00
  0.00000000E+00  0.00000000E+00  0.00000000E+00  0.00000000E+00  0.00000000E+00
  0.00000000E+00  0.00000000E+00  0.00000000E+00  0.00000000E+00  0.00000000E+00
  0.00000000E+00  0.00000000E+00  0.00000000E+00  0.00000000E+00  0.00000000E+00
  0.00000000E+00  0.00000000E+00  0.00000000E+00  0.00000000E+00  0.00000000E+00
  0.00000000E+00  0.00000000E+00  0.00000000E+00  0.00000000E+00  0.00000000E+00
IOpCl                                      I                1
IROHF                                      I                0
Alpha Orbital Energies                     R   N=          68
 -1.09236812E+01 -1.09235674E+01 -1.05340611E+00 -1.00435402E+00 -8.02759172E-01
 -7.80451723E-01 -6.43119593E-01 -5.46927326E-01 -3.74919093E-01 -2.81350046E-01
 -1.39339428E-01 -1.09324794E-01 -1.03375142E-01 -8.17979449E-02 -7.52959681E-02
 -7.03984063E-02 -4.74576475E-02 -3.89975169E-02 -3.31937147E-02  5.32616409E-06
  1.92515931E-02  9.25094246E-02  1.79313869E-01  2.25912892E-01  2.41155607E-01
  3.21208158E-01  3.80309036E-01  4.03498594E-01  4.12316106E-01  4.34986617E-01
  4.55821613E-01  4.91673463E-01  5.26774123E-01  5.59272353E-01  8.01892183E-01
  8.12718320E-01  8.81040495E-01  9.03082576E-01  1.12982784E+00  1.13236465E+00
  1.14086030E+00  1.24756311E+00  1.26080692E+00  1.46956873E+00  1.48199444E+00
  1.48566996E+00  1.49020826E+00  1.59609427E+00  1.66093304E+00  1.74256586E+00
  1.74773131E+00  1.77850426E+00  2.12228184E+00  2.26274927E+00  2.26828684E+00
  2.33884405E+00  2.38040837E+00  2.39857926E+00  2.40178092E+00  2.41122884E+00
  2.45333069E+00  2.46651880E+00  2.52220372E+00  2.90754785E+00  3.40827969E+00
  3.44219768E+00  2.34983729E+01  2.35093758E+01
Beta Orbital Energies                      R   N=          68
 -1.09212572E+01 -1.09211873E+01 -1.02377722E+00 -9.81410759E-01 -7.98003871E-01
 -7.76853711E-01 -6.26598364E-01 -3.43838885E-01 -2.84391585E-01 -2.58859656E-01
 -1.51518482E-01 -1.12087556E-01 -1.04743409E-01 -7.55731211E-02 -7.38441825E-02
 -7.33394761E-02 -4.04247905E-02 -3.82746262E-02 -2.81245745E-02  5.30631799E-03
  9.96586274E-03  1.00954452E-01  1.80002242E-01  2.28642255E-01  2.45888666E-01
  3.36269242E-01  3.68947049E-01  4.13243248E-01  4.23186967E-01  4.23412608E-01
  4.71582996E-01  5.03902256E-01  5.31228729E-01  5.61208490E-01  8.32985420E-01
  8.41424556E-01  9.18430363E-01  9.32341360E-01  1.14252044E+00  1.15126720E+00
  1.15743937E+00  1.28145903E+00  1.28557033E+00  1.48396980E+00  1.50061650E+00
  1.50271187E+00  1.51839295E+00  1.60733606E+00  1.67328287E+00  1.75424735E+00
  1.76438219E+00  1.79450665E+00  2.15896992E+00  2.28153404E+00  2.29993623E+00
  2.35240005E+00  2.40161616E+00  2.41811134E+00  2.44176229E+00  2.44760544E+00
  2.49610521E+00  2.50762836E+00  2.54488181E+00  2.94325053E+00  3.45272991E+00
  3.48709412E+00  2.35107745E+01  2.35220610E+01
Alpha MO coefficients                      R   N=        4624
  3.98990870E-01  3.28064337E-01  5.44193661E-04  3.22611396E-08 -1.91185235E-11
  7.81731624E-03 -1.32990275E-03 -1.27179026E-06  5.35916397E-11 -1.89361128E-03
  1.12911253E-04  1.42503803E-09 -6.40416690E-12 -5.29313061E-04  2.97872611E-04
  5.03549600E-07 -8.41543814E-12 -8.55956387E-04 -1.30317795E-11  7.03504482E-13
 -9.74912822E-04  5.34456710E-07  3.99056899E-01  3.28118628E-01 -5.44294147E-04
 -3.22659323E-08 -1.29299646E-11  7.81864256E-03  1.33017310E-03  1.27199136E-06
  1.90643805E-11 -1.89411025E-03 -1.12861256E-04 -1.43755825E-09 -3.65412976E-12
 -5.29217341E-04 -2.98007997E-04 -5.03578385E-07  4.00437343E-13 -8.56080041E-04
  6.66354907E-12 -7.20693760E-13 -9.75106128E-04  5.34544134E-07  1.32252370E-04
 -2.25118539E-03  1.45008620E-03 -6.47312120E-04 -1.28502892E-03  2.02265573E-11
  1.32514308E-04 -2.24899329E-03  1.44847887E-03 -6.46799999E-04  1.28415521E-03
  2.09424732E-11  1.32267783E-04 -2.25153882E-03  1.45035162E-03  6.47410881E-04
  1.28524468E-03  5.64135824E-12  1.32529771E-04 -2.24934640E-03  1.44874409E-03
  6.46898678E-04 -1.28437083E-03  6.37405241E-12  3.99070717E-01  3.28127963E-01
  6.09105347E-04  2.98579449E-08 -1.92447875E-11  8.02183499E-03 -1.63705919E-03
 -1.23939907E-06  5.41262187E-11 -3.01013843E-03 -2.99160197E-04  7.80819427E-08
 -1.03594880E-11  5.65325722E-04  8.13855642E-04  1.77706621E-07 -1.12511107E-11
 -7.50048268E-04 -1.35507375E-11  6.70146454E-13 -1.17135958E-03  5.33583354E-07
 -3.99004690E-01 -3.28073673E-01  6.09015003E-04  2.98524426E-08  1.31839928E-11
 -8.02054029E-03 -1.63683865E-03 -1.23918459E-06 -1.83913477E-11  3.00982532E-03
 -2.99178960E-04  7.80815044E-08  3.45126151E-12 -5.65413563E-04  8.13806432E-04
  1.77622159E-07  6.48390172E-12  7.49906262E-04 -6.39583456E-12  6.87738732E-13
  1.17119777E-03 -5.33494068E-07  9.21443483E-05 -2.14212420E-03  1.60776217E-03
 -5.98080683E-04 -1.30666254E-03  2.07442264E-11  9.24536390E-05 -2.14016940E-03
  1.60649282E-03 -5.97578554E-04  1.30580103E-03  2.14715253E-11 -9.21226520E-05
  2.14175090E-03 -1.60752187E-03 -5.97973427E-04 -1.30644949E-03 -5.76468645E-12
 -9.24318984E-05  2.13979648E-03 -1.60625279E-03 -5.97471383E-04  1.30558812E-03
 -6.50829319E-12 -8.05270932E-02 -1.31102349E-01 -1.10242985E-02 -1.36443840E-05
  6.03698540E-10  3.63931462E-01 -1.08982101E-02 -1.43817275E-05  8.04033534E-10
  2.46369197E-01  3.94120522E-03 -4.92549326E-06  3.87571149E-10  7.41796250E-04
 -4.99615414E-03 -2.27597610E-06  1.02321637E-10 -4.96770008E-03 -1.29010662E-13
  3.11109777E-12 -2.26412397E-03  1.77300821E-06 -8.05270709E-02 -1.31102312E-01
  1.10242901E-02  1.36443301E-05  2.69985998E-10  3.63931363E-01  1.08981983E-02
  1.43816669E-05  2.77550683E-10  2.46369131E-01 -3.94120597E-03  4.92546633E-06
  2.13007300E-10  7.41792103E-04  4.99615569E-03  2.27597407E-06 -2.26591701E-11
 -4.96769481E-03  5.48557618E-11 -3.20812527E-12 -2.26411946E-03  1.77300745E-06
  7.01771794E-02  7.79736989E-02 -6.79583085E-03  4.57256738E-03  1.18726270E-02
 -1.30538274E-10  7.01524735E-02  7.79502955E-02 -6.78962274E-03  4.56976663E-03
 -1.18701232E-02 -1.37238673E-10  7.01771532E-02  7.79736773E-02 -6.79582896E-03
 -4.57256808E-03 -1.18726246E-02 -4.35224921E-11  7.01524474E-02  7.79502739E-02
 -6.78962086E-03 -4.56976734E-03  1.18701207E-02 -5.03353937E-11 -7.90689880E-02
 -1.29129703E-01 -4.22557985E-02 -1.95391746E-05  8.11397839E-10  3.63143189E-01
 -6.37603576E-02 -2.30508540E-05  1.14823212E-09  2.50898247E-01 -1.83096402E-02
 -8.14184261E-06  4.78423894E-10 -2.28935328E-02 -1.13530211E-02 -3.54331825E-07
  1.01695366E-10 -4.01910503E-03 -4.94874761E-11  4.88024124E-12 -1.01470631E-02
  2.65337243E-06  7.90690094E-02  1.29129737E-01 -4.22558046E-02 -1.95391193E-05
 -2.38234648E-10 -3.63143288E-01 -6.37603658E-02 -2.30507894E-05 -2.66109357E-10
 -2.50898321E-01 -1.83096420E-02 -8.14181605E-06 -1.38451399E-10  2.28935331E-02
 -1.13530239E-02 -3.54329885E-07 -5.81679490E-11  4.01910252E-03 -7.40335765E-11
  4.94662819E-12  1.01470612E-02 -2.65337043E-06  8.02330776E-02  9.17448055E-02
 -3.20557364E-03  3.30356035E-03  1.25966573E-02 -1.29569428E-10  8.01993725E-02
  9.17131942E-02 -3.20275945E-03  3.30059582E-03 -1.25934561E-02 -1.37078579E-10
 -8.02330934E-02 -9.17448311E-02  3.20557474E-03  3.30356344E-03  1.25966619E-02
  5.04345543E-11 -8.01993884E-02 -9.17132200E-02  3.20276056E-03  3.30059891E-03
 -1.25934607E-02  5.80312583E-11 -8.06856265E-06 -1.36228444E-05  3.02107252E-06
  1.59756407E-01  3.94820891E-11  4.04177211E-05  5.38035237E-07  2.30423541E-01
  5.61242027E-11  4.76959032E-05  2.16247438E-06  1.35260438E-01  3.23628663E-11
 -2.05849296E-06 -1.63759654E-06  3.54170736E-03  1.74683414E-12  2.30890377E-07
 -4.42038740E-12  4.49975732E-10 -1.50459364E-06 -1.15168032E-02  8.06853887E-06
  1.36228038E-05  3.02105581E-06  1.59756228E-01 -3.99942400E-11 -4.04175991E-05
  5.38016522E-07  2.30423295E-01 -5.68843149E-11 -4.76957461E-05  2.16246471E-06
  1.35260299E-01 -3.27021055E-11  2.05849884E-06 -1.63759096E-06  3.54169484E-03
 -1.75331262E-12 -2.30888584E-07 -4.56405238E-12  1.35818682E-10  1.50460324E-06
  1.15167892E-02 -1.04423355E-01 -1.36170554E-01 -9.09944169E-03 -7.66203515E-03
 -1.04983834E-02  2.24615249E-10  1.04434551E-01  1.36196510E-01  9.10301962E-03
  7.66124486E-03 -1.05023681E-02 -2.31363703E-10  1.04423236E-01  1.36170403E-01
  9.09943757E-03 -7.66202695E-03 -1.04983705E-02 -6.84485640E-11 -1.04434432E-01
 -1.36196359E-01 -9.10301549E-03  7.66123665E-03 -1.05023552E-02  7.53033957E-11
 -5.28095186E-06 -9.04980959E-06  2.27131449E-05  1.63416898E-01  4.96370768E-11
  2.67903619E-05  3.19070007E-05  2.32875526E-01  7.24117717E-11  3.97728500E-05
  1.94827759E-05  1.39692055E-01  4.37330030E-11  8.90775149E-07 -7.92574556E-07
  1.15705722E-02  8.84307893E-13  3.23299141E-07 -3.18341773E-12  4.51450556E-10
  1.15873182E-06 -1.74835794E-02 -5.28094228E-06 -9.04979297E-06 -2.27131727E-05
 -1.63417061E-01  5.03430318E-11  2.67903097E-05 -3.19070449E-05 -2.32875770E-01
  7.33293487E-11  3.97727846E-05 -1.94828044E-05 -1.39692201E-01  4.43043611E-11
  8.90789343E-07  7.92564068E-07 -1.15705752E-02  8.90608616E-13  3.23299000E-07
  3.31856238E-12 -1.16035159E-10  1.15872433E-06 -1.74835960E-02 -1.08849419E-01
 -1.46756683E-01 -1.00536023E-02 -8.12268607E-03 -1.09491187E-02  2.31834179E-10
  1.08842574E-01  1.46758265E-01  1.00555817E-02  8.12262915E-03 -1.09508508E-02
 -2.37837886E-10 -1.08849526E-01 -1.46756833E-01 -1.00536207E-02  8.12269460E-03
  1.09491284E-02  7.02250850E-11  1.08842681E-01  1.46758415E-01  1.00556001E-02
 -8.12263768E-03  1.09508604E-02 -7.63240076E-11 -1.00665314E-02 -1.67051689E-02
  1.77036043E-01 -1.86125672E-05 -2.72270772E-09  4.02953669E-02  2.83863163E-01
 -3.08621515E-05 -4.07047270E-09  1.08596988E-01  2.14108873E-01 -2.14092228E-05
 -3.06524502E-09  2.71167378E-03 -5.10313257E-03 -7.25038045E-07 -6.29348392E-11
  9.32037425E-05  1.54305545E-10 -4.34770968E-12  1.65108793E-02  2.36282698E-07
 -1.00665359E-02 -1.67051759E-02 -1.77036044E-01  1.86125901E-05 -5.64478740E-10
  4.02953860E-02 -2.83863162E-01  3.08621764E-05 -1.04514188E-09  1.08597005E-01
 -2.14108885E-01  2.14092294E-05 -5.47607802E-10  2.71167645E-03  5.10313005E-03
  7.25037216E-07 -1.36434277E-13  9.32063201E-05  5.62073363E-11  4.53222966E-12
  1.65108769E-02  2.36283479E-07 -5.23937779E-02 -8.45560656E-02 -2.27127263E-02
  6.53157694E-03 -7.94640258E-03 -5.73171278E-11 -5.24108990E-02 -8.45894643E-02
 -2.27241666E-02  6.52947480E-03  7.94731009E-03 -5.25700009E-11 -5.23937807E-02
 -8.45560716E-02 -2.27127274E-02 -6.53157528E-03  7.94640314E-03  7.74028105E-12
 -5.24109019E-02 -8.45894703E-02 -2.27241676E-02 -6.52947314E-03 -7.94731065E-03
  1.25506211E-11  7.52549959E-10  1.29405912E-09  1.48350709E-09 -6.16137077E-11
  1.89772167E-01 -4.27743205E-09  2.59834269E-09 -9.47436249E-11  3.03068015E-01
 -4.41606182E-09  1.94784247E-09 -6.16634908E-11  2.98870221E-01  1.21397707E-09
  5.17067759E-10  2.24581125E-12  1.19185895E-02 -1.56077398E-10  8.08803943E-03
 -1.17550158E-06 -2.20257701E-11  1.57452088E-12 -5.59701474E-11 -9.52452711E-11
 -2.53052425E-09  6.22117667E-11  1.89772107E-01  1.67837350E-10 -3.78665012E-09
  9.57221430E-11  3.03067925E-01  9.23363089E-10 -3.60254336E-09  6.29378023E-11
  2.98870135E-01 -7.60467799E-10  1.67351289E-10 -2.19161164E-12  1.19185886E-02
 -1.52338997E-11 -8.08804007E-03  1.17549673E-06 -3.68850094E-11  1.41530338E-12
  8.53643535E-10  1.06912990E-09  6.13442031E-11  1.80486772E-10  1.02926887E-10
  1.27518906E-02  8.41228169E-10  1.02325401E-09  2.76787753E-11  1.78980222E-10
 -1.06727755E-10  1.27502050E-02 -1.44212302E-10 -4.87846348E-10 -8.44181176E-11
 -1.51381440E-10  8.53678498E-11  1.27518848E-02 -1.56654654E-10 -5.33398177E-10
 -1.18185578E-10 -1.49899186E-10 -8.15200210E-11  1.27501991E-02  9.53021334E-10
  1.63622022E-09  5.86605395E-10 -5.16627302E-11  2.06598716E-01 -5.21296163E-09
  1.31934844E-09 -8.08494261E-11  3.26690141E-01 -7.74590491E-09  1.41723559E-09
 -1.01094413E-10  3.42918635E-01  1.13727904E-09  7.43302530E-10 -1.72293667E-11
  4.69086850E-02 -2.12192482E-10 -1.27109736E-02 -1.13705170E-06 -7.02747029E-11
 -1.29456600E-12 -5.77607805E-10 -9.68079267E-10 -1.59975746E-09 -5.22185451E-11
 -2.06598760E-01  2.91495686E-09 -2.60252358E-09 -8.11278115E-11 -3.26690220E-01
  4.65225602E-09 -2.24827696E-09 -1.01556800E-10 -3.42918718E-01 -1.39792981E-09
  3.03320790E-10 -1.78307893E-11 -4.69086968E-02  1.53483481E-10 -1.27109738E-02
 -1.13704774E-06  5.47473234E-11  1.60300030E-12  1.41409788E-09  2.51210662E-09
  1.15263762E-09  1.20478750E-10  2.12490386E-10  1.66367814E-02  1.42977387E-09
  2.54077413E-09  1.19326675E-09  1.19931305E-10 -2.22881733E-10  1.66345746E-02
 -8.52430914E-10 -1.49836751E-09 -6.60890564E-10 -7.33533664E-11  1.04636211E-10
 -1.66367836E-02 -8.68194998E-10 -1.52546994E-09 -7.02365244E-10 -7.40209214E-11
 -1.14667714E-10 -1.66345768E-02 -4.46383533E-02 -7.53125663E-02  2.02048064E-01
 -1.97228585E-06  1.79640682E-09  2.25481116E-01  3.02615223E-01 -8.75077703E-06
  3.26927964E-09  4.58658729E-01  4.22083518E-01 -9.58304334E-06  4.39801445E-09
  3.19264935E-01  1.96439438E-01 -3.68732324E-06  5.21592138E-10  1.46599291E-02
  1.35725424E-10 -2.39635050E-12 -1.76304586E-02 -9.53767919E-07  4.46383587E-02
  7.53125747E-02  2.02048048E-01 -1.97232656E-06 -7.04217269E-10 -2.25481140E-01
  3.02615196E-01 -8.75082388E-06 -9.96908370E-10 -4.58658779E-01  4.22083493E-01