 Entering Gaussian System, Link 0=g16
 Initial command:
 /home/szhao/Apps/g16/l1.exe "/home/szhao/tmp/Gau-21980.inp" -scrdir="/home/szhao/tmp/"
 Default is to use a total of  16 processors:
                               16 via shared-memory
                                1 via Linda
 Entering Link 1 = /home/szhao/Apps/g16/l1.exe PID=     21981.
  
 Copyright (c) 1988,1990,1992,1993,1995,1998,2003,2009,2016,
            Gaussian, Inc.  All Rights Reserved.
  
 This is part of the Gaussian(R) 16 program.  It is based on
 the Gaussian(R) 09 system (copyright 2009, Gaussian, Inc.),
 the Gaussian(R) 03 system (copyright 2003, Gaussian, Inc.),
 the Gaussian(R) 98 system (copyright 1998, Gaussian, Inc.),
 the Gaussian(R) 94 system (copyright 1995, Gaussian, Inc.),
 the Gaussian 92(TM) system (copyright 1992, Gaussian, Inc.),
 the Gaussian 90(TM) system (copyright 1990, Gaussian, Inc.),
 the Gaussian 88(TM) system (copyright 1988, Gaussian, Inc.),
 the Gaussian 86(TM) system (copyright 1986, Carnegie Mellon
 University), and the Gaussian 82(TM) system (copyright 1983,
 Carnegie Mellon University). Gaussian is a federally registered
 trademark of Gaussian, Inc.
  
 This software contains proprietary and confidential information,
 including trade secrets, belonging to Gaussian, Inc.
  
 This software is provided under written license and may be
 used, copied, transmitted, or stored only in accord with that
 written license.
  
 The following legend is applicable only to US Government
 contracts under FAR:
  
                    RESTRICTED RIGHTS LEGEND
  
 Use, reproduction and disclosure by the US Government is
 subject to restrictions as set forth in subparagraphs (a)
 and (c) of the Commercial Computer Software - Restricted
 Rights clause in FAR 52.227-19.
  
 Gaussian, Inc.
 340 Quinnipiac St., Bldg. 40, Wallingford CT 06492
  
  
 ---------------------------------------------------------------
 Warning -- This program may not be used in any manner that
 competes with the business of Gaussian, Inc. or will provide
 assistance to any competitor of Gaussian, Inc.  The licensee
 of this program is prohibited from giving any competitor of
 Gaussian, Inc. access to this program.  By using this program,
 the user acknowledges that Gaussian, Inc. is engaged in the
 business of creating and licensing software in the field of
 computational chemistry and represents and warrants to the
 licensee that it is not a competitor of Gaussian, Inc. and that
 it will not use this program in any manner prohibited above.
 ---------------------------------------------------------------
  

 Cite this work as:
 Gaussian 16, Revision A.03,
 M. J. Frisch, G. W. Trucks, H. B. Schlegel, G. E. Scuseria, 
 M. A. Robb, J. R. Cheeseman, G. Scalmani, V. Barone, 
 G. A. Petersson, H. Nakatsuji, X. Li, M. Caricato, A. V. Marenich, 
 J. Bloino, B. G. Janesko, R. Gomperts, B. Mennucci, H. P. Hratchian, 
 J. V. Ortiz, A. F. Izmaylov, J. L. Sonnenberg, D. Williams-Young, 
 F. Ding, F. Lipparini, F. Egidi, J. Goings, B. Peng, A. Petrone, 
 T. Henderson, D. Ranasinghe, V. G. Zakrzewski, J. Gao, N. Rega, 
 G. Zheng, W. Liang, M. Hada, M. Ehara, K. Toyota, R. Fukuda, 
 J. Hasegawa, M. Ishida, T. Nakajima, Y. Honda, O. Kitao, H. Nakai, 
 T. Vreven, K. Throssell, J. A. Montgomery, Jr., J. E. Peralta, 
 F. Ogliaro, M. J. Bearpark, J. J. Heyd, E. N. Brothers, K. N. Kudin, 
 V. N. Staroverov, T. A. Keith, R. Kobayashi, J. Normand, 
 K. Raghavachari, A. P. Rendell, J. C. Burant, S. S. Iyengar, 
 J. Tomasi, M. Cossi, J. M. Millam, M. Klene, C. Adamo, R. Cammi, 
 J. W. Ochterski, R. L. Martin, K. Morokuma, O. Farkas, 
 J. B. Foresman, and D. J. Fox, Gaussian, Inc., Wallingford CT, 2016.
 
 ******************************************
 Gaussian 16:  ES64L-G16RevA.03 25-Dec-2016
                21-Apr-2025 
 ******************************************
 %chk=opt.chk
 %mem=4GB
 %nprocshared=8
 Will use up to    8 processors via shared memory.
 --------------------------------------------
 #p opt UM062X/6-311+G** nosymm int=superfine
 --------------------------------------------
 1/18=20,19=15,26=5,38=1/1,3;
 2/9=110,12=2,15=1,17=6,18=5,40=1/2;
 3/5=4,6=6,7=111,11=2,25=1,30=1,71=1,74=-55,75=-7,116=2/1,2,3;
 4//1;
 5/5=2,38=5/2;
 6/7=2,8=2,9=2,10=2,28=1/1;
 7/30=1/1,2,3,16;
 1/18=20,19=15,26=5/3(2);
 2/9=110,15=1/2;
 99//99;
 2/9=110,15=1/2;
 3/5=4,6=6,7=111,11=2,25=1,30=1,71=1,74=-55,75=-7,116=2/1,2,3;
 4/5=5,16=3,69=1/1;
 5/5=2,38=5/2;
 7/30=1/1,2,3,16;
 1/18=20,19=15,26=5/3(-5);
 2/9=110,15=1/2;
 6/7=2,8=2,9=2,10=2,19=2,28=1/1;
 99/9=1/99;
 Leave Link    1 at Mon Apr 21 19:05:07 2025, MaxMem=   536870912 cpu:               1.4 elap:               0.2
 (Enter /home/szhao/Apps/g16/l101.exe)
 -------------------
 Title Card Required
 -------------------
 Symbolic Z-matrix:
 Charge =  0 Multiplicity = 1
 C                    -1   -1.70626   0.        0. 
 P                    -1    1.70626   0.        0. 
 H                    0     1.88635  -1.40534   0. 
 H                    0    -2.0564    1.01301   0.20044 
 H                    0     1.88635   0.10934   1.40108 
 H                    0    -2.05641  -0.27857  -0.99437 
 H                    0    -2.14171  -0.67759   0.73247 
 
 Add virtual bond connecting atoms P2         and C1         Dist= 6.45D+00.
 ITRead=  2  2  0  0  0  0  0
 MicOpt= -2 -2 -1 -1 -1 -1 -1
 NAtoms=      7 NQM=        5 NQMF=       2 NMMI=      0 NMMIF=      0
                NMic=       0 NMicF=      0.
                    Isotopes and Nuclear Properties:
 (Nuclear quadrupole moments (NQMom) in fm**2, nuclear magnetic moments (NMagM)
  in nuclear magnetons)

  Atom         1           2           3           4           5           6           7
 IAtWgt=          12          31           1           1           1           1           1
 AtmWgt=  12.0000000  30.9737634   1.0078250   1.0078250   1.0078250   1.0078250   1.0078250
 NucSpn=           0           1           1           1           1           1           1
 AtZEff=  -0.0000000  -0.0000000  -0.0000000  -0.0000000  -0.0000000  -0.0000000  -0.0000000
 NQMom=    0.0000000   0.0000000   0.0000000   0.0000000   0.0000000   0.0000000   0.0000000
 NMagM=    0.0000000   1.1316000   2.7928460   2.7928460   2.7928460   2.7928460   2.7928460
 AtZNuc=   6.0000000  15.0000000   1.0000000   1.0000000   1.0000000   1.0000000   1.0000000
 Leave Link  101 at Mon Apr 21 19:05:08 2025, MaxMem=   536870912 cpu:               3.3 elap:               0.4
 (Enter /home/szhao/Apps/g16/l103.exe)

 GradGradGradGradGradGradGradGradGradGradGradGradGradGradGradGradGradGrad
 Berny optimization.
 Initialization pass.
                           ----------------------------
                           !    Initial Parameters    !
                           ! (Angstroms and Degrees)  !
 --------------------------                            --------------------------
 ! Name  Definition              Value          Derivative Info.                !
 --------------------------------------------------------------------------------
 ! X1    R(1,-1)                -1.7063         Frozen                          !
 ! Y1    R(1,-2)                 0.0            Frozen                          !
 ! Z1    R(1,-3)                 0.0            Frozen                          !
 ! X2    R(2,-1)                 1.7063         Frozen                          !
 ! Y2    R(2,-2)                 0.0            Frozen                          !
 ! Z2    R(2,-3)                 0.0            Frozen                          !
 ! R1    R(1,4)                  1.0904         estimate D2E/DX2                !
 ! R2    R(1,6)                  1.0904         estimate D2E/DX2                !
 ! R3    R(1,7)                  1.0887         estimate D2E/DX2                !
 ! R4    R(2,3)                  1.4168         estimate D2E/DX2                !
 ! R5    R(2,5)                  1.4168         estimate D2E/DX2                !
 ! A1    A(2,1,4)              108.7301         estimate D2E/DX2                !
 ! A2    A(2,1,6)              108.7303         estimate D2E/DX2                !
 ! A3    A(2,1,7)              113.5765         estimate D2E/DX2                !
 ! A4    A(4,1,6)              107.5695         estimate D2E/DX2                !
 ! A5    A(4,1,7)              109.0326         estimate D2E/DX2                !
 ! A6    A(6,1,7)              109.0325         estimate D2E/DX2                !
 ! A7    A(1,2,3)               97.3022         estimate D2E/DX2                !
 ! A8    A(1,2,5)               97.3022         estimate D2E/DX2                !
 ! A9    A(3,2,5)               93.4621         estimate D2E/DX2                !
 ! D1    D(4,1,2,3)            168.8076         estimate D2E/DX2                !
 ! D2    D(4,1,2,5)             74.3454         estimate D2E/DX2                !
 ! D3    D(6,1,2,3)            -74.3502         estimate D2E/DX2                !
 ! D4    D(6,1,2,5)           -168.8124         estimate D2E/DX2                !
 ! D5    D(7,1,2,3)             47.2287         estimate D2E/DX2                !
 ! D6    D(7,1,2,5)            -47.2335         estimate D2E/DX2                !
 --------------------------------------------------------------------------------
 Trust Radius=3.00D-01 FncErr=1.00D-07 GrdErr=1.00D-07 EigMax=2.50D+02 EigMin=1.00D-04
 Number of steps in this run=     36 maximum allowed number of steps=    100.
 GradGradGradGradGradGradGradGradGradGradGradGradGradGradGradGradGradGrad

 Leave Link  103 at Mon Apr 21 19:05:08 2025, MaxMem=   536870912 cpu:               0.3 elap:               0.1
 (Enter /home/szhao/Apps/g16/l202.exe)
                          Input orientation:                          
 ---------------------------------------------------------------------
 Center     Atomic      Atomic             Coordinates (Angstroms)
 Number     Number       Type             X           Y           Z
 ---------------------------------------------------------------------
      1          6           0       -1.706264    0.000000    0.000000
      2         15           0        1.706264    0.000000    0.000000
      3          1           0        1.886347   -1.405338    0.000000
      4          1           0       -2.056403    1.013014    0.200443
      5          1           0        1.886347    0.109336    1.401080
      6          1           0       -2.056406   -0.278565   -0.994372
      7          1           0       -2.141711   -0.677591    0.732467
 ---------------------------------------------------------------------
                    Distance matrix (angstroms):
                    1          2          3          4          5
     1  C    0.000000
     2  P    3.412527   0.000000
     3  H    3.857696   1.416829   0.000000
     4  H    1.090400   3.901799   4.629674   0.000000
     5  H    3.857697   1.416831   2.063313   4.219412   0.000000
     6  H    1.090401   3.901801   4.219442   1.759477   4.629682
     7  H    1.088692   3.975242   4.158290   1.774393   4.158311
                    6          7
     6  H    0.000000
     7  H    1.774393   0.000000
 Symmetry turned off by external request.
 Stoichiometry    CH5P
 Framework group  C1[X(CH5P)]
 Deg. of freedom    15
 Full point group                 C1      NOp   1
 Rotational constants (GHZ):          72.0967051           3.8815193           3.8696068
 Leave Link  202 at Mon Apr 21 19:05:08 2025, MaxMem=   536870912 cpu:               0.1 elap:               0.0
 (Enter /home/szhao/Apps/g16/l301.exe)
 Standard basis: 6-311+G(d,p) (5D, 7F)
 Ernie: Thresh=  0.10000D-02 Tol=  0.10000D-05 Strict=F.
    82 basis functions,   126 primitive gaussians,    84 cartesian basis functions
    13 alpha electrons       13 beta electrons
       nuclear repulsion energy        43.5003097885 Hartrees.
 IExCor= 4336 DFT=T Ex+Corr=M062X ExCW=0 ScaHFX=  0.540000
 ScaDFX=  1.000000  1.000000  1.000000  1.000000 ScalE2=  1.000000  1.000000
 IRadAn=      7 IRanWt=     -1 IRanGd=            0 ICorTp=0 IEmpDi=  4
 NAtoms=    7 NActive=    7 NUniq=    7 SFac= 1.00D+00 NAtFMM=   60 NAOKFM=F Big=F
 Integral buffers will be    131072 words long.
 Raffenetti 2 integral format.
 Two-electron integral symmetry is turned off.
 Leave Link  301 at Mon Apr 21 19:05:09 2025, MaxMem=   536870912 cpu:               1.1 elap:               0.2
 (Enter /home/szhao/Apps/g16/l302.exe)
 NPDir=0 NMtPBC=     1 NCelOv=     1 NCel=       1 NClECP=     1 NCelD=      1
         NCelK=      1 NCelE2=     1 NClLst=     1 CellRange=     0.0.
 One-electron integrals computed using PRISM.
 NBasis=    82 RedAO= T EigKep=  4.88D-03  NBF=    82
 NBsUse=    82 1.00D-06 EigRej= -1.00D+00 NBFU=    82
 Precomputing XC quadrature grid using
 IXCGrd= 4 IRadAn=           7 IRanWt=          -1 IRanGd=           0 AccXCQ= 0.00D+00.
 Generated NRdTot=       0 NPtTot=           0 NUsed=           0 NTot=          32
 NSgBfM=    84    84    84    84    84 MxSgAt=     7 MxSgA2=     7.
 Leave Link  302 at Mon Apr 21 19:05:09 2025, MaxMem=   536870912 cpu:               2.3 elap:               0.3
 (Enter /home/szhao/Apps/g16/l303.exe)
 DipDrv:  MaxL=1.
 Leave Link  303 at Mon Apr 21 19:05:09 2025, MaxMem=   536870912 cpu:               1.1 elap:               0.2
 (Enter /home/szhao/Apps/g16/l401.exe)
 ExpMin= 3.48D-02 ExpMax= 7.75D+04 ExpMxC= 2.65D+03 IAcc=3 IRadAn=         7 AccDes= 0.00D+00
 Harris functional with IExCor= 1009 and IRadAn=       7 diagonalized for initial guess.
 HarFok:  IExCor= 1009 AccDes= 0.00D+00 IRadAn=         7 IDoV= 1 UseB2=F ITyADJ=14
 ICtDFT=  3500011 ScaDFX=  1.000000  1.000000  1.000000  1.000000
 FoFCou: FMM=F IPFlag=           0 FMFlag=      100000 FMFlg1=           0
         NFxFlg=           0 DoJE=T BraDBF=F KetDBF=T FulRan=T
         wScrn=  0.000000 ICntrl=       500 IOpCl=  0 I1Cent=   200000004 NGrid=           0
         NMat0=    1 NMatS0=      1 NMatT0=    0 NMatD0=    1 NMtDS0=    0 NMtDT0=    0
 Symmetry not used in FoFCou.
 Harris En= -382.183920033207    
 JPrj=0 DoOrth=F DoCkMO=F.
 Initial guess <Sx>= 0.0000 <Sy>= 0.0000 <Sz>= 0.0000 <S**2>=-0.0000 S=-0.0000
 Leave Link  401 at Mon Apr 21 19:05:10 2025, MaxMem=   536870912 cpu:               3.8 elap:               0.5
 (Enter /home/szhao/Apps/g16/l502.exe)
 Keep R1 and R2 ints in memory in canonical form, NReq=18891869.
 FoFCou: FMM=F IPFlag=           0 FMFlag=           0 FMFlg1=           0
         NFxFlg=           0 DoJE=F BraDBF=F KetDBF=F FulRan=T
         wScrn=  0.000000 ICntrl=       600 IOpCl=  0 I1Cent=           0 NGrid=           0
         NMat0=    1 NMatS0=   3403 NMatT0=    0 NMatD0=    1 NMtDS0=    0 NMtDT0=    0
 Symmetry not used in FoFCou.
 Two-electron integral symmetry not used.
 UHF open shell SCF:
 Using DIIS extrapolation, IDIIS=  1040.
 NGot=   536870912 LenX=   525271507 LenY=   525264010
 Requested convergence on RMS density matrix=1.00D-08 within 128 cycles.
 Requested convergence on MAX density matrix=1.00D-06.
 Requested convergence on             energy=1.00D-06.
 No special actions if energy rises.

 Cycle   1  Pass 1  IDiag  1:
 E= -381.957996876958    
 DIIS: error= 6.49D-02 at cycle   1 NSaved=   1.
 NSaved= 1 IEnMin= 1 EnMin= -381.957996876958     IErMin= 1 ErrMin= 6.49D-02
 ErrMax= 6.49D-02  0.00D+00 EMaxC= 1.00D-01 BMatC= 9.12D-01 BMatP= 9.12D-01
 IDIUse=3 WtCom= 3.51D-01 WtEn= 6.49D-01
 Coeff-Com:  0.100D+01
 Coeff-En:   0.100D+01
 Coeff:      0.100D+01
 Gap=    -0.146 Goal=   None    Shift=    0.000
 Gap=    -0.146 Goal=   None    Shift=    0.000
 GapD=   -0.146 DampG=0.250 DampE=0.500 DampFc=0.2500 IDamp=-1.
 Damping current iteration by 2.50D-01
 RMSDP=1.10D-02 MaxDP=3.56D-01              OVMax= 9.08D-01

 Cycle   2  Pass 1  IDiag  1:
 E= -382.104577524343     Delta-E=       -0.146580647385 Rises=F Damp=T
 DIIS: error= 2.16D-02 at cycle   2 NSaved=   2.
 NSaved= 2 IEnMin= 2 EnMin= -382.104577524343     IErMin= 2 ErrMin= 2.16D-02
 ErrMax= 2.16D-02  0.00D+00 EMaxC= 1.00D-01 BMatC= 1.62D-01 BMatP= 9.12D-01
 IDIUse=3 WtCom= 7.84D-01 WtEn= 2.16D-01
 Coeff-Com: -0.562D+00 0.156D+01
 Coeff-En:   0.000D+00 0.100D+01
 Coeff:     -0.440D+00 0.144D+01
 Gap=     0.465 Goal=   None    Shift=    0.000
 Gap=     0.465 Goal=   None    Shift=    0.000
 RMSDP=4.16D-03 MaxDP=6.99D-02 DE=-1.47D-01 OVMax= 5.23D-01

 Cycle   3  Pass 1  IDiag  1:
 E= -382.246209220021     Delta-E=       -0.141631695678 Rises=F Damp=F
 DIIS: error= 2.10D-02 at cycle   3 NSaved=   3.
 NSaved= 3 IEnMin= 3 EnMin= -382.246209220021     IErMin= 3 ErrMin= 2.10D-02
 ErrMax= 2.10D-02  0.00D+00 EMaxC= 1.00D-01 BMatC= 6.96D-02 BMatP= 1.62D-01
 IDIUse=3 WtCom= 7.90D-01 WtEn= 2.10D-01
 Coeff-Com:  0.261D+00-0.117D+00 0.857D+00
 Coeff-En:   0.772D-01 0.000D+00 0.923D+00
 Coeff:      0.222D+00-0.927D-01 0.871D+00
 Gap=     0.136 Goal=   None    Shift=    0.000
 Gap=     0.136 Goal=   None    Shift=    0.000
 RMSDP=2.08D-03 MaxDP=6.74D-02 DE=-1.42D-01 OVMax= 1.86D-01

 Cycle   4  Pass 1  IDiag  1:
 E= -382.263178570650     Delta-E=       -0.016969350629 Rises=F Damp=F
 DIIS: error= 9.43D-03 at cycle   4 NSaved=   4.
 NSaved= 4 IEnMin= 4 EnMin= -382.263178570650     IErMin= 4 ErrMin= 9.43D-03
 ErrMax= 9.43D-03  0.00D+00 EMaxC= 1.00D-01 BMatC= 2.04D-02 BMatP= 6.96D-02
 IDIUse=3 WtCom= 9.06D-01 WtEn= 9.43D-02
 Coeff-Com: -0.477D-01 0.947D-01 0.299D+00 0.654D+00
 Coeff-En:   0.000D+00 0.000D+00 0.300D+00 0.700D+00
 Coeff:     -0.432D-01 0.857D-01 0.299D+00 0.658D+00
 Gap=     0.144 Goal=   None    Shift=    0.000
 Gap=     0.144 Goal=   None    Shift=    0.000
 RMSDP=9.80D-04 MaxDP=3.17D-02 DE=-1.70D-02 OVMax= 9.46D-02

 Cycle   5  Pass 1  IDiag  1:
 E= -382.270962351609     Delta-E=       -0.007783780959 Rises=F Damp=F
 DIIS: error= 2.18D-03 at cycle   5 NSaved=   5.
 NSaved= 5 IEnMin= 5 EnMin= -382.270962351609     IErMin= 5 ErrMin= 2.18D-03
 ErrMax= 2.18D-03  0.00D+00 EMaxC= 1.00D-01 BMatC= 1.23D-03 BMatP= 2.04D-02
 IDIUse=3 WtCom= 9.78D-01 WtEn= 2.18D-02
 Coeff-Com:  0.649D-02-0.209D-01-0.739D-02 0.184D+00 0.838D+00
 Coeff-En:   0.000D+00 0.000D+00 0.000D+00 0.651D-01 0.935D+00
 Coeff:      0.635D-02-0.204D-01-0.723D-02 0.181D+00 0.840D+00
 Gap=     0.152 Goal=   None    Shift=    0.000
 Gap=     0.152 Goal=   None    Shift=    0.000
 RMSDP=2.65D-04 MaxDP=7.89D-03 DE=-7.78D-03 OVMax= 1.94D-02

 Cycle   6  Pass 1  IDiag  1:
 E= -382.271462078545     Delta-E=       -0.000499726937 Rises=F Damp=F
 DIIS: error= 2.76D-04 at cycle   6 NSaved=   6.
 NSaved= 6 IEnMin= 6 EnMin= -382.271462078545     IErMin= 6 ErrMin= 2.76D-04
 ErrMax= 2.76D-04  0.00D+00 EMaxC= 1.00D-01 BMatC= 3.77D-05 BMatP= 1.23D-03
 IDIUse=3 WtCom= 9.97D-01 WtEn= 2.76D-03
 Coeff-Com: -0.246D-02-0.103D-02-0.251D-01 0.421D-02 0.232D+00 0.792D+00
 Coeff-En:   0.000D+00 0.000D+00 0.000D+00 0.000D+00 0.000D+00 0.100D+01
 Coeff:     -0.246D-02-0.102D-02-0.250D-01 0.420D-02 0.232D+00 0.793D+00
 Gap=     0.151 Goal=   None    Shift=    0.000
 Gap=     0.151 Goal=   None    Shift=    0.000
 RMSDP=5.95D-05 MaxDP=1.32D-03 DE=-5.00D-04 OVMax= 3.92D-03

 Cycle   7  Pass 1  IDiag  1:
 E= -382.271481288779     Delta-E=       -0.000019210234 Rises=F Damp=F
 DIIS: error= 7.11D-05 at cycle   7 NSaved=   7.
 NSaved= 7 IEnMin= 7 EnMin= -382.271481288779     IErMin= 7 ErrMin= 7.11D-05
 ErrMax= 7.11D-05  0.00D+00 EMaxC= 1.00D-01 BMatC= 1.86D-06 BMatP= 3.77D-05
 IDIUse=1 WtCom= 1.00D+00 WtEn= 0.00D+00
 Coeff-Com:  0.482D-04 0.996D-03-0.679D-03-0.144D-01-0.582D-01 0.637D-01
 Coeff-Com:  0.101D+01
 Coeff:      0.482D-04 0.996D-03-0.679D-03-0.144D-01-0.582D-01 0.637D-01
 Coeff:      0.101D+01
 Gap=     0.151 Goal=   None    Shift=    0.000
 Gap=     0.151 Goal=   None    Shift=    0.000
 RMSDP=2.33D-05 MaxDP=2.82D-04 DE=-1.92D-05 OVMax= 1.65D-03

 Cycle   8  Pass 1  IDiag  1:
 E= -382.271483202695     Delta-E=       -0.000001913916 Rises=F Damp=F
 DIIS: error= 2.19D-05 at cycle   8 NSaved=   8.
 NSaved= 8 IEnMin= 8 EnMin= -382.271483202695     IErMin= 8 ErrMin= 2.19D-05
 ErrMax= 2.19D-05  0.00D+00 EMaxC= 1.00D-01 BMatC= 1.90D-07 BMatP= 1.86D-06
 IDIUse=1 WtCom= 1.00D+00 WtEn= 0.00D+00
 Coeff-Com:  0.178D-03-0.632D-04 0.214D-02 0.169D-02-0.189D-01-0.727D-01
 Coeff-Com: -0.170D+00 0.126D+01
 Coeff:      0.178D-03-0.632D-04 0.214D-02 0.169D-02-0.189D-01-0.727D-01
 Coeff:     -0.170D+00 0.126D+01
 Gap=     0.151 Goal=   None    Shift=    0.000
 Gap=     0.151 Goal=   None    Shift=    0.000
 RMSDP=1.02D-05 MaxDP=1.27D-04 DE=-1.91D-06 OVMax= 7.44D-04

 Cycle   9  Pass 1  IDiag  1:
 E= -382.271483446765     Delta-E=       -0.000000244070 Rises=F Damp=F
 DIIS: error= 4.65D-06 at cycle   9 NSaved=   9.
 NSaved= 9 IEnMin= 9 EnMin= -382.271483446765     IErMin= 9 ErrMin= 4.65D-06
 ErrMax= 4.65D-06  0.00D+00 EMaxC= 1.00D-01 BMatC= 7.80D-09 BMatP= 1.90D-07
 IDIUse=1 WtCom= 1.00D+00 WtEn= 0.00D+00
 Coeff-Com:  0.814D-05-0.606D-04 0.363D-03 0.131D-02 0.146D-02-0.919D-02
 Coeff-Com: -0.918D-01 0.231D+00 0.867D+00
 Coeff:      0.814D-05-0.606D-04 0.363D-03 0.131D-02 0.146D-02-0.919D-02
 Coeff:     -0.918D-01 0.231D+00 0.867D+00
 Gap=     0.151 Goal=   None    Shift=    0.000
 Gap=     0.151 Goal=   None    Shift=    0.000
 RMSDP=1.39D-06 MaxDP=2.49D-05 DE=-2.44D-07 OVMax= 8.20D-05

 Cycle  10  Pass 1  IDiag  1:
 E= -382.271483452061     Delta-E=       -0.000000005297 Rises=F Damp=F
 DIIS: error= 1.68D-06 at cycle  10 NSaved=  10.
 NSaved=10 IEnMin=10 EnMin= -382.271483452061     IErMin=10 ErrMin= 1.68D-06
 ErrMax= 1.68D-06  0.00D+00 EMaxC= 1.00D-01 BMatC= 8.45D-10 BMatP= 7.80D-09
 IDIUse=1 WtCom= 1.00D+00 WtEn= 0.00D+00
 Coeff-Com: -0.663D-05 0.790D-05-0.494D-05-0.107D-03 0.660D-03 0.157D-02
 Coeff-Com:  0.747D-02-0.663D-01 0.259D-01 0.103D+01
 Coeff:     -0.663D-05 0.790D-05-0.494D-05-0.107D-03 0.660D-03 0.157D-02
 Coeff:      0.747D-02-0.663D-01 0.259D-01 0.103D+01
 Gap=     0.151 Goal=   None    Shift=    0.000
 Gap=     0.151 Goal=   None    Shift=    0.000
 RMSDP=3.63D-07 MaxDP=4.19D-06 DE=-5.30D-09 OVMax= 2.18D-05

 Cycle  11  Pass 1  IDiag  1:
 E= -382.271483452526     Delta-E=       -0.000000000464 Rises=F Damp=F
 DIIS: error= 5.17D-07 at cycle  11 NSaved=  11.
 NSaved=11 IEnMin=11 EnMin= -382.271483452526     IErMin=11 ErrMin= 5.17D-07
 ErrMax= 5.17D-07  0.00D+00 EMaxC= 1.00D-01 BMatC= 6.23D-11 BMatP= 8.45D-10
 IDIUse=1 WtCom= 1.00D+00 WtEn= 0.00D+00
 Coeff-Com: -0.292D-05 0.584D-05-0.257D-05-0.524D-04 0.924D-04 0.245D-03
 Coeff-Com:  0.275D-02-0.104D-01-0.123D-01 0.952D-01 0.924D+00
 Coeff:     -0.292D-05 0.584D-05-0.257D-05-0.524D-04 0.924D-04 0.245D-03
 Coeff:      0.275D-02-0.104D-01-0.123D-01 0.952D-01 0.924D+00
 Gap=     0.151 Goal=   None    Shift=    0.000
 Gap=     0.151 Goal=   None    Shift=    0.000
 RMSDP=6.53D-08 MaxDP=1.41D-06 DE=-4.64D-10 OVMax= 4.30D-06

 Cycle  12  Pass 1  IDiag  1:
 E= -382.271483452553     Delta-E=       -0.000000000027 Rises=F Damp=F
 DIIS: error= 3.55D-08 at cycle  12 NSaved=  12.
 NSaved=12 IEnMin=12 EnMin= -382.271483452553     IErMin=12 ErrMin= 3.55D-08
 ErrMax= 3.55D-08  0.00D+00 EMaxC= 1.00D-01 BMatC= 3.67D-13 BMatP= 6.23D-11
 IDIUse=1 WtCom= 1.00D+00 WtEn= 0.00D+00
 Coeff-Com: -0.175D-06 0.323D-06-0.695D-06 0.437D-06-0.979D-05-0.339D-04
 Coeff-Com: -0.130D-03 0.856D-03-0.171D-02-0.278D-01 0.682D-01 0.961D+00
 Coeff:     -0.175D-06 0.323D-06-0.695D-06 0.437D-06-0.979D-05-0.339D-04
 Coeff:     -0.130D-03 0.856D-03-0.171D-02-0.278D-01 0.682D-01 0.961D+00
 Gap=     0.151 Goal=   None    Shift=    0.000
 Gap=     0.151 Goal=   None    Shift=    0.000
 RMSDP=1.41D-08 MaxDP=2.04D-07 DE=-2.69D-11 OVMax= 6.18D-07

 Cycle  13  Pass 1  IDiag  1:
 E= -382.271483452553     Delta-E=        0.000000000000 Rises=F Damp=F
 DIIS: error= 7.01D-09 at cycle  13 NSaved=  13.
 NSaved=13 IEnMin=12 EnMin= -382.271483452553     IErMin=13 ErrMin= 7.01D-09
 ErrMax= 7.01D-09  0.00D+00 EMaxC= 1.00D-01 BMatC= 2.04D-14 BMatP= 3.67D-13
 IDIUse=1 WtCom= 1.00D+00 WtEn= 0.00D+00
 Coeff-Com: -0.132D-07-0.249D-07-0.476D-06 0.158D-05-0.313D-05-0.408D-05
 Coeff-Com: -0.245D-04 0.202D-03 0.375D-03-0.118D-02-0.370D-01-0.370D-01
 Coeff-Com:  0.107D+01
 Coeff:     -0.132D-07-0.249D-07-0.476D-06 0.158D-05-0.313D-05-0.408D-05
 Coeff:     -0.245D-04 0.202D-03 0.375D-03-0.118D-02-0.370D-01-0.370D-01
 Coeff:      0.107D+01
 Gap=     0.151 Goal=   None    Shift=    0.000
 Gap=     0.151 Goal=   None    Shift=    0.000
 RMSDP=2.66D-09 MaxDP=4.19D-08 DE= 0.00D+00 OVMax= 1.01D-07

 SCF Done:  E(UM062X) =  -382.271483453     A.U. after   13 cycles
            NFock= 13  Conv=0.27D-08     -V/T= 2.0023
 <Sx>= 0.0000 <Sy>= 0.0000 <Sz>= 0.0000 <S**2>=-0.0000 S=-0.0000
 <L.S>=  0.00000000000    
 KE= 3.813919090812D+02 PE=-9.933581431471D+02 EE= 1.861944408249D+02
 Annihilation of the first spin contaminant:
 S**2 before annihilation    -0.0000,   after     0.0000
 Leave Link  502 at Mon Apr 21 19:05:22 2025, MaxMem=   536870912 cpu:              88.6 elap:              11.5
 (Enter /home/szhao/Apps/g16/l601.exe)
 Copying SCF densities to generalized density rwf, IOpCl= 1 IROHF=0.

 **********************************************************************

            Population analysis using the SCF density.

 **********************************************************************

 Alpha  occ. eigenvalues --  -78.04871 -10.57474  -6.87194  -4.98747  -4.98624
 Alpha  occ. eigenvalues --   -4.98432  -0.77200  -0.70689  -0.47132  -0.46765
 Alpha  occ. eigenvalues --   -0.45032  -0.35572  -0.26481
 Alpha virt. eigenvalues --   -0.11340   0.02012   0.03541   0.04045   0.04761
 Alpha virt. eigenvalues --    0.06441   0.06638   0.07281   0.07487   0.12620
 Alpha virt. eigenvalues --    0.16628   0.18703   0.19323   0.25452   0.29854
 Alpha virt. eigenvalues --    0.30584   0.33933   0.38064   0.42322   0.44973
 Alpha virt. eigenvalues --    0.45232   0.53570   0.59054   0.63846   0.63966
 Alpha virt. eigenvalues --    0.64981   0.68365   0.68605   0.73243   0.84214
 Alpha virt. eigenvalues --    0.87835   0.96123   1.06799   1.07225   1.37914
 Alpha virt. eigenvalues --    1.38404   1.44310   1.48877   1.50097   1.50809
 Alpha virt. eigenvalues --    1.57092   1.57322   1.61376   1.63211   1.67930
 Alpha virt. eigenvalues --    1.71069   1.71636   2.01571   2.02309   2.12316
 Alpha virt. eigenvalues --    2.18989   2.19571   2.39989   2.47929   2.48678
 Alpha virt. eigenvalues --    2.54821   2.54958   2.57236   2.64352   2.72844
 Alpha virt. eigenvalues --    2.99771   3.75054   3.77161   7.02188  14.00410
 Alpha virt. eigenvalues --   14.03637  14.04179  23.95695 163.29460
  Beta  occ. eigenvalues --  -78.04871 -10.57474  -6.87194  -4.98747  -4.98624
  Beta  occ. eigenvalues --   -4.98432  -0.77200  -0.70689  -0.47132  -0.46765
  Beta  occ. eigenvalues --   -0.45032  -0.35572  -0.26481
  Beta virt. eigenvalues --   -0.11340   0.02012   0.03541   0.04045   0.04761
  Beta virt. eigenvalues --    0.06441   0.06638   0.07281   0.07487   0.12620
  Beta virt. eigenvalues --    0.16628   0.18703   0.19323   0.25452   0.29854
  Beta virt. eigenvalues --    0.30584   0.33933   0.38064   0.42322   0.44973
  Beta virt. eigenvalues --    0.45232   0.53570   0.59054   0.63846   0.63966
  Beta virt. eigenvalues --    0.64981   0.68365   0.68605   0.73243   0.84214
  Beta virt. eigenvalues --    0.87835   0.96123   1.06799   1.07225   1.37914
  Beta virt. eigenvalues --    1.38404   1.44310   1.48877   1.50097   1.50809
  Beta virt. eigenvalues --    1.57092   1.57322   1.61376   1.63211   1.67930
  Beta virt. eigenvalues --    1.71069   1.71636   2.01571   2.02309   2.12316
  Beta virt. eigenvalues --    2.18989   2.19571   2.39989   2.47929   2.48678
  Beta virt. eigenvalues --    2.54821   2.54958   2.57236   2.64352   2.72844
  Beta virt. eigenvalues --    2.99771   3.75054   3.77161   7.02188  14.00410
  Beta virt. eigenvalues --   14.03637  14.04179  23.95695 163.29460
          Condensed to atoms (all electrons):
               1          2          3          4          5          6
     1  C    5.213466   0.167661  -0.006997   0.384964  -0.006997   0.384965
     2  P    0.167661  14.303842   0.263202  -0.004087   0.263205  -0.004087
     3  H   -0.006997   0.263202   0.763115   0.000084  -0.023392   0.000066
     4  H    0.384964  -0.004087   0.000084   0.517775   0.000066  -0.032209
     5  H   -0.006997   0.263205  -0.023392   0.000066   0.763114   0.000084
     6  H    0.384965  -0.004087   0.000066  -0.032209   0.000084   0.517774
     7  H    0.382707  -0.007184   0.000213  -0.030943   0.000213  -0.030943
               7
     1  C    0.382707
     2  P   -0.007184
     3  H    0.000213
     4  H   -0.030943
     5  H    0.000213
     6  H   -0.030943
     7  H    0.519732
          Atomic-Atomic Spin Densities.
               1          2          3          4          5          6
     1  C    0.000000  -0.000000   0.000000  -0.000000   0.000000  -0.000000
     2  P   -0.000000  -0.000000  -0.000000   0.000000  -0.000000   0.000000
     3  H    0.000000  -0.000000   0.000000  -0.000000   0.000000   0.000000
     4  H   -0.000000   0.000000  -0.000000  -0.000000  -0.000000  -0.000000
     5  H    0.000000  -0.000000   0.000000  -0.000000   0.000000  -0.000000
     6  H   -0.000000   0.000000   0.000000  -0.000000  -0.000000  -0.000000
     7  H   -0.000000  -0.000000  -0.000000  -0.000000   0.000000  -0.000000
               7
     1  C   -0.000000
     2  P   -0.000000
     3  H   -0.000000
     4  H   -0.000000
     5  H    0.000000
     6  H   -0.000000
     7  H   -0.000000
 Mulliken charges and spin densities:
               1          2
     1  C   -0.519769   0.000000
     2  P    0.017448  -0.000000
     3  H    0.003710   0.000000
     4  H    0.164350  -0.000000
     5  H    0.003707   0.000000
     6  H    0.164349  -0.000000
     7  H    0.166205  -0.000000
 Sum of Mulliken charges =  -0.00000   0.00000
 Mulliken charges and spin densities with hydrogens summed into heavy atoms:
               1          2
     1  C   -0.024864   0.000000
     2  P    0.024864  -0.000000
 Electronic spatial extent (au):  <R**2>=            363.5326
 Charge=             -0.0000 electrons
 Dipole moment (field-independent basis, Debye):
    X=             -0.2945    Y=             -0.5109    Z=              0.5523  Tot=              0.8079
 Quadrupole moment (field-independent basis, Debye-Ang):
   XX=            -18.9794   YY=            -22.6821   ZZ=            -22.8070
   XY=             -1.3911   XZ=              1.5038   YZ=              0.8004
 Traceless Quadrupole moment (field-independent basis, Debye-Ang):
   XX=              2.5101   YY=             -1.1926   ZZ=             -1.3175
   XY=             -1.3911   XZ=              1.5038   YZ=              0.8004
 Octapole moment (field-independent basis, Debye-Ang**2):
  XXX=            -36.4280  YYY=              3.2839  ZZZ=             -3.3861  XYY=            -11.9555
  XXY=             -2.0265  XXZ=              2.1907  XZZ=            -12.1934  YZZ=              0.3426
  YYZ=             -0.5345  XYZ=              1.5238
 Hexadecapole moment (field-independent basis, Debye-Ang**3):
 XXXX=           -442.6554 YYYY=            -48.3264 ZZZZ=            -48.6843 XXXY=             -0.7988
 XXXZ=              0.8634 YYYX=              3.0165 YYYZ=              1.0788 ZZZX=             -3.6487
 ZZZY=              1.2138 XXYY=            -80.1394 XXZZ=            -80.5307 YYZZ=            -16.7418
 XXYZ=              2.5064 YYXZ=             -2.6197 ZZXY=              2.7816
 N-N= 4.350030978847D+01 E-N=-9.933581434153D+02  KE= 3.813919090812D+02
                          Isotropic Fermi Contact Couplings
        Atom                 a.u.       MegaHertz       Gauss      10(-4) cm-1
     1  C(13)              0.00000       0.00000       0.00000       0.00000
     2  P(31)              0.00000       0.00000       0.00000       0.00000
     3  H(1)              -0.00000      -0.00000      -0.00000      -0.00000
     4  H(1)               0.00000       0.00000       0.00000       0.00000
     5  H(1)               0.00000       0.00000       0.00000       0.00000
     6  H(1)              -0.00000      -0.00000      -0.00000      -0.00000
     7  H(1)               0.00000       0.00000       0.00000       0.00000
 --------------------------------------------------------
       Center         ----  Spin Dipole Couplings  ----
                      3XX-RR        3YY-RR        3ZZ-RR
 --------------------------------------------------------
     1   Atom        0.000000      0.000000      0.000000
     2   Atom        0.000000      0.000000      0.000000
     3   Atom        0.000000      0.000000      0.000000
     4   Atom        0.000000      0.000000      0.000000
     5   Atom        0.000000      0.000000      0.000000
     6   Atom        0.000000      0.000000      0.000000
     7   Atom        0.000000      0.000000      0.000000
 --------------------------------------------------------
                        XY            XZ            YZ
 --------------------------------------------------------
     1   Atom        0.000000      0.000000      0.000000
     2   Atom        0.000000      0.000000      0.000000
     3   Atom        0.000000      0.000000      0.000000
     4   Atom        0.000000      0.000000      0.000000
     5   Atom        0.000000      0.000000      0.000000
     6   Atom        0.000000      0.000000      0.000000
     7   Atom        0.000000      0.000000      0.000000
 --------------------------------------------------------


 ---------------------------------------------------------------------------------
              Anisotropic Spin Dipole Couplings in Principal Axis System
 ---------------------------------------------------------------------------------

       Atom             a.u.   MegaHertz   Gauss  10(-4) cm-1        Axes

              Baa     0.0000     0.000     0.000     0.000  1.0000  0.0000  0.0000
     1 C(13)  Bbb     0.0000     0.000     0.000     0.000 -0.0000  1.0000  0.0000
              Bcc     0.0000     0.000     0.000     0.000  0.0000  0.0000  1.0000
 
              Baa     0.0000     0.000     0.000     0.000  1.0000  0.0000  0.0000
     2 P(31)  Bbb     0.0000     0.000     0.000     0.000 -0.0000  1.0000  0.0000
              Bcc     0.0000     0.000     0.000     0.000  0.0000  0.0000  1.0000
 
              Baa     0.0000     0.000     0.000     0.000  1.0000  0.0000  0.0000
     3 H(1)   Bbb     0.0000     0.000     0.000     0.000 -0.0000  1.0000  0.0000
              Bcc     0.0000     0.000     0.000     0.000  0.0000  0.0000  1.0000
 
              Baa     0.0000     0.000     0.000     0.000  1.0000  0.0000  0.0000
     4 H(1)   Bbb     0.0000     0.000     0.000     0.000 -0.0000  1.0000  0.0000
              Bcc     0.0000     0.000     0.000     0.000  0.0000  0.0000  1.0000
 
              Baa     0.0000     0.000     0.000     0.000  1.0000  0.0000  0.0000
     5 H(1)   Bbb     0.0000     0.000     0.000     0.000 -0.0000  1.0000  0.0000
              Bcc     0.0000     0.000     0.000     0.000  0.0000  0.0000  1.0000
 
              Baa     0.0000     0.000     0.000     0.000  1.0000  0.0000  0.0000
     6 H(1)   Bbb     0.0000     0.000     0.000     0.000 -0.0000  1.0000  0.0000
              Bcc     0.0000     0.000     0.000     0.000  0.0000  0.0000  1.0000
 
              Baa     0.0000     0.000     0.000     0.000  1.0000  0.0000  0.0000
     7 H(1)   Bbb     0.0000     0.000     0.000     0.000 -0.0000  1.0000  0.0000
              Bcc     0.0000     0.000     0.000     0.000  0.0000  0.0000  1.0000
 

 ---------------------------------------------------------------------------------

 No NMR shielding tensors so no spin-rotation constants.
 Leave Link  601 at Mon Apr 21 19:05:23 2025, MaxMem=   536870912 cpu:               1.9 elap:               0.4
 (Enter /home/szhao/Apps/g16/l701.exe)
 ... and contract with generalized density number  0.
 Compute integral first derivatives.
 Leave Link  701 at Mon Apr 21 19:05:23 2025, MaxMem=   536870912 cpu:               1.4 elap:               0.2
 (Enter /home/szhao/Apps/g16/l702.exe)
 L702 exits ... SP integral derivatives will be done elsewhere.
 Leave Link  702 at Mon Apr 21 19:05:23 2025, MaxMem=   536870912 cpu:               0.4 elap:               0.1
 (Enter /home/szhao/Apps/g16/l703.exe)
 Integral derivatives from FoFJK, PRISM(SPDF).
 Compute integral first derivatives, UseDBF=F ICtDFT=           0.
 Calling FoFJK, ICntrl=      2127 FMM=F ISym2X=0 I1Cent= 0 IOpClX= 1 NMat=1 NMatS=1 NMatT=0.
 FoFJK:  IHMeth= 1 ICntrl=    2127 DoSepK=F KAlg= 0 I1Cent=           0 FoldK=F
 IRaf=         0 NMat=       1 IRICut=       1 DoRegI=T DoRafI=F ISym2E= 0 IDoP0=0 IntGTp=1.
 FoFCou: FMM=F IPFlag=           0 FMFlag=      100000 FMFlg1=         800
         NFxFlg=           0 DoJE=F BraDBF=F KetDBF=F FulRan=T
         wScrn=  0.000000 ICntrl=      2127 IOpCl=  1 I1Cent=           0 NGrid=           0
         NMat0=    1 NMatS0=      1 NMatT0=    0 NMatD0=    1 NMtDS0=    0 NMtDT0=    0
 Symmetry not used in FoFCou.
 Leave Link  703 at Mon Apr 21 19:05:25 2025, MaxMem=   536870912 cpu:              11.8 elap:               1.5
 (Enter /home/szhao/Apps/g16/l716.exe)
 Dipole        =-1.15852124D-01-2.00994332D-01 2.17293674D-01
 -------------------------------------------------------------------
 Center     Atomic                   Forces (Hartrees/Bohr)
 Number     Number              X              Y              Z
 -------------------------------------------------------------------
      1        6          -0.000000000   -0.000000000   -0.000000000
      2       15          -0.000000000   -0.000000000   -0.000000000
      3        1          -0.003039186   -0.001110356    0.001962990
      4        1           0.016920577    0.004268649    0.003108055
      5        1          -0.003040319   -0.001890427    0.001254850
      6        1           0.016921217   -0.003428588   -0.004016153
      7        1           0.015673829   -0.004595175    0.004966955
 -------------------------------------------------------------------
 Cartesian Forces:  Max     0.016921217 RMS     0.006720861
 Leave Link  716 at Mon Apr 21 19:05:25 2025, MaxMem=   536870912 cpu:               0.6 elap:               0.1
 (Enter /home/szhao/Apps/g16/l103.exe)

 GradGradGradGradGradGradGradGradGradGradGradGradGradGradGradGradGradGrad
 Berny optimization.
 FormGI is forming the generalized inverse of G from B-inverse, IUseBI=4.
 Internal  Forces:  Max     0.049515622 RMS     0.013274625
 Search for a local minimum.
 Step number   1 out of a maximum of   36
 All quantities printed in internal units (Hartrees-Bohrs-Radians)
 RMS Force = .10098D-01 SwitMx=.10000D-02 MixMth= 1
 Mixed Optimization -- RFO/linear search
 Second derivative matrix not updated -- first step.
 ITU=  0
     Eigenvalues ---    0.00230   0.06270   0.06704   0.07377   0.16000
     Eigenvalues ---    0.16000   0.16000   0.16000   0.16000   0.21118
     Eigenvalues ---    0.21118   0.34766   0.34766   0.349641000.00000
     Eigenvalues --- 1000.000001000.000001000.000001000.000001000.00000
     Eigenvalues --- 1000.000001000.000001000.000001000.000001000.00000
     Eigenvalues --- 1000.00000
 RFO step:  Lambda=-1.20883943D-02 EMin= 2.30000000D-03
 Linear search not attempted -- first point.
 Iteration  1 RMS(Cart)=  0.08247793 RMS(Int)=  0.00551578
 Iteration  2 RMS(Cart)=  0.00560023 RMS(Int)=  0.00309346
 Iteration  3 RMS(Cart)=  0.00005328 RMS(Int)=  0.00309327
 Iteration  4 RMS(Cart)=  0.00000059 RMS(Int)=  0.00309327
 ITry= 1 IFail=0 DXMaxC= 2.10D-01 DCOld= 1.00D+10 DXMaxT= 3.00D-01 DXLimC= 3.00D+00 Rises=F
 Variable       Old X    -DE/DX   Delta X   Delta X   Delta X     New X
                                 (Linear)    (Quad)   (Total)
    X1       -3.22437   0.04952   0.00000   0.00000   0.00000  -3.22437
    Y1        0.00000  -0.00241   0.00000   0.00000   0.00000   0.00000
    Z1        0.00000   0.00261   0.00000   0.00000   0.00000   0.00000
    X2        3.22437  -0.00608   0.00000   0.00000   0.00000   3.22437
    Y2        0.00000  -0.00434   0.00000   0.00000   0.00000   0.00000
    Z2        0.00000   0.00467   0.00000   0.00000   0.00000   0.00000
    R1        2.06056  -0.00090   0.00000  -0.00249  -0.00249   2.05807
    R2        2.06056  -0.00090   0.00000  -0.00249  -0.00249   2.05807
    R3        2.05733  -0.00007   0.00000  -0.00019  -0.00019   2.05714
    R4        2.67742   0.00072   0.00000   0.00320   0.00320   2.68062
    R5        2.67742   0.00071   0.00000   0.00317   0.00317   2.68060
    A1        1.89770  -0.01766   0.00000  -0.10034  -0.10575   1.79195
    A2        1.89770  -0.01766   0.00000  -0.10035  -0.10576   1.79194
    A3        1.98228  -0.01672   0.00000  -0.10201  -0.10783   1.87445
    A4        1.87744   0.01853   0.00000   0.11824   0.11196   1.98940
    A5        1.90298   0.01766   0.00000   0.09793   0.09053   1.99351
    A6        1.90298   0.01766   0.00000   0.09794   0.09054   1.99351
    A7        1.69824  -0.00854   0.00000  -0.05261  -0.05276   1.64548
    A8        1.69824  -0.00854   0.00000  -0.05261  -0.05277   1.64548
    A9        1.63122  -0.00067   0.00000  -0.02577  -0.02779   1.60343
    D1        2.94625  -0.00282   0.00000  -0.03525  -0.03421   2.91204
    D2        1.29757   0.00023   0.00000   0.00555   0.00526   1.30283
    D3       -1.29766  -0.00023   0.00000  -0.00509  -0.00479  -1.30245
    D4       -2.94633   0.00282   0.00000   0.03571   0.03467  -2.91166
    D5        0.82430  -0.00152   0.00000  -0.02017  -0.01950   0.80480
    D6       -0.82438   0.00153   0.00000   0.02063   0.01996  -0.80442
         Item               Value     Threshold  Converged?
 Maximum Force            0.018527     0.000450     NO 
 RMS     Force            0.010098     0.000300     NO 
 Maximum Displacement     0.210238     0.001800     NO 
 RMS     Displacement     0.085741     0.001200     NO 
 Predicted change in Energy=-6.445848D-03
 Lowest energy point so far.  Saving SCF results.
 GradGradGradGradGradGradGradGradGradGradGradGradGradGradGradGradGradGrad

 Leave Link  103 at Mon Apr 21 19:05:26 2025, MaxMem=   536870912 cpu:               0.4 elap:               0.1
 (Enter /home/szhao/Apps/g16/l202.exe)
                          Input orientation:                          
 ---------------------------------------------------------------------
 Center     Atomic      Atomic             Coordinates (Angstroms)
 Number     Number       Type             X           Y           Z
 ---------------------------------------------------------------------
      1          6           0       -1.706264    0.000000    0.000000
      2         15           0        1.706264    0.000000    0.000000
      3          1           0        1.812109   -1.414294    0.027914
      4          1           0       -1.945160    1.039254    0.221311
      5          1           0        1.812101    0.082212    1.412165
      6          1           0       -1.945152   -0.301888   -1.018773
      7          1           0       -2.031764   -0.705236    0.762711
 ---------------------------------------------------------------------
                    Distance matrix (angstroms):
                    1          2          3          4          5
     1  C    0.000000
     2  P    3.412527   0.000000
     3  H    3.792090   1.418524   0.000000
     4  H    1.089082   3.802883   4.491588   0.000000
     5  H    3.792078   1.418510   2.038548   4.055992   0.000000
     6  H    1.089084   3.802877   4.055862   1.826601   4.491542
     7  H    1.088594   3.879682   3.977190   1.828623   3.977079
                    6          7
     6  H    0.000000
     7  H    1.828627   0.000000
 Symmetry turned off by external request.
 Stoichiometry    CH5P
 Framework group  C1[X(CH5P)]
 Deg. of freedom    15
 Full point group                 C1      NOp   1
 Rotational constants (GHZ):          69.4926255           3.9408125           3.9322770
 Leave Link  202 at Mon Apr 21 19:05:26 2025, MaxMem=   536870912 cpu:               0.1 elap:               0.1
 (Enter /home/szhao/Apps/g16/l301.exe)
 Standard basis: 6-311+G(d,p) (5D, 7F)
 Ernie: Thresh=  0.10000D-02 Tol=  0.10000D-05 Strict=F.
    82 basis functions,   126 primitive gaussians,    84 cartesian basis functions
    13 alpha electrons       13 beta electrons
       nuclear repulsion energy        43.6809006298 Hartrees.
 IExCor= 4336 DFT=T Ex+Corr=M062X ExCW=0 ScaHFX=  0.540000
 ScaDFX=  1.000000  1.000000  1.000000  1.000000 ScalE2=  1.000000  1.000000
 IRadAn=      7 IRanWt=     -1 IRanGd=            0 ICorTp=0 IEmpDi=  4
 NAtoms=    7 NActive=    7 NUniq=    7 SFac= 1.00D+00 NAtFMM=   60 NAOKFM=F Big=F
 Integral buffers will be    131072 words long.
 Raffenetti 2 integral format.
 Two-electron integral symmetry is turned off.
 Leave Link  301 at Mon Apr 21 19:05:26 2025, MaxMem=   536870912 cpu:               0.5 elap:               0.1
 (Enter /home/szhao/Apps/g16/l302.exe)
 NPDir=0 NMtPBC=     1 NCelOv=     1 NCel=       1 NClECP=     1 NCelD=      1
         NCelK=      1 NCelE2=     1 NClLst=     1 CellRange=     0.0.
 One-electron integrals computed using PRISM.
 NBasis=    82 RedAO= T EigKep=  4.41D-03  NBF=    82
 NBsUse=    82 1.00D-06 EigRej= -1.00D+00 NBFU=    82
 Precomputing XC quadrature grid using
 IXCGrd= 4 IRadAn=           7 IRanWt=          -1 IRanGd=           0 AccXCQ= 0.00D+00.
 Generated NRdTot=       0 NPtTot=           0 NUsed=           0 NTot=          32
 NSgBfM=    84    84    84    84    84 MxSgAt=     7 MxSgA2=     7.
 Leave Link  302 at Mon Apr 21 19:05:26 2025, MaxMem=   536870912 cpu:               1.7 elap:               0.2
 (Enter /home/szhao/Apps/g16/l303.exe)
 DipDrv:  MaxL=1.
 Leave Link  303 at Mon Apr 21 19:05:27 2025, MaxMem=   536870912 cpu:               0.4 elap:               0.1
 (Enter /home/szhao/Apps/g16/l401.exe)
 Initial guess from the checkpoint file:  "opt.chk"
 B after Tr=     0.013617   -0.003254    0.003498
         Rot=    1.000000    0.000055    0.000677    0.000629 Ang=   0.11 deg.
 Guess basis will be translated and rotated to current coordinates.
 JPrj=2 DoOrth=T DoCkMO=T.
 Initial guess <Sx>= 0.0000 <Sy>= 0.0000 <Sz>= 0.0000 <S**2>=-0.0000 S=-0.0000
 Generating alternative initial guess.
 ExpMin= 3.48D-02 ExpMax= 7.75D+04 ExpMxC= 2.65D+03 IAcc=3 IRadAn=         5 AccDes= 0.00D+00
 Harris functional with IExCor= 1009 and IRadAn=       5 diagonalized for initial guess.
 HarFok:  IExCor= 1009 AccDes= 0.00D+00 IRadAn=         5 IDoV= 1 UseB2=F ITyADJ=14
 ICtDFT=  3500011 ScaDFX=  1.000000  1.000000  1.000000  1.000000
 FoFCou: FMM=F IPFlag=           0 FMFlag=      100000 FMFlg1=           0
         NFxFlg=           0 DoJE=T BraDBF=F KetDBF=T FulRan=T
         wScrn=  0.000000 ICntrl=       500 IOpCl=  0 I1Cent=   200000004 NGrid=           0
         NMat0=    1 NMatS0=      1 NMatT0=    0 NMatD0=    1 NMtDS0=    0 NMtDT0=    0
 Symmetry not used in FoFCou.
 Harris En= -382.184704035687    
 Leave Link  401 at Mon Apr 21 19:05:27 2025, MaxMem=   536870912 cpu:               2.7 elap:               0.4
 (Enter /home/szhao/Apps/g16/l502.exe)
 Keep R1 and R2 ints in memory in canonical form, NReq=18891869.
 FoFCou: FMM=F IPFlag=           0 FMFlag=           0 FMFlg1=           0
         NFxFlg=           0 DoJE=F BraDBF=F KetDBF=F FulRan=T
         wScrn=  0.000000 ICntrl=       600 IOpCl=  0 I1Cent=           0 NGrid=           0
         NMat0=    1 NMatS0=   3403 NMatT0=    0 NMatD0=    1 NMtDS0=    0 NMtDT0=    0
 Symmetry not used in FoFCou.
 Two-electron integral symmetry not used.
 UHF open shell SCF:
 Using DIIS extrapolation, IDIIS=  1040.
 NGot=   536870912 LenX=   525271507 LenY=   525264010
 Requested convergence on RMS density matrix=1.00D-08 within 128 cycles.
 Requested convergence on MAX density matrix=1.00D-06.
 Requested convergence on             energy=1.00D-06.
 No special actions if energy rises.

 Cycle   1  Pass 1  IDiag  1:
 E= -382.278384709391    
 DIIS: error= 6.73D-03 at cycle   1 NSaved=   1.
 NSaved= 1 IEnMin= 1 EnMin= -382.278384709391     IErMin= 1 ErrMin= 6.73D-03
 ErrMax= 6.73D-03  0.00D+00 EMaxC= 1.00D-01 BMatC= 6.42D-03 BMatP= 6.42D-03
 IDIUse=3 WtCom= 9.33D-01 WtEn= 6.73D-02
 Coeff-Com:  0.100D+01
 Coeff-En:   0.100D+01
 Coeff:      0.100D+01
 Gap=     0.436 Goal=   None    Shift=    0.000
 Gap=     0.436 Goal=   None    Shift=    0.000
 GapD=    0.436 DampG=2.000 DampE=1.000 DampFc=2.0000 IDamp=-1.
 RMSDP=6.24D-04 MaxDP=8.54D-03              OVMax= 3.44D-02

 Cycle   2  Pass 1  IDiag  1:
 E= -382.280761187976     Delta-E=       -0.002376478585 Rises=F Damp=F
 DIIS: error= 1.44D-03 at cycle   2 NSaved=   2.
 NSaved= 2 IEnMin= 2 EnMin= -382.280761187976     IErMin= 2 ErrMin= 1.44D-03
 ErrMax= 1.44D-03  0.00D+00 EMaxC= 1.00D-01 BMatC= 5.29D-04 BMatP= 6.42D-03
 IDIUse=3 WtCom= 9.86D-01 WtEn= 1.44D-02
 Coeff-Com: -0.134D-01 0.101D+01
 Coeff-En:   0.000D+00 0.100D+01
 Coeff:     -0.133D-01 0.101D+01
 Gap=     0.151 Goal=   None    Shift=    0.000
 Gap=     0.151 Goal=   None    Shift=    0.000
 RMSDP=4.26D-04 MaxDP=1.30D-02 DE=-2.38D-03 OVMax= 3.48D-02

 Cycle   3  Pass 1  IDiag  1:
 E= -382.280004926691     Delta-E=        0.000756261285 Rises=F Damp=F
 DIIS: error= 3.11D-03 at cycle   3 NSaved=   3.
 NSaved= 3 IEnMin= 2 EnMin= -382.280761187976     IErMin= 2 ErrMin= 1.44D-03
 ErrMax= 3.11D-03  0.00D+00 EMaxC= 1.00D-01 BMatC= 2.52D-03 BMatP= 5.29D-04
 IDIUse=3 WtCom= 1.52D-01 WtEn= 8.48D-01
 Coeff-Com: -0.537D-01 0.750D+00 0.304D+00
 Coeff-En:   0.000D+00 0.778D+00 0.222D+00
 Coeff:     -0.817D-02 0.774D+00 0.235D+00
 Gap=     0.151 Goal=   None    Shift=    0.000
 Gap=     0.151 Goal=   None    Shift=    0.000
 RMSDP=2.40D-04 MaxDP=7.83D-03 DE= 7.56D-04 OVMax= 2.28D-02

 Cycle   4  Pass 1  IDiag  1:
 E= -382.280999404401     Delta-E=       -0.000994477710 Rises=F Damp=F
 DIIS: error= 4.52D-04 at cycle   4 NSaved=   4.
 NSaved= 4 IEnMin= 4 EnMin= -382.280999404401     IErMin= 4 ErrMin= 4.52D-04
 ErrMax= 4.52D-04  0.00D+00 EMaxC= 1.00D-01 BMatC= 4.82D-05 BMatP= 5.29D-04
 IDIUse=3 WtCom= 9.95D-01 WtEn= 4.52D-03
 Coeff-Com: -0.224D-01 0.727D-01-0.106D+00 0.106D+01
 Coeff-En:   0.000D+00 0.000D+00 0.000D+00 0.100D+01
 Coeff:     -0.223D-01 0.724D-01-0.106D+00 0.106D+01
 Gap=     0.151 Goal=   None    Shift=    0.000
 Gap=     0.151 Goal=   None    Shift=    0.000
 RMSDP=6.66D-05 MaxDP=1.69D-03 DE=-9.94D-04 OVMax= 5.17D-03

 Cycle   5  Pass 1  IDiag  1:
 E= -382.281026027501     Delta-E=       -0.000026623101 Rises=F Damp=F
 DIIS: error= 9.82D-05 at cycle   5 NSaved=   5.
 NSaved= 5 IEnMin= 5 EnMin= -382.281026027501     IErMin= 5 ErrMin= 9.82D-05
 ErrMax= 9.82D-05  0.00D+00 EMaxC= 1.00D-01 BMatC= 2.53D-06 BMatP= 4.82D-05
 IDIUse=1 WtCom= 1.00D+00 WtEn= 0.00D+00
 Coeff-Com:  0.115D-02-0.509D-01-0.143D-01 0.128D+00 0.936D+00
 Coeff:      0.115D-02-0.509D-01-0.143D-01 0.128D+00 0.936D+00
 Gap=     0.151 Goal=   None    Shift=    0.000
 Gap=     0.151 Goal=   None    Shift=    0.000
 RMSDP=1.87D-05 MaxDP=3.10D-04 DE=-2.66D-05 OVMax= 1.17D-03

 Cycle   6  Pass 1  IDiag  1:
 E= -382.281027633316     Delta-E=       -0.000001605815 Rises=F Damp=F
 DIIS: error= 3.17D-05 at cycle   6 NSaved=   6.
 NSaved= 6 IEnMin= 6 EnMin= -382.281027633316     IErMin= 6 ErrMin= 3.17D-05
 ErrMax= 3.17D-05  0.00D+00 EMaxC= 1.00D-01 BMatC= 2.77D-07 BMatP= 2.53D-06
 IDIUse=1 WtCom= 1.00D+00 WtEn= 0.00D+00
 Coeff-Com:  0.300D-02-0.241D-01 0.130D-01-0.951D-01 0.214D+00 0.889D+00
 Coeff:      0.300D-02-0.241D-01 0.130D-01-0.951D-01 0.214D+00 0.889D+00
 Gap=     0.151 Goal=   None    Shift=    0.000
 Gap=     0.151 Goal=   None    Shift=    0.000
 RMSDP=6.72D-06 MaxDP=9.15D-05 DE=-1.61D-06 OVMax= 4.90D-04

 Cycle   7  Pass 1  IDiag  1:
 E= -382.281027826672     Delta-E=       -0.000000193356 Rises=F Damp=F
 DIIS: error= 4.67D-06 at cycle   7 NSaved=   7.
 NSaved= 7 IEnMin= 7 EnMin= -382.281027826672     IErMin= 7 ErrMin= 4.67D-06
 ErrMax= 4.67D-06  0.00D+00 EMaxC= 1.00D-01 BMatC= 7.70D-09 BMatP= 2.77D-07
 IDIUse=1 WtCom= 1.00D+00 WtEn= 0.00D+00
 Coeff-Com: -0.545D-03 0.832D-02-0.377D-03-0.646D-03-0.104D+00-0.144D+00
 Coeff-Com:  0.124D+01
 Coeff:     -0.545D-03 0.832D-02-0.377D-03-0.646D-03-0.104D+00-0.144D+00
 Coeff:      0.124D+01
 Gap=     0.151 Goal=   None    Shift=    0.000
 Gap=     0.151 Goal=   None    Shift=    0.000
 RMSDP=2.60D-06 MaxDP=3.62D-05 DE=-1.93D-07 OVMax= 1.89D-04

 Cycle   8  Pass 1  IDiag  1:
 E= -382.281027840893     Delta-E=       -0.000000014221 Rises=F Damp=F
 DIIS: error= 2.19D-06 at cycle   8 NSaved=   8.
 NSaved= 8 IEnMin= 8 EnMin= -382.281027840893     IErMin= 8 ErrMin= 2.19D-06
 ErrMax= 2.19D-06  0.00D+00 EMaxC= 1.00D-01 BMatC= 9.59D-10 BMatP= 7.70D-09
 IDIUse=1 WtCom= 1.00D+00 WtEn= 0.00D+00
 Coeff-Com: -0.101D-03 0.100D-02-0.105D-02 0.367D-02-0.119D-01-0.204D-01
 Coeff-Com:  0.616D-04 0.103D+01
 Coeff:     -0.101D-03 0.100D-02-0.105D-02 0.367D-02-0.119D-01-0.204D-01
 Coeff:      0.616D-04 0.103D+01
 Gap=     0.151 Goal=   None    Shift=    0.000
 Gap=     0.151 Goal=   None    Shift=    0.000
 RMSDP=3.59D-07 MaxDP=5.72D-06 DE=-1.42D-08 OVMax= 1.69D-05

 Cycle   9  Pass 1  IDiag  1:
 E= -382.281027841379     Delta-E=       -0.000000000486 Rises=F Damp=F
 DIIS: error= 9.90D-08 at cycle   9 NSaved=   9.
 NSaved= 9 IEnMin= 9 EnMin= -382.281027841379     IErMin= 9 ErrMin= 9.90D-08
 ErrMax= 9.90D-08  0.00D+00 EMaxC= 1.00D-01 BMatC= 4.37D-12 BMatP= 9.59D-10
 IDIUse=1 WtCom= 1.00D+00 WtEn= 0.00D+00
 Coeff-Com:  0.874D-05-0.162D-03-0.451D-04 0.222D-03 0.198D-02 0.310D-02
 Coeff-Com: -0.286D-01 0.282D-01 0.995D+00
 Coeff:      0.874D-05-0.162D-03-0.451D-04 0.222D-03 0.198D-02 0.310D-02
 Coeff:     -0.286D-01 0.282D-01 0.995D+00
 Gap=     0.151 Goal=   None    Shift=    0.000
 Gap=     0.151 Goal=   None    Shift=    0.000
 RMSDP=4.75D-08 MaxDP=8.40D-07 DE=-4.86D-10 OVMax= 1.89D-06

 Cycle  10  Pass 1  IDiag  1:
 E= -382.281027841382     Delta-E=       -0.000000000003 Rises=F Damp=F
 DIIS: error= 2.54D-08 at cycle  10 NSaved=  10.
 NSaved=10 IEnMin=10 EnMin= -382.281027841382     IErMin=10 ErrMin= 2.54D-08
 ErrMax= 2.54D-08  0.00D+00 EMaxC= 1.00D-01 BMatC= 2.99D-13 BMatP= 4.37D-12
 IDIUse=1 WtCom= 1.00D+00 WtEn= 0.00D+00
 Coeff-Com:  0.583D-05-0.668D-04 0.494D-04-0.171D-03 0.798D-03 0.942D-03
 Coeff-Com: -0.246D-02-0.505D-01 0.100D+00 0.951D+00
 Coeff:      0.583D-05-0.668D-04 0.494D-04-0.171D-03 0.798D-03 0.942D-03
 Coeff:     -0.246D-02-0.505D-01 0.100D+00 0.951D+00
 Gap=     0.151 Goal=   None    Shift=    0.000
 Gap=     0.151 Goal=   None    Shift=    0.000
 RMSDP=1.27D-08 MaxDP=2.03D-07 DE=-3.18D-12 OVMax= 5.53D-07

 Cycle  11  Pass 1  IDiag  1:
 E= -382.281027841383     Delta-E=       -0.000000000001 Rises=F Damp=F
 DIIS: error= 1.14D-08 at cycle  11 NSaved=  11.
 NSaved=11 IEnMin=11 EnMin= -382.281027841383     IErMin=11 ErrMin= 1.14D-08
 ErrMax= 1.14D-08  0.00D+00 EMaxC= 1.00D-01 BMatC= 3.04D-14 BMatP= 2.99D-13
 IDIUse=1 WtCom= 1.00D+00 WtEn= 0.00D+00
 Coeff-Com:  0.271D-06-0.639D-06 0.193D-06-0.657D-05 0.328D-05 0.616D-04
 Coeff-Com:  0.634D-03-0.283D-02-0.338D-01 0.346D-01 0.100D+01
 Coeff:      0.271D-06-0.639D-06 0.193D-06-0.657D-05 0.328D-05 0.616D-04
 Coeff:      0.634D-03-0.283D-02-0.338D-01 0.346D-01 0.100D+01
 Gap=     0.151 Goal=   None    Shift=    0.000
 Gap=     0.151 Goal=   None    Shift=    0.000
 RMSDP=2.65D-09 MaxDP=4.56D-08 DE=-7.96D-13 OVMax= 1.46D-07

 SCF Done:  E(UM062X) =  -382.281027841     A.U. after   11 cycles
            NFock= 11  Conv=0.27D-08     -V/T= 2.0023
 <Sx>= 0.0000 <Sy>= 0.0000 <Sz>= 0.0000 <S**2>=-0.0000 S=-0.0000
 <L.S>=  0.00000000000    
 KE= 3.813886649495D+02 PE=-9.937784583487D+02 EE= 1.864278649280D+02
 Annihilation of the first spin contaminant:
 S**2 before annihilation    -0.0000,   after     0.0000
 Leave Link  502 at Mon Apr 21 19:05:37 2025, MaxMem=   536870912 cpu:              75.9 elap:               9.9
 (Enter /home/szhao/Apps/g16/l701.exe)
 ... and contract with generalized density number  0.
 Compute integral first derivatives.
 Leave Link  701 at Mon Apr 21 19:05:37 2025, MaxMem=   536870912 cpu:               1.1 elap:               0.2
 (Enter /home/szhao/Apps/g16/l702.exe)
 L702 exits ... SP integral derivatives will be done elsewhere.
 Leave Link  702 at Mon Apr 21 19:05:38 2025, MaxMem=   536870912 cpu:               0.4 elap:               0.1
 (Enter /home/szhao/Apps/g16/l703.exe)
 Integral derivatives from FoFJK, PRISM(SPDF).
 Compute integral first derivatives, UseDBF=F ICtDFT=           0.
 Calling FoFJK, ICntrl=      2127 FMM=F ISym2X=0 I1Cent= 0 IOpClX= 1 NMat=1 NMatS=1 NMatT=0.
 FoFJK:  IHMeth= 1 ICntrl=    2127 DoSepK=F KAlg= 0 I1Cent=           0 FoldK=F
 IRaf=         0 NMat=       1 IRICut=       1 DoRegI=T DoRafI=F ISym2E= 0 IDoP0=0 IntGTp=1.
 FoFCou: FMM=F IPFlag=           0 FMFlag=      100000 FMFlg1=         800
         NFxFlg=           0 DoJE=F BraDBF=F KetDBF=F FulRan=T
         wScrn=  0.000000 ICntrl=      2127 IOpCl=  1 I1Cent=           0 NGrid=           0
         NMat0=    1 NMatS0=      1 NMatT0=    0 NMatD0=    1 NMtDS0=    0 NMtDT0=    0
 Symmetry not used in FoFCou.
 Leave Link  703 at Mon Apr 21 19:05:39 2025, MaxMem=   536870912 cpu:              11.1 elap:               1.5
 (Enter /home/szhao/Apps/g16/l716.exe)
 Dipole        =-3.22279619D-01-1.99906688D-01 2.16116612D-01
 -------------------------------------------------------------------
 Center     Atomic                   Forces (Hartrees/Bohr)
 Number     Number              X              Y              Z
 -------------------------------------------------------------------
      1        6          -0.000000000   -0.000000000   -0.000000000
      2       15          -0.000000000   -0.000000000   -0.000000000
      3        1          -0.002153321   -0.000422688   -0.000056142
      4        1           0.009498879   -0.001415092    0.000206816
      5        1          -0.002149188    0.000086937    0.000413906
      6        1           0.009498945   -0.000095213    0.001426986
      7        1           0.009692358    0.000015487   -0.000019604
 -------------------------------------------------------------------
 Cartesian Forces:  Max     0.009692358 RMS     0.003703976
 Leave Link  716 at Mon Apr 21 19:05:39 2025, MaxMem=   536870912 cpu:               0.6 elap:               0.2
 (Enter /home/szhao/Apps/g16/l103.exe)

 GradGradGradGradGradGradGradGradGradGradGradGradGradGradGradGradGradGrad
 Berny optimization.
 Using GEDIIS/GDIIS optimizer.
 FormGI is forming the generalized inverse of G from B-inverse, IUseBI=4.
 Internal  Forces:  Max     0.028690182 RMS     0.007822706
 Search for a local minimum.
 Step number   2 out of a maximum of   36
 All quantities printed in internal units (Hartrees-Bohrs-Radians)
 RMS Force = .61058D-02 SwitMx=.10000D-02 MixMth= 1
 Mixed Optimization -- RFO/linear search
 Update second derivatives using D2CorX and points    1    2
 DE= -9.54D-03 DEPred=-6.45D-03 R= 1.48D+00
 TightC=F SS=  1.41D+00  RLast= 2.69D-01 DXNew= 5.0454D-01 8.0777D-01
 Trust test= 1.48D+00 RLast= 2.69D-01 DXMaxT set to 5.05D-01
 ITU=  1  0
 Use linear search instead of GDIIS.
     Eigenvalues ---    0.00230   0.06510   0.06660   0.07993   0.08589
     Eigenvalues ---    0.16000   0.16000   0.16000   0.16085   0.21118
     Eigenvalues ---    0.21119   0.34766   0.34871   0.354071000.00000
     Eigenvalues --- 1000.000001000.000001000.000001000.000001000.00000
     Eigenvalues --- 1000.000001000.000001000.000001000.000001000.00000
     Eigenvalues --- 1000.00000
 RFO step:  Lambda=-8.53953607D-04 EMin= 2.30000365D-03
 Quartic linear search produced a step of  1.22537.
 Iteration  1 RMS(Cart)=  0.12175542 RMS(Int)=  0.01747052
 Iteration  2 RMS(Cart)=  0.00930981 RMS(Int)=  0.01513702
 Iteration  3 RMS(Cart)=  0.00049764 RMS(Int)=  0.01513513
 Iteration  4 RMS(Cart)=  0.00006364 RMS(Int)=  0.01513510
 Iteration  5 RMS(Cart)=  0.00000813 RMS(Int)=  0.01513510
 Iteration  6 RMS(Cart)=  0.00000104 RMS(Int)=  0.01513510
 Iteration  7 RMS(Cart)=  0.00000013 RMS(Int)=  0.01513510
 ITry= 1 IFail=0 DXMaxC= 3.34D-01 DCOld= 1.00D+10 DXMaxT= 5.05D-01 DXLimC= 3.00D+00 Rises=F
 Variable       Old X    -DE/DX   Delta X   Delta X   Delta X     New X
                                 (Linear)    (Quad)   (Total)
    X1       -3.22437   0.02869   0.00000   0.00000   0.00000  -3.22437
    Y1        0.00000  -0.00070   0.00000   0.00000   0.00000   0.00000
    Z1        0.00000   0.00076   0.00000   0.00000   0.00000   0.00000
    X2        3.22437  -0.00430   0.00000   0.00000   0.00000   3.22437
    Y2        0.00000  -0.00113   0.00000   0.00000   0.00000   0.00000
    Z2        0.00000   0.00122   0.00000   0.00000   0.00000   0.00000
    R1        2.05807  -0.00339  -0.00305  -0.01890  -0.02196   2.03611
    R2        2.05807  -0.00339  -0.00305  -0.01891  -0.02196   2.03611
    R3        2.05714  -0.00292  -0.00023  -0.01858  -0.01881   2.03834
    R4        2.68062   0.00026   0.00392  -0.00131   0.00261   2.68323
    R5        2.68060   0.00026   0.00389  -0.00131   0.00258   2.68318
    A1        1.79195  -0.01140  -0.12958  -0.01033  -0.15308   1.63887
    A2        1.79194  -0.01141  -0.12959  -0.01034  -0.15310   1.63884
    A3        1.87445  -0.01179  -0.13214  -0.01968  -0.16530   1.70915
    A4        1.98940   0.00881   0.13719  -0.00380   0.09309   2.08249
    A5        1.99351   0.00918   0.11094   0.01752   0.08526   2.07876
    A6        1.99351   0.00918   0.11094   0.01747   0.08521   2.07873
    A7        1.64548  -0.00579  -0.06465  -0.01371  -0.07834   1.56714
    A8        1.64548  -0.00578  -0.06466  -0.01354  -0.07818   1.56730
    A9        1.60343   0.00061  -0.03406   0.04572   0.00544   1.60887
    D1        2.91204  -0.00064  -0.04192   0.02572  -0.01296   2.89908
    D2        1.30283  -0.00035   0.00644  -0.01816  -0.01263   1.29020
    D3       -1.30245   0.00035  -0.00587   0.01375   0.00879  -1.29366
    D4       -2.91166   0.00064   0.04248  -0.03012   0.00912  -2.90254
    D5        0.80480  -0.00015  -0.02389   0.01971  -0.00211   0.80269
    D6       -0.80442   0.00014   0.02446  -0.02417  -0.00178  -0.80619
         Item               Value     Threshold  Converged?
 Maximum Force            0.011792     0.000450     NO 
 RMS     Force            0.006106     0.000300     NO 
 Maximum Displacement     0.334001     0.001800     NO 
 RMS     Displacement     0.124148     0.001200     NO 
 Predicted change in Energy=-5.291785D-03
 Lowest energy point so far.  Saving SCF results.
 GradGradGradGradGradGradGradGradGradGradGradGradGradGradGradGradGradGrad

 Leave Link  103 at Mon Apr 21 19:05:40 2025, MaxMem=   536870912 cpu:               0.8 elap:               0.4
 (Enter /home/szhao/Apps/g16/l202.exe)
                          Input orientation:                          
 ---------------------------------------------------------------------
 Center     Atomic      Atomic             Coordinates (Angstroms)
 Number     Number       Type             X           Y           Z
 ---------------------------------------------------------------------
      1          6           0       -1.706264    0.000000    0.000000
      2         15           0        1.706264    0.000000    0.000000
      3          1           0        1.701072   -1.419581    0.029905
      4          1           0       -1.779554    1.048715    0.236113
      5          1           0        1.701301    0.083930    1.417385
      6          1           0       -1.779527   -0.315823   -1.027529
      7          1           0       -1.855018   -0.725908    0.783835
 ---------------------------------------------------------------------
                    Distance matrix (angstroms):
                    1          2          3          4          5
     1  C    0.000000
     2  P    3.412527   0.000000
     3  H    3.691346   1.419905   0.000000
     4  H    1.077462   3.647805   4.271974   0.000000
     5  H    3.691547   1.419876   2.045885   3.800338   0.000000
     6  H    1.077464   3.647780   3.801449   1.859773   4.272420
     7  H    1.078642   3.718073   3.700725   1.858759   3.701976
                    6          7
     6  H    0.000000
     7  H    1.858739   0.000000
 Symmetry turned off by external request.
 Stoichiometry    CH5P
 Framework group  C1[X(CH5P)]
 Deg. of freedom    15
 Full point group                 C1      NOp   1
 Rotational constants (GHZ):          68.0571764           4.0357830           4.0268299
 Leave Link  202 at Mon Apr 21 19:05:40 2025, MaxMem=   536870912 cpu:               0.1 elap:               0.1
 (Enter /home/szhao/Apps/g16/l301.exe)
 Standard basis: 6-311+G(d,p) (5D, 7F)
 Ernie: Thresh=  0.10000D-02 Tol=  0.10000D-05 Strict=F.
    82 basis functions,   126 primitive gaussians,    84 cartesian basis functions
    13 alpha electrons       13 beta electrons
       nuclear repulsion energy        44.1058847151 Hartrees.
 IExCor= 4336 DFT=T Ex+Corr=M062X ExCW=0 ScaHFX=  0.540000
 ScaDFX=  1.000000  1.000000  1.000000  1.000000 ScalE2=  1.000000  1.000000
 IRadAn=      7 IRanWt=     -1 IRanGd=            0 ICorTp=0 IEmpDi=  4
 NAtoms=    7 NActive=    7 NUniq=    7 SFac= 1.00D+00 NAtFMM=   60 NAOKFM=F Big=F
 Integral buffers will be    131072 words long.
 Raffenetti 2 integral format.
 Two-electron integral symmetry is turned off.
 Leave Link  301 at Mon Apr 21 19:05:41 2025, MaxMem=   536870912 cpu:               0.7 elap:               0.3
 (Enter /home/szhao/Apps/g16/l302.exe)
 NPDir=0 NMtPBC=     1 NCelOv=     1 NCel=       1 NClECP=     1 NCelD=      1
         NCelK=      1 NCelE2=     1 NClLst=     1 CellRange=     0.0.
 One-electron integrals computed using PRISM.
 NBasis=    82 RedAO= T EigKep=  4.10D-03  NBF=    82
 NBsUse=    82 1.00D-06 EigRej= -1.00D+00 NBFU=    82
 Precomputing XC quadrature grid using
 IXCGrd= 4 IRadAn=           7 IRanWt=          -1 IRanGd=           0 AccXCQ= 0.00D+00.
 Generated NRdTot=       0 NPtTot=           0 NUsed=           0 NTot=          32
 NSgBfM=    84    84    84    84    84 MxSgAt=     7 MxSgA2=     7.
 Leave Link  302 at Mon Apr 21 19:05:41 2025, MaxMem=   536870912 cpu:               1.4 elap:               0.2
 (Enter /home/szhao/Apps/g16/l303.exe)
 DipDrv:  MaxL=1.
 Leave Link  303 at Mon Apr 21 19:05:41 2025, MaxMem=   536870912 cpu:               0.6 elap:               0.1
 (Enter /home/szhao/Apps/g16/l401.exe)
 Initial guess from the checkpoint file:  "opt.chk"
 B after Tr=     0.021082   -0.000825    0.001041
         Rot=    0.999999    0.000126    0.000756    0.000679 Ang=   0.12 deg.
 Guess basis will be translated and rotated to current coordinates.
 JPrj=2 DoOrth=T DoCkMO=T.
 Initial guess <Sx>= 0.0000 <Sy>= 0.0000 <Sz>= 0.0000 <S**2>=-0.0000 S=-0.0000
 Generating alternative initial guess.
 ExpMin= 3.48D-02 ExpMax= 7.75D+04 ExpMxC= 2.65D+03 IAcc=3 IRadAn=         5 AccDes= 0.00D+00
 Harris functional with IExCor= 1009 and IRadAn=       5 diagonalized for initial guess.
 HarFok:  IExCor= 1009 AccDes= 0.00D+00 IRadAn=         5 IDoV= 1 UseB2=F ITyADJ=14
 ICtDFT=  3500011 ScaDFX=  1.000000  1.000000  1.000000  1.000000
 FoFCou: FMM=F IPFlag=           0 FMFlag=      100000 FMFlg1=           0
         NFxFlg=           0 DoJE=T BraDBF=F KetDBF=T FulRan=T
         wScrn=  0.000000 ICntrl=       500 IOpCl=  0 I1Cent=   200000004 NGrid=           0
         NMat0=    1 NMatS0=      1 NMatT0=    0 NMatD0=    1 NMtDS0=    0 NMtDT0=    0
 Symmetry not used in FoFCou.
 Harris En= -382.185277833466    
 Leave Link  401 at Mon Apr 21 19:05:42 2025, MaxMem=   536870912 cpu:               2.8 elap:               0.4
 (Enter /home/szhao/Apps/g16/l502.exe)
 Keep R1 and R2 ints in memory in canonical form, NReq=18891869.
 FoFCou: FMM=F IPFlag=           0 FMFlag=           0 FMFlg1=           0
         NFxFlg=           0 DoJE=F BraDBF=F KetDBF=F FulRan=T
         wScrn=  0.000000 ICntrl=       600 IOpCl=  0 I1Cent=           0 NGrid=           0
         NMat0=    1 NMatS0=   3403 NMatT0=    0 NMatD0=    1 NMtDS0=    0 NMtDT0=    0
 Symmetry not used in FoFCou.
 Two-electron integral symmetry not used.
 UHF open shell SCF:
 Using DIIS extrapolation, IDIIS=  1040.
 NGot=   536870912 LenX=   525271507 LenY=   525264010
 Requested convergence on RMS density matrix=1.00D-08 within 128 cycles.
 Requested convergence on MAX density matrix=1.00D-06.
 Requested convergence on             energy=1.00D-06.
 No special actions if energy rises.

 Cycle   1  Pass 1  IDiag  1:
 E= -382.279774416370    
 DIIS: error= 9.54D-03 at cycle   1 NSaved=   1.
 NSaved= 1 IEnMin= 1 EnMin= -382.279774416370     IErMin= 1 ErrMin= 9.54D-03
 ErrMax= 9.54D-03  0.00D+00 EMaxC= 1.00D-01 BMatC= 1.47D-02 BMatP= 1.47D-02
 IDIUse=3 WtCom= 9.05D-01 WtEn= 9.54D-02
 Coeff-Com:  0.100D+01
 Coeff-En:   0.100D+01
 Coeff:      0.100D+01
 Gap=     0.425 Goal=   None    Shift=    0.000
 Gap=     0.425 Goal=   None    Shift=    0.000
 GapD=    0.425 DampG=2.000 DampE=1.000 DampFc=2.0000 IDamp=-1.
 RMSDP=9.49D-04 MaxDP=1.22D-02              OVMax= 4.03D-02

 Cycle   2  Pass 1  IDiag  1:
 E= -382.285514287253     Delta-E=       -0.005739870883 Rises=F Damp=F
 DIIS: error= 1.44D-03 at cycle   2 NSaved=   2.
 NSaved= 2 IEnMin= 2 EnMin= -382.285514287253     IErMin= 2 ErrMin= 1.44D-03
 ErrMax= 1.44D-03  0.00D+00 EMaxC= 1.00D-01 BMatC= 4.28D-04 BMatP= 1.47D-02
 IDIUse=3 WtCom= 9.86D-01 WtEn= 1.44D-02
 Coeff-Com: -0.751D-01 0.108D+01
 Coeff-En:   0.000D+00 0.100D+01
 Coeff:     -0.740D-01 0.107D+01
 Gap=     0.148 Goal=   None    Shift=    0.000
 Gap=     0.148 Goal=   None    Shift=    0.000
 RMSDP=3.60D-04 MaxDP=7.08D-03 DE=-5.74D-03 OVMax= 1.69D-02

 Cycle   3  Pass 1  IDiag  1:
 E= -382.285631965547     Delta-E=       -0.000117678295 Rises=F Damp=F
 DIIS: error= 1.30D-03 at cycle   3 NSaved=   3.
 NSaved= 3 IEnMin= 3 EnMin= -382.285631965547     IErMin= 3 ErrMin= 1.30D-03
 ErrMax= 1.30D-03  0.00D+00 EMaxC= 1.00D-01 BMatC= 4.10D-04 BMatP= 4.28D-04
 IDIUse=3 WtCom= 9.87D-01 WtEn= 1.30D-02
 Coeff-Com: -0.497D-01 0.571D+00 0.478D+00
 Coeff-En:   0.000D+00 0.151D+00 0.849D+00
 Coeff:     -0.491D-01 0.566D+00 0.483D+00
 Gap=     0.148 Goal=   None    Shift=    0.000
 Gap=     0.148 Goal=   None    Shift=    0.000
 RMSDP=2.04D-04 MaxDP=6.74D-03 DE=-1.18D-04 OVMax= 1.94D-02

 Cycle   4  Pass 1  IDiag  1:
 E= -382.285715216826     Delta-E=       -0.000083251279 Rises=F Damp=F
 DIIS: error= 1.06D-03 at cycle   4 NSaved=   4.
 NSaved= 4 IEnMin= 4 EnMin= -382.285715216826     IErMin= 4 ErrMin= 1.06D-03
 ErrMax= 1.06D-03  0.00D+00 EMaxC= 1.00D-01 BMatC= 2.67D-04 BMatP= 4.10D-04
 IDIUse=3 WtCom= 9.89D-01 WtEn= 1.06D-02
 Coeff-Com: -0.206D-01 0.825D-01 0.431D+00 0.507D+00
 Coeff-En:   0.000D+00 0.000D+00 0.387D+00 0.613D+00
 Coeff:     -0.203D-01 0.816D-01 0.430D+00 0.508D+00
 Gap=     0.148 Goal=   None    Shift=    0.000
 Gap=     0.148 Goal=   None    Shift=    0.000
 RMSDP=8.42D-05 MaxDP=2.51D-03 DE=-8.33D-05 OVMax= 7.20D-03

 Cycle   5  Pass 1  IDiag  1:
 E= -382.285816762413     Delta-E=       -0.000101545586 Rises=F Damp=F
 DIIS: error= 8.97D-05 at cycle   5 NSaved=   5.
 NSaved= 5 IEnMin= 5 EnMin= -382.285816762413     IErMin= 5 ErrMin= 8.97D-05
 ErrMax= 8.97D-05  0.00D+00 EMaxC= 1.00D-01 BMatC= 2.18D-06 BMatP= 2.67D-04
 IDIUse=1 WtCom= 1.00D+00 WtEn= 0.00D+00
 Coeff-Com:  0.407D-02-0.587D-01 0.167D-01 0.167D-02 0.104D+01
 Coeff:      0.407D-02-0.587D-01 0.167D-01 0.167D-02 0.104D+01
 Gap=     0.148 Goal=   None    Shift=    0.000
 Gap=     0.148 Goal=   None    Shift=    0.000
 RMSDP=2.65D-05 MaxDP=4.36D-04 DE=-1.02D-04 OVMax= 1.57D-03

 Cycle   6  Pass 1  IDiag  1:
 E= -382.285818837664     Delta-E=       -0.000002075251 Rises=F Damp=F
 DIIS: error= 2.10D-05 at cycle   6 NSaved=   6.
 NSaved= 6 IEnMin= 6 EnMin= -382.285818837664     IErMin= 6 ErrMin= 2.10D-05
 ErrMax= 2.10D-05  0.00D+00 EMaxC= 1.00D-01 BMatC= 2.55D-07 BMatP= 2.18D-06
 IDIUse=1 WtCom= 1.00D+00 WtEn= 0.00D+00
 Coeff-Com:  0.248D-02-0.219D-01-0.245D-01-0.378D-01 0.260D+00 0.821D+00
 Coeff:      0.248D-02-0.219D-01-0.245D-01-0.378D-01 0.260D+00 0.821D+00
 Gap=     0.148 Goal=   None    Shift=    0.000
 Gap=     0.148 Goal=   None    Shift=    0.000
 RMSDP=5.91D-06 MaxDP=8.57D-05 DE=-2.08D-06 OVMax= 4.39D-04

 Cycle   7  Pass 1  IDiag  1:
 E= -382.285819014511     Delta-E=       -0.000000176847 Rises=F Damp=F
 DIIS: error= 6.98D-06 at cycle   7 NSaved=   7.
 NSaved= 7 IEnMin= 7 EnMin= -382.285819014511     IErMin= 7 ErrMin= 6.98D-06
 ErrMax= 6.98D-06  0.00D+00 EMaxC= 1.00D-01 BMatC= 1.60D-08 BMatP= 2.55D-07
 IDIUse=1 WtCom= 1.00D+00 WtEn= 0.00D+00
 Coeff-Com: -0.672D-03 0.939D-02-0.298D-02 0.315D-03-0.152D+00-0.236D-01
 Coeff-Com:  0.117D+01
 Coeff:     -0.672D-03 0.939D-02-0.298D-02 0.315D-03-0.152D+00-0.236D-01
 Coeff:      0.117D+01
 Gap=     0.148 Goal=   None    Shift=    0.000
 Gap=     0.148 Goal=   None    Shift=    0.000
 RMSDP=3.31D-06 MaxDP=4.68D-05 DE=-1.77D-07 OVMax= 2.41D-04

 Cycle   8  Pass 1  IDiag  1:
 E= -382.285819038460     Delta-E=       -0.000000023949 Rises=F Damp=F
 DIIS: error= 1.51D-06 at cycle   8 NSaved=   8.
 NSaved= 8 IEnMin= 8 EnMin= -382.285819038460     IErMin= 8 ErrMin= 1.51D-06
 ErrMax= 1.51D-06  0.00D+00 EMaxC= 1.00D-01 BMatC= 5.42D-10 BMatP= 1.60D-08
 IDIUse=1 WtCom= 1.00D+00 WtEn= 0.00D+00
 Coeff-Com: -0.422D-04 0.320D-03 0.570D-03 0.204D-02-0.452D-02-0.133D-01
 Coeff-Com: -0.464D-01 0.106D+01
 Coeff:     -0.422D-04 0.320D-03 0.570D-03 0.204D-02-0.452D-02-0.133D-01
 Coeff:     -0.464D-01 0.106D+01
 Gap=     0.148 Goal=   None    Shift=    0.000
 Gap=     0.148 Goal=   None    Shift=    0.000
 RMSDP=4.21D-07 MaxDP=6.69D-06 DE=-2.39D-08 OVMax= 1.96D-05

 Cycle   9  Pass 1  IDiag  1:
 E= -382.285819038846     Delta-E=       -0.000000000386 Rises=F Damp=F
 DIIS: error= 2.06D-07 at cycle   9 NSaved=   9.
 NSaved= 9 IEnMin= 9 EnMin= -382.285819038846     IErMin= 9 ErrMin= 2.06D-07
 ErrMax= 2.06D-07  0.00D+00 EMaxC= 1.00D-01 BMatC= 1.32D-11 BMatP= 5.42D-10
 IDIUse=1 WtCom= 1.00D+00 WtEn= 0.00D+00
 Coeff-Com:  0.167D-04-0.267D-03 0.137D-03 0.289D-03 0.382D-02-0.227D-02
 Coeff-Com: -0.440D-01 0.125D+00 0.917D+00
 Coeff:      0.167D-04-0.267D-03 0.137D-03 0.289D-03 0.382D-02-0.227D-02
 Coeff:     -0.440D-01 0.125D+00 0.917D+00
 Gap=     0.148 Goal=   None    Shift=    0.000
 Gap=     0.148 Goal=   None    Shift=    0.000
 RMSDP=8.31D-08 MaxDP=1.51D-06 DE=-3.86D-10 OVMax= 3.02D-06

 Cycle  10  Pass 1  IDiag  1:
 E= -382.285819038858     Delta-E=       -0.000000000011 Rises=F Damp=F
 DIIS: error= 6.26D-08 at cycle  10 NSaved=  10.
 NSaved=10 IEnMin=10 EnMin= -382.285819038858     IErMin=10 ErrMin= 6.26D-08
 ErrMax= 6.26D-08  0.00D+00 EMaxC= 1.00D-01 BMatC= 1.01D-12 BMatP= 1.32D-11
 IDIUse=1 WtCom= 1.00D+00 WtEn= 0.00D+00
 Coeff-Com:  0.503D-05-0.540D-04-0.103D-04-0.764D-04 0.833D-03 0.981D-03
 Coeff-Com:  0.335D-03-0.622D-01 0.649D-01 0.995D+00
 Coeff:      0.503D-05-0.540D-04-0.103D-04-0.764D-04 0.833D-03 0.981D-03
 Coeff:      0.335D-03-0.622D-01 0.649D-01 0.995D+00
 Gap=     0.148 Goal=   None    Shift=    0.000
 Gap=     0.148 Goal=   None    Shift=    0.000
 RMSDP=2.07D-08 MaxDP=3.30D-07 DE=-1.14D-11 OVMax= 1.05D-06

 Cycle  11  Pass 1  IDiag  1:
 E= -382.285819038858     Delta-E=       -0.000000000000 Rises=F Damp=F
 DIIS: error= 8.53D-09 at cycle  11 NSaved=  11.
 NSaved=11 IEnMin=11 EnMin= -382.285819038858     IErMin=11 ErrMin= 8.53D-09
 ErrMax= 8.53D-09  0.00D+00 EMaxC= 1.00D-01 BMatC= 3.01D-14 BMatP= 1.01D-12
 IDIUse=1 WtCom= 1.00D+00 WtEn= 0.00D+00
 Coeff-Com: -0.202D-06 0.604D-05-0.761D-05-0.174D-04-0.140D-03 0.196D-03
 Coeff-Com:  0.162D-02-0.110D-01-0.274D-01 0.810D-01 0.956D+00
 Coeff:     -0.202D-06 0.604D-05-0.761D-05-0.174D-04-0.140D-03 0.196D-03
 Coeff:      0.162D-02-0.110D-01-0.274D-01 0.810D-01 0.956D+00
 Gap=     0.148 Goal=   None    Shift=    0.000
 Gap=     0.148 Goal=   None    Shift=    0.000
 RMSDP=3.81D-09 MaxDP=6.10D-08 DE=-4.55D-13 OVMax= 1.52D-07

 SCF Done:  E(UM062X) =  -382.285819039     A.U. after   11 cycles
            NFock= 11  Conv=0.38D-08     -V/T= 2.0022
 <Sx>= 0.0000 <Sy>= 0.0000 <Sz>= 0.0000 <S**2>=-0.0000 S=-0.0000
 <L.S>=  0.00000000000    
 KE= 3.814340532525D+02 PE=-9.946992316805D+02 EE= 1.868734746741D+02
 Annihilation of the first spin contaminant:
 S**2 before annihilation    -0.0000,   after     0.0000
 Leave Link  502 at Mon Apr 21 19:05:52 2025, MaxMem=   536870912 cpu:              77.8 elap:              10.4
 (Enter /home/szhao/Apps/g16/l701.exe)
 ... and contract with generalized density number  0.
 Compute integral first derivatives.
 Leave Link  701 at Mon Apr 21 19:05:53 2025, MaxMem=   536870912 cpu:               1.0 elap:               0.2
 (Enter /home/szhao/Apps/g16/l702.exe)
 L702 exits ... SP integral derivatives will be done elsewhere.
 Leave Link  702 at Mon Apr 21 19:05:53 2025, MaxMem=   536870912 cpu:               0.5 elap:               0.1
 (Enter /home/szhao/Apps/g16/l703.exe)
 Integral derivatives from FoFJK, PRISM(SPDF).
 Compute integral first derivatives, UseDBF=F ICtDFT=           0.
 Calling FoFJK, ICntrl=      2127 FMM=F ISym2X=0 I1Cent= 0 IOpClX= 1 NMat=1 NMatS=1 NMatT=0.
 FoFJK:  IHMeth= 1 ICntrl=    2127 DoSepK=F KAlg= 0 I1Cent=           0 FoldK=F
 IRaf=         0 NMat=       1 IRICut=       1 DoRegI=T DoRafI=F ISym2E= 0 IDoP0=0 IntGTp=1.
 FoFCou: FMM=F IPFlag=           0 FMFlag=      100000 FMFlg1=         800
         NFxFlg=           0 DoJE=F BraDBF=F KetDBF=F FulRan=T
         wScrn=  0.000000 ICntrl=      2127 IOpCl=  1 I1Cent=           0 NGrid=           0
         NMat0=    1 NMatS0=      1 NMatT0=    0 NMatD0=    1 NMtDS0=    0 NMtDT0=    0
 Symmetry not used in FoFCou.
 Leave Link  703 at Mon Apr 21 19:05:54 2025, MaxMem=   536870912 cpu:              12.0 elap:               1.5
 (Enter /home/szhao/Apps/g16/l716.exe)
 Dipole        =-4.70691261D-01-2.09964925D-01 2.27548167D-01
 -------------------------------------------------------------------
 Center     Atomic                   Forces (Hartrees/Bohr)
 Number     Number              X              Y              Z
 -------------------------------------------------------------------
      1        6          -0.000000000   -0.000000000   -0.000000000
      2       15          -0.000000000   -0.000000000   -0.000000000
      3        1          -0.000568383    0.000271696    0.000181955
      4        1          -0.000339229    0.002140142    0.000119583
      5        1          -0.000572186   -0.000204007   -0.000254470
      6        1          -0.000336513   -0.000279682   -0.002123755
      7        1           0.000237286   -0.001088697    0.001176843
 -------------------------------------------------------------------
 Cartesian Forces:  Max     0.002140142 RMS     0.000783814
 Leave Link  716 at Mon Apr 21 19:05:55 2025, MaxMem=   536870912 cpu:               0.3 elap:               0.1
 (Enter /home/szhao/Apps/g16/l103.exe)

 GradGradGradGradGradGradGradGradGradGradGradGradGradGradGradGradGradGrad
 Berny optimization.
 Using GEDIIS/GDIIS optimizer.
 FormGI is forming the generalized inverse of G from B-inverse, IUseBI=4.
 Internal  Forces:  Max     0.002132323 RMS     0.000895111
 Search for a local minimum.
 Step number   3 out of a maximum of   36
 All quantities printed in internal units (Hartrees-Bohrs-Radians)
 RMS Force = .94150D-03 SwitMx=.10000D-02 MixMth= 2
 Mixed Optimization -- En-DIIS/RFO-DIIS
 Update second derivatives using D2CorX and points    1    2    3
 DE= -4.79D-03 DEPred=-5.29D-03 R= 9.05D-01
 TightC=F SS=  1.41D+00  RLast= 3.34D-01 DXNew= 8.4853D-01 1.0017D+00
 Trust test= 9.05D-01 RLast= 3.34D-01 DXMaxT set to 8.49D-01
 ITU=  1  1  0
 Use linear search instead of GDIIS.
     Eigenvalues ---    0.00230   0.06686   0.07578   0.09381   0.09626
     Eigenvalues ---    0.16000   0.16000   0.16005   0.16237   0.21118
     Eigenvalues ---    0.21125   0.34766   0.34890   0.355021000.00000
     Eigenvalues --- 1000.000001000.000001000.000001000.000001000.00000
     Eigenvalues --- 1000.000001000.000001000.000001000.000001000.00000
     Eigenvalues --- 1000.00000
 RFO step:  Lambda=-7.40339223D-05 EMin= 2.30000201D-03
[...]
 InvSVX:  RCond= 3.78D-09 Info=           0 Equed=N FErr=  8.37D-12 BErr=  6.27D-17
 DIIS inversion failure, remove point   6.
 InvSVX:  RCond= 6.03D-09 Info=           0 Equed=N FErr=  3.15D-12 BErr=  3.88D-17
 DIIS inversion failure, remove point   5.
 InvSVX:  RCond= 1.93D-08 Info=           0 Equed=N FErr=  5.39D-13 BErr=  7.08D-17
 DIIS inversion failure, remove point   4.
 InvSVX:  RCond= 5.45D-07 Info=           0 Equed=N FErr=  7.26D-15 BErr=  8.57D-17
 RFO-DIIS uses    3 points instead of    6
 DidBck=F Rises=F RFO-DIIS coefs:    1.15912   -0.23070    0.07159    0.00000    0.00000
                  RFO-DIIS coefs:    0.00000
 Iteration  1 RMS(Cart)=  0.00039398 RMS(Int)=  0.00000016
 Iteration  2 RMS(Cart)=  0.00000010 RMS(Int)=  0.00000013
 ITry= 1 IFail=0 DXMaxC= 1.22D-03 DCOld= 1.00D+10 DXMaxT= 8.49D-01 DXLimC= 3.00D+00 Rises=F
 Variable       Old X    -DE/DX   Delta X   Delta X   Delta X     New X
                                 (Linear)    (Quad)   (Total)
    X1       -3.22437   0.00001  -0.00000   0.00000   0.00000  -3.22437
    Y1        0.00000   0.00004   0.00000   0.00000   0.00000   0.00000
    Z1        0.00000  -0.00004   0.00000   0.00000   0.00000   0.00000
    X2        3.22437   0.00002   0.00000   0.00000   0.00000   3.22437
    Y2        0.00000   0.00001   0.00000   0.00000   0.00000   0.00000
    Z2        0.00000  -0.00001   0.00000   0.00000   0.00000   0.00000
    R1        2.04177   0.00002  -0.00002   0.00005   0.00003   2.04180
    R2        2.04176   0.00002  -0.00002   0.00005   0.00003   2.04179
    R3        2.04225   0.00001  -0.00000   0.00000  -0.00000   2.04225
    R4        2.68214  -0.00000   0.00001  -0.00001  -0.00000   2.68213
    R5        2.68210  -0.00000   0.00001  -0.00001  -0.00000   2.68209
    A1        1.65618   0.00000   0.00017   0.00002   0.00018   1.65636
    A2        1.65610   0.00000   0.00017   0.00002   0.00019   1.65629
    A3        1.67613  -0.00004  -0.00041  -0.00019  -0.00060   1.67553
    A4        2.07829  -0.00002   0.00015  -0.00028  -0.00013   2.07816
    A5        2.08060   0.00002  -0.00006   0.00016   0.00010   2.08070
    A6        2.08061   0.00002  -0.00006   0.00016   0.00010   2.08071
    A7        1.53070   0.00003   0.00031   0.00007   0.00039   1.53109
    A8        1.53076   0.00003   0.00031   0.00008   0.00039   1.53115
    A9        1.60549  -0.00000   0.00002  -0.00005  -0.00003   1.60545
    D1        2.89758   0.00001  -0.00012   0.00006  -0.00006   2.89751
    D2        1.29043   0.00001  -0.00011   0.00012   0.00000   1.29043
    D3       -1.29484  -0.00001   0.00008  -0.00022  -0.00014  -1.29497
    D4       -2.90198  -0.00001   0.00009  -0.00016  -0.00007  -2.90206
    D5        0.80137  -0.00000  -0.00002  -0.00008  -0.00010   0.80127
    D6       -0.80578   0.00000  -0.00001  -0.00002  -0.00003  -0.80581
         Item               Value     Threshold  Converged?
 Maximum Force            0.000040     0.000450     YES
 RMS     Force            0.000018     0.000300     YES
 Maximum Displacement     0.001219     0.001800     YES
 RMS     Displacement     0.000394     0.001200     YES
 Predicted change in Energy=-2.818665D-08
 Optimization completed.
    -- Stationary point found.
                           ----------------------------
                           !   Optimized Parameters   !
                           ! (Angstroms and Degrees)  !
 --------------------------                            --------------------------
 ! Name  Definition              Value          Derivative Info.                !
 --------------------------------------------------------------------------------
 ! X1    R(1,-1)                -1.7063         -DE/DX =    0.0                 !
 ! Y1    R(1,-2)                 0.0            -DE/DX =    0.0                 !
 ! Z1    R(1,-3)                 0.0            -DE/DX =    0.0                 !
 ! X2    R(2,-1)                 1.7063         -DE/DX =    0.0                 !
 ! Y2    R(2,-2)                 0.0            -DE/DX =    0.0                 !
 ! Z2    R(2,-3)                 0.0            -DE/DX =    0.0                 !
 ! R1    R(1,4)                  1.0805         -DE/DX =    0.0                 !
 ! R2    R(1,6)                  1.0805         -DE/DX =    0.0                 !
 ! R3    R(1,7)                  1.0807         -DE/DX =    0.0                 !
 ! R4    R(2,3)                  1.4193         -DE/DX =    0.0                 !
 ! R5    R(2,5)                  1.4193         -DE/DX =    0.0                 !
 ! A1    A(2,1,4)               94.8919         -DE/DX =    0.0                 !
 ! A2    A(2,1,6)               94.8875         -DE/DX =    0.0                 !
 ! A3    A(2,1,7)               96.0351         -DE/DX =    0.0                 !
 ! A4    A(4,1,6)              119.077          -DE/DX =    0.0                 !
 ! A5    A(4,1,7)              119.2097         -DE/DX =    0.0                 !
 ! A6    A(6,1,7)              119.2102         -DE/DX =    0.0                 !
 ! A7    A(1,2,3)               87.7026         -DE/DX =    0.0                 !
 ! A8    A(1,2,5)               87.706          -DE/DX =    0.0                 !
 ! A9    A(3,2,5)               91.9875         -DE/DX =    0.0                 !
 ! D1    D(4,1,2,3)            166.0189         -DE/DX =    0.0                 !
 ! D2    D(4,1,2,5)             73.936          -DE/DX =    0.0                 !
 ! D3    D(6,1,2,3)            -74.1886         -DE/DX =    0.0                 !
 ! D4    D(6,1,2,5)           -166.2715         -DE/DX =    0.0                 !
 ! D5    D(7,1,2,3)             45.915          -DE/DX =    0.0                 !
 ! D6    D(7,1,2,5)            -46.1679         -DE/DX =    0.0                 !
 --------------------------------------------------------------------------------
 Lowest energy point so far.  Saving SCF results.
 Largest change from initial coordinates is atom    7       0.331 Angstoms.
 GradGradGradGradGradGradGradGradGradGradGradGradGradGradGradGradGradGrad

 Leave Link  103 at Mon Apr 21 19:06:59 2025, MaxMem=   536870912 cpu:               0.4 elap:               0.1
 (Enter /home/szhao/Apps/g16/l202.exe)
                          Input orientation:                          
 ---------------------------------------------------------------------
 Center     Atomic      Atomic             Coordinates (Angstroms)
 Number     Number       Type             X           Y           Z
 ---------------------------------------------------------------------
      1          6           0       -1.706264    0.000000    0.000000
      2         15           0        1.706264    0.000000    0.000000
      3          1           0        1.649368   -1.417835    0.031468
      4          1           0       -1.798401    1.050143    0.236847
      5          1           0        1.649452    0.082977    1.415738
      6          1           0       -1.798317   -0.316234   -1.029032
      7          1           0       -1.819886   -0.730398    0.788384
 ---------------------------------------------------------------------
                    Distance matrix (angstroms):
                    1          2          3          4          5
     1  C    0.000000
     2  P    3.412527   0.000000
     3  H    3.643009   1.419325   0.000000
     4  H    1.080457   3.666275   4.245022   0.000000
     5  H    3.643079   1.419305   2.041725   3.769998   0.000000
     6  H    1.080455   3.666196   3.771568   1.862642   4.245395
     7  H    1.080713   3.686294   3.616797   1.864131   3.618213
                    6          7
     6  H    0.000000
     7  H    1.864134   0.000000
 Symmetry turned off by external request.
 Stoichiometry    CH5P
 Framework group  C1[X(CH5P)]
 Deg. of freedom    15
 Full point group                 C1      NOp   1
 Rotational constants (GHZ):          67.9456382           4.0420968           4.0337133
 Leave Link  202 at Mon Apr 21 19:07:00 2025, MaxMem=   536870912 cpu:               0.3 elap:               0.1
 (Enter /home/szhao/Apps/g16/l601.exe)
 Copying SCF densities to generalized density rwf, IOpCl= 1 IROHF=0.

 **********************************************************************

            Population analysis using the SCF density.

 **********************************************************************

 Alpha  occ. eigenvalues --  -78.03311 -10.58970  -6.85668  -4.97196  -4.97122
 Alpha  occ. eigenvalues --   -4.96937  -0.78280  -0.69430  -0.50303  -0.50246
 Alpha  occ. eigenvalues --   -0.43614  -0.34720  -0.25305
 Alpha virt. eigenvalues --   -0.10491   0.02066   0.03995   0.04043   0.04597
 Alpha virt. eigenvalues --    0.06359   0.06953   0.07126   0.07320   0.11846
 Alpha virt. eigenvalues --    0.17464   0.18570   0.18703   0.23771   0.30105
 Alpha virt. eigenvalues --    0.30852   0.34301   0.38935   0.41111   0.43739
 Alpha virt. eigenvalues --    0.43926   0.51352   0.59714   0.64443   0.65162
 Alpha virt. eigenvalues --    0.65783   0.69140   0.69883   0.70811   0.83301
 Alpha virt. eigenvalues --    0.88954   0.96721   1.09588   1.09629   1.39450
 Alpha virt. eigenvalues --    1.43596   1.45192   1.46567   1.47336   1.50163
 Alpha virt. eigenvalues --    1.52162   1.53340   1.61716   1.62565   1.68457
 Alpha virt. eigenvalues --    1.77256   1.88282   1.88368   2.03548   2.04142
 Alpha virt. eigenvalues --    2.04157   2.12207   2.44733   2.46914   2.46986
 Alpha virt. eigenvalues --    2.58201   2.63876   2.65399   2.65574   2.76017
 Alpha virt. eigenvalues --    2.91153   3.74887   3.75034   7.04735  14.01810
 Alpha virt. eigenvalues --   14.05051  14.05396  23.96001 163.32384
  Beta  occ. eigenvalues --  -78.03311 -10.58970  -6.85668  -4.97196  -4.97122
  Beta  occ. eigenvalues --   -4.96937  -0.78280  -0.69430  -0.50303  -0.50246
  Beta  occ. eigenvalues --   -0.43614  -0.34720  -0.25305
  Beta virt. eigenvalues --   -0.10491   0.02066   0.03995   0.04043   0.04597
  Beta virt. eigenvalues --    0.06359   0.06953   0.07126   0.07320   0.11846
  Beta virt. eigenvalues --    0.17464   0.18570   0.18703   0.23771   0.30105
  Beta virt. eigenvalues --    0.30852   0.34301   0.38935   0.41111   0.43739
  Beta virt. eigenvalues --    0.43926   0.51352   0.59714   0.64443   0.65162
  Beta virt. eigenvalues --    0.65783   0.69140   0.69883   0.70811   0.83301
  Beta virt. eigenvalues --    0.88954   0.96721   1.09588   1.09629   1.39450
  Beta virt. eigenvalues --    1.43596   1.45192   1.46567   1.47336   1.50163
  Beta virt. eigenvalues --    1.52162   1.53340   1.61716   1.62565   1.68457
  Beta virt. eigenvalues --    1.77256   1.88282   1.88368   2.03548   2.04142
  Beta virt. eigenvalues --    2.04157   2.12207   2.44733   2.46914   2.46986
  Beta virt. eigenvalues --    2.58201   2.63876   2.65399   2.65574   2.76017
  Beta virt. eigenvalues --    2.91153   3.74887   3.75034   7.04735  14.01810
  Beta virt. eigenvalues --   14.05051  14.05396  23.96001 163.32384
          Condensed to atoms (all electrons):
               1          2          3          4          5          6
     1  C    5.238256   0.170048  -0.011645   0.382391  -0.011647   0.382389
     2  P    0.170048  14.351859   0.269680  -0.006385   0.269683  -0.006384
     3  H   -0.011645   0.269680   0.764123   0.000253  -0.027406   0.000296
     4  H    0.382391  -0.006385   0.000253   0.479438   0.000297  -0.021258
     5  H   -0.011647   0.269683  -0.027406   0.000297   0.764114   0.000253
     6  H    0.382389  -0.006384   0.000296  -0.021258   0.000253   0.479419
     7  H    0.379987  -0.008840   0.000487  -0.022430   0.000485  -0.022426
               7
     1  C    0.379987
     2  P   -0.008840
     3  H    0.000487
     4  H   -0.022430
     5  H    0.000485
     6  H   -0.022426
     7  H    0.487133
          Atomic-Atomic Spin Densities.
               1          2          3          4          5          6
     1  C    0.000000  -0.000000  -0.000000  -0.000000  -0.000000  -0.000000
     2  P   -0.000000  -0.000000  -0.000000   0.000000  -0.000000   0.000000
     3  H   -0.000000  -0.000000   0.000000  -0.000000  -0.000000  -0.000000
     4  H   -0.000000   0.000000  -0.000000  -0.000000  -0.000000   0.000000
     5  H   -0.000000  -0.000000  -0.000000  -0.000000   0.000000  -0.000000
     6  H   -0.000000   0.000000  -0.000000   0.000000  -0.000000  -0.000000
     7  H   -0.000000   0.000000  -0.000000   0.000000  -0.000000   0.000000
               7
     1  C   -0.000000
     2  P    0.000000
     3  H   -0.000000
     4  H    0.000000
     5  H   -0.000000
     6  H    0.000000
     7  H   -0.000000
 Mulliken charges and spin densities:
               1          2
     1  C   -0.529781   0.000000
     2  P   -0.039662  -0.000000
     3  H    0.004212   0.000000
     4  H    0.187695  -0.000000
     5  H    0.004220   0.000000
     6  H    0.187711  -0.000000
     7  H    0.185604  -0.000000
 Sum of Mulliken charges =  -0.00000  -0.00000
 Mulliken charges and spin densities with hydrogens summed into heavy atoms:
               1          2
     1  C    0.031229   0.000000
     2  P   -0.031229  -0.000000
 Electronic spatial extent (au):  <R**2>=            349.3043
 Charge=             -0.0000 electrons
 Dipole moment (field-independent basis, Debye):
    X=             -1.2073    Y=             -0.5537    Z=              0.6003  Tot=              1.4576
 Quadrupole moment (field-independent basis, Debye-Ang):
   XX=            -22.3111   YY=            -22.3153   ZZ=            -22.4290
   XY=             -1.1650   XZ=              1.2632   YZ=              0.7030
 Traceless Quadrupole moment (field-independent basis, Debye-Ang):
   XX=              0.0407   YY=              0.0365   ZZ=             -0.0772
   XY=             -1.1650   XZ=              1.2632   YZ=              0.7030
 Octapole moment (field-independent basis, Debye-Ang**2):
  XXX=            -38.8372  YYY=              3.7025  ZZZ=             -3.7511  XYY=            -13.4061
  XXY=             -1.6107  XXZ=              1.7470  XZZ=            -13.6011  YZZ=              0.0296
  YYZ=             -0.2951  XYZ=              1.2056
 Hexadecapole moment (field-independent basis, Debye-Ang**3):
 XXXX=           -457.8752 YYYY=            -48.4513 ZZZZ=            -48.8104 XXXY=             -0.6952
 XXXZ=              0.7549 YYYX=              2.8100 YYYZ=              1.0552 ZZZX=             -3.4477
 ZZZY=              1.1685 XXYY=            -78.0038 XXZZ=            -78.3829 YYZZ=            -16.6746
 XXYZ=              2.3405 YYXZ=             -2.6204 ZZXY=              2.7875
 N-N= 4.411668728614D+01 E-N=-9.947142786546D+02  KE= 3.814242627105D+02
                          Isotropic Fermi Contact Couplings
        Atom                 a.u.       MegaHertz       Gauss      10(-4) cm-1
     1  C(13)              0.00000       0.00000       0.00000       0.00000
     2  P(31)              0.00000       0.00000       0.00000       0.00000
     3  H(1)               0.00000       0.00000       0.00000       0.00000
     4  H(1)              -0.00000      -0.00000      -0.00000      -0.00000
     5  H(1)               0.00000       0.00000       0.00000       0.00000
     6  H(1)              -0.00000      -0.00000      -0.00000      -0.00000
     7  H(1)              -0.00000      -0.00000      -0.00000      -0.00000
 --------------------------------------------------------
       Center         ----  Spin Dipole Couplings  ----
                      3XX-RR        3YY-RR        3ZZ-RR
 --------------------------------------------------------
     1   Atom        0.000000     -0.000000     -0.000000
     2   Atom       -0.000000      0.000000      0.000000
     3   Atom        0.000000     -0.000000      0.000000
     4   Atom       -0.000000      0.000000     -0.000000
     5   Atom        0.000000      0.000000     -0.000000
     6   Atom       -0.000000     -0.000000      0.000000
     7   Atom       -0.000000     -0.000000      0.000000
 --------------------------------------------------------
                        XY            XZ            YZ
 --------------------------------------------------------
     1   Atom       -0.000000      0.000000     -0.000000
     2   Atom        0.000000     -0.000000      0.000000
     3   Atom       -0.000000     -0.000000     -0.000000
     4   Atom       -0.000000      0.000000      0.000000
     5   Atom        0.000000      0.000000     -0.000000
     6   Atom        0.000000      0.000000      0.000000
     7   Atom        0.000000     -0.000000     -0.000000
 --------------------------------------------------------


 ---------------------------------------------------------------------------------
              Anisotropic Spin Dipole Couplings in Principal Axis System
 ---------------------------------------------------------------------------------

       Atom             a.u.   MegaHertz   Gauss  10(-4) cm-1        Axes

              Baa    -0.0000    -0.000    -0.000    -0.000 -0.0003  0.7193  0.6947
     1 C(13)  Bbb    -0.0000    -0.000    -0.000    -0.000 -0.0108 -0.6946  0.7193
              Bcc     0.0000     0.000     0.000     0.000  0.9999 -0.0073  0.0080
 
              Baa    -0.0000    -0.000    -0.000    -0.000  0.9961 -0.0601  0.0651
     2 P(31)  Bbb     0.0000     0.000     0.000     0.000  0.0004  0.7377  0.6752
              Bcc     0.0000     0.000     0.000     0.000 -0.0886 -0.6725  0.7348
 
              Baa    -0.0000    -0.000    -0.000    -0.000  0.1477  0.9888  0.0190
     3 H(1)   Bbb     0.0000     0.000     0.000     0.000  0.9855 -0.1488  0.0813
              Bcc     0.0000     0.000     0.000     0.000 -0.0832 -0.0067  0.9965
 
              Baa    -0.0000    -0.000    -0.000    -0.000 -0.0150 -0.2197  0.9755
     4 H(1)   Bbb    -0.0000    -0.000    -0.000    -0.000  0.9989  0.0399  0.0244
              Bcc     0.0000     0.000     0.000     0.000 -0.0442  0.9748  0.2189
 
              Baa    -0.0000    -0.000    -0.000    -0.000 -0.1477  0.0987  0.9841
     5 H(1)   Bbb     0.0000     0.000     0.000     0.000  0.9855 -0.0691  0.1548
              Bcc     0.0000     0.000     0.000     0.000  0.0833  0.9927 -0.0870
 
              Baa    -0.0000    -0.000    -0.000    -0.000  0.0150  0.9559 -0.2934
     6 H(1)   Bbb    -0.0000    -0.000    -0.000    -0.000  0.9989 -0.0273 -0.0379
              Bcc     0.0000     0.000     0.000     0.000  0.0442  0.2926  0.9552
 
              Baa    -0.0000    -0.000    -0.000    -0.000 -0.0000  0.7336  0.6796
     7 H(1)   Bbb    -0.0000    -0.000    -0.000    -0.000  0.9986 -0.0362  0.0391
              Bcc     0.0000     0.000     0.000     0.000 -0.0533 -0.6787  0.7325
 

 ---------------------------------------------------------------------------------

 No NMR shielding tensors so no spin-rotation constants.
 Leave Link  601 at Mon Apr 21 19:07:00 2025, MaxMem=   536870912 cpu:               1.7 elap:               0.3
 (Enter /home/szhao/Apps/g16/l9999.exe)
 1\1\GINC-NODE05\FOpt\UM062X\6-311+G(d,p)\C1H5P1\SZHAO\21-Apr-2025\0\\#
 p opt UM062X/6-311+G** nosymm int=superfine\\Title Card Required\\0,1\
 C,-1.70626351,0.,0.\P,1.70626351,0.,0.\H,1.6493684238,-1.4178352916,0.
 0314682004\H,-1.7984008818,1.0501434715,0.236846602\H,1.6494522226,0.0
 829771174,1.4157381544\H,-1.7983171065,-0.3162336119,-1.0290317757\H,-
 1.8198862746,-0.730398414,0.7883838081\\Version=ES64L-G16RevA.03\HF=-3
 82.2859134\S2=0.\S2-1=0.\S2A=0.\RMSD=5.914e-09\RMSF=1.331e-05\Dipole=-
 0.475003,-0.2178268,0.2361723\Quadrupole=0.0302362,0.0271554,-0.057391
 6,-0.8661291,0.9391778,0.5226649\PG=C01 [X(C1H5P1)]\\@


 NECESSARY EVIL: ONE WE LIKE TOO MUCH TO RELINQUISH.
 Job cpu time:       0 days  0 hours 12 minutes 23.0 seconds.
 Elapsed time:       0 days  0 hours  1 minutes 41.3 seconds.
 File lengths (MBytes):  RWF=     22 Int=      0 D2E=      0 Chk=      3 Scr=      2
 Normal termination of Gaussian 16 at Mon Apr 21 19:07:01 2025.
