 Entering Gaussian System, Link 0=g16
 Initial command:
 /home/szhao/Apps/g16/l1.exe "/home/szhao/tmp/Gau-90131.inp" -scrdir="/home/szhao/tmp/"
 Default is to use a total of  16 processors:
                               16 via shared-memory
                                1 via Linda
 Entering Link 1 = /home/szhao/Apps/g16/l1.exe PID=     90133.
  
 Copyright (c) 1988,1990,1992,1993,1995,1998,2003,2009,2016,
            Gaussian, Inc.  All Rights Reserved.
  
 This is part of the Gaussian(R) 16 program.  It is based on
 the Gaussian(R) 09 system (copyright 2009, Gaussian, Inc.),
 the Gaussian(R) 03 system (copyright 2003, Gaussian, Inc.),
 the Gaussian(R) 98 system (copyright 1998, Gaussian, Inc.),
 the Gaussian(R) 94 system (copyright 1995, Gaussian, Inc.),
 the Gaussian 92(TM) system (copyright 1992, Gaussian, Inc.),
 the Gaussian 90(TM) system (copyright 1990, Gaussian, Inc.),
 the Gaussian 88(TM) system (copyright 1988, Gaussian, Inc.),
 the Gaussian 86(TM) system (copyright 1986, Carnegie Mellon
 University), and the Gaussian 82(TM) system (copyright 1983,
 Carnegie Mellon University). Gaussian is a federally registered
 trademark of Gaussian, Inc.
  
 This software contains proprietary and confidential information,
 including trade secrets, belonging to Gaussian, Inc.
  
 This software is provided under written license and may be
 used, copied, transmitted, or stored only in accord with that
 written license.
  
 The following legend is applicable only to US Government
 contracts under FAR:
  
                    RESTRICTED RIGHTS LEGEND
  
 Use, reproduction and disclosure by the US Government is
 subject to restrictions as set forth in subparagraphs (a)
 and (c) of the Commercial Computer Software - Restricted
 Rights clause in FAR 52.227-19.
  
 Gaussian, Inc.
 340 Quinnipiac St., Bldg. 40, Wallingford CT 06492
  
  
 ---------------------------------------------------------------
 Warning -- This program may not be used in any manner that
 competes with the business of Gaussian, Inc. or will provide
 assistance to any competitor of Gaussian, Inc.  The licensee
 of this program is prohibited from giving any competitor of
 Gaussian, Inc. access to this program.  By using this program,
 the user acknowledges that Gaussian, Inc. is engaged in the
 business of creating and licensing software in the field of
 computational chemistry and represents and warrants to the
 licensee that it is not a competitor of Gaussian, Inc. and that
 it will not use this program in any manner prohibited above.
 ---------------------------------------------------------------
  

 Cite this work as:
 Gaussian 16, Revision A.03,
 M. J. Frisch, G. W. Trucks, H. B. Schlegel, G. E. Scuseria, 
 M. A. Robb, J. R. Cheeseman, G. Scalmani, V. Barone, 
 G. A. Petersson, H. Nakatsuji, X. Li, M. Caricato, A. V. Marenich, 
 J. Bloino, B. G. Janesko, R. Gomperts, B. Mennucci, H. P. Hratchian, 
 J. V. Ortiz, A. F. Izmaylov, J. L. Sonnenberg, D. Williams-Young, 
 F. Ding, F. Lipparini, F. Egidi, J. Goings, B. Peng, A. Petrone, 
 T. Henderson, D. Ranasinghe, V. G. Zakrzewski, J. Gao, N. Rega, 
 G. Zheng, W. Liang, M. Hada, M. Ehara, K. Toyota, R. Fukuda, 
 J. Hasegawa, M. Ishida, T. Nakajima, Y. Honda, O. Kitao, H. Nakai, 
 T. Vreven, K. Throssell, J. A. Montgomery, Jr., J. E. Peralta, 
 F. Ogliaro, M. J. Bearpark, J. J. Heyd, E. N. Brothers, K. N. Kudin, 
 V. N. Staroverov, T. A. Keith, R. Kobayashi, J. Normand, 
 K. Raghavachari, A. P. Rendell, J. C. Burant, S. S. Iyengar, 
 J. Tomasi, M. Cossi, J. M. Millam, M. Klene, C. Adamo, R. Cammi, 
 J. W. Ochterski, R. L. Martin, K. Morokuma, O. Farkas, 
 J. B. Foresman, and D. J. Fox, Gaussian, Inc., Wallingford CT, 2016.
 
 ******************************************
 Gaussian 16:  ES64L-G16RevA.03 25-Dec-2016
                19-Nov-2024 
 ******************************************
 %chk=opt.chk
 %mem=16GB
 %nprocshared=24
 Will use up to   24 processors via shared memory.
 --------------------------------------------
 #p opt UM062X/6-311+G** nosymm int=superfine
 --------------------------------------------
 1/18=20,19=15,26=5,38=1/1,3;
 2/9=110,12=2,15=1,17=6,18=5,40=1/2;
 3/5=4,6=6,7=111,11=2,25=1,30=1,71=1,74=-55,75=-7,116=2/1,2,3;
 4//1;
 5/5=2,38=5/2;
 6/7=2,8=2,9=2,10=2,28=1/1;
 7/30=1/1,2,3,16;
 1/18=20,19=15,26=5/3(2);
 2/9=110,15=1/2;
 99//99;
 2/9=110,15=1/2;
 3/5=4,6=6,7=111,11=2,25=1,30=1,71=1,74=-55,75=-7,116=2/1,2,3;
 4/5=5,16=3,69=1/1;
 5/5=2,38=5/2;
 7/30=1/1,2,3,16;
 1/18=20,19=15,26=5/3(-5);
 2/9=110,15=1/2;
 6/7=2,8=2,9=2,10=2,19=2,28=1/1;
 99/9=1/99;
 Leave Link    1 at Tue Nov 19 12:51:36 2024, MaxMem=  2147483648 cpu:               2.8 elap:               0.2
 (Enter /home/szhao/Apps/g16/l101.exe)
 -------------------
 Title Card Required
 -------------------
 Symbolic Z-matrix:
 Charge =  1 Multiplicity = 2
 C                    -1   -0.49707   0.        0. 
 C                    -1    0.49707   0.        0. 
 H                    0    -1.36193   0.        0. 
 H                    0     1.36192   0.        0. 
 
 ITRead=  2  2  0  0
 MicOpt= -2 -2 -1 -1
 NAtoms=      4 NQM=        2 NQMF=       2 NMMI=      0 NMMIF=      0
                NMic=       0 NMicF=      0.
                    Isotopes and Nuclear Properties:
 (Nuclear quadrupole moments (NQMom) in fm**2, nuclear magnetic moments (NMagM)
  in nuclear magnetons)

  Atom         1           2           3           4
 IAtWgt=          12          12           1           1
 AtmWgt=  12.0000000  12.0000000   1.0078250   1.0078250
 NucSpn=           0           0           1           1
 AtZEff=  -0.0000000  -0.0000000  -0.0000000  -0.0000000
 NQMom=    0.0000000   0.0000000   0.0000000   0.0000000
 NMagM=    0.0000000   0.0000000   2.7928460   2.7928460
 AtZNuc=   6.0000000   6.0000000   1.0000000   1.0000000
 Leave Link  101 at Tue Nov 19 12:51:37 2024, MaxMem=  2147483648 cpu:              18.2 elap:               0.9
 (Enter /home/szhao/Apps/g16/l103.exe)

 GradGradGradGradGradGradGradGradGradGradGradGradGradGradGradGradGradGrad
 Berny optimization.
 Initialization pass.
                           ----------------------------
                           !    Initial Parameters    !
                           ! (Angstroms and Degrees)  !
 --------------------------                            --------------------------
 ! Name  Definition              Value          Derivative Info.                !
 --------------------------------------------------------------------------------
 ! X1    R(1,-1)                -0.4971         Frozen                          !
 ! Y1    R(1,-2)                 0.0            Frozen                          !
 ! Z1    R(1,-3)                 0.0            Frozen                          !
 ! X2    R(2,-1)                 0.4971         Frozen                          !
 ! Y2    R(2,-2)                 0.0            Frozen                          !
 ! Z2    R(2,-3)                 0.0            Frozen                          !
 ! R1    R(1,3)                  0.8649         estimate D2E/DX2                !
 ! R2    R(2,4)                  0.8648         estimate D2E/DX2                !
 ! A1    L(2,1,3,-2,-1)        180.0            estimate D2E/DX2                !
 ! A2    L(1,2,4,-2,-1)        180.0            estimate D2E/DX2                !
 ! A3    L(2,1,3,-3,-2)        180.0            estimate D2E/DX2                !
 ! A4    L(1,2,4,-3,-2)        180.0            estimate D2E/DX2                !
 --------------------------------------------------------------------------------
 Trust Radius=3.00D-01 FncErr=1.00D-07 GrdErr=1.00D-07 EigMax=2.50D+02 EigMin=1.00D-04
 Number of steps in this run=     22 maximum allowed number of steps=    100.
 GradGradGradGradGradGradGradGradGradGradGradGradGradGradGradGradGradGrad

 Leave Link  103 at Tue Nov 19 12:51:37 2024, MaxMem=  2147483648 cpu:               0.4 elap:               0.0
 (Enter /home/szhao/Apps/g16/l202.exe)
                          Input orientation:                          
 ---------------------------------------------------------------------
 Center     Atomic      Atomic             Coordinates (Angstroms)
 Number     Number       Type             X           Y           Z
 ---------------------------------------------------------------------
      1          6           0       -0.497074    0.000000    0.000000
      2          6           0        0.497074    0.000000    0.000000
      3          1           0       -1.361929    0.000000    0.000000
      4          1           0        1.361920    0.000000    0.000000
 ---------------------------------------------------------------------
                    Distance matrix (angstroms):
                    1          2          3          4
     1  C    0.000000
     2  C    0.994148   0.000000
     3  H    0.864855   1.859003   0.000000
     4  H    1.858994   0.864846   2.723850   0.000000
 Symmetry turned off by external request.
 Stoichiometry    C2H2(1+,2)
 Framework group  C*V[C*(HCCH)]
 Deg. of freedom     3
 Full point group                 C*V     NOp   4
 Rotational constants (GHZ):           0.0000000          52.2696565          52.2696565
 Leave Link  202 at Tue Nov 19 12:51:37 2024, MaxMem=  2147483648 cpu:               0.5 elap:               0.0
 (Enter /home/szhao/Apps/g16/l301.exe)
 Standard basis: 6-311+G(d,p) (5D, 7F)
 Ernie: Thresh=  0.10000D-02 Tol=  0.10000D-05 Strict=F.
    56 basis functions,    88 primitive gaussians,    58 cartesian basis functions
     7 alpha electrons        6 beta electrons
       nuclear repulsion energy        30.1151325722 Hartrees.
 IExCor= 4336 DFT=T Ex+Corr=M062X ExCW=0 ScaHFX=  0.540000
 ScaDFX=  1.000000  1.000000  1.000000  1.000000 ScalE2=  1.000000  1.000000
 IRadAn=      7 IRanWt=     -1 IRanGd=            0 ICorTp=0 IEmpDi=  4
 NAtoms=    4 NActive=    4 NUniq=    4 SFac= 1.00D+00 NAtFMM=   60 NAOKFM=F Big=F
 Integral buffers will be    131072 words long.
 Raffenetti 2 integral format.
 Two-electron integral symmetry is turned off.
 Leave Link  301 at Tue Nov 19 12:51:37 2024, MaxMem=  2147483648 cpu:               1.2 elap:               0.1
 (Enter /home/szhao/Apps/g16/l302.exe)
 NPDir=0 NMtPBC=     1 NCelOv=     1 NCel=       1 NClECP=     1 NCelD=      1
         NCelK=      1 NCelE2=     1 NClLst=     1 CellRange=     0.0.
 One-electron integrals computed using PRISM.
 NBasis=    56 RedAO= T EigKep=  3.60D-05  NBF=    56
 NBsUse=    56 1.00D-06 EigRej= -1.00D+00 NBFU=    56
 Precomputing XC quadrature grid using
 IXCGrd= 4 IRadAn=           7 IRanWt=          -1 IRanGd=           0 AccXCQ= 0.00D+00.
 Generated NRdTot=       0 NPtTot=           0 NUsed=           0 NTot=          32
 NSgBfM=    58    58    58    58    58 MxSgAt=     4 MxSgA2=     4.
 Leave Link  302 at Tue Nov 19 12:51:38 2024, MaxMem=  2147483648 cpu:               4.0 elap:               0.3
 (Enter /home/szhao/Apps/g16/l303.exe)
 DipDrv:  MaxL=1.
 Leave Link  303 at Tue Nov 19 12:51:38 2024, MaxMem=  2147483648 cpu:               2.5 elap:               0.2
 (Enter /home/szhao/Apps/g16/l401.exe)
 ExpMin= 4.38D-02 ExpMax= 4.56D+03 ExpMxC= 6.82D+02 IAcc=3 IRadAn=         7 AccDes= 0.00D+00
 Harris functional with IExCor= 1009 and IRadAn=       7 diagonalized for initial guess.
 HarFok:  IExCor= 1009 AccDes= 0.00D+00 IRadAn=         7 IDoV= 1 UseB2=F ITyADJ=14
 ICtDFT=  3500011 ScaDFX=  1.000000  1.000000  1.000000  1.000000
 FoFCou: FMM=F IPFlag=           0 FMFlag=      100000 FMFlg1=           0
         NFxFlg=           0 DoJE=T BraDBF=F KetDBF=T FulRan=T
         wScrn=  0.000000 ICntrl=       500 IOpCl=  0 I1Cent=   200000004 NGrid=           0
         NMat0=    1 NMatS0=      1 NMatT0=    0 NMatD0=    1 NMtDS0=    0 NMtDT0=    0
 Symmetry not used in FoFCou.
 Harris En= -76.7121800112757    
 JPrj=0 DoOrth=F DoCkMO=F.
 Initial guess <Sx>= 0.0000 <Sy>= 0.0000 <Sz>= 0.5000 <S**2>= 0.7500 S= 0.5000
 Leave Link  401 at Tue Nov 19 12:51:38 2024, MaxMem=  2147483648 cpu:               5.1 elap:               0.3
 (Enter /home/szhao/Apps/g16/l502.exe)
 Keep R1 and R2 ints in memory in canonical form, NReq=23774294.
 FoFCou: FMM=F IPFlag=           0 FMFlag=           0 FMFlg1=           0
         NFxFlg=           0 DoJE=F BraDBF=F KetDBF=F FulRan=T
         wScrn=  0.000000 ICntrl=       600 IOpCl=  0 I1Cent=           0 NGrid=           0
         NMat0=    1 NMatS0=   1596 NMatT0=    0 NMatD0=    1 NMtDS0=    0 NMtDT0=    0
 Symmetry not used in FoFCou.
 Two-electron integral symmetry not used.
 UHF open shell SCF:
 Using DIIS extrapolation, IDIIS=  1040.
 NGot=  2147483648 LenX=  2144926146 LenY=  2144922341
 Requested convergence on RMS density matrix=1.00D-08 within 128 cycles.
 Requested convergence on MAX density matrix=1.00D-06.
 Requested convergence on             energy=1.00D-06.
 No special actions if energy rises.

 Cycle   1  Pass 1  IDiag  1:
 E= -76.5890042280733    
 DIIS: error= 4.60D-02 at cycle   1 NSaved=   1.
 NSaved= 1 IEnMin= 1 EnMin= -76.5890042280733     IErMin= 1 ErrMin= 4.60D-02
 ErrMax= 4.60D-02  0.00D+00 EMaxC= 1.00D-01 BMatC= 2.74D-01 BMatP= 2.74D-01
 IDIUse=3 WtCom= 5.40D-01 WtEn= 4.60D-01
 Coeff-Com:  0.100D+01
 Coeff-En:   0.100D+01
 Coeff:      0.100D+01
 Gap=     0.610 Goal=   None    Shift=    0.000
 Gap=     0.259 Goal=   None    Shift=    0.000
 GapD=    0.259 DampG=1.000 DampE=0.500 DampFc=0.5000 IDamp=-1.
 Damping current iteration by 5.00D-01
 RMSDP=6.93D-03 MaxDP=1.16D-01              OVMax= 9.36D-02

 Cycle   2  Pass 1  IDiag  1:
 E= -76.6140469472119     Delta-E=       -0.025042719139 Rises=F Damp=T
 DIIS: error= 1.46D-02 at cycle   2 NSaved=   2.
 NSaved= 2 IEnMin= 2 EnMin= -76.6140469472119     IErMin= 2 ErrMin= 1.46D-02
 ErrMax= 1.46D-02  0.00D+00 EMaxC= 1.00D-01 BMatC= 3.62D-02 BMatP= 2.74D-01
 IDIUse=3 WtCom= 8.54D-01 WtEn= 1.46D-01
 Coeff-Com: -0.505D+00 0.150D+01
 Coeff-En:   0.000D+00 0.100D+01
 Coeff:     -0.431D+00 0.143D+01
 Gap=     0.592 Goal=   None    Shift=    0.000
 Gap=     0.243 Goal=   None    Shift=    0.000
 RMSDP=2.92D-03 MaxDP=4.02D-02 DE=-2.50D-02 OVMax= 2.66D-02

 Cycle   3  Pass 1  IDiag  1:
 E= -76.6347606704033     Delta-E=       -0.020713723191 Rises=F Damp=F
 DIIS: error= 1.34D-03 at cycle   3 NSaved=   3.
 NSaved= 3 IEnMin= 3 EnMin= -76.6347606704033     IErMin= 3 ErrMin= 1.34D-03
 ErrMax= 1.34D-03  0.00D+00 EMaxC= 1.00D-01 BMatC= 7.85D-05 BMatP= 3.62D-02
 IDIUse=3 WtCom= 9.87D-01 WtEn= 1.34D-02
 Coeff-Com: -0.305D-01 0.630D-01 0.967D+00
 Coeff-En:   0.000D+00 0.000D+00 0.100D+01
 Coeff:     -0.301D-01 0.622D-01 0.968D+00
 Gap=     0.586 Goal=   None    Shift=    0.000
 Gap=     0.241 Goal=   None    Shift=    0.000
 RMSDP=2.09D-04 MaxDP=3.45D-03 DE=-2.07D-02 OVMax= 2.10D-03

 Cycle   4  Pass 1  IDiag  1:
 E= -76.6347813444381     Delta-E=       -0.000020674035 Rises=F Damp=F
 DIIS: error= 1.76D-04 at cycle   4 NSaved=   4.
 NSaved= 4 IEnMin= 4 EnMin= -76.6347813444381     IErMin= 4 ErrMin= 1.76D-04
 ErrMax= 1.76D-04  0.00D+00 EMaxC= 1.00D-01 BMatC= 2.67D-06 BMatP= 7.85D-05
 IDIUse=3 WtCom= 9.98D-01 WtEn= 1.76D-03
 Coeff-Com:  0.602D-02-0.148D-01-0.757D-01 0.108D+01
 Coeff-En:   0.000D+00 0.000D+00 0.000D+00 0.100D+01
 Coeff:      0.601D-02-0.148D-01-0.756D-01 0.108D+01
 Gap=     0.586 Goal=   None    Shift=    0.000
 Gap=     0.241 Goal=   None    Shift=    0.000
 RMSDP=3.26D-05 MaxDP=6.70D-04 DE=-2.07D-05 OVMax= 4.04D-04

 Cycle   5  Pass 1  IDiag  1:
 E= -76.6347823640399     Delta-E=       -0.000001019602 Rises=F Damp=F
 DIIS: error= 4.98D-05 at cycle   5 NSaved=   5.
 NSaved= 5 IEnMin= 5 EnMin= -76.6347823640399     IErMin= 5 ErrMin= 4.98D-05
 ErrMax= 4.98D-05  0.00D+00 EMaxC= 1.00D-01 BMatC= 1.69D-07 BMatP= 2.67D-06
 IDIUse=1 WtCom= 1.00D+00 WtEn= 0.00D+00
 Coeff-Com:  0.679D-03-0.119D-02-0.295D-01-0.135D+00 0.117D+01
 Coeff:      0.679D-03-0.119D-02-0.295D-01-0.135D+00 0.117D+01
 Gap=     0.586 Goal=   None    Shift=    0.000
 Gap=     0.241 Goal=   None    Shift=    0.000
 RMSDP=1.05D-05 MaxDP=1.69D-04 DE=-1.02D-06 OVMax= 1.27D-04

 Cycle   6  Pass 1  IDiag  1:
 E= -76.6347824365770     Delta-E=       -0.000000072537 Rises=F Damp=F
 DIIS: error= 7.72D-06 at cycle   6 NSaved=   6.
 NSaved= 6 IEnMin= 6 EnMin= -76.6347824365770     IErMin= 6 ErrMin= 7.72D-06
 ErrMax= 7.72D-06  0.00D+00 EMaxC= 1.00D-01 BMatC= 3.49D-09 BMatP= 1.69D-07
 IDIUse=1 WtCom= 1.00D+00 WtEn= 0.00D+00
 Coeff-Com: -0.270D-03 0.609D-03 0.518D-02-0.773D-02-0.177D+00 0.118D+01
 Coeff:     -0.270D-03 0.609D-03 0.518D-02-0.773D-02-0.177D+00 0.118D+01
 Gap=     0.586 Goal=   None    Shift=    0.000
 Gap=     0.241 Goal=   None    Shift=    0.000
 RMSDP=1.89D-06 MaxDP=3.75D-05 DE=-7.25D-08 OVMax= 1.94D-05

 Cycle   7  Pass 1  IDiag  1:
 E= -76.6347824380005     Delta-E=       -0.000000001424 Rises=F Damp=F
 DIIS: error= 4.94D-07 at cycle   7 NSaved=   7.
 NSaved= 7 IEnMin= 7 EnMin= -76.6347824380005     IErMin= 7 ErrMin= 4.94D-07
 ErrMax= 4.94D-07  0.00D+00 EMaxC= 1.00D-01 BMatC= 2.33D-11 BMatP= 3.49D-09
 IDIUse=1 WtCom= 1.00D+00 WtEn= 0.00D+00
 Coeff-Com:  0.609D-06-0.177D-05-0.107D-03 0.187D-02 0.165D-02-0.837D-01
 Coeff-Com:  0.108D+01
 Coeff:      0.609D-06-0.177D-05-0.107D-03 0.187D-02 0.165D-02-0.837D-01
 Coeff:      0.108D+01
 Gap=     0.586 Goal=   None    Shift=    0.000
 Gap=     0.241 Goal=   None    Shift=    0.000
 RMSDP=1.70D-07 MaxDP=2.86D-06 DE=-1.42D-09 OVMax= 1.52D-06

 Cycle   8  Pass 1  IDiag  1:
 E= -76.6347824380076     Delta-E=       -0.000000000007 Rises=F Damp=F
 DIIS: error= 2.07D-07 at cycle   8 NSaved=   8.
 NSaved= 8 IEnMin= 8 EnMin= -76.6347824380076     IErMin= 8 ErrMin= 2.07D-07
 ErrMax= 2.07D-07  0.00D+00 EMaxC= 1.00D-01 BMatC= 4.94D-12 BMatP= 2.33D-11
 IDIUse=1 WtCom= 1.00D+00 WtEn= 0.00D+00
 Coeff-Com:  0.442D-05-0.101D-04-0.121D-03 0.837D-03 0.333D-02-0.498D-01
 Coeff-Com:  0.403D+00 0.643D+00
 Coeff:      0.442D-05-0.101D-04-0.121D-03 0.837D-03 0.333D-02-0.498D-01
 Coeff:      0.403D+00 0.643D+00
 Gap=     0.586 Goal=   None    Shift=    0.000
 Gap=     0.241 Goal=   None    Shift=    0.000
 RMSDP=1.83D-08 MaxDP=3.33D-07 DE=-7.06D-12 OVMax= 7.06D-07

 Cycle   9  Pass 1  IDiag  1:
 E= -76.6347824380089     Delta-E=       -0.000000000001 Rises=F Damp=F
 DIIS: error= 6.32D-08 at cycle   9 NSaved=   9.
 NSaved= 9 IEnMin= 9 EnMin= -76.6347824380089     IErMin= 9 ErrMin= 6.32D-08
 ErrMax= 6.32D-08  0.00D+00 EMaxC= 1.00D-01 BMatC= 2.74D-13 BMatP= 4.94D-12
 IDIUse=1 WtCom= 1.00D+00 WtEn= 0.00D+00
 Coeff-Com:  0.633D-06-0.140D-05-0.302D-05-0.112D-03 0.219D-03 0.364D-02
 Coeff-Com: -0.804D-01 0.101D+00 0.975D+00
 Coeff:      0.633D-06-0.140D-05-0.302D-05-0.112D-03 0.219D-03 0.364D-02
 Coeff:     -0.804D-01 0.101D+00 0.975D+00
 Gap=     0.586 Goal=   None    Shift=    0.000
 Gap=     0.241 Goal=   None    Shift=    0.000
 RMSDP=8.16D-09 MaxDP=1.03D-07 DE=-1.29D-12 OVMax= 7.77D-07

 SCF Done:  E(UM062X) =  -76.6347824380     A.U. after    9 cycles
            NFock=  9  Conv=0.82D-08     -V/T= 1.9703
 <Sx>= 0.0000 <Sy>= 0.0000 <Sz>= 0.5000 <S**2>= 0.7516 S= 0.5008
 <L.S>=  0.00000000000    
 KE= 7.898273998426D+01 PE=-2.352356160523D+02 EE= 4.950296105791D+01
 Annihilation of the first spin contaminant:
 S**2 before annihilation     0.7516,   after     0.7500
 Leave Link  502 at Tue Nov 19 12:51:44 2024, MaxMem=  2147483648 cpu:             102.9 elap:               5.4
 (Enter /home/szhao/Apps/g16/l601.exe)
 Copying SCF densities to generalized density rwf, IOpCl= 1 IROHF=0.

 **********************************************************************

            Population analysis using the SCF density.

 **********************************************************************

 Alpha  occ. eigenvalues --  -10.90745 -10.89279  -1.33164  -1.04276  -1.00123
 Alpha  occ. eigenvalues --   -0.83275  -0.79855
 Alpha virt. eigenvalues --   -0.21211  -0.19327  -0.15522  -0.12467  -0.11589
 Alpha virt. eigenvalues --   -0.11222  -0.09107  -0.03739  -0.03053   0.00265
 Alpha virt. eigenvalues --    0.05309   0.07293   0.17309   0.21738   0.25701
 Alpha virt. eigenvalues --    0.26560   0.41451   0.42134   0.47250   0.51804
 Alpha virt. eigenvalues --    0.70313   0.78559   0.78749   0.86179   0.86901
 Alpha virt. eigenvalues --    0.87910   1.12395   1.29044   1.33040   1.33082
 Alpha virt. eigenvalues --    1.37904   1.38847   1.89120   1.91041   2.11183
 Alpha virt. eigenvalues --    2.40694   2.44334   2.45081   2.48430   2.56222
 Alpha virt. eigenvalues --    2.69938   2.84347   2.88231   2.91067   3.09330
 Alpha virt. eigenvalues --    3.57375   4.31770  24.06889  25.72510
  Beta  occ. eigenvalues --  -10.90411 -10.89012  -1.27267  -1.02760  -0.99308
  Beta  occ. eigenvalues --   -0.77269
  Beta virt. eigenvalues --   -0.53150  -0.18235  -0.16664  -0.16384  -0.12424
  Beta virt. eigenvalues --   -0.11532  -0.11263  -0.09423  -0.02616  -0.01549
  Beta virt. eigenvalues --    0.00154   0.05845   0.07257   0.17967   0.21999
  Beta virt. eigenvalues --    0.23709   0.26201   0.41925   0.42553   0.46964
  Beta virt. eigenvalues --    0.50313   0.70541   0.82884   0.84719   0.86247
  Beta virt. eigenvalues --    0.88243   0.89335   1.13729   1.29887   1.35806
  Beta virt. eigenvalues --    1.37062   1.38796   1.39759   1.91256   1.92199
  Beta virt. eigenvalues --    2.13157   2.44639   2.44640   2.48944   2.48963
  Beta virt. eigenvalues --    2.57862   2.71923   2.86840   2.89330   2.91549
  Beta virt. eigenvalues --    3.11312   3.62769   4.37856  24.07801  25.74971
          Condensed to atoms (all electrons):
               1          2          3          4
     1  C    4.590241   0.629084   0.449085  -0.058883
     2  C    0.629084   4.590239  -0.058876   0.449092
     3  H    0.449085  -0.058876   0.503295  -0.003043
     4  H   -0.058883   0.449092  -0.003043   0.503306
          Atomic-Atomic Spin Densities.
               1          2          3          4
     1  C    0.322804   0.192645  -0.008268   0.006620
     2  C    0.192645   0.322802   0.006620  -0.008268
     3  H   -0.008268   0.006620  -0.012839   0.000687
     4  H    0.006620  -0.008268   0.000687  -0.012839
 Mulliken charges and spin densities:
               1          2
     1  C    0.390472   0.513801
     2  C    0.390461   0.513799
     3  H    0.109539  -0.013800
     4  H    0.109528  -0.013800
 Sum of Mulliken charges =   1.00000   1.00000
 Mulliken charges and spin densities with hydrogens summed into heavy atoms:
               1          2
     1  C    0.500011   0.500001
     2  C    0.499989   0.499999
 Electronic spatial extent (au):  <R**2>=             40.3566
 Charge=              1.0000 electrons
 Dipole moment (field-independent basis, Debye):
    X=             -0.0000    Y=             -0.0000    Z=              0.0000  Tot=              0.0000
 Quadrupole moment (field-independent basis, Debye-Ang):
   XX=             -3.9418   YY=             -9.5836   ZZ=             -8.6958
   XY=              0.0000   XZ=              0.0000   YZ=             -0.6290
 Traceless Quadrupole moment (field-independent basis, Debye-Ang):
   XX=              3.4653   YY=             -2.1766   ZZ=             -1.2887
   XY=              0.0000   XZ=              0.0000   YZ=             -0.6290
 Octapole moment (field-independent basis, Debye-Ang**2):
  XXX=             -0.0001  YYY=             -0.0000  ZZZ=             -0.0000  XYY=              0.0000
  XXY=             -0.0000  XXZ=              0.0000  XZZ=              0.0000  YZZ=             -0.0000
  YYZ=             -0.0000  XYZ=             -0.0000
 Hexadecapole moment (field-independent basis, Debye-Ang**3):
 XXXX=            -19.3726 YYYY=             -8.2040 ZZZZ=             -6.8816 XXXY=              0.0000
 XXXZ=              0.0000 YYYX=              0.0000 YYYZ=             -0.4685 ZZZX=              0.0000
 ZZZY=             -0.4684 XXYY=             -6.2866 XXZZ=             -5.9290 YYZZ=             -2.5143
 XXYZ=             -0.2534 YYXZ=              0.0000 ZZXY=              0.0000
 N-N= 3.011513257217D+01 E-N=-2.352356161209D+02  KE= 7.898273998426D+01
                          Isotropic Fermi Contact Couplings
        Atom                 a.u.       MegaHertz       Gauss      10(-4) cm-1
     1  C(13)              0.04774      53.66567      19.14925      17.90094
     2  C(13)              0.04774      53.66528      19.14911      17.90081
     3  H(1)              -0.00965     -43.14762     -15.39614     -14.39250
     4  H(1)              -0.00965     -43.14771     -15.39617     -14.39253
 --------------------------------------------------------
       Center         ----  Spin Dipole Couplings  ----
                      3XX-RR        3YY-RR        3ZZ-RR
 --------------------------------------------------------
     1   Atom       -0.326728     -0.182846      0.509575
     2   Atom       -0.326729     -0.182846      0.509575
     3   Atom        0.083215     -0.058431     -0.024784
     4   Atom        0.083216     -0.058432     -0.024784
 --------------------------------------------------------
                        XY            XZ            YZ
 --------------------------------------------------------
     1   Atom       -0.000000      0.000000     -0.490568
     2   Atom        0.000000      0.000000     -0.490569
     3   Atom       -0.000000      0.000000     -0.023838
     4   Atom       -0.000000     -0.000000     -0.023839
 --------------------------------------------------------


 ---------------------------------------------------------------------------------
              Anisotropic Spin Dipole Couplings in Principal Axis System
 ---------------------------------------------------------------------------------

       Atom             a.u.   MegaHertz   Gauss  10(-4) cm-1        Axes

              Baa    -0.4371   -58.650   -20.928   -19.564  0.0000  0.8879  0.4601
     1 C(13)  Bbb    -0.3267   -43.844   -15.645   -14.625  1.0000 -0.0000 -0.0000
              Bcc     0.7638   102.494    36.572    34.188  0.0000 -0.4601  0.8879
 
              Baa    -0.4371   -58.650   -20.928   -19.564 -0.0000  0.8879  0.4601
     2 C(13)  Bbb    -0.3267   -43.844   -15.645   -14.625  1.0000  0.0000  0.0000
              Bcc     0.7638   102.494    36.573    34.188  0.0000 -0.4601  0.8879
 
              Baa    -0.0708   -37.767   -13.476   -12.598 -0.0000  0.8879  0.4601
     3 H(1)   Bbb    -0.0124    -6.632    -2.367    -2.212 -0.0000 -0.4601  0.8879
              Bcc     0.0832    44.400    15.843    14.810  1.0000 -0.0000  0.0000
 
              Baa    -0.0708   -37.768   -13.477   -12.598  0.0000  0.8879  0.4601
     4 H(1)   Bbb    -0.0124    -6.632    -2.367    -2.212  0.0000 -0.4601  0.8879
              Bcc     0.0832    44.400    15.843    14.810  1.0000 -0.0000 -0.0000
 

 ---------------------------------------------------------------------------------

 No NMR shielding tensors so no spin-rotation constants.
 Leave Link  601 at Tue Nov 19 12:51:45 2024, MaxMem=  2147483648 cpu:              11.6 elap:               0.6
 (Enter /home/szhao/Apps/g16/l701.exe)
 ... and contract with generalized density number  0.
 Compute integral first derivatives.
 Leave Link  701 at Tue Nov 19 12:51:46 2024, MaxMem=  2147483648 cpu:              14.4 elap:               0.9
 (Enter /home/szhao/Apps/g16/l702.exe)
 L702 exits ... SP integral derivatives will be done elsewhere.
 Leave Link  702 at Tue Nov 19 12:51:46 2024, MaxMem=  2147483648 cpu:               1.6 elap:               0.1
 (Enter /home/szhao/Apps/g16/l703.exe)
 Integral derivatives from FoFJK, PRISM(SPDF).
 Compute integral first derivatives, UseDBF=F ICtDFT=           0.
 Calling FoFJK, ICntrl=      2127 FMM=F ISym2X=0 I1Cent= 0 IOpClX= 1 NMat=1 NMatS=1 NMatT=0.
 FoFJK:  IHMeth= 1 ICntrl=    2127 DoSepK=F KAlg= 0 I1Cent=           0 FoldK=F
 IRaf=         0 NMat=       1 IRICut=       1 DoRegI=T DoRafI=F ISym2E= 0 IDoP0=0 IntGTp=1.
 FoFCou: FMM=F IPFlag=           0 FMFlag=      100000 FMFlg1=         800
         NFxFlg=           0 DoJE=F BraDBF=F KetDBF=F FulRan=T
         wScrn=  0.000000 ICntrl=      2127 IOpCl=  1 I1Cent=           0 NGrid=           0
         NMat0=    1 NMatS0=      1 NMatT0=    0 NMatD0=    1 NMtDS0=    0 NMtDT0=    0
 Symmetry not used in FoFCou.
 Leave Link  703 at Tue Nov 19 12:51:47 2024, MaxMem=  2147483648 cpu:              18.8 elap:               1.1
 (Enter /home/szhao/Apps/g16/l716.exe)
 Dipole        =-6.15184463D-06-6.61660140D-16 2.35134415D-16
 -------------------------------------------------------------------
 Center     Atomic                   Forces (Hartrees/Bohr)
 Number     Number              X              Y              Z
 -------------------------------------------------------------------
      1        6          -0.000000000   -0.000000000   -0.000000000
      2        6          -0.000000000   -0.000000000   -0.000000000
      3        1          -0.285231134   -0.000000000   -0.000000000
      4        1           0.285251159    0.000000000    0.000000000
 -------------------------------------------------------------------
 Cartesian Forces:  Max     0.285251159 RMS     0.116449210
 Leave Link  716 at Tue Nov 19 12:51:47 2024, MaxMem=  2147483648 cpu:               2.8 elap:               0.2
 (Enter /home/szhao/Apps/g16/l103.exe)

 GradGradGradGradGradGradGradGradGradGradGradGradGradGradGradGradGradGrad
 Berny optimization.
 FormGI is forming the generalized inverse of G from B-inverse, IUseBI=4.
 Internal  Forces:  Max     0.285251159 RMS     0.164684053
 Search for a local minimum.
 Step number   1 out of a maximum of   22
 All quantities printed in internal units (Hartrees-Bohrs-Radians)
 RMS Force = .16468D+00 SwitMx=.10000D-02 MixMth= 1
 Mixed Optimization -- RFO/linear search
 Second derivative matrix not updated -- first step.
 The second derivative matrix:
                          X1        Y1        Z1        X2        Y2
           X1           0.50000
           Y1           0.00000   0.50000
           Z1           0.00000   0.00000   0.50000
           X2           0.00000   0.00000   0.00000   0.50000
           Y2           0.00000   0.00000   0.00000   0.00000   0.50000
           Z2           0.00000   0.00000   0.00000   0.00000   0.00000
           R1           0.00000   0.00000   0.00000   0.00000   0.00000
           R2           0.00000   0.00000   0.00000   0.00000   0.00000
           A1           0.00000   0.00000   0.00000   0.00000   0.00000
           A2           0.00000   0.00000   0.00000   0.00000   0.00000
           A3           0.00000   0.00000   0.00000   0.00000   0.00000
           A4           0.00000   0.00000   0.00000   0.00000   0.00000
                          Z2        R1        R2        A1        A2
           Z2           0.50000
           R1           0.00000   0.82232
           R2           0.00000   0.00000   0.82235
           A1           0.00000   0.00000   0.00000   0.03213
           A2           0.00000   0.00000   0.00000   0.00000   0.03213
           A3           0.00000   0.00000   0.00000   0.00000   0.00000
           A4           0.00000   0.00000   0.00000   0.00000   0.00000
                          A3        A4
           A3           0.03213
           A4           0.00000   0.03213
 ITU=  0
     Eigenvalues ---    0.03213   0.03213   0.03213   0.82232   0.82235
     Eigenvalues --- 1000.000001000.000001000.000001000.000001000.00000
     Eigenvalues --- 1000.000001000.00000
 RFO step:  Lambda=-1.64839282D-01 EMin= 3.21306420D-02
 Linear search not attempted -- first point.
 Maximum step size (   0.300) exceeded in Quadratic search.
    -- Step size scaled by   0.734
 Iteration  1 RMS(Cart)=  0.08164966 RMS(Int)=  0.00495288
 Iteration  2 RMS(Cart)=  0.00495288 RMS(Int)=  0.00000000
 Iteration  3 RMS(Cart)=  0.00000000 RMS(Int)=  0.00000000
 ITry= 1 IFail=0 DXMaxC= 2.12D-01 DCOld= 1.00D+10 DXMaxT= 3.00D-01 DXLimC= 3.00D+00 Rises=F
 Variable       Old X    -DE/DX   Delta X   Delta X   Delta X     New X
                                 (Linear)    (Quad)   (Total)
    X1       -0.93933  -0.28523   0.00000   0.00000   0.00000  -0.93933
    Y1        0.00000  -0.00000   0.00000   0.00000   0.00000   0.00000
    Z1        0.00000  -0.00000   0.00000   0.00000   0.00000   0.00000
    X2        0.93933   0.28525   0.00000   0.00000   0.00000   0.93933
    Y2        0.00000   0.00000   0.00000   0.00000   0.00000   0.00000
    Z2        0.00000  -0.00000   0.00000   0.00000   0.00000   0.00000
    R1        1.63434   0.28523   0.00000   0.21213   0.21213   1.84647
    R2        1.63432   0.28525   0.00000   0.21214   0.21214   1.84646
    A1        3.14159   0.00000   0.00000   0.00000   0.00000   3.14159
    A2        3.14159  -0.00000   0.00000  -0.00000   0.00000   3.14159
    A3        3.14159  -0.00000   0.00000  -0.00000   0.00000   3.14159
    A4        3.14159  -0.00000   0.00000  -0.00000   0.00000   3.14159
         Item               Value     Threshold  Converged?
 Maximum Force            0.285251     0.000450     NO 
 RMS     Force            0.164684     0.000300     NO 
 Maximum Displacement     0.212136     0.001800     NO 
 RMS     Displacement     0.086603     0.001200     NO 
 Predicted change in Energy=-8.401252D-02
 Lowest energy point so far.  Saving SCF results.
 GradGradGradGradGradGradGradGradGradGradGradGradGradGradGradGradGradGrad

 Leave Link  103 at Tue Nov 19 12:51:48 2024, MaxMem=  2147483648 cpu:               3.4 elap:               0.2
 (Enter /home/szhao/Apps/g16/l202.exe)
                          Input orientation:                          
 ---------------------------------------------------------------------
 Center     Atomic      Atomic             Coordinates (Angstroms)
 Number     Number       Type             X           Y           Z
 ---------------------------------------------------------------------
      1          6           0       -0.497074    0.000000    0.000000
      2          6           0        0.497074    0.000000    0.000000
      3          1           0       -1.474183   -0.000000   -0.000000
      4          1           0        1.474178    0.000000   -0.000000
 ---------------------------------------------------------------------
                    Distance matrix (angstroms):
                    1          2          3          4
     1  C    0.000000
     2  C    0.994148   0.000000
     3  H    0.977109   1.971257   0.000000
     4  H    1.971252   0.977104   2.948360   0.000000
 Symmetry turned off by external request.
 Stoichiometry    C2H2(1+,2)
 Framework group  C*V[C*(HCCH)]
 Deg. of freedom     3
 Full point group                 C*V     NOp   4
 Rotational constants (GHZ):           0.0000000          49.0163972          49.0163972
 Leave Link  202 at Tue Nov 19 12:51:48 2024, MaxMem=  2147483648 cpu:               0.2 elap:               0.0
 (Enter /home/szhao/Apps/g16/l301.exe)
 Standard basis: 6-311+G(d,p) (5D, 7F)
 Ernie: Thresh=  0.10000D-02 Tol=  0.10000D-05 Strict=F.
    56 basis functions,    88 primitive gaussians,    58 cartesian basis functions
     7 alpha electrons        6 beta electrons
       nuclear repulsion energy        29.0622751006 Hartrees.
 IExCor= 4336 DFT=T Ex+Corr=M062X ExCW=0 ScaHFX=  0.540000
 ScaDFX=  1.000000  1.000000  1.000000  1.000000 ScalE2=  1.000000  1.000000
 IRadAn=      7 IRanWt=     -1 IRanGd=            0 ICorTp=0 IEmpDi=  4
 NAtoms=    4 NActive=    4 NUniq=    4 SFac= 1.00D+00 NAtFMM=   60 NAOKFM=F Big=F
 Integral buffers will be    131072 words long.
 Raffenetti 2 integral format.
 Two-electron integral symmetry is turned off.
 Leave Link  301 at Tue Nov 19 12:51:48 2024, MaxMem=  2147483648 cpu:               1.8 elap:               0.1
 (Enter /home/szhao/Apps/g16/l302.exe)
 NPDir=0 NMtPBC=     1 NCelOv=     1 NCel=       1 NClECP=     1 NCelD=      1
         NCelK=      1 NCelE2=     1 NClLst=     1 CellRange=     0.0.
 One-electron integrals computed using PRISM.
 NBasis=    56 RedAO= T EigKep=  3.44D-05  NBF=    56
 NBsUse=    56 1.00D-06 EigRej= -1.00D+00 NBFU=    56
 Precomputing XC quadrature grid using
 IXCGrd= 4 IRadAn=           7 IRanWt=          -1 IRanGd=           0 AccXCQ= 0.00D+00.
 Generated NRdTot=       0 NPtTot=           0 NUsed=           0 NTot=          32
 NSgBfM=    58    58    58    58    58 MxSgAt=     4 MxSgA2=     4.
 Leave Link  302 at Tue Nov 19 12:51:48 2024, MaxMem=  2147483648 cpu:               4.1 elap:               0.2
 (Enter /home/szhao/Apps/g16/l303.exe)
 DipDrv:  MaxL=1.
 Leave Link  303 at Tue Nov 19 12:51:49 2024, MaxMem=  2147483648 cpu:               4.9 elap:               0.3
 (Enter /home/szhao/Apps/g16/l401.exe)
 Initial guess from the checkpoint file:  "opt.chk"
 B after Tr=     0.000001    0.000000   -0.000000
         Rot=    0.999859   -0.016772    0.000000   -0.000000 Ang=  -1.92 deg.
 Guess basis will be translated and rotated to current coordinates.
 JPrj=2 DoOrth=T DoCkMO=T.
 Initial guess <Sx>= 0.0000 <Sy>= 0.0000 <Sz>= 0.5000 <S**2>= 0.7517 S= 0.5009
 Generating alternative initial guess.
 ExpMin= 4.38D-02 ExpMax= 4.56D+03 ExpMxC= 6.82D+02 IAcc=3 IRadAn=         5 AccDes= 0.00D+00
 Harris functional with IExCor= 1009 and IRadAn=       5 diagonalized for initial guess.
 HarFok:  IExCor= 1009 AccDes= 0.00D+00 IRadAn=         5 IDoV= 1 UseB2=F ITyADJ=14
 ICtDFT=  3500011 ScaDFX=  1.000000  1.000000  1.000000  1.000000
 FoFCou: FMM=F IPFlag=           0 FMFlag=      100000 FMFlg1=           0
         NFxFlg=           0 DoJE=T BraDBF=F KetDBF=T FulRan=T
         wScrn=  0.000000 ICntrl=       500 IOpCl=  0 I1Cent=   200000004 NGrid=           0
         NMat0=    1 NMatS0=      1 NMatT0=    0 NMatD0=    1 NMtDS0=    0 NMtDT0=    0
 Symmetry not used in FoFCou.
 Harris En= -76.7769561040874    
 Leave Link  401 at Tue Nov 19 12:51:50 2024, MaxMem=  2147483648 cpu:              23.7 elap:               1.3
 (Enter /home/szhao/Apps/g16/l502.exe)
 Keep R1 and R2 ints in memory in canonical form, NReq=23774294.
 FoFCou: FMM=F IPFlag=           0 FMFlag=           0 FMFlg1=           0
         NFxFlg=           0 DoJE=F BraDBF=F KetDBF=F FulRan=T
         wScrn=  0.000000 ICntrl=       600 IOpCl=  0 I1Cent=           0 NGrid=           0
         NMat0=    1 NMatS0=   1596 NMatT0=    0 NMatD0=    1 NMtDS0=    0 NMtDT0=    0
 Symmetry not used in FoFCou.
 Two-electron integral symmetry not used.
 UHF open shell SCF:
 Using DIIS extrapolation, IDIIS=  1040.
 NGot=  2147483648 LenX=  2144926146 LenY=  2144922341
 Requested convergence on RMS density matrix=1.00D-08 within 128 cycles.
 Requested convergence on MAX density matrix=1.00D-06.
 Requested convergence on             energy=1.00D-06.
 No special actions if energy rises.

 Cycle   1  Pass 1  IDiag  1:
 E= -76.7034931208586    
 DIIS: error= 1.64D-02 at cycle   1 NSaved=   1.
 NSaved= 1 IEnMin= 1 EnMin= -76.7034931208586     IErMin= 1 ErrMin= 1.64D-02
 ErrMax= 1.64D-02  0.00D+00 EMaxC= 1.00D-01 BMatC= 4.77D-02 BMatP= 4.77D-02
 IDIUse=3 WtCom= 8.36D-01 WtEn= 1.64D-01
 Coeff-Com:  0.100D+01
 Coeff-En:   0.100D+01
 Coeff:      0.100D+01
 Recover alternate guess density for next cycle.
 RMSDP=5.62D-03 MaxDP=6.57D-02              OVMax= 0.00D+00

 Cycle   2  Pass 1  IDiag  1:
 E= -76.6693473914482     Delta-E=        0.034145729410 Rises=F Damp=F
 Switch densities from cycles 1 and 2 for lowest energy.
 DIIS: error= 4.62D-02 at cycle   2 NSaved=   2.
 NSaved= 2 IEnMin= 1 EnMin= -76.7034931208586     IErMin= 1 ErrMin= 1.64D-02
 ErrMax= 4.62D-02  0.00D+00 EMaxC= 1.00D+00 BMatC= 2.52D-01 BMatP= 4.77D-02
 IDIUse=1 WtCom= 1.00D+00 WtEn= 0.00D+00
 Coeff-Com:  0.858D+00 0.142D+00
 Coeff:      0.858D+00 0.142D+00
 Gap=     0.619 Goal=   None    Shift=    0.000
 Gap=     0.167 Goal=   None    Shift=    0.000
 RMSDP=5.03D-03 MaxDP=7.64D-02 DE= 3.41D-02 OVMax= 3.96D-01

 Cycle   3  Pass 1  IDiag  1:
 E= -76.7108751108459     Delta-E=       -0.041527719398 Rises=F Damp=F
 DIIS: error= 2.25D-03 at cycle   3 NSaved=   3.
 NSaved= 3 IEnMin= 3 EnMin= -76.7108751108459     IErMin= 3 ErrMin= 2.25D-03
 ErrMax= 2.25D-03  0.00D+00 EMaxC= 1.00D+00 BMatC= 6.65D-04 BMatP= 4.77D-02
 IDIUse=1 WtCom= 1.00D+00 WtEn= 0.00D+00
 Coeff-Com: -0.251D-03 0.348D-01 0.965D+00
 Coeff:     -0.251D-03 0.348D-01 0.965D+00
 Gap=     0.586 Goal=   None    Shift=    0.000
 Gap=     0.238 Goal=   None    Shift=    0.000
 RMSDP=7.49D-04 MaxDP=1.72D-02 DE=-4.15D-02 OVMax= 1.37D-02

 Cycle   4  Pass 1  IDiag  1:
 E= -76.7110064538541     Delta-E=       -0.000131343008 Rises=F Damp=F
 DIIS: error= 3.14D-04 at cycle   4 NSaved=   4.
 NSaved= 4 IEnMin= 4 EnMin= -76.7110064538541     IErMin= 4 ErrMin= 3.14D-04
 ErrMax= 3.14D-04  0.00D+00 EMaxC= 1.00D+00 BMatC= 1.11D-05 BMatP= 6.65D-04
 IDIUse=1 WtCom= 1.00D+00 WtEn= 0.00D+00
 Coeff-Com: -0.205D-02-0.271D-02 0.517D-01 0.953D+00
 Coeff:     -0.205D-02-0.271D-02 0.517D-01 0.953D+00
 Gap=     0.586 Goal=   None    Shift=    0.000
 Gap=     0.241 Goal=   None    Shift=    0.000
 RMSDP=4.67D-05 MaxDP=8.33D-04 DE=-1.31D-04 OVMax= 1.48D-03

 Cycle   5  Pass 1  IDiag  1:
 E= -76.7110090052255     Delta-E=       -0.000002551371 Rises=F Damp=F
 DIIS: error= 3.91D-05 at cycle   5 NSaved=   5.
 NSaved= 5 IEnMin= 5 EnMin= -76.7110090052255     IErMin= 5 ErrMin= 3.91D-05
 ErrMax= 3.91D-05  0.00D+00 EMaxC= 1.00D+00 BMatC= 1.45D-07 BMatP= 1.11D-05
 IDIUse=1 WtCom= 1.00D+00 WtEn= 0.00D+00
 Coeff-Com:  0.117D-03-0.108D-03-0.138D-01-0.801D-01 0.109D+01
 Coeff:      0.117D-03-0.108D-03-0.138D-01-0.801D-01 0.109D+01
 Gap=     0.586 Goal=   None    Shift=    0.000
 Gap=     0.241 Goal=   None    Shift=    0.000
 RMSDP=1.04D-05 MaxDP=1.69D-04 DE=-2.55D-06 OVMax= 1.39D-04

 Cycle   6  Pass 1  IDiag  1:
 E= -76.7110090708306     Delta-E=       -0.000000065605 Rises=F Damp=F
 DIIS: error= 1.13D-05 at cycle   6 NSaved=   6.
 NSaved= 6 IEnMin= 6 EnMin= -76.7110090708306     IErMin= 6 ErrMin= 1.13D-05
 ErrMax= 1.13D-05  0.00D+00 EMaxC= 1.00D+00 BMatC= 7.83D-09 BMatP= 1.45D-07
 IDIUse=1 WtCom= 1.00D+00 WtEn= 0.00D+00
 Coeff-Com:  0.644D-04 0.302D-04 0.221D-02 0.462D-02-0.283D+00 0.128D+01
 Coeff:      0.644D-04 0.302D-04 0.221D-02 0.462D-02-0.283D+00 0.128D+01
 Gap=     0.586 Goal=   None    Shift=    0.000
 Gap=     0.241 Goal=   None    Shift=    0.000
 RMSDP=3.58D-06 MaxDP=5.34D-05 DE=-6.56D-08 OVMax= 3.41D-05

 Cycle   7  Pass 1  IDiag  1:
 E= -76.7110090749239     Delta-E=       -0.000000004093 Rises=F Damp=F
 DIIS: error= 2.42D-06 at cycle   7 NSaved=   7.
 NSaved= 7 IEnMin= 7 EnMin= -76.7110090749239     IErMin= 7 ErrMin= 2.42D-06
 ErrMax= 2.42D-06  0.00D+00 EMaxC= 1.00D+00 BMatC= 2.69D-10 BMatP= 7.83D-09
 IDIUse=1 WtCom= 1.00D+00 WtEn= 0.00D+00
 Coeff-Com: -0.272D-04 0.638D-05-0.111D-03 0.964D-03 0.436D-01-0.343D+00
 Coeff-Com:  0.130D+01
 Coeff:     -0.272D-04 0.638D-05-0.111D-03 0.964D-03 0.436D-01-0.343D+00
 Coeff:      0.130D+01
 Gap=     0.586 Goal=   None    Shift=    0.000
 Gap=     0.241 Goal=   None    Shift=    0.000
 RMSDP=6.37D-07 MaxDP=1.03D-05 DE=-4.09D-09 OVMax= 7.23D-06

 Cycle   8  Pass 1  IDiag  1:
 E= -76.7110090750593     Delta-E=       -0.000000000135 Rises=F Damp=F
 DIIS: error= 3.35D-07 at cycle   8 NSaved=   8.
 NSaved= 8 IEnMin= 8 EnMin= -76.7110090750593     IErMin= 8 ErrMin= 3.35D-07
 ErrMax= 3.35D-07  0.00D+00 EMaxC= 1.00D+00 BMatC= 5.41D-12 BMatP= 2.69D-10
 IDIUse=1 WtCom= 1.00D+00 WtEn= 0.00D+00
 Coeff-Com:  0.525D-07-0.235D-05-0.418D-04-0.116D-03 0.555D-02-0.311D-01
 Coeff-Com:  0.237D-01 0.100D+01
 Coeff:      0.525D-07-0.235D-05-0.418D-04-0.116D-03 0.555D-02-0.311D-01
 Coeff:      0.237D-01 0.100D+01
 Gap=     0.586 Goal=   None    Shift=    0.000
 Gap=     0.241 Goal=   None    Shift=    0.000
 RMSDP=4.16D-08 MaxDP=7.49D-07 DE=-1.35D-10 OVMax= 1.71D-06

 Cycle   9  Pass 1  IDiag  1:
 E= -76.7110090750616     Delta-E=       -0.000000000002 Rises=F Damp=F
 DIIS: error= 8.42D-08 at cycle   9 NSaved=   9.
 NSaved= 9 IEnMin= 9 EnMin= -76.7110090750616     IErMin= 9 ErrMin= 8.42D-08
 ErrMax= 8.42D-08  0.00D+00 EMaxC= 1.00D+00 BMatC= 1.08D-12 BMatP= 5.41D-12
 IDIUse=1 WtCom= 1.00D+00 WtEn= 0.00D+00
 Coeff-Com:  0.936D-06-0.105D-05-0.119D-04-0.703D-04 0.500D-03 0.113D-02
 Coeff-Com: -0.396D-01 0.347D+00 0.691D+00
 Coeff:      0.936D-06-0.105D-05-0.119D-04-0.703D-04 0.500D-03 0.113D-02
 Coeff:     -0.396D-01 0.347D+00 0.691D+00
 Gap=     0.586 Goal=   None    Shift=    0.000
 Gap=     0.241 Goal=   None    Shift=    0.000
 RMSDP=1.17D-08 MaxDP=2.01D-07 DE=-2.27D-12 OVMax= 5.48D-07

 Cycle  10  Pass 1  IDiag  1:
 E= -76.7110090750620     Delta-E=       -0.000000000000 Rises=F Damp=F
 DIIS: error= 5.65D-08 at cycle  10 NSaved=  10.
 NSaved=10 IEnMin=10 EnMin= -76.7110090750620     IErMin=10 ErrMin= 5.65D-08
 ErrMax= 5.65D-08  0.00D+00 EMaxC= 1.00D+00 BMatC= 1.23D-13 BMatP= 1.08D-12
 IDIUse=1 WtCom= 1.00D+00 WtEn= 0.00D+00
 Coeff-Com:  0.785D-07 0.125D-06 0.151D-05 0.416D-05-0.434D-03 0.346D-02
 Coeff-Com: -0.104D-01-0.532D-01 0.158D+00 0.902D+00
 Coeff:      0.785D-07 0.125D-06 0.151D-05 0.416D-05-0.434D-03 0.346D-02
 Coeff:     -0.104D-01-0.532D-01 0.158D+00 0.902D+00
 Gap=     0.586 Goal=   None    Shift=    0.000
 Gap=     0.241 Goal=   None    Shift=    0.000
 RMSDP=6.43D-09 MaxDP=1.09D-07 DE=-3.98D-13 OVMax= 6.20D-07

 SCF Done:  E(UM062X) =  -76.7110090751     A.U. after   10 cycles
            NFock= 10  Conv=0.64D-08     -V/T= 1.9772
 <Sx>= 0.0000 <Sy>= 0.0000 <Sz>= 0.5000 <S**2>= 0.7518 S= 0.5009
 <L.S>=  0.00000000000    
 KE= 7.850021445079D+01 PE=-2.330768619913D+02 EE= 4.880336336485D+01
 Annihilation of the first spin contaminant:
 S**2 before annihilation     0.7518,   after     0.7500
 Leave Link  502 at Tue Nov 19 12:51:53 2024, MaxMem=  2147483648 cpu:              70.4 elap:               3.3
 (Enter /home/szhao/Apps/g16/l701.exe)
 ... and contract with generalized density number  0.
 Compute integral first derivatives.
 Leave Link  701 at Tue Nov 19 12:51:54 2024, MaxMem=  2147483648 cpu:               6.0 elap:               0.3
 (Enter /home/szhao/Apps/g16/l702.exe)
 L702 exits ... SP integral derivatives will be done elsewhere.
 Leave Link  702 at Tue Nov 19 12:51:54 2024, MaxMem=  2147483648 cpu:               1.8 elap:               0.1
 (Enter /home/szhao/Apps/g16/l703.exe)
 Integral derivatives from FoFJK, PRISM(SPDF).
 Compute integral first derivatives, UseDBF=F ICtDFT=           0.
 Calling FoFJK, ICntrl=      2127 FMM=F ISym2X=0 I1Cent= 0 IOpClX= 1 NMat=1 NMatS=1 NMatT=0.
 FoFJK:  IHMeth= 1 ICntrl=    2127 DoSepK=F KAlg= 0 I1Cent=           0 FoldK=F
 IRaf=         0 NMat=       1 IRICut=       1 DoRegI=T DoRafI=F ISym2E= 0 IDoP0=0 IntGTp=1.
 FoFCou: FMM=F IPFlag=           0 FMFlag=      100000 FMFlg1=         800
         NFxFlg=           0 DoJE=F BraDBF=F KetDBF=F FulRan=T
         wScrn=  0.000000 ICntrl=      2127 IOpCl=  1 I1Cent=           0 NGrid=           0
         NMat0=    1 NMatS0=      1 NMatT0=    0 NMatD0=    1 NMtDS0=    0 NMtDT0=    0
 Symmetry not used in FoFCou.
 Leave Link  703 at Tue Nov 19 12:51:55 2024, MaxMem=  2147483648 cpu:              21.4 elap:               1.1
 (Enter /home/szhao/Apps/g16/l716.exe)
 Dipole        =-3.49036352D-06 3.82906351D-14-8.82539911D-14
 -------------------------------------------------------------------
 Center     Atomic                   Forces (Hartrees/Bohr)
 Number     Number              X              Y              Z
 -------------------------------------------------------------------
      1        6          -0.000000000   -0.000000000   -0.000000000
      2        6          -0.000000000   -0.000000000   -0.000000000
      3        1          -0.093327578    0.000000000   -0.000000000
      4        1           0.093333229   -0.000000000    0.000000000
 -------------------------------------------------------------------
 Cartesian Forces:  Max     0.093333229 RMS     0.038101978
 Leave Link  716 at Tue Nov 19 12:51:56 2024, MaxMem=  2147483648 cpu:               2.7 elap:               0.2
 (Enter /home/szhao/Apps/g16/l103.exe)

 GradGradGradGradGradGradGradGradGradGradGradGradGradGradGradGradGradGrad
 Berny optimization.
 Using GEDIIS/GDIIS optimizer.
 FormGI is forming the generalized inverse of G from B-inverse, IUseBI=4.
 Internal  Forces:  Max     0.093333229 RMS     0.053884333
 Search for a local minimum.
 Step number   2 out of a maximum of   22
 All quantities printed in internal units (Hartrees-Bohrs-Radians)
 RMS Force = .53884D-01 SwitMx=.10000D-02 MixMth= 1
 Mixed Optimization -- RFO/linear search
 Update second derivatives using D2CorX and points    1    2
 DE= -7.62D-02 DEPred=-8.40D-02 R= 9.07D-01
 TightC=F SS=  1.41D+00  RLast= 3.00D-01 DXNew= 5.0454D-01 9.0000D-01
 Trust test= 9.07D-01 RLast= 3.00D-01 DXMaxT set to 5.05D-01
 The second derivative matrix:
                          X1        Y1        Z1        X2        Y2
           X1           0.95230
           Y1           0.00000   0.50000
           Z1          -0.00000  -0.00000   0.50000
           X2          -0.45234  -0.00000   0.00000   0.95237
           Y2          -0.00000  -0.00000   0.00000   0.00000   0.50000
           Z2           0.00000   0.00000  -0.00000  -0.00000  -0.00000
           R1          -0.45230  -0.00000   0.00000   0.45234   0.00000
           R2          -0.45234  -0.00000   0.00000   0.45237   0.00000
           A1           0.00000   0.00000  -0.00000  -0.00000  -0.00000
           A2           0.00000   0.00000  -0.00000  -0.00000  -0.00000
           A3           0.00000   0.00000  -0.00000  -0.00000  -0.00000
           A4           0.00000   0.00000  -0.00000  -0.00000  -0.00000
                          Z2        R1        R2        A1        A2
           Z2           0.50000
           R1          -0.00000   0.86349
           R2          -0.00000   0.04117   0.86352
           A1           0.00000  -0.00000  -0.00000   0.03213
           A2           0.00000  -0.00000  -0.00000   0.00000   0.03213
           A3           0.00000  -0.00000  -0.00000   0.00000   0.00000
           A4           0.00000  -0.00000  -0.00000   0.00000   0.00000
                          A3        A4
           A3           0.03213
           A4           0.00000   0.03213
 ITU=  1  0
 Use linear search instead of GDIIS.
     Eigenvalues ---    0.03213   0.03213   0.03213   0.82233   0.90468
     Eigenvalues --- 1000.000001000.000001000.000001000.000001000.00000
     Eigenvalues --- 1000.000001000.00000
 RFO step:  Lambda=-7.19872061D-05 EMin= 3.21306420D-02
 Quartic linear search produced a step of  0.98858.
 Iteration  1 RMS(Cart)=  0.08164966 RMS(Int)=  0.00396418
 Iteration  2 RMS(Cart)=  0.00396418 RMS(Int)=  0.00000000
 Iteration  3 RMS(Cart)=  0.00000000 RMS(Int)=  0.00000000
 ITry= 1 IFail=0 DXMaxC= 2.10D-01 DCOld= 1.00D+10 DXMaxT= 5.05D-01 DXLimC= 3.00D+00 Rises=F
 Variable       Old X    -DE/DX   Delta X   Delta X   Delta X     New X
                                 (Linear)    (Quad)   (Total)
    X1       -0.93933  -0.09333   0.00000   0.00000   0.00000  -0.93933
    Y1        0.00000   0.00000   0.00000   0.00000   0.00000   0.00000
    Z1        0.00000  -0.00000   0.00000   0.00000   0.00000   0.00000
    X2        0.93933   0.09333   0.00000   0.00000   0.00000   0.93933
    Y2        0.00000  -0.00000   0.00000   0.00000   0.00000   0.00000
    Z2        0.00000   0.00000   0.00000   0.00000   0.00000   0.00000
    R1        1.84647   0.09333   0.20971   0.00000   0.20971   2.05618
    R2        1.84646   0.09333   0.20971  -0.00000   0.20971   2.05617
    A1        3.14159   0.00000   0.00000   0.00000   0.00000   3.14159
    A2        3.14159   0.00000   0.00000  -0.00000   0.00000   3.14159
    A3        3.14159   0.00000   0.00000   0.00000   0.00000   3.14159
    A4        3.14159   0.00000   0.00000   0.00000   0.00000   3.14159
         Item               Value     Threshold  Converged?
 Maximum Force            0.093333     0.000450     NO 
 RMS     Force            0.053884     0.000300     NO 
 Maximum Displacement     0.209711     0.001800     NO 
 RMS     Displacement     0.085614     0.001200     NO 
 Predicted change in Energy=-6.414984D-04
 Lowest energy point so far.  Saving SCF results.
 GradGradGradGradGradGradGradGradGradGradGradGradGradGradGradGradGradGrad

 Leave Link  103 at Tue Nov 19 12:51:58 2024, MaxMem=  2147483648 cpu:              30.9 elap:               2.3
 (Enter /home/szhao/Apps/g16/l202.exe)
                          Input orientation:                          
 ---------------------------------------------------------------------
 Center     Atomic      Atomic             Coordinates (Angstroms)
 Number     Number       Type             X           Y           Z
 ---------------------------------------------------------------------
      1          6           0       -0.497074    0.000000    0.000000
      2          6           0        0.497074    0.000000    0.000000
      3          1           0       -1.585156    0.000000   -0.000000
      4          1           0        1.585152   -0.000000    0.000000
 ---------------------------------------------------------------------
                    Distance matrix (angstroms):
                    1          2          3          4
     1  C    0.000000
     2  C    0.994148   0.000000
     3  H    1.088082   2.082230   0.000000
     4  H    2.082226   1.088078   3.170308   0.000000
 Symmetry turned off by external request.
 Stoichiometry    C2H2(1+,2)
 Framework group  C*V[C*(HCCH)]
 Deg. of freedom     3
 Full point group                 C*V     NOp   4
 Rotational constants (GHZ):           0.0000000          45.9655567          45.9655567
 Leave Link  202 at Tue Nov 19 12:51:58 2024, MaxMem=  2147483648 cpu:               3.6 elap:               0.3
 (Enter /home/szhao/Apps/g16/l301.exe)
 Standard basis: 6-311+G(d,p) (5D, 7F)
 Ernie: Thresh=  0.10000D-02 Tol=  0.10000D-05 Strict=F.
    56 basis functions,    88 primitive gaussians,    58 cartesian basis functions
     7 alpha electrons        6 beta electrons
       nuclear repulsion energy        28.2151975841 Hartrees.
 IExCor= 4336 DFT=T Ex+Corr=M062X ExCW=0 ScaHFX=  0.540000
 ScaDFX=  1.000000  1.000000  1.000000  1.000000 ScalE2=  1.000000  1.000000
 IRadAn=      7 IRanWt=     -1 IRanGd=            0 ICorTp=0 IEmpDi=  4
 NAtoms=    4 NActive=    4 NUniq=    4 SFac= 1.00D+00 NAtFMM=   60 NAOKFM=F Big=F
 Integral buffers will be    131072 words long.
 Raffenetti 2 integral format.
 Two-electron integral symmetry is turned off.
 Leave Link  301 at Tue Nov 19 12:51:58 2024, MaxMem=  2147483648 cpu:               1.6 elap:               0.1
 (Enter /home/szhao/Apps/g16/l302.exe)
 NPDir=0 NMtPBC=     1 NCelOv=     1 NCel=       1 NClECP=     1 NCelD=      1
         NCelK=      1 NCelE2=     1 NClLst=     1 CellRange=     0.0.
 One-electron integrals computed using PRISM.
 NBasis=    56 RedAO= T EigKep=  3.31D-05  NBF=    56
 NBsUse=    56 1.00D-06 EigRej= -1.00D+00 NBFU=    56
 Precomputing XC quadrature grid using
 IXCGrd= 4 IRadAn=           7 IRanWt=          -1 IRanGd=           0 AccXCQ= 0.00D+00.
 Generated NRdTot=       0 NPtTot=           0 NUsed=           0 NTot=          32
 NSgBfM=    58    58    58    58    58 MxSgAt=     4 MxSgA2=     4.
 Leave Link  302 at Tue Nov 19 12:51:59 2024, MaxMem=  2147483648 cpu:              10.8 elap:               0.7
 (Enter /home/szhao/Apps/g16/l303.exe)
 DipDrv:  MaxL=1.
 Leave Link  303 at Tue Nov 19 12:51:59 2024, MaxMem=  2147483648 cpu:               2.7 elap:               0.2
 (Enter /home/szhao/Apps/g16/l401.exe)
 Initial guess from the checkpoint file:  "opt.chk"
 B after Tr=     0.000000   -0.000000   -0.000000
         Rot=    0.968659    0.248393    0.000000    0.000000 Ang=  28.76 deg.
 Guess basis will be translated and rotated to current coordinates.
 JPrj=2 DoOrth=T DoCkMO=T.
 Initial guess <Sx>= 0.0000 <Sy>= 0.0000 <Sz>= 0.5000 <S**2>= 0.7520 S= 0.5010
 Generating alternative initial guess.
 ExpMin= 4.38D-02 ExpMax= 4.56D+03 ExpMxC= 6.82D+02 IAcc=3 IRadAn=         5 AccDes= 0.00D+00
 Harris functional with IExCor= 1009 and IRadAn=       5 diagonalized for initial guess.
 HarFok:  IExCor= 1009 AccDes= 0.00D+00 IRadAn=         5 IDoV= 1 UseB2=F ITyADJ=14
 ICtDFT=  3500011 ScaDFX=  1.000000  1.000000  1.000000  1.000000
 FoFCou: FMM=F IPFlag=           0 FMFlag=      100000 FMFlg1=           0
         NFxFlg=           0 DoJE=T BraDBF=F KetDBF=T FulRan=T
         wScrn=  0.000000 ICntrl=       500 IOpCl=  0 I1Cent=   200000004 NGrid=           0
         NMat0=    1 NMatS0=      1 NMatT0=    0 NMatD0=    1 NMtDS0=    0 NMtDT0=    0
 Symmetry not used in FoFCou.
 Harris En= -76.7877438323396    
 Leave Link  401 at Tue Nov 19 12:52:01 2024, MaxMem=  2147483648 cpu:              21.0 elap:               1.2
 (Enter /home/szhao/Apps/g16/l502.exe)
 Keep R1 and R2 ints in memory in canonical form, NReq=23774294.
 FoFCou: FMM=F IPFlag=           0 FMFlag=           0 FMFlg1=           0
         NFxFlg=           0 DoJE=F BraDBF=F KetDBF=F FulRan=T
         wScrn=  0.000000 ICntrl=       600 IOpCl=  0 I1Cent=           0 NGrid=           0
         NMat0=    1 NMatS0=   1596 NMatT0=    0 NMatD0=    1 NMtDS0=    0 NMtDT0=    0
 Symmetry not used in FoFCou.
 Two-electron integral symmetry not used.
 UHF open shell SCF:
 Using DIIS extrapolation, IDIIS=  1040.
 NGot=  2147483648 LenX=  2144926146 LenY=  2144922341
 Requested convergence on RMS density matrix=1.00D-08 within 128 cycles.
 Requested convergence on MAX density matrix=1.00D-06.
 Requested convergence on             energy=1.00D-06.
 No special actions if energy rises.

 Cycle   1  Pass 1  IDiag  1:
 E= -76.7211391672408    
 DIIS: error= 1.39D-02 at cycle   1 NSaved=   1.
 NSaved= 1 IEnMin= 1 EnMin= -76.7211391672408     IErMin= 1 ErrMin= 1.39D-02
 ErrMax= 1.39D-02  0.00D+00 EMaxC= 1.00D-01 BMatC= 2.80D-02 BMatP= 2.80D-02
 IDIUse=3 WtCom= 8.61D-01 WtEn= 1.39D-01
 Coeff-Com:  0.100D+01
 Coeff-En:   0.100D+01
 Coeff:      0.100D+01
 Recover alternate guess density for next cycle.
 RMSDP=4.44D-03 MaxDP=6.87D-02              OVMax= 0.00D+00

 Cycle   2  Pass 1  IDiag  1:
 E= -76.6850241176118     Delta-E=        0.036115049629 Rises=F Damp=F
 Switch densities from cycles 1 and 2 for lowest energy.
 DIIS: error= 4.69D-02 at cycle   2 NSaved=   2.
 NSaved= 2 IEnMin= 1 EnMin= -76.7211391672408     IErMin= 1 ErrMin= 1.39D-02
 ErrMax= 4.69D-02  0.00D+00 EMaxC= 1.00D+00 BMatC= 2.46D-01 BMatP= 2.80D-02
 IDIUse=1 WtCom= 1.00D+00 WtEn= 0.00D+00
 Coeff-Com:  0.921D+00 0.786D-01
 Coeff:      0.921D+00 0.786D-01
 Gap=     0.622 Goal=   None    Shift=    0.000
 Gap=     0.242 Goal=   None    Shift=    0.000
 RMSDP=2.55D-03 MaxDP=4.23D-02 DE= 3.61D-02 OVMax= 1.46D-01

 Cycle   3  Pass 1  IDiag  1:
 E= -76.7261643518872     Delta-E=       -0.041140234275 Rises=F Damp=F
 DIIS: error= 1.62D-03 at cycle   3 NSaved=   3.
 NSaved= 3 IEnMin= 3 EnMin= -76.7261643518872     IErMin= 3 ErrMin= 1.62D-03
 ErrMax= 1.62D-03  0.00D+00 EMaxC= 1.00D+00 BMatC= 3.47D-04 BMatP= 2.80D-02
 IDIUse=1 WtCom= 1.00D+00 WtEn= 0.00D+00
 Coeff-Com: -0.819D-03 0.208D-01 0.980D+00
 Coeff:     -0.819D-03 0.208D-01 0.980D+00
 Gap=     0.585 Goal=   None    Shift=    0.000
 Gap=     0.241 Goal=   None    Shift=    0.000
 RMSDP=5.22D-04 MaxDP=1.35D-02 DE=-4.11D-02 OVMax= 3.89D-03

 Cycle   4  Pass 1  IDiag  1:
 E= -76.7262308935114     Delta-E=       -0.000066541624 Rises=F Damp=F
 DIIS: error= 2.35D-04 at cycle   4 NSaved=   4.
 NSaved= 4 IEnMin= 4 EnMin= -76.7262308935114     IErMin= 4 ErrMin= 2.35D-04
 ErrMax= 2.35D-04  0.00D+00 EMaxC= 1.00D+00 BMatC= 7.26D-06 BMatP= 3.47D-04
 IDIUse=1 WtCom= 1.00D+00 WtEn= 0.00D+00
 Coeff-Com: -0.388D-02-0.235D-02 0.553D-01 0.951D+00
 Coeff:     -0.388D-02-0.235D-02 0.553D-01 0.951D+00
 Gap=     0.585 Goal=   None    Shift=    0.000
 Gap=     0.241 Goal=   None    Shift=    0.000
 RMSDP=3.79D-05 MaxDP=6.01D-04 DE=-6.65D-05 OVMax= 6.47D-04

 Cycle   5  Pass 1  IDiag  1:
 E= -76.7262326623080     Delta-E=       -0.000001768797 Rises=F Damp=F
 DIIS: error= 5.12D-05 at cycle   5 NSaved=   5.
 NSaved= 5 IEnMin= 5 EnMin= -76.7262326623080     IErMin= 5 ErrMin= 5.12D-05
 ErrMax= 5.12D-05  0.00D+00 EMaxC= 1.00D+00 BMatC= 1.70D-07 BMatP= 7.26D-06
 IDIUse=1 WtCom= 1.00D+00 WtEn= 0.00D+00
 Coeff-Com:  0.825D-04 0.554D-04-0.168D-01-0.530D-01 0.107D+01
 Coeff:      0.825D-04 0.554D-04-0.168D-01-0.530D-01 0.107D+01
 Gap=     0.585 Goal=   None    Shift=    0.000
 Gap=     0.241 Goal=   None    Shift=    0.000
 RMSDP=1.22D-05 MaxDP=1.91D-04 DE=-1.77D-06 OVMax= 1.31D-04

 Cycle   6  Pass 1  IDiag  1:
 E= -76.7262327457023     Delta-E=       -0.000000083394 Rises=F Damp=F
 DIIS: error= 1.94D-05 at cycle   6 NSaved=   6.
 NSaved= 6 IEnMin= 6 EnMin= -76.7262327457023     IErMin= 6 ErrMin= 1.94D-05
 ErrMax= 1.94D-05  0.00D+00 EMaxC= 1.00D+00 BMatC= 1.78D-08 BMatP= 1.70D-07
 IDIUse=1 WtCom= 1.00D+00 WtEn= 0.00D+00
 Coeff-Com:  0.229D-03-0.417D-04 0.350D-02-0.170D-01-0.389D+00 0.140D+01
 Coeff:      0.229D-03-0.417D-04 0.350D-02-0.170D-01-0.389D+00 0.140D+01
 Gap=     0.585 Goal=   None    Shift=    0.000
 Gap=     0.241 Goal=   None    Shift=    0.000
 RMSDP=4.51D-06 MaxDP=7.31D-05 DE=-8.34D-08 OVMax= 7.02D-05

 Cycle   7  Pass 1  IDiag  1:
 E= -76.7262327572064     Delta-E=       -0.000000011504 Rises=F Damp=F
 DIIS: error= 4.25D-06 at cycle   7 NSaved=   7.
 NSaved= 7 IEnMin= 7 EnMin= -76.7262327572064     IErMin= 7 ErrMin= 4.25D-06
 ErrMax= 4.25D-06  0.00D+00 EMaxC= 1.00D+00 BMatC= 6.70D-10 BMatP= 1.78D-08
 IDIUse=1 WtCom= 1.00D+00 WtEn= 0.00D+00
 Coeff-Com: -0.502D-04 0.353D-04 0.694D-03 0.537D-02-0.105D-01-0.159D+00
 Coeff-Com:  0.116D+01
 Coeff:     -0.502D-04 0.353D-04 0.694D-03 0.537D-02-0.105D-01-0.159D+00
 Coeff:      0.116D+01
 Gap=     0.585 Goal=   None    Shift=    0.000
 Gap=     0.241 Goal=   None    Shift=    0.000
 RMSDP=1.05D-06 MaxDP=1.64D-05 DE=-1.15D-08 OVMax= 1.26D-05

 Cycle   8  Pass 1  IDiag  1:
 E= -76.7262327575204     Delta-E=       -0.000000000314 Rises=F Damp=F
 DIIS: error= 5.00D-07 at cycle   8 NSaved=   8.
 NSaved= 8 IEnMin= 8 EnMin= -76.7262327575204     IErMin= 8 ErrMin= 5.00D-07
 ErrMax= 5.00D-07  0.00D+00 EMaxC= 1.00D+00 BMatC= 8.72D-12 BMatP= 6.70D-10
 IDIUse=1 WtCom= 1.00D+00 WtEn= 0.00D+00
 Coeff-Com: -0.145D-05-0.233D-05-0.594D-04-0.660D-04 0.734D-02-0.254D-01
 Coeff-Com: -0.300D-01 0.105D+01
 Coeff:     -0.145D-05-0.233D-05-0.594D-04-0.660D-04 0.734D-02-0.254D-01
 Coeff:     -0.300D-01 0.105D+01
 Gap=     0.585 Goal=   None    Shift=    0.000
 Gap=     0.241 Goal=   None    Shift=    0.000
 RMSDP=1.24D-07 MaxDP=2.06D-06 DE=-3.14D-10 OVMax= 1.69D-06

 Cycle   9  Pass 1  IDiag  1:
 E= -76.7262327575255     Delta-E=       -0.000000000005 Rises=F Damp=F
 DIIS: error= 1.52D-07 at cycle   9 NSaved=   9.
 NSaved= 9 IEnMin= 9 EnMin= -76.7262327575255     IErMin= 9 ErrMin= 1.52D-07
 ErrMax= 1.52D-07  0.00D+00 EMaxC= 1.00D+00 BMatC= 6.12D-13 BMatP= 8.72D-12
 IDIUse=1 WtCom= 1.00D+00 WtEn= 0.00D+00
 Coeff-Com:  0.558D-07-0.397D-06-0.128D-04-0.299D-04 0.103D-02-0.225D-02
 Coeff-Com: -0.107D-01 0.103D+00 0.909D+00
 Coeff:      0.558D-07-0.397D-06-0.128D-04-0.299D-04 0.103D-02-0.225D-02
 Coeff:     -0.107D-01 0.103D+00 0.909D+00
 Gap=     0.585 Goal=   None    Shift=    0.000
 Gap=     0.241 Goal=   None    Shift=    0.000
 RMSDP=1.24D-08 MaxDP=1.57D-07 DE=-5.03D-12 OVMax= 1.63D-06

 Cycle  10  Pass 1  IDiag  1:
 E= -76.7262327575269     Delta-E=       -0.000000000001 Rises=F Damp=F
 DIIS: error= 1.53D-07 at cycle  10 NSaved=  10.
 NSaved=10 IEnMin=10 EnMin= -76.7262327575269     IErMin= 9 ErrMin= 1.52D-07
 ErrMax= 1.53D-07  0.00D+00 EMaxC= 1.00D+00 BMatC= 5.00D-13 BMatP= 6.12D-13
 IDIUse=1 WtCom= 1.00D+00 WtEn= 0.00D+00
 Coeff-Com:  0.176D-06 0.146D-06 0.154D-05-0.478D-06-0.446D-03 0.212D-02
 Coeff-Com: -0.822D-03-0.913D-01 0.402D+00 0.689D+00
 Coeff:      0.176D-06 0.146D-06 0.154D-05-0.478D-06-0.446D-03 0.212D-02
 Coeff:     -0.822D-03-0.913D-01 0.402D+00 0.689D+00
 Gap=     0.585 Goal=   None    Shift=    0.000
 Gap=     0.241 Goal=   None    Shift=    0.000
 RMSDP=9.19D-09 MaxDP=1.37D-07 DE=-1.48D-12 OVMax= 1.43D-06

 SCF Done:  E(UM062X) =  -76.7262327575     A.U. after   10 cycles
            NFock= 10  Conv=0.92D-08     -V/T= 1.9818
 <Sx>= 0.0000 <Sy>= 0.0000 <Sz>= 0.5000 <S**2>= 0.7522 S= 0.5011
 <L.S>=  0.00000000000    
 KE= 7.814756308562D+01 PE=-2.313108195926D+02 EE= 4.822182616536D+01
 Annihilation of the first spin contaminant:
 S**2 before annihilation     0.7522,   after     0.7500
 Leave Link  502 at Tue Nov 19 12:52:06 2024, MaxMem=  2147483648 cpu:              96.5 elap:               4.9
 (Enter /home/szhao/Apps/g16/l701.exe)
 ... and contract with generalized density number  0.
 Compute integral first derivatives.
 Leave Link  701 at Tue Nov 19 12:52:06 2024, MaxMem=  2147483648 cpu:               3.5 elap:               0.2
 (Enter /home/szhao/Apps/g16/l702.exe)
 L702 exits ... SP integral derivatives will be done elsewhere.
 Leave Link  702 at Tue Nov 19 12:52:06 2024, MaxMem=  2147483648 cpu:               1.6 elap:               0.1
 (Enter /home/szhao/Apps/g16/l703.exe)
 Integral derivatives from FoFJK, PRISM(SPDF).
 Compute integral first derivatives, UseDBF=F ICtDFT=           0.
 Calling FoFJK, ICntrl=      2127 FMM=F ISym2X=0 I1Cent= 0 IOpClX= 1 NMat=1 NMatS=1 NMatT=0.
 FoFJK:  IHMeth= 1 ICntrl=    2127 DoSepK=F KAlg= 0 I1Cent=           0 FoldK=F
 IRaf=         0 NMat=       1 IRICut=       1 DoRegI=T DoRafI=F ISym2E= 0 IDoP0=0 IntGTp=1.
 FoFCou: FMM=F IPFlag=           0 FMFlag=      100000 FMFlg1=         800
         NFxFlg=           0 DoJE=F BraDBF=F KetDBF=F FulRan=T
         wScrn=  0.000000 ICntrl=      2127 IOpCl=  1 I1Cent=           0 NGrid=           0
         NMat0=    1 NMatS0=      1 NMatT0=    0 NMatD0=    1 NMtDS0=    0 NMtDT0=    0
 Symmetry not used in FoFCou.
 Leave Link  703 at Tue Nov 19 12:52:07 2024, MaxMem=  2147483648 cpu:              13.7 elap:               0.6
 (Enter /home/szhao/Apps/g16/l716.exe)
 Dipole        =-2.97052877D-06-3.16422865D-11-1.77524484D-11
 -------------------------------------------------------------------
 Center     Atomic                   Forces (Hartrees/Bohr)
 Number     Number              X              Y              Z
 -------------------------------------------------------------------
      1        6          -0.000000000   -0.000000000   -0.000000000
      2        6          -0.000000000   -0.000000000   -0.000000000
      3        1           0.010301072   -0.000000000    0.000000000
      4        1          -0.010298703    0.000000000   -0.000000000
 -------------------------------------------------------------------
 Cartesian Forces:  Max     0.010301072 RMS     0.004204912
 Leave Link  716 at Tue Nov 19 12:52:07 2024, MaxMem=  2147483648 cpu:               1.4 elap:               0.1
 (Enter /home/szhao/Apps/g16/l103.exe)

 GradGradGradGradGradGradGradGradGradGradGradGradGradGradGradGradGradGrad
 Berny optimization.
 Using GEDIIS/GDIIS optimizer.
 FormGI is forming the generalized inverse of G from B-inverse, IUseBI=4.
 Internal  Forces:  Max     0.010301072 RMS     0.005946643
 Search for a local minimum.
 Step number   3 out of a maximum of   22
 All quantities printed in internal units (Hartrees-Bohrs-Radians)
 RMS Force = .59466D-02 SwitMx=.10000D-02 MixMth= 1
 Mixed Optimization -- RFO/linear search
 Update second derivatives using D2CorX and points    1    2    3
 DE= -1.52D-02 DEPred=-6.41D-04 R= 2.37D+01
 TightC=F SS=  1.41D+00  RLast= 2.97D-01 DXNew= 8.4853D-01 8.8973D-01
 Trust test= 2.37D+01 RLast= 2.97D-01 DXMaxT set to 8.49D-01
 The second derivative matrix:
                          X1        Y1        Z1        X2        Y2
           X1           0.74707
           Y1          -0.00000   0.50000
           Z1          -0.00000   0.00000   0.50000
           X2          -0.24708   0.00000   0.00000   0.74709
           Y2           0.00000  -0.00000  -0.00000  -0.00000   0.50000
           Z2           0.00000  -0.00000  -0.00000  -0.00000   0.00000
           R1          -0.24707   0.00000   0.00000   0.24707  -0.00000
           R2          -0.24709   0.00000   0.00000   0.24709  -0.00000
           A1           0.00000  -0.00000  -0.00000  -0.00000   0.00000
           A2           0.00000  -0.00000  -0.00000  -0.00000   0.00000
           A3          -0.00000   0.00000   0.00000   0.00000  -0.00000
           A4          -0.00000   0.00000   0.00000   0.00000  -0.00000
                          Z2        R1        R2        A1        A2
           Z2           0.50000
           R1          -0.00000   0.65824
           R2          -0.00000  -0.16409   0.65825
           A1           0.00000  -0.00000  -0.00000   0.03213
           A2           0.00000  -0.00000  -0.00000   0.00000   0.03213
           A3          -0.00000   0.00000   0.00000  -0.00000  -0.00000
           A4          -0.00000   0.00000   0.00000  -0.00000  -0.00000
                          A3        A4
           A3           0.03213
           A4           0.00000   0.03213
 ITU=  1  1  0
 Use linear search instead of GDIIS.
     Eigenvalues ---    0.03213   0.03213   0.03213   0.49416   0.82233
     Eigenvalues --- 1000.000001000.000001000.000001000.000001000.00000
     Eigenvalues --- 1000.000001000.00000
 RFO step:  Lambda=-3.79441578D-07 EMin= 3.21306420D-02
 Quartic linear search produced a step of -0.13291.
 Iteration  1 RMS(Cart)=  0.01137921 RMS(Int)=  0.00000000
 Iteration  2 RMS(Cart)=  0.00000000 RMS(Int)=  0.00000000
 ITry= 1 IFail=0 DXMaxC= 2.79D-02 DCOld= 1.00D+10 DXMaxT= 8.49D-01 DXLimC= 3.00D+00 Rises=F
 Variable       Old X    -DE/DX   Delta X   Delta X   Delta X     New X
                                 (Linear)    (Quad)   (Total)
    X1       -0.93933   0.01030   0.00000   0.00000   0.00000  -0.93933
    Y1        0.00000  -0.00000   0.00000   0.00000   0.00000   0.00000
    Z1        0.00000  -0.00000   0.00000   0.00000   0.00000   0.00000
    X2        0.93933  -0.01030   0.00000   0.00000   0.00000   0.93933
    Y2        0.00000   0.00000   0.00000   0.00000   0.00000   0.00000
    Z2        0.00000   0.00000   0.00000   0.00000   0.00000   0.00000
    R1        2.05618  -0.01030  -0.02787  -0.00000  -0.02787   2.02830
    R2        2.05617  -0.01030  -0.02787   0.00000  -0.02787   2.02830
    A1        3.14159   0.00000   0.00000   0.00000   0.00000   3.14159
    A2        3.14159   0.00000   0.00000   0.00000   0.00000   3.14159
    A3        3.14159   0.00000   0.00000   0.00000   0.00000   3.14159
    A4        3.14159  -0.00000   0.00000  -0.00000   0.00000   3.14159
         Item               Value     Threshold  Converged?
 Maximum Force            0.010301     0.000450     NO 
 RMS     Force            0.005947     0.000300     NO 
 Maximum Displacement     0.027875     0.001800     NO 
 RMS     Displacement     0.011379     0.001200     NO 
 Predicted change in Energy=-1.902612D-04
 Lowest energy point so far.  Saving SCF results.
 GradGradGradGradGradGradGradGradGradGradGradGradGradGradGradGradGradGrad

 Leave Link  103 at Tue Nov 19 12:52:07 2024, MaxMem=  2147483648 cpu:               1.2 elap:               0.1
 (Enter /home/szhao/Apps/g16/l202.exe)
                          Input orientation:                          
 ---------------------------------------------------------------------
 Center     Atomic      Atomic             Coordinates (Angstroms)
 Number     Number       Type             X           Y           Z
 ---------------------------------------------------------------------
      1          6           0       -0.497074    0.000000    0.000000
      2          6           0        0.497074    0.000000    0.000000
      3          1           0       -1.570405    0.000000   -0.000000
      4          1           0        1.570403    0.000000    0.000000
 ---------------------------------------------------------------------
                    Distance matrix (angstroms):
                    1          2          3          4
     1  C    0.000000
     2  C    0.994148   0.000000
     3  H    1.073331   2.067479   0.000000
     4  H    2.067477   1.073329   3.140808   0.000000
 Symmetry turned off by external request.
 Stoichiometry    C2H2(1+,2)
 Framework group  C*V[C*(HCCH)]
 Deg. of freedom     3
 Full point group                 C*V     NOp   4
 Rotational constants (GHZ):           0.0000000          46.3611507          46.3611507
 Leave Link  202 at Tue Nov 19 12:52:07 2024, MaxMem=  2147483648 cpu:               1.8 elap:               0.1
 (Enter /home/szhao/Apps/g16/l301.exe)
 Standard basis: 6-311+G(d,p) (5D, 7F)
 Ernie: Thresh=  0.10000D-02 Tol=  0.10000D-05 Strict=F.
    56 basis functions,    88 primitive gaussians,    58 cartesian basis functions
     7 alpha electrons        6 beta electrons
       nuclear repulsion energy        28.3187229562 Hartrees.
 IExCor= 4336 DFT=T Ex+Corr=M062X ExCW=0 ScaHFX=  0.540000
 ScaDFX=  1.000000  1.000000  1.000000  1.000000 ScalE2=  1.000000  1.000000
 IRadAn=      7 IRanWt=     -1 IRanGd=            0 ICorTp=0 IEmpDi=  4
 NAtoms=    4 NActive=    4 NUniq=    4 SFac= 1.00D+00 NAtFMM=   60 NAOKFM=F Big=F
 Integral buffers will be    131072 words long.
 Raffenetti 2 integral format.
 Two-electron integral symmetry is turned off.
 Leave Link  301 at Tue Nov 19 12:52:08 2024, MaxMem=  2147483648 cpu:               2.5 elap:               0.2
 (Enter /home/szhao/Apps/g16/l302.exe)
 NPDir=0 NMtPBC=     1 NCelOv=     1 NCel=       1 NClECP=     1 NCelD=      1
         NCelK=      1 NCelE2=     1 NClLst=     1 CellRange=     0.0.
 One-electron integrals computed using PRISM.
 NBasis=    56 RedAO= T EigKep=  3.32D-05  NBF=    56
 NBsUse=    56 1.00D-06 EigRej= -1.00D+00 NBFU=    56
 Precomputing XC quadrature grid using
 IXCGrd= 4 IRadAn=           7 IRanWt=          -1 IRanGd=           0 AccXCQ= 0.00D+00.
 Generated NRdTot=       0 NPtTot=           0 NUsed=           0 NTot=          32
 NSgBfM=    58    58    58    58    58 MxSgAt=     4 MxSgA2=     4.
 Leave Link  302 at Tue Nov 19 12:52:08 2024, MaxMem=  2147483648 cpu:               9.7 elap:               0.5
 (Enter /home/szhao/Apps/g16/l303.exe)
 DipDrv:  MaxL=1.
 Leave Link  303 at Tue Nov 19 12:52:09 2024, MaxMem=  2147483648 cpu:               2.5 elap:               0.2
 (Enter /home/szhao/Apps/g16/l401.exe)
 Initial guess from the checkpoint file:  "opt.chk"
 B after Tr=     0.000000    0.000000    0.000000
         Rot=    0.942259    0.334886    0.000000   -0.000000 Ang=  39.13 deg.
 Guess basis will be translated and rotated to current coordinates.
 JPrj=2 DoOrth=T DoCkMO=T.
 Initial guess <Sx>= 0.0000 <Sy>= 0.0000 <Sz>= 0.5000 <S**2>= 0.7522 S= 0.5011
 Generating alternative initial guess.
 ExpMin= 4.38D-02 ExpMax= 4.56D+03 ExpMxC= 6.82D+02 IAcc=3 IRadAn=         5 AccDes= 0.00D+00
 Harris functional with IExCor= 1009 and IRadAn=       5 diagonalized for initial guess.
 HarFok:  IExCor= 1009 AccDes= 0.00D+00 IRadAn=         5 IDoV= 1 UseB2=F ITyADJ=14
 ICtDFT=  3500011 ScaDFX=  1.000000  1.000000  1.000000  1.000000
 FoFCou: FMM=F IPFlag=           0 FMFlag=      100000 FMFlg1=           0
         NFxFlg=           0 DoJE=T BraDBF=F KetDBF=T FulRan=T
         wScrn=  0.000000 ICntrl=       500 IOpCl=  0 I1Cent=   200000004 NGrid=           0
         NMat0=    1 NMatS0=      1 NMatT0=    0 NMatD0=    1 NMtDS0=    0 NMtDT0=    0
 Symmetry not used in FoFCou.
 Harris En= -76.7883036053507    
 Leave Link  401 at Tue Nov 19 12:52:10 2024, MaxMem=  2147483648 cpu:              25.6 elap:               1.5
 (Enter /home/szhao/Apps/g16/l502.exe)
 Keep R1 and R2 ints in memory in canonical form, NReq=23774294.
 FoFCou: FMM=F IPFlag=           0 FMFlag=           0 FMFlg1=           0
         NFxFlg=           0 DoJE=F BraDBF=F KetDBF=F FulRan=T
         wScrn=  0.000000 ICntrl=       600 IOpCl=  0 I1Cent=           0 NGrid=           0
         NMat0=    1 NMatS0=   1596 NMatT0=    0 NMatD0=    1 NMtDS0=    0 NMtDT0=    0
 Symmetry not used in FoFCou.
 Two-electron integral symmetry not used.
 UHF open shell SCF:
 Using DIIS extrapolation, IDIIS=  1040.
 NGot=  2147483648 LenX=  2144926146 LenY=  2144922341
 Requested convergence on RMS density matrix=1.00D-08 within 128 cycles.
 Requested convergence on MAX density matrix=1.00D-06.
 Requested convergence on             energy=1.00D-06.
 No special actions if energy rises.

 Cycle   1  Pass 1  IDiag  1:
 E= -76.7264444921176    
 DIIS: error= 1.68D-03 at cycle   1 NSaved=   1.
 NSaved= 1 IEnMin= 1 EnMin= -76.7264444921176     IErMin= 1 ErrMin= 1.68D-03
 ErrMax= 1.68D-03  0.00D+00 EMaxC= 1.00D-01 BMatC= 3.82D-04 BMatP= 3.82D-04
 IDIUse=3 WtCom= 9.83D-01 WtEn= 1.68D-02
 Coeff-Com:  0.100D+01
 Coeff-En:   0.100D+01
 Coeff:      0.100D+01
 Gap=     0.802 Goal=   None    Shift=    0.000
 Gap=     0.754 Goal=   None    Shift=    0.000
 GapD=    0.754 DampG=2.000 DampE=1.000 DampFc=2.0000 IDamp=-1.
 RMSDP=3.62D-04 MaxDP=6.37D-03              OVMax= 3.41D-03

 Cycle   2  Pass 1  IDiag  1:
 E= -76.7265198299507     Delta-E=       -0.000075337833 Rises=F Damp=F
 DIIS: error= 1.34D-04 at cycle   2 NSaved=   2.
 NSaved= 2 IEnMin= 2 EnMin= -76.7265198299507     IErMin= 2 ErrMin= 1.34D-04
 ErrMax= 1.34D-04  0.00D+00 EMaxC= 1.00D-01 BMatC= 4.32D-06 BMatP= 3.82D-04
 IDIUse=3 WtCom= 9.99D-01 WtEn= 1.34D-03
 Coeff-Com:  0.128D-01 0.987D+00
 Coeff-En:   0.000D+00 0.100D+01
 Coeff:      0.128D-01 0.987D+00
 Gap=     0.585 Goal=   None    Shift=    0.000
 Gap=     0.241 Goal=   None    Shift=    0.000
 RMSDP=4.59D-05 MaxDP=1.19D-03 DE=-7.53D-05 OVMax= 2.30D-04

 Cycle   3  Pass 1  IDiag  1:
 E= -76.7265205518930     Delta-E=       -0.000000721942 Rises=F Damp=F
 DIIS: error= 1.89D-05 at cycle   3 NSaved=   3.
 NSaved= 3 IEnMin= 3 EnMin= -76.7265205518930     IErMin= 3 ErrMin= 1.89D-05
 ErrMax= 1.89D-05  0.00D+00 EMaxC= 1.00D-01 BMatC= 4.68D-08 BMatP= 4.32D-06
 IDIUse=1 WtCom= 1.00D+00 WtEn= 0.00D+00
 Coeff-Com: -0.601D-02 0.180D-01 0.988D+00
 Coeff:     -0.601D-02 0.180D-01 0.988D+00
 Gap=     0.585 Goal=   None    Shift=    0.000
 Gap=     0.241 Goal=   None    Shift=    0.000
 RMSDP=5.38D-06 MaxDP=8.23D-05 DE=-7.22D-07 OVMax= 5.49D-05

 Cycle   4  Pass 1  IDiag  1:
 E= -76.7265205666221     Delta-E=       -0.000000014729 Rises=F Damp=F
 DIIS: error= 3.88D-06 at cycle   4 NSaved=   4.
 NSaved= 4 IEnMin= 4 EnMin= -76.7265205666221     IErMin= 4 ErrMin= 3.88D-06
 ErrMax= 3.88D-06  0.00D+00 EMaxC= 1.00D-01 BMatC= 1.49D-09 BMatP= 4.68D-08
 IDIUse=1 WtCom= 1.00D+00 WtEn= 0.00D+00
 Coeff-Com:  0.271D-06-0.112D-01-0.100D-01 0.102D+01
 Coeff:      0.271D-06-0.112D-01-0.100D-01 0.102D+01
 Gap=     0.585 Goal=   None    Shift=    0.000
 Gap=     0.241 Goal=   None    Shift=    0.000
 RMSDP=1.50D-06 MaxDP=2.23D-05 DE=-1.47D-08 OVMax= 1.01D-05

 Cycle   5  Pass 1  IDiag  1:
 E= -76.7265205671794     Delta-E=       -0.000000000557 Rises=F Damp=F
 DIIS: error= 2.16D-06 at cycle   5 NSaved=   5.
 NSaved= 5 IEnMin= 5 EnMin= -76.7265205671794     IErMin= 5 ErrMin= 2.16D-06
 ErrMax= 2.16D-06  0.00D+00 EMaxC= 1.00D-01 BMatC= 1.89D-10 BMatP= 1.49D-09
 IDIUse=1 WtCom= 1.00D+00 WtEn= 0.00D+00
 Coeff-Com:  0.209D-03-0.241D-02-0.324D-01 0.107D+00 0.927D+00
 Coeff:      0.209D-03-0.241D-02-0.324D-01 0.107D+00 0.927D+00
 Gap=     0.585 Goal=   None    Shift=    0.000
 Gap=     0.241 Goal=   None    Shift=    0.000
 RMSDP=3.15D-07 MaxDP=4.36D-06 DE=-5.57D-10 OVMax= 4.84D-06

 Cycle   6  Pass 1  IDiag  1:
 E= -76.7265205672479     Delta-E=       -0.000000000068 Rises=F Damp=F
 DIIS: error= 7.42D-07 at cycle   6 NSaved=   6.
 NSaved= 6 IEnMin= 6 EnMin= -76.7265205672479     IErMin= 6 ErrMin= 7.42D-07
 ErrMax= 7.42D-07  0.00D+00 EMaxC= 1.00D-01 BMatC= 2.50D-11 BMatP= 1.89D-10
 IDIUse=1 WtCom= 1.00D+00 WtEn= 0.00D+00
 Coeff-Com: -0.637D-05 0.164D-02 0.431D-02-0.142D+00 0.537D-01 0.108D+01
 Coeff:     -0.637D-05 0.164D-02 0.431D-02-0.142D+00 0.537D-01 0.108D+01
 Gap=     0.585 Goal=   None    Shift=    0.000
 Gap=     0.241 Goal=   None    Shift=    0.000
 RMSDP=1.40D-07 MaxDP=2.57D-06 DE=-6.85D-11 OVMax= 1.95D-06

 Cycle   7  Pass 1  IDiag  1:
 E= -76.7265205672599     Delta-E=       -0.000000000012 Rises=F Damp=F
 DIIS: error= 1.10D-07 at cycle   7 NSaved=   7.
 NSaved= 7 IEnMin= 7 EnMin= -76.7265205672599     IErMin= 7 ErrMin= 1.10D-07
 ErrMax= 1.10D-07  0.00D+00 EMaxC= 1.00D-01 BMatC= 8.00D-13 BMatP= 2.50D-11
 IDIUse=1 WtCom= 1.00D+00 WtEn= 0.00D+00
 Coeff-Com: -0.798D-05-0.665D-04 0.154D-03 0.155D-01-0.492D-01-0.228D+00
 Coeff-Com:  0.126D+01
 Coeff:     -0.798D-05-0.665D-04 0.154D-03 0.155D-01-0.492D-01-0.228D+00
 Coeff:      0.126D+01
 Gap=     0.585 Goal=   None    Shift=    0.000
 Gap=     0.241 Goal=   None    Shift=    0.000
 RMSDP=4.39D-08 MaxDP=7.63D-07 DE=-1.20D-11 OVMax= 4.64D-07

 Cycle   8  Pass 1  IDiag  1:
 E= -76.7265205672605     Delta-E=       -0.000000000001 Rises=F Damp=F
 DIIS: error= 2.09D-08 at cycle   8 NSaved=   8.
 NSaved= 8 IEnMin= 8 EnMin= -76.7265205672605     IErMin= 8 ErrMin= 2.09D-08
 ErrMax= 2.09D-08  0.00D+00 EMaxC= 1.00D-01 BMatC= 3.23D-14 BMatP= 8.00D-13
 IDIUse=1 WtCom= 1.00D+00 WtEn= 0.00D+00
 Coeff-Com: -0.206D-05-0.317D-04 0.103D-04 0.543D-02-0.138D-01-0.698D-01
 Coeff-Com:  0.331D+00 0.747D+00
 Coeff:     -0.206D-05-0.317D-04 0.103D-04 0.543D-02-0.138D-01-0.698D-01
 Coeff:      0.331D+00 0.747D+00
 Gap=     0.585 Goal=   None    Shift=    0.000
 Gap=     0.241 Goal=   None    Shift=    0.000
 RMSDP=2.71D-09 MaxDP=5.11D-08 DE=-5.68D-13 OVMax= 1.88D-07

 SCF Done:  E(UM062X) =  -76.7265205673     A.U. after    8 cycles
            NFock=  8  Conv=0.27D-08     -V/T= 1.9813
 <Sx>= 0.0000 <Sy>= 0.0000 <Sz>= 0.5000 <S**2>= 0.7522 S= 0.5011
 <L.S>=  0.00000000000    
 KE= 7.818862742830D+01 PE=-2.315273407489D+02 EE= 4.829346979716D+01
 Annihilation of the first spin contaminant:
 S**2 before annihilation     0.7522,   after     0.7500
 Leave Link  502 at Tue Nov 19 12:52:16 2024, MaxMem=  2147483648 cpu:             104.7 elap:               5.9
 (Enter /home/szhao/Apps/g16/l701.exe)
 ... and contract with generalized density number  0.
 Compute integral first derivatives.
 Leave Link  701 at Tue Nov 19 12:52:17 2024, MaxMem=  2147483648 cpu:               5.9 elap:               0.3
 (Enter /home/szhao/Apps/g16/l702.exe)
 L702 exits ... SP integral derivatives will be done elsewhere.
 Leave Link  702 at Tue Nov 19 12:52:17 2024, MaxMem=  2147483648 cpu:               1.1 elap:               0.1
 (Enter /home/szhao/Apps/g16/l703.exe)
 Integral derivatives from FoFJK, PRISM(SPDF).
 Compute integral first derivatives, UseDBF=F ICtDFT=           0.
 Calling FoFJK, ICntrl=      2127 FMM=F ISym2X=0 I1Cent= 0 IOpClX= 1 NMat=1 NMatS=1 NMatT=0.
 FoFJK:  IHMeth= 1 ICntrl=    2127 DoSepK=F KAlg= 0 I1Cent=           0 FoldK=F
 IRaf=         0 NMat=       1 IRICut=       1 DoRegI=T DoRafI=F ISym2E= 0 IDoP0=0 IntGTp=1.
 FoFCou: FMM=F IPFlag=           0 FMFlag=      100000 FMFlg1=         800
         NFxFlg=           0 DoJE=F BraDBF=F KetDBF=F FulRan=T
         wScrn=  0.000000 ICntrl=      2127 IOpCl=  1 I1Cent=           0 NGrid=           0
         NMat0=    1 NMatS0=      1 NMatT0=    0 NMatD0=    1 NMtDS0=    0 NMtDT0=    0
 Symmetry not used in FoFCou.
 Leave Link  703 at Tue Nov 19 12:52:18 2024, MaxMem=  2147483648 cpu:              20.9 elap:               1.2
 (Enter /home/szhao/Apps/g16/l716.exe)
 Dipole        =-1.62676216D-06 8.89617593D-11 4.33446240D-11
 -------------------------------------------------------------------
 Center     Atomic                   Forces (Hartrees/Bohr)
 Number     Number              X              Y              Z
 -------------------------------------------------------------------
      1        6          -0.000000000   -0.000000000   -0.000000000
      2        6          -0.000000000   -0.000000000   -0.000000000
      3        1          -0.000105803   -0.000000000    0.000000000
      4        1           0.000107186   -0.000000000   -0.000000000
 -------------------------------------------------------------------
 Cartesian Forces:  Max     0.000107186 RMS     0.000043477
 Leave Link  716 at Tue Nov 19 12:52:18 2024, MaxMem=  2147483648 cpu:               1.3 elap:               0.1
 (Enter /home/szhao/Apps/g16/l103.exe)

 GradGradGradGradGradGradGradGradGradGradGradGradGradGradGradGradGradGrad
 Berny optimization.
 Using GEDIIS/GDIIS optimizer.
 FormGI is forming the generalized inverse of G from B-inverse, IUseBI=4.
 Internal  Forces:  Max     0.000107186 RMS     0.000061486
 Search for a local minimum.
 Step number   4 out of a maximum of   22
 All quantities printed in internal units (Hartrees-Bohrs-Radians)
 RMS Force = .61486D-04 SwitMx=.10000D-02 MixMth= 2
 Mixed Optimization -- En-DIIS/RFO-DIIS
 Update second derivatives using D2CorX and points    1    2    3    4
 DE= -2.88D-04 DEPred=-1.90D-04 R= 1.51D+00
 TightC=F SS=  1.41D+00  RLast= 3.94D-02 DXNew= 1.4270D+00 1.1826D-01
 Trust test= 1.51D+00 RLast= 3.94D-02 DXMaxT set to 8.49D-01
 The second derivative matrix:
                          X1        Y1        Z1        X2        Y2
           X1           0.68669
           Y1          -0.00000   0.50000
           Z1          -0.00000   0.00000   0.50000
           X2          -0.18667   0.00000   0.00000   0.68666
           Y2           0.00000  -0.00000  -0.00000  -0.00000   0.50000
           Z2           0.00000  -0.00000  -0.00000  -0.00000   0.00000
           R1          -0.18666   0.00000   0.00000   0.18664  -0.00000
           R2          -0.18670   0.00000   0.00000   0.18669  -0.00000
           A1          -0.00000   0.00000   0.00000   0.00000  -0.00000
           A2           0.00000  -0.00000  -0.00000  -0.00000   0.00000
           A3           0.00000  -0.00000  -0.00000  -0.00000   0.00000
           A4          -0.00000   0.00000   0.00000   0.00000  -0.00000
                          Z2        R1        R2        A1        A2
           Z2           0.50000
           R1          -0.00000   0.59781
           R2          -0.00000  -0.22449   0.59787
           A1          -0.00000   0.00000   0.00000   0.03213
           A2           0.00000  -0.00000  -0.00000  -0.00000   0.03213
           A3           0.00000  -0.00000  -0.00000  -0.00000   0.00000
           A4          -0.00000   0.00000   0.00000   0.00000  -0.00000
                          A3        A4
           A3           0.03213
           A4          -0.00000   0.03213
 ITU=  1  1  1  0
 Use linear search instead of GDIIS.
     Eigenvalues ---    0.03213   0.03213   0.03213   0.37335   0.82233
     Eigenvalues --- 1000.000001000.000001000.000001000.000001000.00000
     Eigenvalues --- 1000.000001000.00000
 RFO step:  Lambda= 0.00000000D+00 EMin= 3.21306420D-02
 Quartic linear search produced a step of -0.00986.
 Iteration  1 RMS(Cart)=  0.00011219 RMS(Int)=  0.00000000
 Iteration  2 RMS(Cart)=  0.00000000 RMS(Int)=  0.00000001
 ITry= 1 IFail=0 DXMaxC= 2.76D-04 DCOld= 1.00D+10 DXMaxT= 8.49D-01 DXLimC= 3.00D+00 Rises=F
 Variable       Old X    -DE/DX   Delta X   Delta X   Delta X     New X
                                 (Linear)    (Quad)   (Total)
    X1       -0.93933  -0.00011   0.00000   0.00000   0.00000  -0.93933
    Y1        0.00000   0.00000   0.00000   0.00000   0.00000   0.00000
    Z1        0.00000  -0.00000   0.00000   0.00000   0.00000   0.00000
    X2        0.93933   0.00011   0.00000   0.00000   0.00000   0.93933
    Y2        0.00000  -0.00000   0.00000   0.00000   0.00000   0.00000
    Z2        0.00000  -0.00000   0.00000   0.00000   0.00000   0.00000
    R1        2.02830   0.00011   0.00027  -0.00000   0.00027   2.02858
    R2        2.02830   0.00011   0.00027   0.00000   0.00028   2.02857
    A1        3.14159   0.00000   0.00000   0.00000   0.00000   3.14159
    A2        3.14159  -0.00000   0.00000  -0.00000   0.00000   3.14159
    A3        3.14159  -0.00000   0.00000  -0.00000  -0.00000   3.14159
    A4        3.14159   0.00000   0.00000   0.00000   0.00000   3.14159
         Item               Value     Threshold  Converged?
 Maximum Force            0.000107     0.000450     YES
 RMS     Force            0.000061     0.000300     YES
 Maximum Displacement     0.000276     0.001800     YES
 RMS     Displacement     0.000112     0.001200     YES
 Predicted change in Energy=-3.033669D-08
 Optimization completed.
    -- Stationary point found.
                           ----------------------------
                           !   Optimized Parameters   !
                           ! (Angstroms and Degrees)  !
 --------------------------                            --------------------------
 ! Name  Definition              Value          Derivative Info.                !
 --------------------------------------------------------------------------------
 ! X1    R(1,-1)                -0.4971         -DE/DX =   -0.0001              !
 ! Y1    R(1,-2)                 0.0            -DE/DX =    0.0                 !
 ! Z1    R(1,-3)                 0.0            -DE/DX =    0.0                 !
 ! X2    R(2,-1)                 0.4971         -DE/DX =    0.0001              !
 ! Y2    R(2,-2)                 0.0            -DE/DX =    0.0                 !
 ! Z2    R(2,-3)                 0.0            -DE/DX =    0.0                 !
 ! R1    R(1,3)                  1.0733         -DE/DX =    0.0001              !
 ! R2    R(2,4)                  1.0733         -DE/DX =    0.0001              !
 ! A1    L(2,1,3,-2,-1)        180.0            -DE/DX =    0.0                 !
 ! A2    L(1,2,4,-2,-1)        180.0            -DE/DX =    0.0                 !
 ! A3    L(2,1,3,-3,-2)        180.0            -DE/DX =    0.0                 !
 ! A4    L(1,2,4,-3,-2)        180.0            -DE/DX =    0.0                 !
 --------------------------------------------------------------------------------
 Lowest energy point so far.  Saving SCF results.
 Largest change from initial coordinates is atom    4       0.208 Angstoms.
 GradGradGradGradGradGradGradGradGradGradGradGradGradGradGradGradGradGrad

 Leave Link  103 at Tue Nov 19 12:52:18 2024, MaxMem=  2147483648 cpu:               1.1 elap:               0.1
 (Enter /home/szhao/Apps/g16/l202.exe)
                          Input orientation:                          
 ---------------------------------------------------------------------
 Center     Atomic      Atomic             Coordinates (Angstroms)
 Number     Number       Type             X           Y           Z
 ---------------------------------------------------------------------
      1          6           0       -0.497074    0.000000    0.000000
      2          6           0        0.497074    0.000000    0.000000
      3          1           0       -1.570405    0.000000   -0.000000
      4          1           0        1.570403    0.000000    0.000000
 ---------------------------------------------------------------------
                    Distance matrix (angstroms):
                    1          2          3          4
     1  C    0.000000
     2  C    0.994148   0.000000
     3  H    1.073331   2.067479   0.000000
     4  H    2.067477   1.073329   3.140808   0.000000
 Symmetry turned off by external request.
 Stoichiometry    C2H2(1+,2)
 Framework group  C*V[C*(HCCH)]
 Deg. of freedom     3
 Full point group                 C*V     NOp   4
 Rotational constants (GHZ):           0.0000000          46.3611507          46.3611507
 Leave Link  202 at Tue Nov 19 12:52:19 2024, MaxMem=  2147483648 cpu:               0.2 elap:               0.1
 (Enter /home/szhao/Apps/g16/l601.exe)
 Copying SCF densities to generalized density rwf, IOpCl= 1 IROHF=0.

 **********************************************************************

            Population analysis using the SCF density.

 **********************************************************************

 Alpha  occ. eigenvalues --  -10.90699 -10.89238  -1.31766  -0.95247  -0.91291
 Alpha  occ. eigenvalues --   -0.81829  -0.78391
 Alpha virt. eigenvalues --   -0.19884  -0.18115  -0.14714  -0.13858  -0.11951
 Alpha virt. eigenvalues --   -0.11367  -0.11047  -0.03570  -0.02873  -0.02426
 Alpha virt. eigenvalues --    0.02441   0.04288   0.17108   0.20649   0.25871
 Alpha virt. eigenvalues --    0.26874   0.41465   0.42371   0.46645   0.50689
 Alpha virt. eigenvalues --    0.55996   0.79883   0.80063   0.85072   0.85206
 Alpha virt. eigenvalues --    0.86516   1.03359   1.27204   1.27821   1.34523
 Alpha virt. eigenvalues --    1.34563   1.38058   1.67429   1.69210   2.16908
 Alpha virt. eigenvalues --    2.26068   2.34176   2.36337   2.36981   2.41690
 Alpha virt. eigenvalues --    2.45321   2.63372   2.72683   2.76007   3.06111
 Alpha virt. eigenvalues --    3.17290   3.87334  23.77851  25.32286
  Beta  occ. eigenvalues --  -10.90353 -10.88957  -1.25909  -0.93726  -0.90471
  Beta  occ. eigenvalues --   -0.75755
  Beta virt. eigenvalues --   -0.51675  -0.16963  -0.15633  -0.15577  -0.13439
  Beta virt. eigenvalues --   -0.11895  -0.11554  -0.11144  -0.02409  -0.01933
  Beta virt. eigenvalues --   -0.01403   0.02639   0.04708   0.17702   0.21037
  Beta virt. eigenvalues --    0.24276   0.26568   0.42745   0.42938   0.46555
  Beta virt. eigenvalues --    0.49301   0.56773   0.83391   0.84197   0.86109
  Beta virt. eigenvalues --    0.87774   0.88856   1.06190   1.28906   1.29818
  Beta virt. eigenvalues --    1.37255   1.38682   1.39244   1.69702   1.70640
  Beta virt. eigenvalues --    2.20134   2.28901   2.37766   2.37773   2.37979
  Beta virt. eigenvalues --    2.45645   2.45878   2.71120   2.74763   2.76487
  Beta virt. eigenvalues --    3.10492   3.20578   3.92350  23.78648  25.34591
          Condensed to atoms (all electrons):
               1          2          3          4
     1  C    4.638733   0.767213   0.335765   0.023865
     2  C    0.767213   4.638731   0.023866   0.335766
     3  H    0.335765   0.023866   0.375864  -0.001072
     4  H    0.023865   0.335766  -0.001072   0.375865
          Atomic-Atomic Spin Densities.
               1          2          3          4
     1  C    0.355716   0.169677  -0.008956   0.004300
     2  C    0.169677   0.355716   0.004300  -0.008956
     3  H   -0.008956   0.004300  -0.016253   0.000172
     4  H    0.004300  -0.008956   0.000172  -0.016253
 Mulliken charges and spin densities:
               1          2
     1  C    0.234423   0.520737
     2  C    0.234423   0.520737
     3  H    0.265577  -0.020737
     4  H    0.265576  -0.020737
 Sum of Mulliken charges =   1.00000   1.00000
 Mulliken charges and spin densities with hydrogens summed into heavy atoms:
               1          2
     1  C    0.500000   0.500000
     2  C    0.500000   0.500000
 Electronic spatial extent (au):  <R**2>=             44.0749
 Charge=              1.0000 electrons
 Dipole moment (field-independent basis, Debye):
    X=             -0.0000    Y=              0.0000    Z=              0.0000  Tot=              0.0000
 Quadrupole moment (field-independent basis, Debye-Ang):
   XX=             -2.0632   YY=             -9.7268   ZZ=             -9.5598
   XY=              0.0000   XZ=              0.0000   YZ=              0.7745
 Traceless Quadrupole moment (field-independent basis, Debye-Ang):
   XX=              5.0534   YY=             -2.6102   ZZ=             -2.4432
   XY=              0.0000   XZ=              0.0000   YZ=              0.7745
 Octapole moment (field-independent basis, Debye-Ang**2):
  XXX=             -0.0000  YYY=             -0.0000  ZZZ=             -0.0000  XYY=              0.0000
  XXY=              0.0000  XXZ=              0.0000  XZZ=              0.0000  YZZ=             -0.0000
  YYZ=             -0.0000  XYZ=              0.0000
 Hexadecapole moment (field-independent basis, Debye-Ang**3):
 XXXX=            -14.0080 YYYY=             -8.4022 ZZZZ=             -8.1497 XXXY=              0.0000
 XXXZ=              0.0000 YYYX=             -0.0000 YYYZ=              0.5855 ZZZX=             -0.0000
 ZZZY=              0.5855 XXYY=             -7.4969 XXZZ=             -7.4298 YYZZ=             -2.7587
 XXYZ=              0.3111 YYXZ=             -0.0000 ZZXY=             -0.0000
 N-N= 2.831872295619D+01 E-N=-2.315273407756D+02  KE= 7.818862742830D+01
                          Isotropic Fermi Contact Couplings
        Atom                 a.u.       MegaHertz       Gauss      10(-4) cm-1
     1  C(13)              0.06224      69.97483      24.96876      23.34109
     2  C(13)              0.06224      69.97470      24.96871      23.34105
     3  H(1)              -0.01069     -47.80139     -17.05673     -15.94483
     4  H(1)              -0.01069     -47.80130     -17.05669     -15.94480
 --------------------------------------------------------
       Center         ----  Spin Dipole Couplings  ----
                      3XX-RR        3YY-RR        3ZZ-RR
 --------------------------------------------------------
     1   Atom       -0.317255      0.094343      0.222911
     2   Atom       -0.317255      0.094343      0.222911
     3   Atom        0.063920     -0.033469     -0.030452
     4   Atom        0.063921     -0.033469     -0.030452
 --------------------------------------------------------
                        XY            XZ            YZ
 --------------------------------------------------------
     1   Atom        0.000000      0.000000      0.596168
     2   Atom       -0.000000     -0.000000      0.596168
     3   Atom       -0.000000      0.000000      0.013991
     4   Atom        0.000000      0.000000      0.013991
 --------------------------------------------------------


 ---------------------------------------------------------------------------------
              Anisotropic Spin Dipole Couplings in Principal Axis System
 ---------------------------------------------------------------------------------

       Atom             a.u.   MegaHertz   Gauss  10(-4) cm-1        Axes

              Baa    -0.4410   -59.178   -21.116   -19.739 -0.0000  0.7440 -0.6681
     1 C(13)  Bbb    -0.3173   -42.573   -15.191   -14.201  1.0000  0.0000 -0.0000
              Bcc     0.7583   101.750    36.307    33.940  0.0000  0.6681  0.7440
 
              Baa    -0.4410   -59.178   -21.116   -19.739 -0.0000  0.7440 -0.6681
     2 C(13)  Bbb    -0.3173   -42.573   -15.191   -14.201  1.0000  0.0000  0.0000
              Bcc     0.7583   101.750    36.307    33.940 -0.0000  0.6681  0.7440
 
              Baa    -0.0460   -24.561    -8.764    -8.193  0.0000  0.7440 -0.6681
     3 H(1)   Bbb    -0.0179    -9.544    -3.406    -3.184 -0.0000  0.6681  0.7440
              Bcc     0.0639    34.105    12.169    11.376  1.0000  0.0000  0.0000
 
              Baa    -0.0460   -24.561    -8.764    -8.193  0.0000  0.7440 -0.6681
     4 H(1)   Bbb    -0.0179    -9.544    -3.406    -3.184 -0.0000  0.6681  0.7440
              Bcc     0.0639    34.105    12.170    11.376  1.0000  0.0000  0.0000
 

 ---------------------------------------------------------------------------------

 No NMR shielding tensors so no spin-rotation constants.
 Leave Link  601 at Tue Nov 19 12:52:19 2024, MaxMem=  2147483648 cpu:               5.5 elap:               0.3
 (Enter /home/szhao/Apps/g16/l9999.exe)
 1\1\GINC-NODE02\FOpt\UM062X\6-311+G(d,p)\C2H2(1+,2)\SZHAO\19-Nov-2024\
 0\\#p opt UM062X/6-311+G** nosymm int=superfine\\Title Card Required\\
 1,2\C,-0.497074,0.,0.\C,0.497074,0.,0.\H,-1.5704051544,0.,-0.000000000
 3\H,1.5704032753,0.0000000003,0.0000000006\\Version=ES64L-G16RevA.03\H
 F=-76.7265206\S2=0.752175\S2-1=0.\S2A=0.750003\RMSD=2.710e-09\RMSF=4.3
 48e-05\Dipole=-0.0000014,0.,0.\Quadrupole=3.7571087,-1.9406415,-1.8164
 672,0.,0.,0.5757973\PG=C*V [C*(H1C1C1H1)]\\@


 AND ALL THIS SCIENCE I DON'T UNDERSTAND
 IT'S JUST MY JOB FIVE DAYS A WEEK

                           -- ELTON JOHN, "ROCKET MAN"
 Job cpu time:       0 days  0 hours 11 minutes 42.1 seconds.
 Elapsed time:       0 days  0 hours  0 minutes 39.0 seconds.
 File lengths (MBytes):  RWF=     17 Int=      0 D2E=      0 Chk=      2 Scr=      2
 Normal termination of Gaussian 16 at Tue Nov 19 12:52:19 2024.
