 Entering Gaussian System, Link 0=g16
 Initial command:
 /home/szhao/Apps/g16/l1.exe "/home/szhao/tmp/Gau-89282.inp" -scrdir="/home/szhao/tmp/"
 Default is to use a total of  16 processors:
                               16 via shared-memory
                                1 via Linda
 Entering Link 1 = /home/szhao/Apps/g16/l1.exe PID=     89284.
  
 Copyright (c) 1988,1990,1992,1993,1995,1998,2003,2009,2016,
            Gaussian, Inc.  All Rights Reserved.
  
 This is part of the Gaussian(R) 16 program.  It is based on
 the Gaussian(R) 09 system (copyright 2009, Gaussian, Inc.),
 the Gaussian(R) 03 system (copyright 2003, Gaussian, Inc.),
 the Gaussian(R) 98 system (copyright 1998, Gaussian, Inc.),
 the Gaussian(R) 94 system (copyright 1995, Gaussian, Inc.),
 the Gaussian 92(TM) system (copyright 1992, Gaussian, Inc.),
 the Gaussian 90(TM) system (copyright 1990, Gaussian, Inc.),
 the Gaussian 88(TM) system (copyright 1988, Gaussian, Inc.),
 the Gaussian 86(TM) system (copyright 1986, Carnegie Mellon
 University), and the Gaussian 82(TM) system (copyright 1983,
 Carnegie Mellon University). Gaussian is a federally registered
 trademark of Gaussian, Inc.
  
 This software contains proprietary and confidential information,
 including trade secrets, belonging to Gaussian, Inc.
  
 This software is provided under written license and may be
 used, copied, transmitted, or stored only in accord with that
 written license.
  
 The following legend is applicable only to US Government
 contracts under FAR:
  
                    RESTRICTED RIGHTS LEGEND
  
 Use, reproduction and disclosure by the US Government is
 subject to restrictions as set forth in subparagraphs (a)
 and (c) of the Commercial Computer Software - Restricted
 Rights clause in FAR 52.227-19.
  
 Gaussian, Inc.
 340 Quinnipiac St., Bldg. 40, Wallingford CT 06492
  
  
 ---------------------------------------------------------------
 Warning -- This program may not be used in any manner that
 competes with the business of Gaussian, Inc. or will provide
 assistance to any competitor of Gaussian, Inc.  The licensee
 of this program is prohibited from giving any competitor of
 Gaussian, Inc. access to this program.  By using this program,
 the user acknowledges that Gaussian, Inc. is engaged in the
 business of creating and licensing software in the field of
 computational chemistry and represents and warrants to the
 licensee that it is not a competitor of Gaussian, Inc. and that
 it will not use this program in any manner prohibited above.
 ---------------------------------------------------------------
  

 Cite this work as:
 Gaussian 16, Revision A.03,
 M. J. Frisch, G. W. Trucks, H. B. Schlegel, G. E. Scuseria, 
 M. A. Robb, J. R. Cheeseman, G. Scalmani, V. Barone, 
 G. A. Petersson, H. Nakatsuji, X. Li, M. Caricato, A. V. Marenich, 
 J. Bloino, B. G. Janesko, R. Gomperts, B. Mennucci, H. P. Hratchian, 
 J. V. Ortiz, A. F. Izmaylov, J. L. Sonnenberg, D. Williams-Young, 
 F. Ding, F. Lipparini, F. Egidi, J. Goings, B. Peng, A. Petrone, 
 T. Henderson, D. Ranasinghe, V. G. Zakrzewski, J. Gao, N. Rega, 
 G. Zheng, W. Liang, M. Hada, M. Ehara, K. Toyota, R. Fukuda, 
 J. Hasegawa, M. Ishida, T. Nakajima, Y. Honda, O. Kitao, H. Nakai, 
 T. Vreven, K. Throssell, J. A. Montgomery, Jr., J. E. Peralta, 
 F. Ogliaro, M. J. Bearpark, J. J. Heyd, E. N. Brothers, K. N. Kudin, 
 V. N. Staroverov, T. A. Keith, R. Kobayashi, J. Normand, 
 K. Raghavachari, A. P. Rendell, J. C. Burant, S. S. Iyengar, 
 J. Tomasi, M. Cossi, J. M. Millam, M. Klene, C. Adamo, R. Cammi, 
 J. W. Ochterski, R. L. Martin, K. Morokuma, O. Farkas, 
 J. B. Foresman, and D. J. Fox, Gaussian, Inc., Wallingford CT, 2016.
 
 ******************************************
 Gaussian 16:  ES64L-G16RevA.03 25-Dec-2016
                16-Apr-2025 
 ******************************************
 %chk=force.chk
 %mem=4GB
 %nprocshared=8
 Will use up to    8 processors via shared memory.
 ---------------------------------------------------
 #p UM062X/6-311+G** force int=superfine pop=saveNBO
 ---------------------------------------------------
 1/10=7,30=1,38=1/1,3;
 2/12=2,17=6,18=5,40=1/2;
 3/5=4,6=6,7=111,11=2,25=1,30=1,71=1,74=-55,75=-7,116=2/1,2,3;
 4//1;
 5/5=2,38=5/2;
 6/7=2,8=2,9=2,10=2,28=1,40=1,73=1/1,7;
 7/29=1/1,2,3,16;
 1/10=7,30=1/3;
 99//99;
 Leave Link    1 at Wed Apr 16 02:13:26 2025, MaxMem=   536870912 cpu:               0.4 elap:               0.1
 (Enter /home/szhao/Apps/g16/l101.exe)
 -------------------
 Title Card Required
 -------------------
 Symbolic Z-matrix:
 Charge =  0 Multiplicity = 1
 C                    -0.73054   0.        0. 
 N                     0.73054   0.        0. 
 H                     1.09222  -0.946     0. 
 H                    -1.08758   1.03082  -0.01934 
 H                     1.09222   0.45736   0.82809 
 H                    -1.08758  -0.48144  -0.91169 
 H                    -1.19434  -0.50545   0.85659 
 
 ITRead=  0  0  0  0  0  0  0
 MicOpt= -1 -1 -1 -1 -1 -1 -1
 NAtoms=      7 NQM=        7 NQMF=       0 NMMI=      0 NMMIF=      0
                NMic=       0 NMicF=      0.
                    Isotopes and Nuclear Properties:
 (Nuclear quadrupole moments (NQMom) in fm**2, nuclear magnetic moments (NMagM)
  in nuclear magnetons)

  Atom         1           2           3           4           5           6           7
 IAtWgt=          12          14           1           1           1           1           1
 AtmWgt=  12.0000000  14.0030740   1.0078250   1.0078250   1.0078250   1.0078250   1.0078250
 NucSpn=           0           2           1           1           1           1           1
 AtZEff=  -0.0000000  -0.0000000  -0.0000000  -0.0000000  -0.0000000  -0.0000000  -0.0000000
 NQMom=    0.0000000   2.0440000   0.0000000   0.0000000   0.0000000   0.0000000   0.0000000
 NMagM=    0.0000000   0.4037610   2.7928460   2.7928460   2.7928460   2.7928460   2.7928460
 AtZNuc=   6.0000000   7.0000000   1.0000000   1.0000000   1.0000000   1.0000000   1.0000000
 Leave Link  101 at Wed Apr 16 02:13:26 2025, MaxMem=   536870912 cpu:               1.5 elap:               0.4
 (Enter /home/szhao/Apps/g16/l103.exe)

 GradGradGradGradGradGradGradGradGradGradGradGradGradGradGradGradGradGrad
 Berny optimization.
 Initialization pass.
 Trust Radius=3.00D-01 FncErr=1.00D-07 GrdErr=1.00D-07 EigMax=2.50D+02 EigMin=1.00D-04
 Number of steps in this run=      2 maximum allowed number of steps=      2.
 GradGradGradGradGradGradGradGradGradGradGradGradGradGradGradGradGradGrad

 Leave Link  103 at Wed Apr 16 02:13:26 2025, MaxMem=   536870912 cpu:               0.2 elap:               0.1
 (Enter /home/szhao/Apps/g16/l202.exe)
                          Input orientation:                          
 ---------------------------------------------------------------------
 Center     Atomic      Atomic             Coordinates (Angstroms)
 Number     Number       Type             X           Y           Z
 ---------------------------------------------------------------------
      1          6           0       -0.730542    0.000000    0.000000
      2          7           0        0.730542    0.000000    0.000000
      3          1           0        1.092216   -0.945999    0.000000
      4          1           0       -1.087579    1.030817   -0.019339
      5          1           0        1.092218    0.457356    0.828092
      6          1           0       -1.087580   -0.481444   -0.911685
      7          1           0       -1.194338   -0.505453    0.856593
 ---------------------------------------------------------------------
                    Distance matrix (angstroms):
                    1          2          3          4          5
     1  C    0.000000
     2  N    1.461084   0.000000
     3  H    2.053621   1.012779   0.000000
     4  H    1.091070   2.090102   2.942734   0.000000
     5  H    2.053623   1.012779   1.629460   2.408011   0.000000
     6  H    1.091070   2.090102   2.408006   1.755908   2.942735
     7  H    1.097425   2.166656   2.481161   1.771660   2.481160
                    6          7
     6  H    0.000000
     7  H    1.771661   0.000000
 Stoichiometry    CH5N
 Framework group  C1[X(CH5N)]
 Deg. of freedom    15
 Full point group                 C1      NOp   1
 Largest Abelian subgroup         C1      NOp   1
 Largest concise Abelian subgroup C1      NOp   1
                         Standard orientation:                         
 ---------------------------------------------------------------------
 Center     Atomic      Atomic             Coordinates (Angstroms)
 Number     Number       Type             X           Y           Z
 ---------------------------------------------------------------------
      1          6           0        0.706736   -0.000000    0.017992
      2          7           0       -0.747861   -0.000000   -0.119546
      3          1           0       -1.153184    0.814731    0.325030
      4          1           0        1.113069   -0.877952   -0.486516
      5          1           0       -1.153187   -0.814730    0.325030
      6          1           0        1.113068    0.877957   -0.486508
      7          1           0        1.074846   -0.000005    1.051837
 ---------------------------------------------------------------------
 Rotational constants (GHZ):         104.0124622          22.8385895          21.9227499
 Leave Link  202 at Wed Apr 16 02:13:26 2025, MaxMem=   536870912 cpu:               0.0 elap:               0.0
 (Enter /home/szhao/Apps/g16/l301.exe)
 Standard basis: 6-311+G(d,p) (5D, 7F)
 Ernie: Thresh=  0.10000D-02 Tol=  0.10000D-05 Strict=F.
 There are    76 symmetry adapted cartesian basis functions of A   symmetry.
 There are    74 symmetry adapted basis functions of A   symmetry.
    74 basis functions,   112 primitive gaussians,    76 cartesian basis functions
     9 alpha electrons        9 beta electrons
       nuclear repulsion energy        42.0354947260 Hartrees.
 IExCor= 4336 DFT=T Ex+Corr=M062X ExCW=0 ScaHFX=  0.540000
 ScaDFX=  1.000000  1.000000  1.000000  1.000000 ScalE2=  1.000000  1.000000
 IRadAn=      7 IRanWt=     -1 IRanGd=            0 ICorTp=0 IEmpDi=  4
 NAtoms=    7 NActive=    7 NUniq=    7 SFac= 1.00D+00 NAtFMM=   60 NAOKFM=F Big=F
 Integral buffers will be    131072 words long.
 Raffenetti 2 integral format.
 Two-electron integral symmetry is turned on.
 Leave Link  301 at Wed Apr 16 02:13:26 2025, MaxMem=   536870912 cpu:               0.3 elap:               0.1
 (Enter /home/szhao/Apps/g16/l302.exe)
 NPDir=0 NMtPBC=     1 NCelOv=     1 NCel=       1 NClECP=     1 NCelD=      1
         NCelK=      1 NCelE2=     1 NClLst=     1 CellRange=     0.0.
 One-electron integrals computed using PRISM.
 One-electron integral symmetry used in STVInt
 NBasis=    74 RedAO= T EigKep=  1.63D-03  NBF=    74
 NBsUse=    74 1.00D-06 EigRej= -1.00D+00 NBFU=    74
 Precomputing XC quadrature grid using
 IXCGrd= 4 IRadAn=           7 IRanWt=          -1 IRanGd=           0 AccXCQ= 0.00D+00.
 Generated NRdTot=       0 NPtTot=           0 NUsed=           0 NTot=          32
 NSgBfM=    76    76    76    76    76 MxSgAt=     7 MxSgA2=     7.
 Leave Link  302 at Wed Apr 16 02:13:27 2025, MaxMem=   536870912 cpu:               1.4 elap:               0.4
 (Enter /home/szhao/Apps/g16/l303.exe)
 DipDrv:  MaxL=1.
 Leave Link  303 at Wed Apr 16 02:13:27 2025, MaxMem=   536870912 cpu:               0.4 elap:               0.1
 (Enter /home/szhao/Apps/g16/l401.exe)
 ExpMin= 4.38D-02 ExpMax= 6.29D+03 ExpMxC= 9.49D+02 IAcc=3 IRadAn=         7 AccDes= 0.00D+00
 Harris functional with IExCor= 1009 and IRadAn=       7 diagonalized for initial guess.
 HarFok:  IExCor= 1009 AccDes= 0.00D+00 IRadAn=         7 IDoV= 1 UseB2=F ITyADJ=14
 ICtDFT=  3500011 ScaDFX=  1.000000  1.000000  1.000000  1.000000
 FoFCou: FMM=F IPFlag=           0 FMFlag=      100000 FMFlg1=           0
         NFxFlg=           0 DoJE=T BraDBF=F KetDBF=T FulRan=T
         wScrn=  0.000000 ICntrl=       500 IOpCl=  0 I1Cent=   200000004 NGrid=           0
         NMat0=    1 NMatS0=      1 NMatT0=    0 NMatD0=    1 NMtDS0=    0 NMtDT0=    0
 Petite list used in FoFCou.
 Harris En= -95.8258006047739    
 JPrj=0 DoOrth=F DoCkMO=F.
 Initial guess <Sx>= 0.0000 <Sy>= 0.0000 <Sz>= 0.0000 <S**2>=-0.0000 S=-0.0000
 Leave Link  401 at Wed Apr 16 02:13:28 2025, MaxMem=   536870912 cpu:               3.9 elap:               0.9
 (Enter /home/szhao/Apps/g16/l502.exe)
 Keep R1 and R2 ints in memory in canonical form, NReq=14944833.
 FoFCou: FMM=F IPFlag=           0 FMFlag=           0 FMFlg1=           0
         NFxFlg=           0 DoJE=F BraDBF=F KetDBF=F FulRan=T
         wScrn=  0.000000 ICntrl=       600 IOpCl=  0 I1Cent=           0 NGrid=           0
         NMat0=    1 NMatS0=   2775 NMatT0=    0 NMatD0=    1 NMtDS0=    0 NMtDT0=    0
 Symmetry not used in FoFCou.
 Two-electron integral symmetry not used.
 UHF open shell SCF:
 Using DIIS extrapolation, IDIIS=  1040.
 NGot=   536870912 LenX=   529154401 LenY=   529148184
 Requested convergence on RMS density matrix=1.00D-08 within 128 cycles.
 Requested convergence on MAX density matrix=1.00D-06.
 Requested convergence on             energy=1.00D-06.
 No special actions if energy rises.

 Cycle   1  Pass 1  IDiag  1:
 E= -95.7331946281168    
 DIIS: error= 5.36D-02 at cycle   1 NSaved=   1.
 NSaved= 1 IEnMin= 1 EnMin= -95.7331946281168     IErMin= 1 ErrMin= 5.36D-02
 ErrMax= 5.36D-02  0.00D+00 EMaxC= 1.00D-01 BMatC= 4.98D-01 BMatP= 4.98D-01
 IDIUse=3 WtCom= 4.64D-01 WtEn= 5.36D-01
 Coeff-Com:  0.100D+01
 Coeff-En:   0.100D+01
 Coeff:      0.100D+01
 Gap=     0.235 Goal=   None    Shift=    0.000
 Gap=     0.235 Goal=   None    Shift=    0.000
 GapD=    0.235 DampG=1.000 DampE=0.500 DampFc=0.5000 IDamp=-1.
 Damping current iteration by 5.00D-01
 RMSDP=7.25D-03 MaxDP=1.12D-01              OVMax= 1.73D-01

 Cycle   2  Pass 1  IDiag  1:
 E= -95.7826718981511     Delta-E=       -0.049477270034 Rises=F Damp=T
 DIIS: error= 1.20D-02 at cycle   2 NSaved=   2.
 NSaved= 2 IEnMin= 2 EnMin= -95.7826718981511     IErMin= 2 ErrMin= 1.20D-02
 ErrMax= 1.20D-02  0.00D+00 EMaxC= 1.00D-01 BMatC= 2.55D-02 BMatP= 4.98D-01
 IDIUse=3 WtCom= 8.80D-01 WtEn= 1.20D-01
 Coeff-Com: -0.370D-01 0.104D+01
 Coeff-En:   0.000D+00 0.100D+01
 Coeff:     -0.325D-01 0.103D+01
 Gap=     0.327 Goal=   None    Shift=    0.000
 Gap=     0.327 Goal=   None    Shift=    0.000
 RMSDP=1.34D-03 MaxDP=2.97D-02 DE=-4.95D-02 OVMax= 9.97D-02

 Cycle   3  Pass 1  IDiag  1:
 E= -95.8337204317272     Delta-E=       -0.051048533576 Rises=F Damp=F
 DIIS: error= 5.04D-03 at cycle   3 NSaved=   3.
 NSaved= 3 IEnMin= 3 EnMin= -95.8337204317272     IErMin= 3 ErrMin= 5.04D-03
 ErrMax= 5.04D-03  0.00D+00 EMaxC= 1.00D-01 BMatC= 5.04D-03 BMatP= 2.55D-02
 IDIUse=3 WtCom= 9.50D-01 WtEn= 5.04D-02
 Coeff-Com: -0.567D-01 0.273D+00 0.784D+00
 Coeff-En:   0.000D+00 0.000D+00 0.100D+01
 Coeff:     -0.539D-01 0.259D+00 0.795D+00
 Gap=     0.318 Goal=   None    Shift=    0.000
 Gap=     0.318 Goal=   None    Shift=    0.000
 RMSDP=3.49D-04 MaxDP=6.94D-03 DE=-5.10D-02 OVMax= 1.06D-02

 Cycle   4  Pass 1  IDiag  1:
 E= -95.8345462260123     Delta-E=       -0.000825794285 Rises=F Damp=F
 DIIS: error= 2.05D-03 at cycle   4 NSaved=   4.
 NSaved= 4 IEnMin= 4 EnMin= -95.8345462260123     IErMin= 4 ErrMin= 2.05D-03
 ErrMax= 2.05D-03  0.00D+00 EMaxC= 1.00D-01 BMatC= 8.96D-04 BMatP= 5.04D-03
 IDIUse=3 WtCom= 9.79D-01 WtEn= 2.05D-02
 Coeff-Com: -0.205D-01 0.602D-01 0.350D+00 0.610D+00
 Coeff-En:   0.000D+00 0.000D+00 0.531D-01 0.947D+00
 Coeff:     -0.201D-01 0.589D-01 0.344D+00 0.617D+00
 Gap=     0.320 Goal=   None    Shift=    0.000
 Gap=     0.320 Goal=   None    Shift=    0.000
 RMSDP=1.39D-04 MaxDP=2.93D-03 DE=-8.26D-04 OVMax= 3.93D-03

 Cycle   5  Pass 1  IDiag  1:
 E= -95.8347309108711     Delta-E=       -0.000184684859 Rises=F Damp=F
 DIIS: error= 2.51D-04 at cycle   5 NSaved=   5.
 NSaved= 5 IEnMin= 5 EnMin= -95.8347309108711     IErMin= 5 ErrMin= 2.51D-04
 ErrMax= 2.51D-04  0.00D+00 EMaxC= 1.00D-01 BMatC= 1.61D-05 BMatP= 8.96D-04
 IDIUse=3 WtCom= 9.97D-01 WtEn= 2.51D-03
 Coeff-Com: -0.235D-02 0.344D-02 0.562D-01 0.175D+00 0.768D+00
 Coeff-En:   0.000D+00 0.000D+00 0.000D+00 0.000D+00 0.100D+01
 Coeff:     -0.235D-02 0.343D-02 0.561D-01 0.175D+00 0.768D+00
 Gap=     0.320 Goal=   None    Shift=    0.000
 Gap=     0.320 Goal=   None    Shift=    0.000
 RMSDP=2.18D-05 MaxDP=3.59D-04 DE=-1.85D-04 OVMax= 4.83D-04

 Cycle   6  Pass 1  IDiag  1:
 E= -95.8347342904102     Delta-E=       -0.000003379539 Rises=F Damp=F
 DIIS: error= 1.71D-05 at cycle   6 NSaved=   6.
 NSaved= 6 IEnMin= 6 EnMin= -95.8347342904102     IErMin= 6 ErrMin= 1.71D-05
 ErrMax= 1.71D-05  0.00D+00 EMaxC= 1.00D-01 BMatC= 9.79D-08 BMatP= 1.61D-05
 IDIUse=1 WtCom= 1.00D+00 WtEn= 0.00D+00
 Coeff-Com:  0.945D-03-0.206D-02-0.135D-01-0.270D-01-0.584D-01 0.110D+01
 Coeff:      0.945D-03-0.206D-02-0.135D-01-0.270D-01-0.584D-01 0.110D+01
 Gap=     0.320 Goal=   None    Shift=    0.000
 Gap=     0.320 Goal=   None    Shift=    0.000
 RMSDP=1.15D-05 MaxDP=2.36D-04 DE=-3.38D-06 OVMax= 1.51D-04

 Cycle   7  Pass 1  IDiag  1:
 E= -95.8347343392644     Delta-E=       -0.000000048854 Rises=F Damp=F
 DIIS: error= 2.90D-06 at cycle   7 NSaved=   7.
 NSaved= 7 IEnMin= 7 EnMin= -95.8347343392644     IErMin= 7 ErrMin= 2.90D-06
 ErrMax= 2.90D-06  0.00D+00 EMaxC= 1.00D-01 BMatC= 2.54D-09 BMatP= 9.79D-08
 IDIUse=1 WtCom= 1.00D+00 WtEn= 0.00D+00
 Coeff-Com: -0.324D-04 0.462D-04-0.414D-03-0.141D-02-0.118D-01-0.444D-01
 Coeff-Com:  0.106D+01
 Coeff:     -0.324D-04 0.462D-04-0.414D-03-0.141D-02-0.118D-01-0.444D-01
 Coeff:      0.106D+01
 Gap=     0.320 Goal=   None    Shift=    0.000
 Gap=     0.320 Goal=   None    Shift=    0.000
 RMSDP=1.26D-06 MaxDP=1.94D-05 DE=-4.89D-08 OVMax= 2.77D-05

 Cycle   8  Pass 1  IDiag  1:
 E= -95.8347343405412     Delta-E=       -0.000000001277 Rises=F Damp=F
 DIIS: error= 8.16D-07 at cycle   8 NSaved=   8.
 NSaved= 8 IEnMin= 8 EnMin= -95.8347343405412     IErMin= 8 ErrMin= 8.16D-07
 ErrMax= 8.16D-07  0.00D+00 EMaxC= 1.00D-01 BMatC= 1.22D-10 BMatP= 2.54D-09
 IDIUse=1 WtCom= 1.00D+00 WtEn= 0.00D+00
 Coeff-Com: -0.418D-04 0.866D-04 0.423D-03 0.682D-03-0.306D-04-0.409D-01
 Coeff-Com:  0.174D+00 0.866D+00
 Coeff:     -0.418D-04 0.866D-04 0.423D-03 0.682D-03-0.306D-04-0.409D-01
 Coeff:      0.174D+00 0.866D+00
 Gap=     0.320 Goal=   None    Shift=    0.000
 Gap=     0.320 Goal=   None    Shift=    0.000
 RMSDP=3.39D-07 MaxDP=6.60D-06 DE=-1.28D-09 OVMax= 5.87D-06

 Cycle   9  Pass 1  IDiag  1:
 E= -95.8347343406019     Delta-E=       -0.000000000061 Rises=F Damp=F
 DIIS: error= 1.58D-07 at cycle   9 NSaved=   9.
 NSaved= 9 IEnMin= 9 EnMin= -95.8347343406019     IErMin= 9 ErrMin= 1.58D-07
 ErrMax= 1.58D-07  0.00D+00 EMaxC= 1.00D-01 BMatC= 6.22D-12 BMatP= 1.22D-10
 IDIUse=1 WtCom= 1.00D+00 WtEn= 0.00D+00
 Coeff-Com:  0.344D-05-0.454D-05-0.294D-05-0.434D-04 0.997D-04 0.306D-02
 Coeff-Com: -0.573D-01-0.362D-01 0.109D+01
 Coeff:      0.344D-05-0.454D-05-0.294D-05-0.434D-04 0.997D-04 0.306D-02
 Coeff:     -0.573D-01-0.362D-01 0.109D+01
 Gap=     0.320 Goal=   None    Shift=    0.000
 Gap=     0.320 Goal=   None    Shift=    0.000
 RMSDP=8.66D-08 MaxDP=1.31D-06 DE=-6.07D-11 OVMax= 2.46D-06

 Cycle  10  Pass 1  IDiag  1:
 E= -95.8347343406068     Delta-E=       -0.000000000005 Rises=F Damp=F
 DIIS: error= 3.03D-08 at cycle  10 NSaved=  10.
 NSaved=10 IEnMin=10 EnMin= -95.8347343406068     IErMin=10 ErrMin= 3.03D-08
 ErrMax= 3.03D-08  0.00D+00 EMaxC= 1.00D-01 BMatC= 2.12D-13 BMatP= 6.22D-12
 IDIUse=1 WtCom= 1.00D+00 WtEn= 0.00D+00
 Coeff-Com:  0.155D-05-0.319D-05-0.113D-04-0.210D-04-0.146D-04 0.162D-02
 Coeff-Com: -0.569D-02-0.260D-01-0.169D-01 0.105D+01
 Coeff:      0.155D-05-0.319D-05-0.113D-04-0.210D-04-0.146D-04 0.162D-02
 Coeff:     -0.569D-02-0.260D-01-0.169D-01 0.105D+01
 Gap=     0.320 Goal=   None    Shift=    0.000
 Gap=     0.320 Goal=   None    Shift=    0.000
 RMSDP=1.34D-08 MaxDP=1.99D-07 DE=-4.95D-12 OVMax= 4.27D-07

 Cycle  11  Pass 1  IDiag  1:
 E= -95.8347343406071     Delta-E=       -0.000000000000 Rises=F Damp=F
 DIIS: error= 6.06D-09 at cycle  11 NSaved=  11.
 NSaved=11 IEnMin=11 EnMin= -95.8347343406071     IErMin=11 ErrMin= 6.06D-09
 ErrMax= 6.06D-09  0.00D+00 EMaxC= 1.00D-01 BMatC= 9.96D-15 BMatP= 2.12D-13
 IDIUse=1 WtCom= 1.00D+00 WtEn= 0.00D+00
 Coeff-Com: -0.263D-06 0.355D-06 0.152D-05 0.319D-05-0.556D-05-0.258D-03
 Coeff-Com:  0.279D-02 0.376D-02-0.511D-01-0.604D-01 0.111D+01
 Coeff:     -0.263D-06 0.355D-06 0.152D-05 0.319D-05-0.556D-05-0.258D-03
 Coeff:      0.279D-02 0.376D-02-0.511D-01-0.604D-01 0.111D+01
 Gap=     0.320 Goal=   None    Shift=    0.000
 Gap=     0.320 Goal=   None    Shift=    0.000
 RMSDP=2.30D-09 MaxDP=3.44D-08 DE=-2.84D-13 OVMax= 9.56D-08

 SCF Done:  E(UM062X) =  -95.8347343406     A.U. after   11 cycles
            NFock= 11  Conv=0.23D-08     -V/T= 2.0041
 <Sx>= 0.0000 <Sy>= 0.0000 <Sz>= 0.0000 <S**2>=-0.0000 S=-0.0000
 <L.S>=  0.00000000000    
 KE= 9.544426834105D+01 PE=-3.069956292298D+02 EE= 7.368113182224D+01
 Annihilation of the first spin contaminant:
 S**2 before annihilation    -0.0000,   after    -0.0000
 Leave Link  502 at Wed Apr 16 02:13:44 2025, MaxMem=   536870912 cpu:              75.4 elap:              16.4
 (Enter /home/szhao/Apps/g16/l601.exe)
 Copying SCF densities to generalized density rwf, IOpCl= 1 IROHF=0.

 **********************************************************************

            Population analysis using the SCF density.

 **********************************************************************

 Orbital symmetries:
 Alpha Orbitals:
       Occupied  (A) (A) (A) (A) (A) (A) (A) (A) (A)
       Virtual   (A) (A) (A) (A) (A) (A) (A) (A) (A) (A) (A) (A)
                 (A) (A) (A) (A) (A) (A) (A) (A) (A) (A) (A) (A)
                 (A) (A) (A) (A) (A) (A) (A) (A) (A) (A) (A) (A)
                 (A) (A) (A) (A) (A) (A) (A) (A) (A) (A) (A) (A)
                 (A) (A) (A) (A) (A) (A) (A) (A) (A) (A) (A) (A)
                 (A) (A) (A) (A) (A)
 Beta  Orbitals:
       Occupied  (A) (A) (A) (A) (A) (A) (A) (A) (A)
       Virtual   (A) (A) (A) (A) (A) (A) (A) (A) (A) (A) (A) (A)
                 (A) (A) (A) (A) (A) (A) (A) (A) (A) (A) (A) (A)
                 (A) (A) (A) (A) (A) (A) (A) (A) (A) (A) (A) (A)
                 (A) (A) (A) (A) (A) (A) (A) (A) (A) (A) (A) (A)
                 (A) (A) (A) (A) (A) (A) (A) (A) (A) (A) (A) (A)
                 (A) (A) (A) (A) (A)
 The electronic state is 1-A.
 Alpha  occ. eigenvalues --  -14.72341 -10.55089  -0.98071  -0.74957  -0.56410
 Alpha  occ. eigenvalues --   -0.50910  -0.47014  -0.43133  -0.30458
 Alpha virt. eigenvalues --    0.01500   0.04004   0.05005   0.05908   0.11209
 Alpha virt. eigenvalues --    0.13839   0.16105   0.18574   0.19637   0.21664
 Alpha virt. eigenvalues --    0.21769   0.23540   0.27285   0.29575   0.43304
 Alpha virt. eigenvalues --    0.45293   0.54680   0.55559   0.63832   0.65317
 Alpha virt. eigenvalues --    0.66499   0.71690   0.79877   0.81117   0.86063
 Alpha virt. eigenvalues --    0.89439   1.08967   1.12069   1.18926   1.37602
 Alpha virt. eigenvalues --    1.45540   1.51120   1.57803   1.58413   1.68352
 Alpha virt. eigenvalues --    1.69928   1.71769   1.76814   1.81586   1.93113
 Alpha virt. eigenvalues --    2.02584   2.10044   2.19760   2.26522   2.42904
 Alpha virt. eigenvalues --    2.44036   2.48156   2.49938   2.52311   2.60745
 Alpha virt. eigenvalues --    2.68608   2.69190   2.79066   2.81970   2.90884
 Alpha virt. eigenvalues --    3.00953   3.15994   3.53889   3.81902   3.85672
 Alpha virt. eigenvalues --    4.18744   4.80743   4.90384  24.00072  35.68343
  Beta  occ. eigenvalues --  -14.72341 -10.55089  -0.98071  -0.74957  -0.56410
  Beta  occ. eigenvalues --   -0.50910  -0.47014  -0.43133  -0.30458
  Beta virt. eigenvalues --    0.01500   0.04004   0.05005   0.05908   0.11209
  Beta virt. eigenvalues --    0.13839   0.16105   0.18574   0.19637   0.21664
  Beta virt. eigenvalues --    0.21769   0.23540   0.27285   0.29575   0.43304
  Beta virt. eigenvalues --    0.45293   0.54680   0.55559   0.63832   0.65317
  Beta virt. eigenvalues --    0.66499   0.71690   0.79877   0.81117   0.86063
  Beta virt. eigenvalues --    0.89439   1.08967   1.12069   1.18926   1.37602
  Beta virt. eigenvalues --    1.45540   1.51120   1.57803   1.58413   1.68352
  Beta virt. eigenvalues --    1.69928   1.71769   1.76814   1.81586   1.93113
  Beta virt. eigenvalues --    2.02584   2.10044   2.19760   2.26522   2.42904
  Beta virt. eigenvalues --    2.44036   2.48156   2.49938   2.52311   2.60745
  Beta virt. eigenvalues --    2.68608   2.69190   2.79066   2.81970   2.90884
  Beta virt. eigenvalues --    3.00953   3.15994   3.53889   3.81902   3.85672
  Beta virt. eigenvalues --    4.18744   4.80743   4.90384  24.00072  35.68343
          Condensed to atoms (all electrons):
               1          2          3          4          5          6
     1  C    5.029579   0.183167  -0.038486   0.412796  -0.038486   0.412796
     2  N    0.183167   6.700896   0.399626  -0.034536   0.399626  -0.034536
     3  H   -0.038486   0.399626   0.455912   0.007142  -0.048379  -0.009383
     4  H    0.412796  -0.034536   0.007142   0.535781  -0.009383  -0.024124
     5  H   -0.038486   0.399626  -0.048379  -0.009383   0.455911   0.007142
     6  H    0.412796  -0.034536  -0.009383  -0.024124   0.007142   0.535781
     7  H    0.442568  -0.114435  -0.000071  -0.039382  -0.000071  -0.039382
               7
     1  C    0.442568
     2  N   -0.114435
     3  H   -0.000071
     4  H   -0.039382
     5  H   -0.000071
     6  H   -0.039382
     7  H    0.617722
          Atomic-Atomic Spin Densities.
               1          2          3          4          5          6
     1  C    0.000000  -0.000000  -0.000000  -0.000000   0.000000   0.000000
     2  N   -0.000000   0.000000   0.000000  -0.000000  -0.000000  -0.000000
     3  H   -0.000000   0.000000  -0.000000  -0.000000   0.000000   0.000000
     4  H   -0.000000  -0.000000  -0.000000  -0.000000  -0.000000  -0.000000
     5  H    0.000000  -0.000000   0.000000  -0.000000   0.000000   0.000000
     6  H    0.000000  -0.000000   0.000000  -0.000000   0.000000  -0.000000
     7  H   -0.000000  -0.000000  -0.000000  -0.000000   0.000000  -0.000000
               7
     1  C   -0.000000
     2  N   -0.000000
     3  H   -0.000000
     4  H   -0.000000
     5  H    0.000000
     6  H   -0.000000
     7  H   -0.000000
 Mulliken charges and spin densities:
               1          2
     1  C   -0.403935   0.000000
     2  N   -0.499808  -0.000000
     3  H    0.233639  -0.000000
     4  H    0.151706  -0.000000
     5  H    0.233640   0.000000
     6  H    0.151706  -0.000000
     7  H    0.133052  -0.000000
 Sum of Mulliken charges =  -0.00000  -0.00000
 Mulliken charges and spin densities with hydrogens summed into heavy atoms:
               1          2
     1  C    0.032530   0.000000
     2  N   -0.032530  -0.000000
 Electronic spatial extent (au):  <R**2>=             95.6912
 Charge=             -0.0000 electrons
 Dipole moment (field-independent basis, Debye):
    X=              0.3237    Y=              0.0000    Z=              1.4105  Tot=              1.4471
 Quadrupole moment (field-independent basis, Debye-Ang):
   XX=            -14.0275   YY=            -12.6386   ZZ=            -15.7430
   XY=              0.0000   XZ=             -2.1644   YZ=              0.0000
 Traceless Quadrupole moment (field-independent basis, Debye-Ang):
   XX=              0.1089   YY=              1.4977   ZZ=             -1.6066
   XY=              0.0000   XZ=             -2.1644   YZ=              0.0000
 Octapole moment (field-independent basis, Debye-Ang**2):
  XXX=             -2.6076  YYY=              0.0000  ZZZ=              1.8656  XYY=             -1.9550
  XXY=             -0.0000  XXZ=              2.2772  XZZ=              1.0539  YZZ=             -0.0000
  YYZ=              0.3025  XYZ=             -0.0000
 Hexadecapole moment (field-independent basis, Debye-Ang**3):
 XXXX=            -77.4237 YYYY=            -23.8704 ZZZZ=            -26.8647 XXXY=              0.0000
 XXXZ=             -4.5152 YYYX=              0.0000 YYYZ=              0.0000 ZZZX=             -1.9079
 ZZZY=              0.0000 XXYY=            -14.6444 XXZZ=            -18.6031 YYZZ=             -8.4004
 XXYZ=             -0.0000 YYXZ=             -2.2073 ZZXY=             -0.0000
 N-N= 4.203549472595D+01 E-N=-3.069956293540D+02  KE= 9.544426834105D+01
                          Isotropic Fermi Contact Couplings
        Atom                 a.u.       MegaHertz       Gauss      10(-4) cm-1
     1  C(13)              0.00000       0.00000       0.00000       0.00000
     2  N(14)             -0.00000      -0.00000      -0.00000      -0.00000
     3  H(1)              -0.00000      -0.00000      -0.00000      -0.00000
     4  H(1)               0.00000       0.00000       0.00000       0.00000
     5  H(1)              -0.00000      -0.00000      -0.00000      -0.00000
     6  H(1)               0.00000       0.00000       0.00000       0.00000
     7  H(1)              -0.00000      -0.00000      -0.00000      -0.00000
 --------------------------------------------------------
       Center         ----  Spin Dipole Couplings  ----
                      3XX-RR        3YY-RR        3ZZ-RR
 --------------------------------------------------------
     1   Atom        0.000000      0.000000      0.000000
     2   Atom        0.000000      0.000000      0.000000
     3   Atom        0.000000      0.000000      0.000000
     4   Atom        0.000000      0.000000      0.000000
     5   Atom        0.000000      0.000000      0.000000
     6   Atom        0.000000      0.000000      0.000000
     7   Atom        0.000000      0.000000      0.000000
 --------------------------------------------------------
                        XY            XZ            YZ
 --------------------------------------------------------
     1   Atom        0.000000      0.000000      0.000000
     2   Atom        0.000000      0.000000      0.000000
     3   Atom        0.000000      0.000000      0.000000
     4   Atom        0.000000      0.000000      0.000000
     5   Atom        0.000000      0.000000      0.000000
     6   Atom        0.000000      0.000000      0.000000
     7   Atom        0.000000      0.000000      0.000000
 --------------------------------------------------------


 ---------------------------------------------------------------------------------
              Anisotropic Spin Dipole Couplings in Principal Axis System
 ---------------------------------------------------------------------------------

       Atom             a.u.   MegaHertz   Gauss  10(-4) cm-1        Axes

              Baa     0.0000     0.000     0.000     0.000  1.0000  0.0000  0.0000
     1 C(13)  Bbb     0.0000     0.000     0.000     0.000 -0.0000  1.0000  0.0000
              Bcc     0.0000     0.000     0.000     0.000  0.0000  0.0000  1.0000
 
              Baa     0.0000     0.000     0.000     0.000  1.0000  0.0000  0.0000
     2 N(14)  Bbb     0.0000     0.000     0.000     0.000 -0.0000  1.0000  0.0000
              Bcc     0.0000     0.000     0.000     0.000  0.0000  0.0000  1.0000
 
              Baa     0.0000     0.000     0.000     0.000  1.0000  0.0000  0.0000
     3 H(1)   Bbb     0.0000     0.000     0.000     0.000 -0.0000  1.0000  0.0000
              Bcc     0.0000     0.000     0.000     0.000  0.0000  0.0000  1.0000
 
              Baa     0.0000     0.000     0.000     0.000  1.0000  0.0000  0.0000
     4 H(1)   Bbb     0.0000     0.000     0.000     0.000 -0.0000  1.0000  0.0000
              Bcc     0.0000     0.000     0.000     0.000  0.0000  0.0000  1.0000
 
              Baa     0.0000     0.000     0.000     0.000  1.0000  0.0000  0.0000
     5 H(1)   Bbb     0.0000     0.000     0.000     0.000 -0.0000  1.0000  0.0000
              Bcc     0.0000     0.000     0.000     0.000  0.0000  0.0000  1.0000
 
              Baa     0.0000     0.000     0.000     0.000  1.0000  0.0000  0.0000
     6 H(1)   Bbb     0.0000     0.000     0.000     0.000 -0.0000  1.0000  0.0000
              Bcc     0.0000     0.000     0.000     0.000  0.0000  0.0000  1.0000
 
              Baa     0.0000     0.000     0.000     0.000  1.0000  0.0000  0.0000
     7 H(1)   Bbb     0.0000     0.000     0.000     0.000 -0.0000  1.0000  0.0000
              Bcc     0.0000     0.000     0.000     0.000  0.0000  0.0000  1.0000
 

 ---------------------------------------------------------------------------------

 No NMR shielding tensors so no spin-rotation constants.
 Leave Link  601 at Wed Apr 16 02:13:45 2025, MaxMem=   536870912 cpu:               1.3 elap:               0.3
 (Enter /home/szhao/Apps/g16/l607.exe)
 ******************************Gaussian NBO Version 3.1******************************
             N A T U R A L   A T O M I C   O R B I T A L   A N D
          N A T U R A L   B O N D   O R B I T A L   A N A L Y S I S
 ******************************Gaussian NBO Version 3.1******************************
       /RESON  / : Allow strongly delocalized NBO set

 Analyzing the SCF density

 Job title: Title Card Required                                             

 Storage needed:     16844 in NPA,     22197 in NBO ( 536870597 available)
 GSVD:  LWork=         876 too small for GESVD, short by        7910 words or        7910 for optimal perf.


 NATURAL POPULATIONS:  Natural atomic orbital occupancies 
                                                          
   NAO  Atom  No  lang   Type(AO)    Occupancy
 --------------------------------------------
     1    C    1  S      Cor( 1S)     1.99947
     2    C    1  S      Val( 2S)     1.07243
     3    C    1  S      Ryd( 3S)     0.00390
     4    C    1  S      Ryd( 4S)     0.00021
     5    C    1  S      Ryd( 5S)     0.00000
     6    C    1  px     Val( 2p)     0.90055
     7    C    1  px     Ryd( 3p)     0.00307
     8    C    1  px     Ryd( 4p)     0.00021
     9    C    1  px     Ryd( 5p)     0.00003
    10    C    1  py     Val( 2p)     1.20495
    11    C    1  py     Ryd( 3p)     0.00114
    12    C    1  py     Ryd( 5p)     0.00000
    13    C    1  py     Ryd( 4p)     0.00001
    14    C    1  pz     Val( 2p)     1.18394
    15    C    1  pz     Ryd( 3p)     0.00118
    16    C    1  pz     Ryd( 4p)     0.00015
    17    C    1  pz     Ryd( 5p)     0.00001
    18    C    1  dxy    Ryd( 3d)     0.00076
    19    C    1  dxz    Ryd( 3d)     0.00127
    20    C    1  dyz    Ryd( 3d)     0.00058
    21    C    1  dx2y2  Ryd( 3d)     0.00094
    22    C    1  dz2    Ryd( 3d)     0.00072
 
    23    N    2  S      Cor( 1S)     1.99961
    24    N    2  S      Val( 2S)     1.41286
    25    N    2  S      Ryd( 3S)     0.00140
    26    N    2  S      Ryd( 4S)     0.00017
    27    N    2  S      Ryd( 5S)     0.00000
    28    N    2  px     Val( 2p)     1.27597
    29    N    2  px     Ryd( 3p)     0.00303
    30    N    2  px     Ryd( 4p)     0.00031
    31    N    2  px     Ryd( 5p)     0.00001
    32    N    2  py     Val( 2p)     1.34410
    33    N    2  py     Ryd( 3p)     0.00241
    34    N    2  py     Ryd( 4p)     0.00003
    35    N    2  py     Ryd( 5p)     0.00002
    36    N    2  pz     Val( 2p)     1.80153
    37    N    2  pz     Ryd( 3p)     0.00902
    38    N    2  pz     Ryd( 4p)     0.00016
    39    N    2  pz     Ryd( 5p)     0.00002
    40    N    2  dxy    Ryd( 3d)     0.00026
    41    N    2  dxz    Ryd( 3d)     0.00108
    42    N    2  dyz    Ryd( 3d)     0.00160
    43    N    2  dx2y2  Ryd( 3d)     0.00050
    44    N    2  dz2    Ryd( 3d)     0.00122
 
    45    H    3  S      Val( 1S)     0.64885
    46    H    3  S      Ryd( 2S)     0.00074
    47    H    3  S      Ryd( 3S)     0.00021
    48    H    3  px     Ryd( 2p)     0.00037
    49    H    3  py     Ryd( 2p)     0.00033
    50    H    3  pz     Ryd( 2p)     0.00091
 
    51    H    4  S      Val( 1S)     0.81168
    52    H    4  S      Ryd( 2S)     0.00076
    53    H    4  S      Ryd( 3S)     0.00009
    54    H    4  px     Ryd( 2p)     0.00006
    55    H    4  py     Ryd( 2p)     0.00026
    56    H    4  pz     Ryd( 2p)     0.00017
 
    57    H    5  S      Val( 1S)     0.64885
    58    H    5  S      Ryd( 2S)     0.00074
    59    H    5  S      Ryd( 3S)     0.00021
    60    H    5  px     Ryd( 2p)     0.00037
    61    H    5  py     Ryd( 2p)     0.00033
    62    H    5  pz     Ryd( 2p)     0.00091
 
    63    H    6  S      Val( 1S)     0.81168
    64    H    6  S      Ryd( 2S)     0.00076
    65    H    6  S      Ryd( 3S)     0.00009
    66    H    6  px     Ryd( 2p)     0.00006
    67    H    6  py     Ryd( 2p)     0.00026
    68    H    6  pz     Ryd( 2p)     0.00017
 
    69    H    7  S      Val( 1S)     0.83839
    70    H    7  S      Ryd( 2S)     0.00129
    71    H    7  S      Ryd( 3S)     0.00009
    72    H    7  px     Ryd( 2p)     0.00007
    73    H    7  py     Ryd( 2p)     0.00010
    74    H    7  pz     Ryd( 2p)     0.00038


 Summary of Natural Population Analysis:                  
                                                          
                                       Natural Population 
                Natural  -----------------------------------------------
    Atom  No    Charge         Core      Valence    Rydberg      Total
 -----------------------------------------------------------------------
      C    1   -0.37554      1.99947     4.36187    0.01420     6.37554
      N    2   -0.85532      1.99961     5.83446    0.02126     7.85532
      H    3    0.34860      0.00000     0.64885    0.00255     0.65140
      H    4    0.18699      0.00000     0.81168    0.00133     0.81301
      H    5    0.34860      0.00000     0.64885    0.00255     0.65140
      H    6    0.18699      0.00000     0.81168    0.00133     0.81301
      H    7    0.15968      0.00000     0.83839    0.00193     0.84032
 =======================================================================
   * Total *    0.00000      3.99908    13.95577    0.04515    18.00000

                                 Natural Population      
 --------------------------------------------------------
   Core                       3.99908 ( 99.9770% of   4)
   Valence                   13.95577 ( 99.6841% of  14)
   Natural Minimal Basis     17.95485 ( 99.7492% of  18)
   Natural Rydberg Basis      0.04515 (  0.2508% of  18)
 --------------------------------------------------------

    Atom  No          Natural Electron Configuration
 ----------------------------------------------------------------------------
      C    1      [core]2S( 1.07)2p( 3.29)3p( 0.01)
      N    2      [core]2S( 1.41)2p( 4.42)3p( 0.01)
      H    3            1S( 0.65)
      H    4            1S( 0.81)
      H    5            1S( 0.65)
      H    6            1S( 0.81)
      H    7            1S( 0.84)


 ***************************************************
 *******         Alpha spin orbitals         *******
 ***************************************************


 NATURAL POPULATIONS:  Natural atomic orbital occupancies 
                                                          
   NAO  Atom  No  lang   Type(AO)    Occupancy      Energy
 ----------------------------------------------------------
     1    C    1  S      Cor( 1S)     0.99974     -10.41646
     2    C    1  S      Val( 2S)     0.53621      -0.27050
     3    C    1  S      Ryd( 4S)     0.00195       0.78036
     4    C    1  S      Ryd( 3S)     0.00011       0.61117
     5    C    1  S      Ryd( 5S)     0.00000      23.15970
     6    C    1  px     Val( 2p)     0.45027      -0.07203
     7    C    1  px     Ryd( 4p)     0.00153       0.47868
     8    C    1  px     Ryd( 5p)     0.00011       3.14589
     9    C    1  px     Ryd( 3p)     0.00002       0.21158
    10    C    1  py     Val( 2p)     0.60247      -0.10665
    11    C    1  py     Ryd( 4p)     0.00057       0.51496
    12    C    1  py     Ryd( 5p)     0.00000       3.10369
    13    C    1  py     Ryd( 3p)     0.00000       0.22565
    14    C    1  pz     Val( 2p)     0.59197      -0.09681
    15    C    1  pz     Ryd( 4p)     0.00059       0.53879
    16    C    1  pz     Ryd( 5p)     0.00007       3.10026
    17    C    1  pz     Ryd( 3p)     0.00001       0.22524
    18    C    1  dxy    Ryd( 3d)     0.00038       1.98942
    19    C    1  dxz    Ryd( 3d)     0.00064       1.98441
    20    C    1  dyz    Ryd( 3d)     0.00029       2.09959
    21    C    1  dx2y2  Ryd( 3d)     0.00047       2.22025
    22    C    1  dz2    Ryd( 3d)     0.00036       2.14620
 
    23    N    2  S      Cor( 1S)     0.99980     -14.55342
    24    N    2  S      Val( 2S)     0.70643      -0.62018
    25    N    2  S      Ryd( 3S)     0.00070       0.37609
    26    N    2  S      Ryd( 4S)     0.00009       1.45737
    27    N    2  S      Ryd( 5S)     0.00000      35.25224
    28    N    2  px     Val( 2p)     0.63798      -0.20475
    29    N    2  px     Ryd( 3p)     0.00152       0.50032
    30    N    2  px     Ryd( 4p)     0.00016       0.74616
    31    N    2  px     Ryd( 5p)     0.00001       4.15035
    32    N    2  py     Val( 2p)     0.67205      -0.19692
    33    N    2  py     Ryd( 3p)     0.00121       0.45732
    34    N    2  py     Ryd( 4p)     0.00002       0.69501
    35    N    2  py     Ryd( 5p)     0.00001       4.17003
    36    N    2  pz     Val( 2p)     0.90077      -0.26760
    37    N    2  pz     Ryd( 3p)     0.00451       0.44558
    38    N    2  pz     Ryd( 4p)     0.00008       0.73950
    39    N    2  pz     Ryd( 5p)     0.00001       3.92359
    40    N    2  dxy    Ryd( 3d)     0.00013       2.66499
    41    N    2  dxz    Ryd( 3d)     0.00054       2.47227
    42    N    2  dyz    Ryd( 3d)     0.00080       2.72762
    43    N    2  dx2y2  Ryd( 3d)     0.00025       2.80747
    44    N    2  dz2    Ryd( 3d)     0.00061       2.45971
 
    45    H    3  S      Val( 1S)     0.32442       0.11688
    46    H    3  S      Ryd( 2S)     0.00037       0.52933
    47    H    3  S      Ryd( 3S)     0.00010       2.34151
    48    H    3  px     Ryd( 2p)     0.00019       1.88378
    49    H    3  py     Ryd( 2p)     0.00016       2.34077
    50    H    3  pz     Ryd( 2p)     0.00045       1.83543
 
    51    H    4  S      Val( 1S)     0.40584       0.04071
    52    H    4  S      Ryd( 2S)     0.00038       0.57235
    53    H    4  S      Ryd( 3S)     0.00004       2.20467
    54    H    4  px     Ryd( 2p)     0.00003       1.86964
    55    H    4  py     Ryd( 2p)     0.00013       2.37083
    56    H    4  pz     Ryd( 2p)     0.00008       1.96058
 
    57    H    5  S      Val( 1S)     0.32442       0.11688
    58    H    5  S      Ryd( 2S)     0.00037       0.52933
    59    H    5  S      Ryd( 3S)     0.00010       2.34151
    60    H    5  px     Ryd( 2p)     0.00019       1.88378
    61    H    5  py     Ryd( 2p)     0.00016       2.34077
    62    H    5  pz     Ryd( 2p)     0.00045       1.83543
 
    63    H    6  S      Val( 1S)     0.40584       0.04071
    64    H    6  S      Ryd( 2S)     0.00038       0.57235
    65    H    6  S      Ryd( 3S)     0.00004       2.20467
    66    H    6  px     Ryd( 2p)     0.00003       1.86964
    67    H    6  py     Ryd( 2p)     0.00013       2.37083
    68    H    6  pz     Ryd( 2p)     0.00008       1.96057
 
    69    H    7  S      Val( 1S)     0.41920       0.03005
    70    H    7  S      Ryd( 2S)     0.00064       0.49386
    71    H    7  S      Ryd( 3S)     0.00005       2.30115
    72    H    7  px     Ryd( 2p)     0.00004       1.82932
    73    H    7  py     Ryd( 2p)     0.00005       1.75514
    74    H    7  pz     Ryd( 2p)     0.00019       2.57458

 WARNING:  Population inversion found on atom  C    1


 Summary of Natural Population Analysis:                  
                                                          
                                       Natural Population 
                Natural  -----------------------------------------------
    Atom  No    Charge         Core      Valence    Rydberg      Total
 -----------------------------------------------------------------------
      C    1   -0.18777      0.99974     2.18093    0.00710     3.18777
      N    2   -0.42766      0.99980     2.91723    0.01063     3.92766
      H    3    0.17430      0.00000     0.32442    0.00128     0.32570
      H    4    0.09350      0.00000     0.40584    0.00066     0.40650
      H    5    0.17430      0.00000     0.32442    0.00128     0.32570
      H    6    0.09350      0.00000     0.40584    0.00066     0.40650
      H    7    0.07984      0.00000     0.41920    0.00097     0.42016
 =======================================================================
   * Total *   -0.00000      1.99954     6.97789    0.02257     9.00000

                                 Natural Population      
 --------------------------------------------------------
   Core                       1.99954 ( 99.9770% of   2)
   Valence                    6.97789 ( 99.6841% of   7)
   Natural Minimal Basis      8.97743 ( 99.7492% of   9)
   Natural Rydberg Basis      0.02257 (  0.2508% of   9)
 --------------------------------------------------------

    Atom  No          Natural Electron Configuration
 ----------------------------------------------------------------------------
      C    1      [core]2S( 0.54)2p( 1.64)
      N    2      [core]2S( 0.71)2p( 2.21)3p( 0.01)
      H    3            1S( 0.32)
      H    4            1S( 0.41)
      H    5            1S( 0.32)
      H    6            1S( 0.41)
      H    7            1S( 0.42)


 NATURAL BOND ORBITAL ANALYSIS, alpha spin orbitals:

                       Occupancies       Lewis Structure    Low   High
           Occ.    -------------------  -----------------   occ   occ
  Cycle   Thresh.   Lewis   Non-Lewis     CR  BD  3C  LP    (L)   (NL)   Dev
 =============================================================================
   1(1)    0.90     8.96099   0.03901      2   6   0   1     0      0    0.01
 -----------------------------------------------------------------------------

 Structure accepted: No low occupancy Lewis orbitals

 --------------------------------------------------------
   Core                      1.99954 ( 99.977% of   2)
   Valence Lewis             6.96145 ( 99.449% of   7)
  ==================       ============================
   Total Lewis               8.96099 ( 99.567% of   9)
  -----------------------------------------------------
   Valence non-Lewis         0.03066 (  0.341% of   9)
   Rydberg non-Lewis         0.00835 (  0.093% of   9)
  ==================       ============================
   Total non-Lewis           0.03901 (  0.433% of   9)
 --------------------------------------------------------


       (Occupancy)   Bond orbital/ Coefficients/ Hybrids
 ---------------------------------------------------------------------------------
     1. (0.99941) BD ( 1) C   1 - N   2  
                ( 40.46%)   0.6361* C   1 s( 26.48%)p 2.77( 73.42%)d 0.00(  0.10%)
                                            0.0001  0.5111 -0.0596 -0.0027 -0.0001
                                           -0.8539 -0.0532  0.0005 -0.0029 -0.0000
                                           -0.0000  0.0000  0.0000 -0.0459 -0.0124
                                            0.0013  0.0007  0.0000  0.0029 -0.0000
                                            0.0267 -0.0160
                ( 59.54%)   0.7716* N   2 s( 32.26%)p 2.10( 67.68%)d 0.00(  0.07%)
                                            0.0000  0.5675 -0.0235  0.0021 -0.0004
                                            0.8191 -0.0285 -0.0126  0.0019 -0.0000
                                            0.0000 -0.0000 -0.0000  0.0690  0.0083
                                           -0.0103 -0.0021  0.0000  0.0166  0.0000
                                            0.0146 -0.0134
     2. (0.99550) BD ( 1) C   1 - H   4  
                ( 59.55%)   0.7717* C   1 s( 24.30%)p 3.11( 75.65%)d 0.00(  0.06%)
                                           -0.0000  0.4927  0.0132  0.0002  0.0001
                                            0.3147  0.0041  0.0002  0.0007 -0.7067
                                            0.0158 -0.0004  0.0009 -0.3972  0.0063
                                           -0.0006  0.0005 -0.0108 -0.0067  0.0156
                                           -0.0120 -0.0041
                ( 40.45%)   0.6360* H   4 s( 99.96%)p 0.00(  0.04%)
                                            0.9998  0.0015  0.0000 -0.0060  0.0145
                                            0.0101
     3. (0.99550) BD ( 1) C   1 - H   6  
                ( 59.55%)   0.7717* C   1 s( 24.30%)p 3.11( 75.65%)d 0.00(  0.06%)
                                           -0.0000  0.4927  0.0132  0.0002  0.0001
                                            0.3147  0.0041  0.0002  0.0007  0.7067
                                           -0.0158  0.0004 -0.0009 -0.3971  0.0063
                                           -0.0006  0.0005  0.0108 -0.0067 -0.0156
                                           -0.0120 -0.0041
                ( 40.45%)   0.6360* H   6 s( 99.96%)p 0.00(  0.04%)
                                            0.9998  0.0015  0.0000 -0.0060 -0.0145
                                            0.0101
     4. (0.99853) BD ( 1) C   1 - H   7  
                ( 58.71%)   0.7662* C   1 s( 25.29%)p 2.95( 74.65%)d 0.00(  0.06%)
                                            0.0000  0.5027  0.0162  0.0013 -0.0000
                                            0.2547  0.0085 -0.0006 -0.0001 -0.0000
                                            0.0000  0.0000 -0.0000  0.8255 -0.0133
                                            0.0008 -0.0005 -0.0000  0.0122 -0.0000
                                            0.0010  0.0201
                ( 41.29%)   0.6426* H   7 s( 99.96%)p 0.00(  0.04%)
                                            0.9998 -0.0043 -0.0001 -0.0055  0.0000
                                           -0.0180
     5. (0.99545) BD ( 1) N   2 - H   3  
                ( 67.65%)   0.8225* N   2 s( 24.20%)p 3.13( 75.71%)d 0.00(  0.09%)
                                           -0.0001  0.4918  0.0135 -0.0010 -0.0002
                                           -0.3684  0.0256 -0.0021 -0.0001  0.7062
                                           -0.0261  0.0030  0.0006  0.3483  0.0031
                                           -0.0012 -0.0019 -0.0055 -0.0129  0.0243
                                           -0.0093  0.0009
                ( 32.35%)   0.5688* H   3 s( 99.94%)p 0.00(  0.06%)
                                            0.9997 -0.0022  0.0003  0.0113 -0.0201
                                           -0.0056
     6. (0.99545) BD ( 1) N   2 - H   5  
                ( 67.65%)   0.8225* N   2 s( 24.20%)p 3.13( 75.71%)d 0.00(  0.09%)
                                           -0.0001  0.4918  0.0135 -0.0010 -0.0002
                                           -0.3684  0.0256 -0.0021 -0.0001 -0.7062
                                            0.0261 -0.0030 -0.0006  0.3483  0.0031
                                           -0.0012 -0.0019  0.0055 -0.0129 -0.0243
                                           -0.0093  0.0009
                ( 32.35%)   0.5688* H   5 s( 99.94%)p 0.00(  0.06%)
                                            0.9997 -0.0022  0.0003  0.0113  0.0201
                                           -0.0056
     7. (0.99974) CR ( 1) C   1           s(100.00%)
                                            1.0000 -0.0000  0.0000  0.0000  0.0000
                                            0.0001  0.0000 -0.0000  0.0000  0.0000
                                           -0.0000  0.0000 -0.0000 -0.0000  0.0000
                                           -0.0000 -0.0000  0.0000 -0.0000 -0.0000
                                           -0.0000  0.0000
     8. (0.99980) CR ( 1) N   2           s(100.00%)p 0.00(  0.00%)
                                            1.0000  0.0000  0.0000 -0.0000 -0.0000
                                           -0.0001  0.0000  0.0000 -0.0000 -0.0000
                                           -0.0000  0.0000 -0.0000  0.0001  0.0000
                                            0.0000 -0.0000  0.0000 -0.0000  0.0000
                                           -0.0000  0.0000
     9. (0.98162) LP ( 1) N   2           s( 19.35%)p 4.17( 80.59%)d 0.00(  0.06%)
                                            0.0001  0.4399 -0.0024  0.0001  0.0007
                                           -0.2320 -0.0108 -0.0063 -0.0002  0.0000
                                            0.0000 -0.0000  0.0000 -0.8653 -0.0571
                                           -0.0020  0.0005 -0.0000 -0.0098 -0.0000
                                           -0.0009 -0.0225
    10. (0.00098) RY*( 1) C   1           s(  7.96%)p 8.27( 65.86%)d 3.29( 26.18%)
                                           -0.0000  0.0169  0.2809 -0.0155 -0.0131
                                           -0.0537  0.4891  0.0340 -0.0665 -0.0000
                                           -0.0000  0.0000  0.0000  0.0144  0.6245
                                           -0.1412 -0.0272  0.0000 -0.5018  0.0000
                                           -0.0928 -0.0381
    11. (0.00075) RY*( 2) C   1           s( 23.40%)p 1.52( 35.65%)d 1.75( 40.95%)
                                           -0.0000  0.0097  0.3433 -0.3407 -0.0019
                                           -0.0355  0.3457  0.3717  0.0439  0.0000
                                            0.0000 -0.0000  0.0000 -0.0123  0.1264
                                            0.2707 -0.0790 -0.0000  0.6373  0.0000
                                            0.0571  0.0053
    12. (0.00057) RY*( 3) C   1           s(  0.00%)p 1.00( 54.48%)d 0.84( 45.52%)
                                            0.0000  0.0000  0.0000 -0.0000 -0.0000
                                           -0.0000  0.0000  0.0000 -0.0000  0.0268
                                            0.7319 -0.0580 -0.0712  0.0000  0.0000
                                           -0.0000 -0.0000 -0.6746 -0.0000  0.0096
                                           -0.0000 -0.0000
    13. (0.00005) RY*( 4) C   1           s( 30.87%)p 2.10( 64.95%)d 0.14(  4.18%)
    14. (0.00000) RY*( 5) C   1           s( 29.39%)p 2.37( 69.72%)d 0.03(  0.89%)
    15. (0.00000) RY*( 6) C   1           s(  5.74%)p16.28( 93.37%)d 0.16(  0.90%)
    16. (0.00000) RY*( 7) C   1           s( 99.92%)p 0.00(  0.07%)d 0.00(  0.01%)
    17. (0.00000) RY*( 8) C   1           s(  0.00%)p 1.00( 99.84%)d 0.00(  0.16%)
    18. (0.00000) RY*( 9) C   1           s(  0.00%)p 1.00( 99.77%)d 0.00(  0.23%)
    19. (0.00000) RY*(10) C   1           s( 15.36%)p 3.41( 52.36%)d 2.10( 32.28%)
    20. (0.00000) RY*(11) C   1           s( 42.21%)p 1.36( 57.32%)d 0.01(  0.47%)
    21. (0.00000) RY*(12) C   1           s(  0.24%)p99.99( 99.61%)d 0.60(  0.15%)
    22. (0.00000) RY*(13) C   1           s(  0.00%)p 1.00( 45.93%)d 1.18( 54.07%)
    23. (0.00000) RY*(14) C   1           s( 40.30%)p 1.45( 58.53%)d 0.03(  1.17%)
    24. (0.00000) RY*(15) C   1           s(  0.00%)p 1.00(  0.05%)d99.99( 99.95%)
    25. (0.00000) RY*(16) C   1           s(  2.29%)p 0.63(  1.45%)d42.09( 96.27%)
    26. (0.00000) RY*(17) C   1           s(  1.96%)p 0.85(  1.67%)d49.11( 96.37%)
    27. (0.00139) RY*( 1) N   2           s(  3.22%)p28.64( 92.33%)d 1.38(  4.44%)
                                           -0.0000 -0.0139  0.1435 -0.1070 -0.0002
                                            0.0152 -0.0311 -0.0259  0.0043  0.0000
                                            0.0000 -0.0000 -0.0000  0.0485 -0.9543
                                            0.0814 -0.0413 -0.0000  0.2072 -0.0000
                                            0.0159  0.0352
    28. (0.00035) RY*( 2) N   2           s(  0.00%)p 1.00( 70.59%)d 0.42( 29.41%)
                                            0.0000  0.0000  0.0000  0.0000  0.0000
                                            0.0000 -0.0000  0.0000 -0.0000  0.0218
                                            0.8192 -0.1120  0.1478 -0.0000  0.0000
                                            0.0000  0.0000 -0.5238 -0.0000  0.1404
                                            0.0000  0.0000
    29. (0.00017) RY*( 3) N   2           s( 88.90%)p 0.07(  6.55%)d 0.05(  4.55%)
                                           -0.0000 -0.0036  0.7297  0.5971  0.0002
                                            0.0222  0.0292 -0.1966 -0.1573 -0.0000
                                           -0.0000 -0.0000 -0.0000 -0.0056  0.0067
                                            0.0196  0.0173  0.0000 -0.1856 -0.0000
                                            0.0898 -0.0545
    30. (0.00005) RY*( 4) N   2           s( 10.82%)p 7.76( 84.03%)d 0.48(  5.15%)
    31. (0.00000) RY*( 5) N   2           s(  5.25%)p18.00( 94.43%)d 0.06(  0.32%)
    32. (0.00000) RY*( 6) N   2           s(  2.16%)p45.16( 97.60%)d 0.11(  0.24%)
    33. (0.00000) RY*( 7) N   2           s(100.00%)p 0.00(  0.00%)d 0.00(  0.00%)
    34. (0.00000) RY*( 8) N   2           s(  0.00%)p 1.00( 99.63%)d 0.00(  0.37%)
    35. (0.00000) RY*( 9) N   2           s(  0.00%)p 1.00(100.00%)d 0.00(  0.00%)
    36. (0.00000) RY*(10) N   2           s( 84.33%)p 0.18( 15.59%)d 0.00(  0.09%)
    37. (0.00000) RY*(11) N   2           s(  0.06%)p99.99( 99.93%)d 0.10(  0.01%)
    38. (0.00000) RY*(12) N   2           s(  0.05%)p99.99( 99.94%)d 0.08(  0.00%)
    39. (0.00000) RY*(13) N   2           s(  0.00%)p 1.00( 28.35%)d 2.53( 71.65%)
    40. (0.00000) RY*(14) N   2           s(  3.30%)p 2.00(  6.60%)d27.32( 90.10%)
    41. (0.00000) RY*(15) N   2           s(  0.00%)p 1.00(  1.56%)d63.30( 98.44%)
    42. (0.00000) RY*(16) N   2           s(  1.44%)p 1.79(  2.59%)d66.50( 95.97%)
    43. (0.00000) RY*(17) N   2           s(  0.46%)p 1.28(  0.59%)d99.99( 98.96%)
    44. (0.00051) RY*( 1) H   3           s( 30.34%)p 2.30( 69.66%)
                                            0.0061  0.5105  0.2068 -0.0783 -0.0271
                                            0.8305
    45. (0.00043) RY*( 2) H   3           s( 56.57%)p 0.77( 43.43%)
                                            0.0017  0.7152 -0.2328 -0.4754 -0.1490
                                           -0.4314
    46. (0.00011) RY*( 3) H   3           s( 43.40%)p 1.30( 56.60%)
                                           -0.0006  0.4291  0.4998  0.5832  0.3499
                                           -0.3218
    47. (0.00005) RY*( 4) H   3           s( 68.83%)p 0.45( 31.17%)
    48. (0.00000) RY*( 5) H   3           s(  0.92%)p99.99( 99.08%)
    49. (0.00039) RY*( 1) H   4           s( 97.17%)p 0.03(  2.83%)
                                           -0.0011  0.9858  0.0025 -0.1365 -0.0112
                                           -0.0976
    50. (0.00004) RY*( 2) H   4           s( 97.71%)p 0.02(  2.29%)
    51. (0.00005) RY*( 3) H   4           s(  0.24%)p99.99( 99.76%)
    52. (0.00003) RY*( 4) H   4           s(  1.09%)p91.13( 98.91%)
    53. (0.00001) RY*( 5) H   4           s(  3.83%)p25.10( 96.17%)
    54. (0.00051) RY*( 1) H   5           s( 30.34%)p 2.30( 69.66%)
                                            0.0061  0.5105  0.2068 -0.0783  0.0271
                                            0.8305
    55. (0.00043) RY*( 2) H   5           s( 56.57%)p 0.77( 43.43%)
                                            0.0017  0.7152 -0.2328 -0.4754  0.1490
                                           -0.4314
    56. (0.00011) RY*( 3) H   5           s( 43.40%)p 1.30( 56.60%)
                                           -0.0006  0.4291  0.4998  0.5832 -0.3499
                                           -0.3218
    57. (0.00005) RY*( 4) H   5           s( 68.83%)p 0.45( 31.17%)
    58. (0.00000) RY*( 5) H   5           s(  0.92%)p99.99( 99.08%)
    59. (0.00039) RY*( 1) H   6           s( 97.17%)p 0.03(  2.83%)
                                           -0.0011  0.9858  0.0025 -0.1365  0.0112
                                           -0.0976
    60. (0.00004) RY*( 2) H   6           s( 97.71%)p 0.02(  2.29%)
    61. (0.00005) RY*( 3) H   6           s(  0.24%)p99.99( 99.76%)
    62. (0.00003) RY*( 4) H   6           s(  1.09%)p91.13( 98.91%)
    63. (0.00001) RY*( 5) H   6           s(  3.83%)p25.10( 96.17%)
    64. (0.00068) RY*( 1) H   7           s( 95.09%)p 0.05(  4.91%)
                                            0.0026  0.9751  0.0003  0.1719  0.0000
                                           -0.1399
    65. (0.00005) RY*( 2) H   7           s( 97.39%)p 0.03(  2.61%)
    66. (0.00005) RY*( 3) H   7           s(  0.00%)p 1.00(100.00%)
    67. (0.00003) RY*( 4) H   7           s(  5.77%)p16.32( 94.23%)
    68. (0.00000) RY*( 5) H   7           s(  1.78%)p55.04( 98.22%)
    69. (0.00008) BD*( 1) C   1 - N   2  
                ( 59.54%)   0.7716* C   1 s( 26.48%)p 2.77( 73.42%)d 0.00(  0.10%)
                ( 40.46%)  -0.6361* N   2 s( 32.26%)p 2.10( 67.68%)d 0.00(  0.07%)
    70. (0.00553) BD*( 1) C   1 - H   4  
                ( 40.45%)   0.6360* C   1 s( 24.30%)p 3.11( 75.65%)d 0.00(  0.06%)
                                            0.0000 -0.4927 -0.0132 -0.0002 -0.0001
                                           -0.3147 -0.0041 -0.0002 -0.0007  0.7067
                                           -0.0158  0.0004 -0.0009  0.3972 -0.0063
                                            0.0006 -0.0005  0.0108  0.0067 -0.0156
                                            0.0120  0.0041
                ( 59.55%)  -0.7717* H   4 s( 99.96%)p 0.00(  0.04%)
                                           -0.9998 -0.0015 -0.0000  0.0060 -0.0145
                                           -0.0101
    71. (0.00553) BD*( 1) C   1 - H   6  
                ( 40.45%)   0.6360* C   1 s( 24.30%)p 3.11( 75.65%)d 0.00(  0.06%)
                                            0.0000 -0.4927 -0.0132 -0.0002 -0.0001
                                           -0.3147 -0.0041 -0.0002 -0.0007 -0.7067
                                            0.0158 -0.0004  0.0009  0.3971 -0.0063
                                            0.0006 -0.0005 -0.0108  0.0067  0.0156
                                            0.0120  0.0041
                ( 59.55%)  -0.7717* H   6 s( 99.96%)p 0.00(  0.04%)
                                           -0.9998 -0.0015 -0.0000  0.0060  0.0145
                                           -0.0101
    72. (0.01201) BD*( 1) C   1 - H   7  
                ( 41.29%)   0.6426* C   1 s( 25.29%)p 2.95( 74.65%)d 0.00(  0.06%)
                                           -0.0000 -0.5027 -0.0162 -0.0013  0.0000
                                           -0.2547 -0.0085  0.0006  0.0001  0.0000
                                           -0.0000 -0.0000  0.0000 -0.8255  0.0133
                                           -0.0008  0.0005  0.0000 -0.0122  0.0000
                                           -0.0010 -0.0201
                ( 58.71%)  -0.7662* H   7 s( 99.96%)p 0.00(  0.04%)
                                           -0.9998  0.0043  0.0001  0.0055 -0.0000
                                            0.0180
    73. (0.00375) BD*( 1) N   2 - H   3  
                ( 32.35%)   0.5688* N   2 s( 24.20%)p 3.13( 75.71%)d 0.00(  0.09%)
                                            0.0001 -0.4918 -0.0135  0.0010  0.0002
                                            0.3684 -0.0256  0.0021  0.0001 -0.7062
                                            0.0261 -0.0030 -0.0006 -0.3483 -0.0031
                                            0.0012  0.0019  0.0055  0.0129 -0.0243
                                            0.0093 -0.0009
                ( 67.65%)  -0.8225* H   3 s( 99.94%)p 0.00(  0.06%)
                                           -0.9997  0.0022 -0.0003 -0.0113  0.0201
                                            0.0056
    74. (0.00375) BD*( 1) N   2 - H   5  
                ( 32.35%)   0.5688* N   2 s( 24.20%)p 3.13( 75.71%)d 0.00(  0.09%)
                                            0.0001 -0.4918 -0.0135  0.0010  0.0002
                                            0.3684 -0.0256  0.0021  0.0001  0.7062
                                           -0.0261  0.0030  0.0006 -0.3483 -0.0031
                                            0.0012  0.0019 -0.0055  0.0129  0.0243
                                            0.0093 -0.0009
                ( 67.65%)  -0.8225* H   5 s( 99.94%)p 0.00(  0.06%)
                                           -0.9997  0.0022 -0.0003 -0.0113 -0.0201
                                            0.0056


 NHO Directionality and "Bond Bending" (deviations from line of nuclear centers)

         [Thresholds for printing:  angular deviation  >  1.0 degree]
                                    hybrid p-character > 25.0%
                                    orbital occupancy  >  0.10e

                                Line of Centers        Hybrid 1              Hybrid 2
                                ---------------  -------------------   ------------------
                NBO               Theta   Phi    Theta   Phi    Dev    Theta   Phi    Dev
 ========================================================================================
     1. BD (   1) C   1 - N   2    95.4  180.0    93.5  180.0   1.9      --     --    --
     4. BD (   1) C   1 - H   7    19.6    0.0    17.9    0.0   1.7      --     --    --
     5. BD (   1) N   2 - H   3    64.0  116.5    65.5  116.8   1.6      --     --    --
     6. BD (   1) N   2 - H   5    64.0  243.5    65.5  243.2   1.6      --     --    --
     9. LP (   1) N   2             --     --    164.9  180.0   --       --     --    --


 Second Order Perturbation Theory Analysis of Fock Matrix in NBO Basis

     Threshold for printing:   0.25 kcal/mol
                                                                              E(2)  E(j)-E(i) F(i,j)
         Donor NBO (i)                     Acceptor NBO (j)                 kcal/mol   a.u.    a.u. 
 ===================================================================================================

 within unit  1
   2. BD (   1) C   1 - H   4        / 73. BD*(   1) N   2 - H   3            1.68    1.08    0.054
   3. BD (   1) C   1 - H   6        / 74. BD*(   1) N   2 - H   5            1.68    1.08    0.054
   4. BD (   1) C   1 - H   7        / 27. RY*(   1) N   2                    0.53    1.14    0.031
   5. BD (   1) N   2 - H   3        / 10. RY*(   1) C   1                    0.41    1.55    0.032
   5. BD (   1) N   2 - H   3        / 12. RY*(   3) C   1                    0.29    1.76    0.028
   5. BD (   1) N   2 - H   3        / 70. BD*(   1) C   1 - H   4            1.21    1.15    0.047
   6. BD (   1) N   2 - H   5        / 10. RY*(   1) C   1                    0.41    1.55    0.032
   6. BD (   1) N   2 - H   5        / 12. RY*(   3) C   1                    0.29    1.76    0.028
   6. BD (   1) N   2 - H   5        / 71. BD*(   1) C   1 - H   6            1.21    1.15    0.047
   7. CR (   1) C   1                / 30. RY*(   4) N   2                    0.32   11.39    0.076
   7. CR (   1) C   1                / 50. RY*(   2) H   4                    0.25   12.57    0.071
   7. CR (   1) C   1                / 60. RY*(   2) H   6                    0.25   12.57    0.071
   7. CR (   1) C   1                / 65. RY*(   2) H   7                    0.29   12.69    0.076
   8. CR (   1) N   2                / 10. RY*(   1) C   1                    0.38   15.42    0.097
   8. CR (   1) N   2                / 13. RY*(   4) C   1                    0.44   15.14    0.103
   8. CR (   1) N   2                / 47. RY*(   4) H   3                    0.31   16.73    0.092
   8. CR (   1) N   2                / 57. RY*(   4) H   5                    0.31   16.73    0.092
   9. LP (   1) N   2                / 11. RY*(   2) C   1                    0.73    2.14    0.050
   9. LP (   1) N   2                / 44. RY*(   1) H   3                    0.66    1.89    0.045
   9. LP (   1) N   2                / 45. RY*(   2) H   3                    0.27    1.61    0.026
   9. LP (   1) N   2                / 54. RY*(   1) H   5                    0.66    1.89    0.045
   9. LP (   1) N   2                / 55. RY*(   2) H   5                    0.27    1.61    0.026
   9. LP (   1) N   2                / 70. BD*(   1) C   1 - H   4            0.93    0.84    0.035
   9. LP (   1) N   2                / 71. BD*(   1) C   1 - H   6            0.93    0.84    0.035
   9. LP (   1) N   2                / 72. BD*(   1) C   1 - H   7            4.53    0.83    0.078


 Natural Bond Orbitals (Summary):

                                                            Principal Delocalizations
           NBO                        Occupancy    Energy   (geminal,vicinal,remote)
 ====================================================================================
 Molecular unit  1  (CH5N)
     1. BD (   1) C   1 - N   2          0.99941    -0.80200   
     2. BD (   1) C   1 - H   4          0.99550    -0.57137  73(v)
     3. BD (   1) C   1 - H   6          0.99550    -0.57137  74(v)
     4. BD (   1) C   1 - H   7          0.99853    -0.57558  27(v)
     5. BD (   1) N   2 - H   3          0.99545    -0.68789  70(v),10(v),12(v)
     6. BD (   1) N   2 - H   5          0.99545    -0.68789  71(v),10(v),12(v)
     7. CR (   1) C   1                  0.99974   -10.41638  30(v),65(v),50(v),60(v)
     8. CR (   1) N   2                  0.99980   -14.55351  13(v),10(v),47(v),57(v)
     9. LP (   1) N   2                  0.98162    -0.37552  72(v),70(v),71(v),11(v)
                                                    44(v),54(v),45(v),55(v)
    10. RY*(   1) C   1                  0.00098     0.86222   
    11. RY*(   2) C   1                  0.00075     1.75961   
    12. RY*(   3) C   1                  0.00057     1.07346   
    13. RY*(   4) C   1                  0.00005     0.58701   
    14. RY*(   5) C   1                  0.00000     1.89744   
    15. RY*(   6) C   1                  0.00000     0.23687   
    16. RY*(   7) C   1                  0.00000    23.22905   
    17. RY*(   8) C   1                  0.00000     3.13618   
    18. RY*(   9) C   1                  0.00000     0.21243   
    19. RY*(  10) C   1                  0.00000     1.99610   
    20. RY*(  11) C   1                  0.00000     1.70128   
    21. RY*(  12) C   1                  0.00000     0.21226   
    22. RY*(  13) C   1                  0.00000     1.41580   
    23. RY*(  14) C   1                  0.00000     1.79285   
    24. RY*(  15) C   1                  0.00000     2.09614   
    25. RY*(  16) C   1                  0.00000     2.22215   
    26. RY*(  17) C   1                  0.00000     2.08585   
    27. RY*(   1) N   2                  0.00139     0.56256   
    28. RY*(   2) N   2                  0.00035     1.13771   
    29. RY*(   3) N   2                  0.00017     0.90391   
    30. RY*(   4) N   2                  0.00005     0.97572   
    31. RY*(   5) N   2                  0.00000     0.52886   
    32. RY*(   6) N   2                  0.00000     3.98283   
    33. RY*(   7) N   2                  0.00000    35.25884   
    34. RY*(   8) N   2                  0.00000     0.66050   
    35. RY*(   9) N   2                  0.00000     3.98990   
    36. RY*(  10) N   2                  0.00000     0.97735   
    37. RY*(  11) N   2                  0.00000     0.68526   
    38. RY*(  12) N   2                  0.00000     3.91082   
    39. RY*(  13) N   2                  0.00000     2.23607   
    40. RY*(  14) N   2                  0.00000     2.31100   
    41. RY*(  15) N   2                  0.00000     2.68364   
    42. RY*(  16) N   2                  0.00000     2.76544   
    43. RY*(  17) N   2                  0.00000     2.46236   
    44. RY*(   1) H   3                  0.00051     1.51021   
    45. RY*(   2) H   3                  0.00043     1.23566   
    46. RY*(   3) H   3                  0.00011     1.50700   
    47. RY*(   4) H   3                  0.00005     2.17964   
    48. RY*(   5) H   3                  0.00000     2.49452   
    49. RY*(   1) H   4                  0.00039     0.60633   
    50. RY*(   2) H   4                  0.00004     2.15033   
    51. RY*(   3) H   4                  0.00005     1.78158   
    52. RY*(   4) H   4                  0.00003     2.36263   
    53. RY*(   5) H   4                  0.00001     2.07560   
    54. RY*(   1) H   5                  0.00051     1.51022   
    55. RY*(   2) H   5                  0.00043     1.23565   
    56. RY*(   3) H   5                  0.00011     1.50700   
    57. RY*(   4) H   5                  0.00005     2.17964   
    58. RY*(   5) H   5                  0.00000     2.49452   
    59. RY*(   1) H   6                  0.00039     0.60633   
    60. RY*(   2) H   6                  0.00004     2.15033   
    61. RY*(   3) H   6                  0.00005     1.78158   
    62. RY*(   4) H   6                  0.00003     2.36262   
    63. RY*(   5) H   6                  0.00001     2.07560   
    64. RY*(   1) H   7                  0.00068     0.54373   
    65. RY*(   2) H   7                  0.00005     2.27423   
    66. RY*(   3) H   7                  0.00005     1.75514   
    67. RY*(   4) H   7                  0.00003     2.07291   
    68. RY*(   5) H   7                  0.00000     2.30539   
    69. BD*(   1) C   1 - N   2          0.00008     0.42477   
    70. BD*(   1) C   1 - H   4          0.00553     0.46383   
    71. BD*(   1) C   1 - H   6          0.00553     0.46383   
    72. BD*(   1) C   1 - H   7          0.01201     0.45457   
    73. BD*(   1) N   2 - H   3          0.00375     0.50995   
    74. BD*(   1) N   2 - H   5          0.00375     0.50995   
       -------------------------------
              Total Lewis    8.96099  ( 99.5665%)
        Valence non-Lewis    0.03066  (  0.3407%)
        Rydberg non-Lewis    0.00835  (  0.0928%)
       -------------------------------
            Total unit  1    9.00000  (100.0000%)
           Charge unit  1    0.00000
 Sorting of NBOs:                    8    7    1    6    5    4    3    2    9   21
 Sorting of NBOs:                   18   15   69   72   71   70   73   74   31   64
 Sorting of NBOs:                   27   13   49   59   34   37   10   29   30   36
 Sorting of NBOs:                   12   28   55   45   22   56   46   44   54   20
 Sorting of NBOs:                   66   11   61   51   23   14   19   67   53   63
 Sorting of NBOs:                   26   24   60   50   47   57   25   39   65   68
 Sorting of NBOs:                   40   62   52   43   48   58   41   42   17   38
 Sorting of NBOs:                   32   35   16   33
 Reordering of NBOs for storage:     8    7    1    6    5    4    3    2    9   69
 Reordering of NBOs for storage:    72   71   70   73   74   21   18   15   31   64
 Reordering of NBOs for storage:    27   13   49   59   34   37   10   29   30   36
 Reordering of NBOs for storage:    12   28   55   45   22   56   46   44   54   20
 Reordering of NBOs for storage:    66   11   61   51   23   14   19   67   53   63
 Reordering of NBOs for storage:    26   24   60   50   47   57   25   39   65   68
 Reordering of NBOs for storage:    40   62   52   43   48   58   41   42   17   38
 Reordering of NBOs for storage:    32   35   16   33
 Labels of output orbitals:  CR  CR  BD  BD  BD  BD  BD  BD  LP  BD* BD* BD* BD* BD* BD* RY* RY* RY* RY* RY* 
 Labels of output orbitals:  RY* RY* RY* RY* RY* RY* RY* RY* RY* RY* RY* RY* RY* RY* RY* RY* RY* RY* RY* RY* 
 Labels of output orbitals:  RY* RY* RY* RY* RY* RY* RY* RY* RY* RY* RY* RY* RY* RY* RY* RY* RY* RY* RY* RY* 
 Labels of output orbitals:  RY* RY* RY* RY* RY* RY* RY* RY* RY* RY* RY* RY* RY* RY* 
 GSVD:  LWork=       -4745 too small for GESVD, short by       22100 words or       22100 for optimal perf.


 ***************************************************
 *******         Beta  spin orbitals         *******
 ***************************************************


 NATURAL POPULATIONS:  Natural atomic orbital occupancies 
                                                          
   NAO  Atom  No  lang   Type(AO)    Occupancy      Energy
 ----------------------------------------------------------
     1    C    1  S      Cor( 1S)     0.99974     -10.41646
     2    C    1  S      Val( 2S)     0.53621      -0.27050
     3    C    1  S      Ryd( 4S)     0.00195       0.78036
     4    C    1  S      Ryd( 3S)     0.00011       0.61117
     5    C    1  S      Ryd( 5S)     0.00000      23.15970
     6    C    1  px     Val( 2p)     0.45027      -0.07203
     7    C    1  px     Ryd( 4p)     0.00153       0.47868
     8    C    1  px     Ryd( 5p)     0.00011       3.14589
     9    C    1  px     Ryd( 3p)     0.00002       0.21158
    10    C    1  py     Val( 2p)     0.60247      -0.10665
    11    C    1  py     Ryd( 4p)     0.00057       0.51496
    12    C    1  py     Ryd( 5p)     0.00000       3.10369
    13    C    1  py     Ryd( 3p)     0.00000       0.22565
    14    C    1  pz     Val( 2p)     0.59197      -0.09681
    15    C    1  pz     Ryd( 4p)     0.00059       0.53879
    16    C    1  pz     Ryd( 5p)     0.00007       3.10026
    17    C    1  pz     Ryd( 3p)     0.00001       0.22524
    18    C    1  dxy    Ryd( 3d)     0.00038       1.98942
    19    C    1  dxz    Ryd( 3d)     0.00064       1.98441
    20    C    1  dyz    Ryd( 3d)     0.00029       2.09959
    21    C    1  dx2y2  Ryd( 3d)     0.00047       2.22025
    22    C    1  dz2    Ryd( 3d)     0.00036       2.14620
 
    23    N    2  S      Cor( 1S)     0.99980     -14.55342
    24    N    2  S      Val( 2S)     0.70643      -0.62018
    25    N    2  S      Ryd( 3S)     0.00070       0.37609
    26    N    2  S      Ryd( 4S)     0.00009       1.45737
    27    N    2  S      Ryd( 5S)     0.00000      35.25224
    28    N    2  px     Val( 2p)     0.63798      -0.20475
    29    N    2  px     Ryd( 3p)     0.00152       0.50032
    30    N    2  px     Ryd( 4p)     0.00016       0.74616
    31    N    2  px     Ryd( 5p)     0.00001       4.15035
    32    N    2  py     Val( 2p)     0.67205      -0.19692
    33    N    2  py     Ryd( 3p)     0.00121       0.45732
    34    N    2  py     Ryd( 4p)     0.00002       0.69501
    35    N    2  py     Ryd( 5p)     0.00001       4.17003
    36    N    2  pz     Val( 2p)     0.90077      -0.26760
    37    N    2  pz     Ryd( 3p)     0.00451       0.44558
    38    N    2  pz     Ryd( 4p)     0.00008       0.73950
    39    N    2  pz     Ryd( 5p)     0.00001       3.92359
    40    N    2  dxy    Ryd( 3d)     0.00013       2.66499
    41    N    2  dxz    Ryd( 3d)     0.00054       2.47227
    42    N    2  dyz    Ryd( 3d)     0.00080       2.72762
    43    N    2  dx2y2  Ryd( 3d)     0.00025       2.80747
    44    N    2  dz2    Ryd( 3d)     0.00061       2.45971
 
    45    H    3  S      Val( 1S)     0.32442       0.11688
    46    H    3  S      Ryd( 2S)     0.00037       0.52933
    47    H    3  S      Ryd( 3S)     0.00010       2.34151
    48    H    3  px     Ryd( 2p)     0.00019       1.88378
    49    H    3  py     Ryd( 2p)     0.00016       2.34077
    50    H    3  pz     Ryd( 2p)     0.00045       1.83543
 
    51    H    4  S      Val( 1S)     0.40584       0.04071
    52    H    4  S      Ryd( 2S)     0.00038       0.57235
    53    H    4  S      Ryd( 3S)     0.00004       2.20467
    54    H    4  px     Ryd( 2p)     0.00003       1.86964
[...]
   6. BD (   1) N   2 - H   5        / 10. RY*(   1) C   1                    0.41    1.55    0.032
   6. BD (   1) N   2 - H   5        / 12. RY*(   3) C   1                    0.29    1.76    0.028
   6. BD (   1) N   2 - H   5        / 71. BD*(   1) C   1 - H   6            1.21    1.15    0.047
   7. CR (   1) C   1                / 30. RY*(   4) N   2                    0.32   11.39    0.076
   7. CR (   1) C   1                / 50. RY*(   2) H   4                    0.25   12.57    0.071
   7. CR (   1) C   1                / 60. RY*(   2) H   6                    0.25   12.57    0.071
   7. CR (   1) C   1                / 65. RY*(   2) H   7                    0.29   12.69    0.076
   8. CR (   1) N   2                / 10. RY*(   1) C   1                    0.38   15.42    0.097
   8. CR (   1) N   2                / 13. RY*(   4) C   1                    0.44   15.14    0.103
   8. CR (   1) N   2                / 47. RY*(   4) H   3                    0.31   16.73    0.092
   8. CR (   1) N   2                / 57. RY*(   4) H   5                    0.31   16.73    0.092
   9. LP (   1) N   2                / 11. RY*(   2) C   1                    0.73    2.14    0.050
   9. LP (   1) N   2                / 44. RY*(   1) H   3                    0.66    1.89    0.045
   9. LP (   1) N   2                / 45. RY*(   2) H   3                    0.27    1.61    0.026
   9. LP (   1) N   2                / 54. RY*(   1) H   5                    0.66    1.89    0.045
   9. LP (   1) N   2                / 55. RY*(   2) H   5                    0.27    1.61    0.026
   9. LP (   1) N   2                / 70. BD*(   1) C   1 - H   4            0.93    0.84    0.035
   9. LP (   1) N   2                / 71. BD*(   1) C   1 - H   6            0.93    0.84    0.035
   9. LP (   1) N   2                / 72. BD*(   1) C   1 - H   7            4.53    0.83    0.078


 Natural Bond Orbitals (Summary):

                                                            Principal Delocalizations
           NBO                        Occupancy    Energy   (geminal,vicinal,remote)
 ====================================================================================
 Molecular unit  1  (CH5N)
     1. BD (   1) C   1 - N   2          0.99941    -0.80200   
     2. BD (   1) C   1 - H   4          0.99550    -0.57137  73(v)
     3. BD (   1) C   1 - H   6          0.99550    -0.57137  74(v)
     4. BD (   1) C   1 - H   7          0.99853    -0.57558  27(v)
     5. BD (   1) N   2 - H   3          0.99545    -0.68789  70(v),10(v),12(v)
     6. BD (   1) N   2 - H   5          0.99545    -0.68789  71(v),10(v),12(v)
     7. CR (   1) C   1                  0.99974   -10.41638  30(v),65(v),50(v),60(v)
     8. CR (   1) N   2                  0.99980   -14.55351  13(v),10(v),47(v),57(v)
     9. LP (   1) N   2                  0.98162    -0.37552  72(v),70(v),71(v),11(v)
                                                    44(v),54(v),45(v),55(v)
    10. RY*(   1) C   1                  0.00098     0.86222   
    11. RY*(   2) C   1                  0.00075     1.75961   
    12. RY*(   3) C   1                  0.00057     1.07346   
    13. RY*(   4) C   1                  0.00005     0.58701   
    14. RY*(   5) C   1                  0.00000     1.89744   
    15. RY*(   6) C   1                  0.00000     0.23687   
    16. RY*(   7) C   1                  0.00000    23.22905   
    17. RY*(   8) C   1                  0.00000     3.13618   
    18. RY*(   9) C   1                  0.00000     0.21243   
    19. RY*(  10) C   1                  0.00000     1.99610   
    20. RY*(  11) C   1                  0.00000     1.70128   
    21. RY*(  12) C   1                  0.00000     0.21226   
    22. RY*(  13) C   1                  0.00000     1.41580   
    23. RY*(  14) C   1                  0.00000     1.79285   
    24. RY*(  15) C   1                  0.00000     2.09614   
    25. RY*(  16) C   1                  0.00000     2.22215   
    26. RY*(  17) C   1                  0.00000     2.08585   
    27. RY*(   1) N   2                  0.00139     0.56256   
    28. RY*(   2) N   2                  0.00035     1.13771   
    29. RY*(   3) N   2                  0.00017     0.90391   
    30. RY*(   4) N   2                  0.00005     0.97572   
    31. RY*(   5) N   2                  0.00000     0.52886   
    32. RY*(   6) N   2                  0.00000     3.98283   
    33. RY*(   7) N   2                  0.00000    35.25884   
    34. RY*(   8) N   2                  0.00000     0.66050   
    35. RY*(   9) N   2                  0.00000     3.98990   
    36. RY*(  10) N   2                  0.00000     0.97735   
    37. RY*(  11) N   2                  0.00000     0.68526   
    38. RY*(  12) N   2                  0.00000     3.91082   
    39. RY*(  13) N   2                  0.00000     2.23607   
    40. RY*(  14) N   2                  0.00000     2.31100   
    41. RY*(  15) N   2                  0.00000     2.68364   
    42. RY*(  16) N   2                  0.00000     2.76544   
    43. RY*(  17) N   2                  0.00000     2.46236   
    44. RY*(   1) H   3                  0.00051     1.51021   
    45. RY*(   2) H   3                  0.00043     1.23566   
    46. RY*(   3) H   3                  0.00011     1.50700   
    47. RY*(   4) H   3                  0.00005     2.17964   
    48. RY*(   5) H   3                  0.00000     2.49452   
    49. RY*(   1) H   4                  0.00039     0.60633   
    50. RY*(   2) H   4                  0.00004     2.15033   
    51. RY*(   3) H   4                  0.00005     1.78158   
    52. RY*(   4) H   4                  0.00003     2.36263   
    53. RY*(   5) H   4                  0.00001     2.07560   
    54. RY*(   1) H   5                  0.00051     1.51022   
    55. RY*(   2) H   5                  0.00043     1.23565   
    56. RY*(   3) H   5                  0.00011     1.50700   
    57. RY*(   4) H   5                  0.00005     2.17964   
    58. RY*(   5) H   5                  0.00000     2.49452   
    59. RY*(   1) H   6                  0.00039     0.60633   
    60. RY*(   2) H   6                  0.00004     2.15033   
    61. RY*(   3) H   6                  0.00005     1.78158   
    62. RY*(   4) H   6                  0.00003     2.36262   
    63. RY*(   5) H   6                  0.00001     2.07560   
    64. RY*(   1) H   7                  0.00068     0.54373   
    65. RY*(   2) H   7                  0.00005     2.27423   
    66. RY*(   3) H   7                  0.00005     1.75514   
    67. RY*(   4) H   7                  0.00003     2.07291   
    68. RY*(   5) H   7                  0.00000     2.30539   
    69. BD*(   1) C   1 - N   2          0.00008     0.42477   
    70. BD*(   1) C   1 - H   4          0.00553     0.46383   
    71. BD*(   1) C   1 - H   6          0.00553     0.46383   
    72. BD*(   1) C   1 - H   7          0.01201     0.45457   
    73. BD*(   1) N   2 - H   3          0.00375     0.50995   
    74. BD*(   1) N   2 - H   5          0.00375     0.50995   
       -------------------------------
              Total Lewis    8.96099  ( 99.5665%)
        Valence non-Lewis    0.03066  (  0.3407%)
        Rydberg non-Lewis    0.00835  (  0.0928%)
       -------------------------------
            Total unit  1    9.00000  (100.0000%)
           Charge unit  1    0.00000
 Sorting of NBOs:                    8    7    1    6    5    4    3    2    9   21
 Sorting of NBOs:                   18   15   69   72   71   70   73   74   31   64
 Sorting of NBOs:                   27   13   49   59   34   37   10   29   30   36
 Sorting of NBOs:                   12   28   55   45   22   56   46   44   54   20
 Sorting of NBOs:                   66   11   61   51   23   14   19   67   53   63
 Sorting of NBOs:                   26   24   60   50   47   57   25   39   65   68
 Sorting of NBOs:                   40   62   52   43   48   58   41   42   17   38
 Sorting of NBOs:                   32   35   16   33
 Reordering of NBOs for storage:     8    7    1    6    5    4    3    2    9   69
 Reordering of NBOs for storage:    72   71   70   73   74   21   18   15   31   64
 Reordering of NBOs for storage:    27   13   49   59   34   37   10   29   30   36
 Reordering of NBOs for storage:    12   28   55   45   22   56   46   44   54   20
 Reordering of NBOs for storage:    66   11   61   51   23   14   19   67   53   63
 Reordering of NBOs for storage:    26   24   60   50   47   57   25   39   65   68
 Reordering of NBOs for storage:    40   62   52   43   48   58   41   42   17   38
 Reordering of NBOs for storage:    32   35   16   33
 Labels of output orbitals:  CR  CR  BD  BD  BD  BD  BD  BD  LP  BD* BD* BD* BD* BD* BD* RY* RY* RY* RY* RY* 
 Labels of output orbitals:  RY* RY* RY* RY* RY* RY* RY* RY* RY* RY* RY* RY* RY* RY* RY* RY* RY* RY* RY* RY* 
 Labels of output orbitals:  RY* RY* RY* RY* RY* RY* RY* RY* RY* RY* RY* RY* RY* RY* RY* RY* RY* RY* RY* RY* 
 Labels of output orbitals:  RY* RY* RY* RY* RY* RY* RY* RY* RY* RY* RY* RY* RY* RY* 
 GSVD:  LWork=       -4745 too small for GESVD, short by       22100 words or       22100 for optimal perf.
 Leave Link  607 at Wed Apr 16 02:13:46 2025, MaxMem=   536870912 cpu:               5.8 elap:               1.3
 (Enter /home/szhao/Apps/g16/l701.exe)
 ... and contract with generalized density number  0.
 Compute integral first derivatives.
 Leave Link  701 at Wed Apr 16 02:13:47 2025, MaxMem=   536870912 cpu:               1.3 elap:               0.4
 (Enter /home/szhao/Apps/g16/l702.exe)
 L702 exits ... SP integral derivatives will be done elsewhere.
 Leave Link  702 at Wed Apr 16 02:13:47 2025, MaxMem=   536870912 cpu:               0.4 elap:               0.1
 (Enter /home/szhao/Apps/g16/l703.exe)
 Integral derivatives from FoFJK, PRISM(SPDF).
 Compute integral first derivatives, UseDBF=F ICtDFT=           0.
 Calling FoFJK, ICntrl=      2127 FMM=F ISym2X=0 I1Cent= 0 IOpClX= 1 NMat=1 NMatS=1 NMatT=0.
 FoFJK:  IHMeth= 1 ICntrl=    2127 DoSepK=F KAlg= 0 I1Cent=           0 FoldK=F
 IRaf=         0 NMat=       1 IRICut=       1 DoRegI=T DoRafI=F ISym2E= 0 IDoP0=0 IntGTp=1.
 FoFCou: FMM=F IPFlag=           0 FMFlag=      100000 FMFlg1=         800
         NFxFlg=           0 DoJE=F BraDBF=F KetDBF=F FulRan=T
         wScrn=  0.000000 ICntrl=      2127 IOpCl=  1 I1Cent=           0 NGrid=           0
         NMat0=    1 NMatS0=      1 NMatT0=    0 NMatD0=    1 NMtDS0=    0 NMtDT0=    0
 Symmetry not used in FoFCou.
 Leave Link  703 at Wed Apr 16 02:13:50 2025, MaxMem=   536870912 cpu:              11.0 elap:               2.4
 (Enter /home/szhao/Apps/g16/l716.exe)
 Dipole        = 1.27353643D-01 3.56960974D-07 5.54923558D-01
 ***** Axes restored to original set *****
 -------------------------------------------------------------------
 Center     Atomic                   Forces (Hartrees/Bohr)
 Number     Number              X              Y              Z
 -------------------------------------------------------------------
      1        6          -0.000239281    0.000017204   -0.000028613
      2        7           0.000019281    0.000034603   -0.000059399
      3        1           0.000063494   -0.000060434    0.000013342
      4        1           0.000033499    0.000020057    0.000007090
      5        1           0.000063327    0.000017663    0.000059494
      6        1           0.000033579   -0.000015920   -0.000014125
      7        1           0.000026100   -0.000013172    0.000022212
 -------------------------------------------------------------------
 Cartesian Forces:  Max     0.000239281 RMS     0.000063130
 Z-matrix is all fixed cartesians, so copy forces.
 Force constants in Cartesian coordinates: 
                1             2             3             4             5 
      1  0.712559D+00
      2  0.845469D-02  0.649825D+00
      3 -0.143280D-01  0.489204D-02  0.644421D+00
      4 -0.368289D+00 -0.147171D-01  0.249407D-01  0.601709D+00
      5 -0.118483D-02 -0.906615D-01 -0.103517D-01 -0.835086D-01  0.610706D+00
      6  0.200790D-02 -0.103517D-01 -0.792272D-01  0.141522D+00  0.149910D+00
      7  0.000000D+00  0.283361D-01 -0.919078D-04 -0.116710D+00  0.122569D+00
      8  0.000000D+00  0.108334D-01 -0.351382D-04  0.129375D+00 -0.408243D+00
      9  0.000000D+00  0.161996D-04  0.233018D-02 -0.358701D-01  0.246626D-01
     10 -0.107561D+00  0.938870D-01  0.927476D-03  0.000000D+00  0.266563D-01
     11  0.829001D-01 -0.314216D+00  0.537580D-02  0.000000D+00  0.917989D-02
     12  0.225434D-03  0.842331D-02 -0.774741D-01  0.000000D+00 -0.281832D-02
     13  0.000000D+00 -0.136190D-01 -0.248488D-01 -0.116710D+00 -0.390604D-01
     14  0.000000D+00  0.430973D-02  0.361929D-02 -0.311490D-01 -0.128953D+00
     15  0.000000D+00  0.356796D-02  0.885399D-02 -0.130593D+00 -0.163074D+00
     16 -0.107561D+00 -0.462038D-01 -0.817365D-01  0.000000D+00 -0.125186D-01
     17 -0.402774D-01 -0.126972D+00 -0.949942D-01  0.000000D+00  0.824978D-03
     18 -0.724585D-01 -0.980418D-01 -0.264718D+00  0.000000D+00  0.446692D-02
     19 -0.129148D+00 -0.561379D-01  0.951371D-01  0.000000D+00 -0.129529D-01
     20 -0.498926D-01 -0.133119D+00  0.914939D-01  0.000000D+00  0.714719D-02
     21  0.845532D-01  0.914939D-01 -0.234186D+00  0.000000D+00 -0.279587D-02
                6             7             8             9            10 
      6  0.445115D+00
      7 -0.230736D-01  0.106429D+00
      8 -0.882150D-02 -0.133305D+00  0.404139D+00
      9 -0.525084D-01  0.179351D-01  0.685694D-02  0.405645D-01
     10 -0.421568D-03  0.000000D+00  0.000000D+00  0.000000D+00  0.898429D-01
     11 -0.147621D-03  0.000000D+00  0.000000D+00  0.475951D-04 -0.890389D-01
     12 -0.855843D-04  0.000000D+00  0.000000D+00  0.253692D-02 -0.330820D-03
     13 -0.118448D+00  0.102804D-01  0.393038D-02  0.179350D-01  0.000000D+00
     14 -0.129589D+00 -0.176000D-01 -0.672881D-02 -0.315618D-01  0.000000D+00
     15 -0.331798D+00  0.523045D-02  0.199970D-02  0.959833D-02  0.000000D+00
     16 -0.235376D-01  0.000000D+00  0.000000D+00  0.000000D+00  0.756129D-02
     17  0.179621D-02  0.000000D+00  0.000000D+00  0.224373D-02 -0.141992D-01
     18  0.826936D-02  0.000000D+00  0.000000D+00 -0.118487D-02  0.453714D-02
     19  0.219513D-01  0.000000D+00  0.000000D+00  0.000000D+00  0.101565D-01
     20 -0.279586D-02  0.000000D+00  0.000000D+00 -0.226525D-02 -0.173052D-01
     21  0.102356D-01  0.000000D+00  0.000000D+00 -0.133667D-02 -0.471222D-02
               11            12            13            14            15 
     11  0.315950D+00
     12 -0.550636D-02  0.594997D-01
     13  0.000000D+00  0.000000D+00  0.106430D+00
     14  0.416631D-04  0.222073D-02  0.487490D-01  0.131349D+00
     15 -0.230106D-04 -0.122651D-02  0.125362D+00  0.157519D+00  0.313353D+00
     16  0.289329D-02  0.146229D-01  0.000000D+00  0.000000D+00  0.000000D+00
     17 -0.545004D-02 -0.283551D-01  0.000000D+00  0.196408D-02 -0.108476D-02
     18  0.174498D-02  0.924708D-02  0.000000D+00 -0.103719D-02  0.572843D-03
     19  0.324546D-02 -0.145176D-01  0.000000D+00  0.000000D+00  0.000000D+00
     20 -0.550544D-02  0.260357D-01  0.000000D+00 -0.198292D-02  0.109517D-02
     21 -0.149139D-02  0.750255D-02  0.000000D+00 -0.117007D-02  0.646231D-03
               16            17            18            19            20 
     16  0.898430D-01
     17  0.433376D-01  0.114783D+00
     18  0.777812D-01  0.105601D+00  0.260666D+00
     19  0.101565D-01  0.111390D-01 -0.985982D-02  0.108835D+00
     20  0.124915D-01  0.148494D-01 -0.127337D-01  0.547063D-01  0.118610D+00
     21  0.128701D-01  0.147934D-01 -0.128523D-01 -0.927110D-01 -0.100830D+00
               21 
     21  0.229990D+00
 Leave Link  716 at Wed Apr 16 02:13:50 2025, MaxMem=   536870912 cpu:               0.4 elap:               0.1
 (Enter /home/szhao/Apps/g16/l103.exe)

 GradGradGradGradGradGradGradGradGradGradGradGradGradGradGradGradGradGrad
 Berny optimization.
 Search for a local minimum.
 Step number   1 out of a maximum of    2
 All quantities printed in internal units (Hartrees-Bohrs-Radians)
 Second derivative matrix not updated -- first step.
 ITU=  0
     Eigenvalues ---    0.01433   0.04268   0.04300   0.07258   0.09674
     Eigenvalues ---    0.12413   0.13712   0.15047   0.17283   0.33966
     Eigenvalues ---    0.66061   0.78398   0.82472   0.98482   1.14074
 Angle between quadratic step and forces=  51.14 degrees.
 Linear search not attempted -- first point.
 B after Tr=    -0.000095   -0.000008    0.000013
         Rot=    1.000000    0.000000    0.000003    0.000002 Ang=   0.00 deg.
 Variable       Old X    -DE/DX   Delta X   Delta X   Delta X     New X
                                 (Linear)    (Quad)   (Total)
    X1       -1.38052  -0.00024   0.00000  -0.00043  -0.00052  -1.38105
    Y1       -0.00000   0.00002   0.00000   0.00002   0.00002   0.00002
    Z1       -0.00000  -0.00003   0.00000  -0.00004  -0.00004  -0.00004
    X2        1.38052   0.00002   0.00000  -0.00003  -0.00013   1.38040
    Y2        0.00000   0.00003   0.00000  -0.00005  -0.00006  -0.00006
    Z2        0.00000  -0.00006   0.00000   0.00008   0.00010   0.00010
    X3        2.06399   0.00006   0.00000   0.00058   0.00048   2.06447
    Y3       -1.78768  -0.00006   0.00000  -0.00000  -0.00002  -1.78770
    Z3        0.00000   0.00001   0.00000  -0.00003  -0.00000  -0.00000
    X4       -2.05523   0.00003   0.00000   0.00007  -0.00002  -2.05524
    Y4        1.94796   0.00002   0.00000   0.00022   0.00022   1.94818
    Z4       -0.03655   0.00001   0.00000   0.00001   0.00001  -0.03654
    X5        2.06399   0.00006   0.00000   0.00057   0.00047   2.06447
    Y5        0.86428   0.00002   0.00000   0.00003   0.00001   0.86429
    Z5        1.56487   0.00006   0.00000  -0.00001   0.00001   1.56488
    X6       -2.05523   0.00003   0.00000   0.00007  -0.00002  -2.05525
    Y6       -0.90980  -0.00002   0.00000  -0.00011  -0.00011  -0.90991
    Z6       -1.72283  -0.00001   0.00000  -0.00019  -0.00019  -1.72302
    X7       -2.25697   0.00003   0.00000  -0.00016  -0.00026  -2.25723
    Y7       -0.95517  -0.00001   0.00000  -0.00006  -0.00006  -0.95523
    Z7        1.61873   0.00002   0.00000   0.00010   0.00010   1.61883
         Item               Value     Threshold  Converged?
 Maximum Force            0.000239     0.000450     YES
 RMS     Force            0.000063     0.000300     YES
 Maximum Displacement     0.000524     0.001800     YES
 RMS     Displacement     0.000212     0.001200     YES
 Predicted change in Energy=-9.117684D-08
 Optimization completed.
    -- Stationary point found.
 GradGradGradGradGradGradGradGradGradGradGradGradGradGradGradGradGradGrad

 Leave Link  103 at Wed Apr 16 02:13:50 2025, MaxMem=   536870912 cpu:               0.2 elap:               0.1
 (Enter /home/szhao/Apps/g16/l9999.exe)
 1\1\GINC-NODE01\Force\UM062X\6-311+G(d,p)\C1H5N1\SZHAO\16-Apr-2025\0\\
 #p UM062X/6-311+G** force int=superfine pop=saveNBO\\Title Card Requir
 ed\\0,1\C,-0.73054223,0.,0.\N,0.73054223,0.,0.\H,1.09221604,-0.9459985
 4,0.\H,-1.08757944,1.03081716,-0.01933913\H,1.09221839,0.45735611,0.82
 809214\H,-1.08757998,-0.48144368,-0.911685\H,-1.19433799,-0.50545285,0
 .8565933\\Version=ES64L-G16RevA.03\State=1-A\HF=-95.8347343\S2=0.\S2-1
 =0.\S2A=0.\RMSD=2.299e-09\RMSF=6.313e-05\Dipole=-0.1790253,-0.2746679,
 0.4654746\Quadrupole=-0.231946,0.598255,-0.366309,-0.8640244,1.4642557
 ,0.8732212\PG=C01 [X(C1H5N1)]\\@


 The lyf so short, the craft so long to lerne.
                             -- Chaucer
 Job cpu time:       0 days  0 hours  1 minutes 44.9 seconds.
 Elapsed time:       0 days  0 hours  0 minutes 23.4 seconds.
 File lengths (MBytes):  RWF=     10 Int=      0 D2E=      0 Chk=      2 Scr=      1
 Normal termination of Gaussian 16 at Wed Apr 16 02:13:50 2025.
