Title Card Required                                                     
FOpt      UM062X                                                      6-311+G(d,p)        
Number of atoms                            I                4
Info1-9                                    I   N=           9
          13          13           0           0           0         110
           2          18        -502
Full Title                                 C   N=           2
Title Card Required     
Route                                      C   N=           5
#p opt UM062X/6-311+G** nosymm int=superfine SCF=NoVarAcc   
Charge                                     I                0
Multiplicity                               I                1
Number of electrons                        I               14
Number of alpha electrons                  I                7
Number of beta electrons                   I                7
Number of basis functions                  I               56
Number of independent functions            I               56
Number of point charges in /Mol/           I                0
Number of translation vectors              I                0
Atomic numbers                             I   N=           4
           6           6           1           1
Nuclear charges                            R   N=           4
  6.00000000E+00  6.00000000E+00  1.00000000E+00  1.00000000E+00
Current cartesian coordinates              R   N=          12
 -1.68802148E+01  0.00000000E+00  0.00000000E+00  1.68802148E+01  0.00000000E+00
  0.00000000E+00 -1.89950926E+01 -1.10195660E-05  1.10309608E-05  1.89950925E+01
  7.35862562E-06 -7.34719891E-06
Number of symbols in /Mol/                 I                0
Force Field                                I                0
Atom Types                                 C   N=           4
                                                
Int Atom Types                             I   N=           4
           0           0           0           0
MM charges                                 R   N=           4
  0.00000000E+00  0.00000000E+00  0.00000000E+00  0.00000000E+00
Integer atomic weights                     I   N=           4
          12          12           1           1
Real atomic weights                        R   N=           4
  1.20000000E+01  1.20000000E+01  1.00782504E+00  1.00782504E+00
Atom fragment info                         I   N=           4
           0           0           0           0
Atom residue num                           I   N=           4
           0           0           0           0
Nuclear spins                              I   N=           4
           0           0           1           1
Nuclear ZEff                               R   N=           4
 -3.60000000E+00 -3.60000000E+00 -1.00000000E+00 -1.00000000E+00
Nuclear ZNuc                               R   N=           4
  6.00000000E+00  6.00000000E+00  1.00000000E+00  1.00000000E+00
Nuclear QMom                               R   N=           4
  0.00000000E+00  0.00000000E+00  0.00000000E+00  0.00000000E+00
Nuclear GFac                               R   N=           4
  0.00000000E+00  0.00000000E+00  2.79284600E+00  2.79284600E+00
MicOpt                                     I   N=           4
          -2          -2          -1          -1
Number of residues                         I                0
Number of secondary structures             I                0
Redundant internal dimensions              I   N=           4
          12           8           4           0
Redundant internal coordinate indices      I   N=          48
           1          -1           0           0           1          -2
           0           0           1          -3           0           0
           2          -1           0           0           2          -2
           0           0           2          -3           0           0
           1           3           0           0           2           4
           0           0           2           1           3          -4
           1           2           4          -4           2           1
           3          -8           1           2           4          -8
Redundant internal coordinates             R   N=          12
 -1.68802148E+01  0.00000000E+00  0.00000000E+00  1.68802148E+01  0.00000000E+00
  0.00000000E+00  2.11487777E+00  2.11487767E+00  3.14158744E+00  3.14158918E+00
  3.14158744E+00  3.14158917E+00
ZRed-IntVec                                I   N=          12
          -1          -1          -1          -1          -1          -1
           0           0           0           0           0           0
ZRed-FPVec                                 R   N=          12
  0.00000000E+00  0.00000000E+00  0.00000000E+00  0.00000000E+00  0.00000000E+00
  0.00000000E+00  0.00000000E+00  0.00000000E+00  0.00000000E+00  0.00000000E+00
  0.00000000E+00  0.00000000E+00
ZRed-Constraint1                           R   N=          12
 -1.68802148E+01  0.00000000E+00  0.00000000E+00  1.68802148E+01  0.00000000E+00
  0.00000000E+00  2.12190166E+00  2.12189977E+00  3.14158731E+00  3.14158909E+00
  3.14158731E+00  3.14158909E+00
ZRed-Constraint2                           R   N=          12
 -1.68802148E+01  0.00000000E+00  0.00000000E+00  1.68802148E+01  0.00000000E+00
  0.00000000E+00  0.00000000E+00  0.00000000E+00  0.00000000E+00  0.00000000E+00
  0.00000000E+00  0.00000000E+00
Number of contracted shells                I               20
Number of primitive shells                 I               38
Pure/Cartesian d shells                    I                0
Pure/Cartesian f shells                    I                0
Highest angular momentum                   I                2
Largest degree of contraction              I                6
Shell types                                I   N=          20
           0          -1          -1          -1          -1          -2
           0          -1          -1          -1          -1          -2
           0           0           0           1           0           0
           0           1
Number of primitives per shell             I   N=          20
           6           3           1           1           1           1
           6           3           1           1           1           1
           3           1           1           1           3           1
           1           1
Shell to atom map                          I   N=          20
           1           1           1           1           1           1
           2           2           2           2           2           2
           3           3           3           3           4           4
           4           4
Primitive exponents                        R   N=          38
  4.56324000E+03  6.82024000E+02  1.54973000E+02  4.44553000E+01  1.30290000E+01
  1.82773000E+00  2.09642000E+01  4.80331000E+00  1.45933000E+00  4.83456000E-01
  1.45585000E-01  4.38000000E-02  6.26000000E-01  4.56324000E+03  6.82024000E+02
  1.54973000E+02  4.44553000E+01  1.30290000E+01  1.82773000E+00  2.09642000E+01
  4.80331000E+00  1.45933000E+00  4.83456000E-01  1.45585000E-01  4.38000000E-02
  6.26000000E-01  3.38650000E+01  5.09479000E+00  1.15879000E+00  3.25840000E-01
  1.02741000E-01  7.50000000E-01  3.38650000E+01  5.09479000E+00  1.15879000E+00
  3.25840000E-01  1.02741000E-01  7.50000000E-01
Contraction coefficients                   R   N=          38
  1.96665025E-03  1.52306019E-02  7.61269097E-02  2.60801033E-01  6.16462078E-01
  2.21006028E-01  1.14660081E-01  9.19999648E-01 -3.03068213E-03  1.00000000E+00
  1.00000000E+00  1.00000000E+00  1.00000000E+00  1.96665025E-03  1.52306019E-02
  7.61269097E-02  2.60801033E-01  6.16462078E-01  2.21006028E-01  1.14660081E-01
  9.19999648E-01 -3.03068213E-03  1.00000000E+00  1.00000000E+00  1.00000000E+00
  1.00000000E+00  2.54938145E-02  1.90373109E-01  8.52161486E-01  1.00000000E+00
  1.00000000E+00  1.00000000E+00  2.54938145E-02  1.90373109E-01  8.52161486E-01
  1.00000000E+00  1.00000000E+00  1.00000000E+00
P(S=P) Contraction coefficients            R   N=          38
  0.00000000E+00  0.00000000E+00  0.00000000E+00  0.00000000E+00  0.00000000E+00
  0.00000000E+00  4.02486927E-02  2.37593957E-01  8.15853851E-01  1.00000000E+00
  1.00000000E+00  1.00000000E+00  0.00000000E+00  0.00000000E+00  0.00000000E+00
  0.00000000E+00  0.00000000E+00  0.00000000E+00  0.00000000E+00  4.02486927E-02
  2.37593957E-01  8.15853851E-01  1.00000000E+00  1.00000000E+00  1.00000000E+00
  0.00000000E+00  0.00000000E+00  0.00000000E+00  0.00000000E+00  0.00000000E+00
  0.00000000E+00  0.00000000E+00  0.00000000E+00  0.00000000E+00  0.00000000E+00
  0.00000000E+00  0.00000000E+00  0.00000000E+00
Coordinates of each shell                  R   N=          60
 -1.68802148E+01  0.00000000E+00  0.00000000E+00 -1.68802148E+01  0.00000000E+00
  0.00000000E+00 -1.68802148E+01  0.00000000E+00  0.00000000E+00 -1.68802148E+01
  0.00000000E+00  0.00000000E+00 -1.68802148E+01  0.00000000E+00  0.00000000E+00
 -1.68802148E+01  0.00000000E+00  0.00000000E+00  1.68802148E+01  0.00000000E+00
  0.00000000E+00  1.68802148E+01  0.00000000E+00  0.00000000E+00  1.68802148E+01
  0.00000000E+00  0.00000000E+00  1.68802148E+01  0.00000000E+00  0.00000000E+00
  1.68802148E+01  0.00000000E+00  0.00000000E+00  1.68802148E+01  0.00000000E+00
  0.00000000E+00 -1.89950926E+01 -1.10195660E-05  1.10309608E-05 -1.89950926E+01
 -1.10195660E-05  1.10309608E-05 -1.89950926E+01 -1.10195660E-05  1.10309608E-05
 -1.89950926E+01 -1.10195660E-05  1.10309608E-05  1.89950925E+01  7.35862562E-06
 -7.34719891E-06  1.89950925E+01  7.35862562E-06 -7.34719891E-06  1.89950925E+01
  7.35862562E-06 -7.34719891E-06  1.89950925E+01  7.35862562E-06 -7.34719891E-06
Num ILSW                                   I              100
ILSW                                       I   N=         100
           1           0           0           1           2           0
           0           0           0           0        4336          -1
           7           0           0           0           2           0
           0           0           0           0           1           0
           1           1           0           0           0           0
           0           0      100000           0          -1           0
           0           0           0           0           0           0
           0           0           0           1           0           0
           0 -2000000000           1           0           0           0
           0           0           4          52           0           0
           0           0          55           0           0           0
           0           0           0           4           0           1
           0           0           0           0           0           0
           0           0           0           0           0           0
           0           0           0           0           0           0
           0           0           0           0           0           0
           0           0           0           0
Num RLSW                                   I               52
RLSW                                       R   N=          52
  1.00000000E+00  1.00000000E+00  1.00000000E+00  1.00000000E+00  5.40000000E-01
  0.00000000E+00  0.00000000E+00  1.00000000E+00  0.00000000E+00  0.00000000E+00
  0.00000000E+00  0.00000000E+00  1.00000000E+00  0.00000000E+00  0.00000000E+00
  0.00000000E+00  0.00000000E+00  1.00000000E+00  0.00000000E+00  0.00000000E+00
  0.00000000E+00  0.00000000E+00  1.00000000E+00  0.00000000E+00  0.00000000E+00
  0.00000000E+00  0.00000000E+00  1.00000000E+00  0.00000000E+00  0.00000000E+00
  0.00000000E+00  0.00000000E+00  1.00000000E+00  0.00000000E+00  0.00000000E+00
  0.00000000E+00  0.00000000E+00  0.00000000E+00  1.00000000E+00  1.00000000E+00
  0.00000000E+00  1.00000000E+00  0.00000000E+00  0.00000000E+00  0.00000000E+00
  0.00000000E+00  0.00000000E+00  0.00000000E+00  0.00000000E+00  0.00000000E+00
  0.00000000E+00  0.00000000E+00
MxBond                                     I                2
NBond                                      I   N=           4
           2           2           1           1
IBond                                      I   N=           8
           2           3           1           4           1           0
           2           0
RBond                                      R   N=           8
  1.00000000E-01  1.00000000E+00  1.00000000E-01  1.00000000E+00  1.00000000E+00
  0.00000000E+00  1.00000000E+00  0.00000000E+00
Virial Ratio                               R      2.002788096346675E+00
SCF Energy                                 R     -7.693908422216518E+01
Total Energy                               R     -7.693908422216518E+01
S**2                                       R      1.004716138618381E+00
S**2 after annihilation                    R      3.775673548171614E-02
RMS Force                                  R      5.649047141561169E-05
RMS Density                                R      3.283814578150833E-09
Job Status                                 I                1
Nuclear derivative order                   I                1
External E-field                           R   N=          35
  0.00000000E+00  0.00000000E+00  0.00000000E+00  0.00000000E+00  0.00000000E+00
  0.00000000E+00  0.00000000E+00  0.00000000E+00  0.00000000E+00  0.00000000E+00
  0.00000000E+00  0.00000000E+00  0.00000000E+00  0.00000000E+00  0.00000000E+00
  0.00000000E+00  0.00000000E+00  0.00000000E+00  0.00000000E+00  0.00000000E+00
  0.00000000E+00  0.00000000E+00  0.00000000E+00  0.00000000E+00  0.00000000E+00
  0.00000000E+00  0.00000000E+00  0.00000000E+00  0.00000000E+00  0.00000000E+00
  0.00000000E+00  0.00000000E+00  0.00000000E+00  0.00000000E+00  0.00000000E+00
IOpCl                                      I                1
IROHF                                      I                0
Alpha Orbital Energies                     R   N=          56
 -1.06397587E+01 -1.06300365E+01 -7.33076407E-01 -6.87503120E-01 -3.87321231E-01
 -3.58909027E-01 -3.11835344E-01 -9.36208127E-02 -7.30819565E-02 -4.70072815E-02
  2.85280714E-02  3.81094551E-02  8.26183668E-02  8.35247853E-02  8.51558655E-02
  8.55288745E-02  9.13198570E-02  1.07503322E-01  1.76707194E-01  1.91217402E-01
  4.53745736E-01  4.62147517E-01  5.64000054E-01  5.82127911E-01  5.83457761E-01
  5.90200620E-01  6.16429897E-01  6.49547976E-01  6.83201682E-01  7.12371280E-01
  1.12757813E+00  1.13201855E+00  1.19604949E+00  1.21362016E+00  1.32788574E+00
  1.33904756E+00  1.37866693E+00  1.37932924E+00  1.58819130E+00  1.59622755E+00
  1.85295261E+00  1.85891778E+00  1.86961880E+00  1.88570395E+00  2.39338355E+00
  2.49077657E+00  2.49412258E+00  2.56372526E+00  2.69835927E+00  2.71454933E+00
  2.73188587E+00  2.77870508E+00  3.18399827E+00  3.23791796E+00  2.35419322E+01
  2.35543245E+01
Beta Orbital Energies                      R   N=          56
 -1.06397587E+01 -1.06300365E+01 -7.33076394E-01 -6.87503134E-01 -3.87321229E-01
 -3.58909027E-01 -3.11835345E-01 -9.36208133E-02 -7.30819550E-02 -4.70072800E-02
  2.85280707E-02  3.81094563E-02  8.26183675E-02  8.35247851E-02  8.51558647E-02
  8.55288743E-02  9.13198577E-02  1.07503323E-01  1.76707180E-01  1.91217415E-01
  4.53745730E-01  4.62147520E-01  5.64000053E-01  5.82127909E-01  5.83457763E-01
  5.90200622E-01  6.16429879E-01  6.49547990E-01  6.83201672E-01  7.12371304E-01
  1.12757813E+00  1.13201855E+00  1.19604951E+00  1.21362017E+00  1.32788573E+00
  1.33904756E+00  1.37866693E+00  1.37932924E+00  1.58819127E+00  1.59622758E+00
  1.85295257E+00  1.85891774E+00  1.86961885E+00  1.88570400E+00  2.39338350E+00
  2.49077657E+00  2.49412256E+00  2.56372537E+00  2.69835926E+00  2.71454932E+00
  2.73188588E+00  2.77870509E+00  3.18399824E+00  3.23791802E+00  2.35419321E+01
  2.35543246E+01
Alpha MO coefficients                      R   N=        3136
 -2.12933818E-13 -1.23487409E-13  5.15875326E-14  1.95034877E-17  1.07857293E-16
 -3.34160833E-13 -8.87886350E-14 -3.61580068E-16 -5.04805249E-16  8.08436494E-13
  5.35201069E-13  1.82233281E-17  4.37280001E-16  7.72058199E-13 -1.57246491E-12
 -8.12904516E-17 -2.51282668E-16  5.30599948E-14  1.11300835E-16 -5.72624424E-16
 -9.16630398E-14 -8.73708832E-17  5.63919953E-01  4.64495466E-01  1.86524345E-03
  6.50358341E-09 -6.49462165E-09  1.01673314E-02  1.44187180E-03  5.00946408E-09
 -5.00041200E-09 -4.00434423E-03  1.02043980E-04  3.58285480E-10 -3.58302981E-10
  4.30454403E-04 -6.84677386E-04 -2.38347662E-09  2.37997348E-09 -5.34395752E-04
 -6.13802812E-09 -8.20228323E-05  9.23752434E-04  6.14237868E-09 -2.28116578E-13
  1.14355286E-12 -2.35298799E-12  3.69075471E-14 -5.55276321E-17  3.56227691E-17
  3.15414318E-04 -2.96213804E-03  2.33272754E-03  2.06689313E-03  7.19217104E-09
 -7.18115667E-09  5.63932392E-01  4.64948742E-01 -1.26810534E-03 -6.62746052E-09
  6.63417995E-09  8.82772476E-03 -1.26872549E-03 -6.59312209E-09  6.59997837E-09
 -4.12085031E-03  1.02599466E-04  5.27770390E-10 -5.28320094E-10  3.69518596E-04
  6.43739524E-04  3.35665431E-09 -3.36012337E-09 -4.70330330E-04 -7.61472029E-09
 -1.65477072E-04  8.10909841E-04  7.58566730E-09  2.06149618E-13  2.18720150E-13
 -4.75878245E-14 -5.29518214E-18 -1.60039440E-17 -3.05663645E-13  8.36755438E-14
  3.27614317E-18  2.79059409E-17  7.51724808E-13 -4.98869442E-13  3.74010370E-18
 -2.25320895E-17  7.24867568E-13  1.46956551E-12 -9.64795369E-19  8.01169417E-18
  4.90111467E-14  2.63766425E-18 -2.40048767E-17 -8.48684995E-14  3.17596981E-19
  6.69434881E-04 -2.48231972E-03  2.34479268E-03 -1.48806607E-03 -7.75684974E-09
  7.76485517E-09 -2.13874995E-13  1.06786318E-12 -2.19939898E-12 -3.35962318E-14
 -2.72328222E-18 -3.44705449E-18  1.96482939E-15  1.09766103E-14  9.63071503E-15
 -1.04687680E-17 -1.21843138E-16 -1.13332806E-13 -3.97016551E-14  2.54767697E-16
  2.96714863E-16  3.93150266E-13  2.26386984E-13  1.32648653E-16 -4.40123191E-16
  3.21529914E-13 -8.26341386E-13 -2.81087201E-17  2.74388832E-16  1.45388975E-14
 -2.43758068E-17  9.00270924E-17 -2.50300638E-14  2.06175252E-16 -1.10047737E-01
 -1.79606410E-01  7.30813011E-02  2.54417778E-07 -2.54015584E-07  5.10613387E-01
  1.12309634E-01  3.90995384E-07 -3.90381748E-07  3.63918002E-01  4.83182453E-02
  1.68089588E-07 -1.67828032E-07  1.74745487E-04  1.68622614E-03  5.82637045E-09
 -5.81726115E-09 -6.18611725E-03 -6.91703610E-08 -1.48029352E-03  1.06813133E-02
  6.91801090E-08 -4.83527883E-14  3.74357048E-13 -1.03752666E-12  5.05245680E-15
 -1.90605702E-16  1.18667068E-16  1.38709772E-01  1.68072832E-01  1.54329668E-02
 -1.95501976E-02 -6.80351693E-08  6.79292972E-08 -1.03697407E-01 -1.65655685E-01
 -8.02775791E-02 -4.17902663E-07  4.18336145E-07  4.60707496E-01 -1.16683736E-01
 -6.07352155E-07  6.07983573E-07  3.30331673E-01 -4.93900875E-02 -2.57062182E-07
  2.57328978E-07  3.47740054E-03 -7.35496238E-04 -3.79475894E-09  3.79861486E-09
 -9.71504639E-03 -1.13130474E-07 -1.17051870E-02  1.65633713E-02  1.11514360E-07
 -2.40932177E-18 -7.99370211E-16  1.52384568E-15  1.53878704E-17 -1.44384853E-16
  8.67166294E-15  7.99868040E-16 -5.70276207E-17  2.07429873E-16 -4.11323368E-14
  1.52769488E-14  6.32587560E-18 -1.75018447E-16 -4.38077615E-14 -9.44040839E-14
  3.01516583E-17  1.27080080E-16 -1.34351284E-15  1.61416963E-17 -2.36822355E-17
  2.30537077E-15  9.31169925E-18  1.57293169E-01  2.09267113E-01  3.64731404E-02
  2.66187675E-02  1.38651040E-07 -1.38795013E-07  4.98339084E-15 -3.30277361E-14
  1.19487004E-13  5.41896734E-16 -5.07616263E-18 -2.48096717E-17 -6.34710900E-13
 -1.38026656E-12  1.49228911E-12  1.97829364E-16  4.61608420E-17  7.97684496E-12
  4.47121279E-12  6.30231062E-16  4.32994662E-16 -1.82237431E-11 -9.64114163E-12
 -4.64844927E-16 -1.31794962E-15 -2.04679553E-11  5.24906227E-11 -5.54145726E-16
  8.68489905E-16 -5.98210664E-13  8.39897142E-17 -7.88819986E-14  1.03396767E-12
  1.00995183E-16 -5.78125075E-02 -9.61836897E-02 -2.18315123E-01 -7.59139417E-07
  7.57954567E-07  2.82826291E-01 -3.20892157E-01 -1.11577798E-06  1.11403347E-06
  4.12006768E-01 -2.03645314E-01 -7.08093136E-07  7.06985971E-07  5.94264370E-02
 -1.23975897E-02 -4.32472536E-08  4.31796460E-08  1.87432420E-02  2.26360281E-07
 -2.15104435E-04 -3.24690960E-02 -2.26724965E-07  1.19659600E-12 -2.19420769E-11
  6.08184122E-11 -3.63526319E-13  4.52157488E-17  9.95178640E-17 -1.36555112E-01
 -2.52738138E-01 -1.65323795E-01  9.58643631E-03  3.34099113E-08 -3.33578270E-08
 -6.36340487E-02 -1.03506382E-01  2.09065755E-01  1.09033750E-06 -1.09145529E-06
  2.95094914E-01  2.97995050E-01  1.55414791E-06 -1.55574046E-06  4.49091402E-01
  2.10316195E-01  1.09728458E-06 -1.09840577E-06  7.97424523E-02  2.25958017E-02
  1.18049424E-07 -1.18170453E-07  1.58953036E-02  3.35942839E-07 -9.12936811E-03
 -2.77370537E-02 -3.36766614E-07  8.05921206E-13  7.27293751E-13  4.21148065E-12
 -1.83326372E-16  1.65333739E-16  4.84805410E-12  2.23367615E-12  1.79283102E-16
 -2.71720660E-17 -4.58768447E-11  2.36315389E-11 -2.52671941E-16  1.84162796E-16
 -4.20690960E-11 -9.56675367E-11 -1.25595534E-16  6.90274166E-17 -1.66721026E-12
 -3.11715799E-17 -8.03587337E-15  2.88755181E-12  3.34735142E-17 -1.24007754E-01
 -2.40244030E-01 -1.77215711E-01 -8.31211300E-03 -4.32940368E-08  4.33392693E-08
  6.39878785E-12 -3.20251736E-11  1.17475535E-10  4.93681796E-13  2.47575947E-18
 -1.10645028E-18 -1.31541652E-17 -2.79543604E-17  2.59268986E-17 -4.39963201E-14
  4.32717936E-14  2.32273157E-16  8.96661731E-17  3.07817812E-13 -3.04609610E-13
 -8.77423170E-16  2.09805766E-16 -1.02801152E-12  1.01656109E-12 -6.32905037E-16
  1.17759534E-15  1.79521966E-12 -1.77550684E-12 -8.72805482E-17 -7.22093423E-15
  2.35021398E-18 -8.52584755E-17  7.18148655E-15  7.27236448E-11  1.13112838E-10
 -1.44716405E-06  2.09349058E-01 -2.07005258E-01 -1.90267864E-11 -2.18254719E-06
  3.15720940E-01 -3.12186254E-01 -1.06199400E-09 -2.11930649E-06  3.06524748E-01
 -3.03093071E-01 -1.44788799E-09 -2.66584356E-07  3.85631307E-02 -3.81314135E-02
  1.11511355E-07 -1.85302295E-02 -1.29601440E-07 -1.94821781E-07  1.87400439E-02
  2.75128241E-17 -2.21784109E-16  1.85747155E-15  6.10831467E-17  2.63051776E-14
 -2.59693189E-14  2.19195435E-10  5.41257794E-10  7.43272648E-10 -1.12945791E-07
  1.63251179E-02 -1.61423527E-02 -1.14514810E-18 -2.42833304E-18  5.78246423E-18
  1.57409451E-12  1.59012525E-12  7.60805202E-18 -7.17374375E-18  4.38578418E-12
  4.43261459E-12  2.74929899E-17  6.45090540E-18 -3.53008672E-12 -3.57363560E-12
 -5.53133000E-17 -5.11569142E-17  2.02932089E-11  2.05204652E-11  4.56172549E-18
 -3.88582782E-14  3.93766692E-18  7.05753658E-18 -3.85362183E-14 -1.04029378E-12
 -2.63497414E-12  5.88697710E-09  1.73529303E-01  1.75494025E-01  1.01874840E-11
  9.45055173E-09  2.78470780E-01  2.81623686E-01  7.80788342E-12  1.01033349E-08
  2.97716909E-01  3.01087755E-01 -1.10095232E-11  4.91162129E-09  1.45584180E-01
  1.47232588E-01 -9.55434069E-08  1.58569456E-02  6.93928949E-10 -5.40958249E-08
  1.56794274E-02  1.75718576E-18 -5.16988783E-17  5.13454859E-17 -7.46344660E-18
  3.42071476E-13  3.45800846E-13 -4.59039860E-12 -2.30012385E-11  1.33177769E-11
  5.92585330E-10  1.73884762E-02  1.75853567E-02  4.19798849E-10  5.75798485E-10
 -1.63003662E-06  1.57135917E-01 -1.55376647E-01 -1.01453693E-09 -2.46552999E-06
  2.37680985E-01 -2.35019945E-01 -4.20821293E-09 -3.23500358E-06  3.11860527E-01
 -3.08368975E-01  3.06517000E-09 -2.19136344E-06  2.11249918E-01 -2.08884799E-01
 -6.93308315E-08  7.68643217E-03  8.04908787E-08  1.20905234E-07 -7.77346212E-03
 -4.53511673E-17 -2.61484179E-17 -5.28689814E-16 -2.18456076E-12  2.15862019E-12
 -9.24249632E-16 -3.66460370E-16  9.93505209E-13 -9.85064580E-13  7.13773705E-15
 -3.73344483E-15 -1.57401615E-11  1.55612653E-11  1.03692745E-14  2.21268813E-14
  2.81419898E-11 -2.78281522E-11  6.00445281E-16  2.04063545E-13  3.42542409E-16
 -3.55842527E-16 -2.06443179E-13  1.45093211E-10  7.10164338E-10 -1.27896728E-09
 -1.20988839E-07  1.16667567E-02 -1.15361375E-02 -9.37121003E-16  5.50813338E-15
 -2.31418548E-14 -1.60051804E-16  2.33117442E-13 -2.30747140E-13 -1.79409205E-12
 -2.53436578E-12  8.98264821E-09  1.39349366E-01  1.40927167E-01  4.33878589E-12
  1.25547917E-08  1.94799811E-01  1.97005458E-01  2.62847109E-11  1.87572873E-08
  2.90876409E-01  2.94169883E-01 -5.63314302E-11  1.85347593E-08  2.87541312E-01
  2.90797042E-01  5.37625344E-08 -5.98674086E-03 -3.15762922E-10  3.02777553E-08
 -5.91971366E-03 -1.24916146E-16 -2.55705165E-16  9.91958358E-17 -8.72335490E-12
 -8.82208884E-12  1.75004738E-15  1.88506772E-18 -7.17967676E-12 -7.26096477E-12
 -2.52650796E-15 -5.57399512E-16 -3.53996005E-11 -3.58005731E-11 -7.58465728E-16
 -9.95691848E-16  4.33091859E-11  4.37994887E-11  6.53922575E-17 -8.17928517E-13
  2.62353061E-17 -4.38828313E-17 -8.08809278E-13  8.19668165E-13 -4.31887296E-13
  2.39175942E-11  7.84194445E-10  1.21661115E-02  1.23038639E-02 -2.82197364E-17
 -4.57574699E-16  2.47522046E-15 -1.70103033E-16 -1.86783416E-13 -1.88831050E-13
  3.27889098E-02  5.22308573E-02  3.26176587E-02  1.68328957E-07 -1.68501391E-07
 -1.24042569E-01  8.45166426E-02  4.38733957E-07 -4.39180734E-07 -6.21049862E-01
  1.94440418E-03  3.77245743E-09 -3.78616116E-09  1.59482496E+00 -6.16294644E-01
 -3.20079891E-06  3.20416078E-06  4.29693312E-03  7.32908380E-08  7.93362101E-04
 -7.42464120E-03 -7.31131947E-08  3.03121517E-10  5.21956454E-10 -9.71983078E-10
 -1.67745041E-15  1.18799535E-15 -1.50946304E-09 -1.69854278E-09 -4.89056748E-15
  5.43887479E-15 -4.30719186E-09 -3.38073464E-09 -8.58233070E-17 -1.79347741E-16
  2.20815058E-08  2.00015714E-08  4.42017578E-14 -4.40887632E-14  2.81809115E-10
  3.41970437E-15 -3.48074764E-11 -4.88891337E-10 -3.33683430E-15 -2.87599806E-02
  5.13724227E-02 -5.24242922E-01 -1.34605789E-02 -7.01131552E-08  7.01869010E-08
 -6.99106189E-10  3.91941713E-09 -1.59205949E-08 -4.80477340E-11 -3.44793337E-16
  2.18657239E-16 -7.70551015E-10 -1.20040905E-09  1.67423084E-10 -7.46356146E-15
  7.42523483E-15  2.44338034E-09 -1.06916208E-09 -1.28897454E-14  1.28580142E-14
  1.75933355E-08  3.77171303E-09 -1.70385747E-14  1.69567465E-14 -2.76702533E-08
 -6.03306245E-09  2.48834085E-14 -2.52045004E-14  7.06098542E-11  1.01375586E-15
 -3.55052544E-11 -1.23099392E-10 -9.87991310E-16  2.90530635E-02  4.81240515E-02
 -4.93930177E-02 -1.70839188E-07  1.70615992E-07 -1.18025867E-01 -1.15826841E-01
 -4.02111840E-07  4.01515512E-07 -5.81191898E-01 -1.20083026E-01 -4.13593897E-07
  4.13158646E-07  1.55848626E+00  8.17041547E-01  2.83307030E-06 -2.82903863E-06
  1.44340795E-02  1.84078980E-07 -2.93696840E-03 -2.50666805E-02 -1.84559972E-07
 -6.94171839E-11  7.80209140E-10 -1.70191385E-09  1.69963582E-10  9.65309031E-16
 -9.47745413E-16 -2.80174480E-02  1.97472684E-01 -6.60093012E-01 -4.03243582E-03
 -1.40554522E-08  1.40334104E-08  2.19724443E-02  3.47247269E-02 -7.90684823E-02
 -4.19638024E-07  4.20021931E-07 -7.33341478E-02 -5.11164938E-02 -2.74578787E-07
  2.74812786E-07 -4.99276710E-01 -3.88358761E-01 -2.05430307E-06  2.05621552E-06
  5.10684626E-01  1.18811592E+00  6.24828106E-06 -6.25429149E-06 -8.30832984E-03
 -1.60148230E-07  1.80016939E-03  1.44309870E-02  1.60216850E-07  1.14342946E-08
  1.83889570E-08  2.71244620E-08 -5.04323461E-14  5.19031316E-14 -4.05649094E-08
  9.23011770E-09 -7.19838901E-14  7.36183363E-14 -2.74750004E-07  1.47154876E-07
 -1.35496041E-13  1.41646110E-13  3.01639468E-07 -4.87718122E-07 -9.56201931E-14
  8.49857727E-14 -2.86637013E-09 -1.95846434E-14 -8.94685878E-10  4.94455527E-09
  1.96797041E-14  3.50368574E-02 -1.38055086E-02  2.59619820E-01  1.11316519E-02
  5.80603041E-08 -5.81184698E-08  1.40713863E-08 -6.89524958E-09  1.44174201E-07
 -4.26475067E-09 -8.03114905E-15  8.09294032E-15  2.80010352E-16  4.39591829E-16
 -1.03315585E-15 -1.17852976E-10 -1.19195539E-10 -8.97274181E-16 -7.57786340E-16
 -1.27380617E-10 -1.28831809E-10 -6.47032285E-15 -5.05315166E-15 -4.73101297E-10
 -4.78490432E-10  6.37547154E-15  1.55589833E-14  7.22455576E-10  7.30695893E-10
 -1.58599368E-16  5.32615008E-12  2.48713193E-17  1.90062587E-16  5.26610414E-12
  1.25483258E-10  2.02687569E-10 -3.03304546E-09 -9.77207090E-02 -9.88284826E-02
 -4.55395991E-10 -3.05438585E-09 -9.27550224E-02 -9.38062058E-02 -2.99455937E-09
 -1.25714104E-08 -4.15700720E-01 -4.20413478E-01  3.24793198E-09  2.38799337E-08
  8.57137516E-01  8.66857205E-01  5.12841476E-08 -8.51540826E-03 -3.82956329E-10
  2.91081274E-08 -8.41996853E-03  4.66585195E-16 -4.07005521E-16  3.73870885E-15
  1.11520085E-16 -2.42495286E-12 -2.45232383E-12  1.55052104E-10 -6.53034548E-11
  1.62134095E-09 -2.33005169E-11  6.28349044E-04  6.35525578E-04  9.39930818E-09
  1.49118769E-08 -3.56220586E-08 -3.34203397E-13  3.33702950E-13 -3.21889026E-08
 -2.39075239E-08 -2.83957526E-13  2.83409803E-13 -2.08557364E-07 -1.73285156E-07
 -1.50925475E-12  1.50709534E-12  2.23867168E-07  5.19065240E-07  3.82277277E-12
 -3.81891882E-12 -3.55674142E-09 -7.61562216E-14  7.73210633E-10  6.17786868E-09
  7.62157772E-14 -2.51791511E-02 -4.05724128E-02 -6.52143254E-02 -3.46310984E-07
  3.43700209E-07  9.08386698E-02 -2.69768720E-02 -1.83343305E-07  1.81316666E-07
  5.94982011E-01 -3.46462545E-01 -1.73058168E-06  1.71891749E-06 -6.67980797E-01
  1.12186174E+00  5.21089536E-06 -5.18208100E-06  6.70347484E-03  8.31924353E-08
  1.97017369E-03 -1.15664013E-02 -8.33611688E-08  1.52170608E-08 -2.96483585E-09
  9.62288109E-08  5.22847464E-09  2.83309940E-14 -2.83413771E-14 -3.17955497E-02
  1.42231330E-02 -2.98139518E-01  1.01161116E-02  4.07014914E-08 -4.05787636E-08
 -5.36399860E-14 -8.51503526E-14  2.09522553E-13 -4.37706093E-10  4.32803125E-10
  1.84406282E-13  1.43141805E-13 -4.70224726E-10  4.64957322E-10  1.18564805E-12
  1.01435779E-12 -1.78459817E-09  1.76460839E-09 -1.28304897E-12 -3.00648458E-12
  3.29189083E-09 -3.25501972E-09  2.04141483E-14 -2.26613079E-11 -4.66504662E-15