Title Card Required                                                     
FOpt      UM062X                                                      6-311+G(d,p)        
Number of atoms                            I                4
Info1-9                                    I   N=           9
          13          13           0           0           0         110
           2          18        -502
Full Title                                 C   N=           2
Title Card Required     
Route                                      C   N=           4
#p opt UM062X/6-311+G** nosymm int=superfine    
Charge                                     I                0
Multiplicity                               I                1
Number of electrons                        I               26
Number of alpha electrons                  I               13
Number of beta electrons                   I               13
Number of basis functions                  I               64
Number of independent functions            I               64
Number of point charges in /Mol/           I                0
Number of translation vectors              I                0
Atomic numbers                             I   N=           4
           8          16           1           1
Nuclear charges                            R   N=           4
  8.00000000E+00  1.60000000E+01  1.00000000E+00  1.00000000E+00
Current cartesian coordinates              R   N=          12
 -2.99716272E+00  6.99209036E-05 -3.77951170E-05  2.99716083E+00 -7.18106297E-05
  4.34642954E-05 -2.96077920E+00 -4.83393354E-01  1.76812167E+00  2.62573153E+00
 -1.03109879E+00 -2.29663239E+00
Number of symbols in /Mol/                 I                0
Force Field                                I                0
Atom Types                                 C   N=           4
                                                
Int Atom Types                             I   N=           4
           0           0           0           0
MM charges                                 R   N=           4
  0.00000000E+00  0.00000000E+00  0.00000000E+00  0.00000000E+00
Integer atomic weights                     I   N=           4
          16          32           1           1
Real atomic weights                        R   N=           4
  1.59949146E+01  3.19720718E+01  1.00782504E+00  1.00782504E+00
Atom fragment info                         I   N=           4
           0           0           0           0
Atom residue num                           I   N=           4
           0           0           0           0
Nuclear spins                              I   N=           4
           0           0           1           1
Nuclear ZEff                               R   N=           4
 -5.60000000E+00 -1.36000000E+01 -1.00000000E+00 -1.00000000E+00
Nuclear ZNuc                               R   N=           4
  8.00000000E+00  1.60000000E+01  1.00000000E+00  1.00000000E+00
Nuclear QMom                               R   N=           4
  0.00000000E+00  0.00000000E+00  0.00000000E+00  0.00000000E+00
Nuclear GFac                               R   N=           4
  0.00000000E+00  0.00000000E+00  2.79284600E+00  2.79284600E+00
MicOpt                                     I   N=           4
          -2          -2          -1          -1
Number of residues                         I                0
Number of secondary structures             I                0
Redundant internal dimensions              I   N=           4
          12          10           2           0
Redundant internal coordinate indices      I   N=          48
           1          -1           0           0           1          -2
           0           0           1          -3           0           0
           2          -1           0           0           2          -2
           0           0           2          -3           0           0
           1           3           0           0           2           3
           0           0           2           4           0           0
           3           4           0           0           1           2
           4           0           1           3           4           0
Redundant internal coordinates             R   N=          12
 -2.99716272E+00  6.99209036E-05 -3.77951170E-05  2.99716083E+00 -7.18106297E-05
  4.34642954E-05  1.83342531E+00  6.23351824E+00  2.54473895E+00  6.93046239E+00
  1.42431066E+00  1.01362028E+00
ZRed-IntVec                                I   N=          12
          -1          -1          -1          -1          -1          -1
           0           0           0           0           0           0
ZRed-FPVec                                 R   N=          12
  0.00000000E+00  0.00000000E+00  0.00000000E+00  0.00000000E+00  0.00000000E+00
  0.00000000E+00  0.00000000E+00  0.00000000E+00  0.00000000E+00  0.00000000E+00
  0.00000000E+00  0.00000000E+00
ZRed-Constraint1                           R   N=          12
 -2.99711886E+00  6.99198666E-05 -3.77945225E-05  2.99711697E+00 -7.18095927E-05
  4.34637009E-05  1.84033010E+00  6.27252312E+00  2.55466314E+00  6.16068634E+00
  1.57353740E+00  1.62375270E+00
ZRed-Constraint2                           R   N=          12
 -2.99711886E+00  6.99198666E-05 -3.77945225E-05  2.99711697E+00 -7.18095927E-05
  4.34637009E-05  0.00000000E+00  0.00000000E+00  0.00000000E+00  0.00000000E+00
  0.00000000E+00  0.00000000E+00
Number of contracted shells                I               27
Number of primitive shells                 I               49
Pure/Cartesian d shells                    I                0
Pure/Cartesian f shells                    I                0
Highest angular momentum                   I                2
Largest degree of contraction              I                6
Shell types                                I   N=          27
           0          -1          -1          -1          -1          -2
           0           0           0           0           0           0
          -1           1           1           1           1           1
          -2           0           0           0           1           0
           0           0           1
Number of primitives per shell             I   N=          27
           6           3           1           1           1           1
           6           3           1           1           1           1
           1           4           2           1           1           1
           1           3           1           1           1           3
           1           1           1
Shell to atom map                          I   N=          27
           1           1           1           1           1           1
           2           2           2           2           2           2
           2           2           2           2           2           2
           2           3           3           3           3           4
           4           4           4
Primitive exponents                        R   N=          49
  8.58850000E+03  1.29723000E+03  2.99296000E+02  8.73771000E+01  2.56789000E+01
  3.74004000E+00  4.21175000E+01  9.62837000E+00  2.85332000E+00  9.05661000E-01
  2.55611000E-01  8.45000000E-02  1.29200000E+00  9.34134000E+04  1.39617000E+04
  3.16991000E+03  9.02456000E+02  2.97158000E+02  1.08702000E+02  1.08702000E+02
  4.31553000E+01  1.81079000E+01  5.56009000E+00  2.13183000E+00  4.20403000E-01
  1.36045000E-01  4.05000000E-02  4.95040000E+02  1.17221000E+02  3.77749000E+01
  1.40584000E+01  5.56574000E+00  2.26297000E+00  8.07994000E-01  2.77460000E-01
  7.71410000E-02  6.50000000E-01  3.38650000E+01  5.09479000E+00  1.15879000E+00
  3.25840000E-01  1.02741000E-01  7.50000000E-01  3.38650000E+01  5.09479000E+00
  1.15879000E+00  3.25840000E-01  1.02741000E-01  7.50000000E-01
Contraction coefficients                   R   N=          49
  1.89515008E-03  1.43859006E-02  7.07320031E-02  2.40001011E-01  5.94797026E-01
  2.80802012E-01  1.13889012E-01  9.20811101E-01 -3.27447036E-03  1.00000000E+00
  1.00000000E+00  1.00000000E+00  1.00000000E+00  7.42999957E-04  5.79299966E-03
  2.99539983E-02  1.19027993E-01  3.68431979E-01  5.77298966E-01  1.43186060E-01
  6.24465262E-01  2.83366119E-01  1.00000000E+00  1.00000000E+00  1.00000000E+00
  1.00000000E+00  1.00000000E+00  8.30900251E-03  6.40240194E-02  2.77614084E-01
  7.45076225E-01  6.13711672E-01  4.43817763E-01  1.00000000E+00  1.00000000E+00
  1.00000000E+00  1.00000000E+00  2.54938145E-02  1.90373109E-01  8.52161486E-01
  1.00000000E+00  1.00000000E+00  1.00000000E+00  2.54938145E-02  1.90373109E-01
  8.52161486E-01  1.00000000E+00  1.00000000E+00  1.00000000E+00
P(S=P) Contraction coefficients            R   N=          49
  0.00000000E+00  0.00000000E+00  0.00000000E+00  0.00000000E+00  0.00000000E+00
  0.00000000E+00  3.65113974E-02  2.37152983E-01  8.19701941E-01  1.00000000E+00
  1.00000000E+00  1.00000000E+00  0.00000000E+00  0.00000000E+00  0.00000000E+00
  0.00000000E+00  0.00000000E+00  0.00000000E+00  0.00000000E+00  0.00000000E+00
  0.00000000E+00  0.00000000E+00  0.00000000E+00  0.00000000E+00  0.00000000E+00
  0.00000000E+00  1.00000000E+00  0.00000000E+00  0.00000000E+00  0.00000000E+00
  0.00000000E+00  0.00000000E+00  0.00000000E+00  0.00000000E+00  0.00000000E+00
  0.00000000E+00  0.00000000E+00  0.00000000E+00  0.00000000E+00  0.00000000E+00
  0.00000000E+00  0.00000000E+00  0.00000000E+00  0.00000000E+00  0.00000000E+00
  0.00000000E+00  0.00000000E+00  0.00000000E+00  0.00000000E+00
Coordinates of each shell                  R   N=          81
 -2.99716272E+00  6.99209036E-05 -3.77951170E-05 -2.99716272E+00  6.99209036E-05
 -3.77951170E-05 -2.99716272E+00  6.99209036E-05 -3.77951170E-05 -2.99716272E+00
  6.99209036E-05 -3.77951170E-05 -2.99716272E+00  6.99209036E-05 -3.77951170E-05
 -2.99716272E+00  6.99209036E-05 -3.77951170E-05  2.99716083E+00 -7.18106297E-05
  4.34642954E-05  2.99716083E+00 -7.18106297E-05  4.34642954E-05  2.99716083E+00
 -7.18106297E-05  4.34642954E-05  2.99716083E+00 -7.18106297E-05  4.34642954E-05
  2.99716083E+00 -7.18106297E-05  4.34642954E-05  2.99716083E+00 -7.18106297E-05
  4.34642954E-05  2.99716083E+00 -7.18106297E-05  4.34642954E-05  2.99716083E+00
 -7.18106297E-05  4.34642954E-05  2.99716083E+00 -7.18106297E-05  4.34642954E-05
  2.99716083E+00 -7.18106297E-05  4.34642954E-05  2.99716083E+00 -7.18106297E-05
  4.34642954E-05  2.99716083E+00 -7.18106297E-05  4.34642954E-05  2.99716083E+00
 -7.18106297E-05  4.34642954E-05 -2.96077920E+00 -4.83393354E-01  1.76812167E+00
 -2.96077920E+00 -4.83393354E-01  1.76812167E+00 -2.96077920E+00 -4.83393354E-01
  1.76812167E+00 -2.96077920E+00 -4.83393354E-01  1.76812167E+00  2.62573153E+00
 -1.03109879E+00 -2.29663239E+00  2.62573153E+00 -1.03109879E+00 -2.29663239E+00
  2.62573153E+00 -1.03109879E+00 -2.29663239E+00  2.62573153E+00 -1.03109879E+00
 -2.29663239E+00
Num ILSW                                   I              100
ILSW                                       I   N=         100
           1           0           0           1           2           0
           0           0           0           0        4336          -1
           7           0           0           0           2           0
           0           0           0           0           1           0
           1           1           0           0           0           0
           0           0      100000           0          -1           0
           0           0           0           0           0           0
           0           0           0           1           0           0
           0 -2000000000           1           0           0           0
           0           0           4          52           0           0
           0           0          55           0           0           0
           0           0           0           4           0           1
           0           0           0           0           0           0
           0           0           0           0           0           0
           0           0           0           0           0           0
           0           0           0           0           0           0
           0           0           0           0
Num RLSW                                   I               52
RLSW                                       R   N=          52
  1.00000000E+00  1.00000000E+00  1.00000000E+00  1.00000000E+00  5.40000000E-01
  0.00000000E+00  0.00000000E+00  1.00000000E+00  0.00000000E+00  0.00000000E+00
  0.00000000E+00  0.00000000E+00  1.00000000E+00  0.00000000E+00  0.00000000E+00
  0.00000000E+00  0.00000000E+00  1.00000000E+00  0.00000000E+00  0.00000000E+00
  0.00000000E+00  0.00000000E+00  1.00000000E+00  0.00000000E+00  0.00000000E+00
  0.00000000E+00  0.00000000E+00  1.00000000E+00  0.00000000E+00  0.00000000E+00
  0.00000000E+00  0.00000000E+00  1.00000000E+00  0.00000000E+00  0.00000000E+00
  0.00000000E+00  0.00000000E+00  0.00000000E+00  1.00000000E+00  1.00000000E+00
  0.00000000E+00  1.00000000E+00  0.00000000E+00  0.00000000E+00  0.00000000E+00
  0.00000000E+00  0.00000000E+00  0.00000000E+00  0.00000000E+00  0.00000000E+00
  0.00000000E+00  0.00000000E+00
MxBond                                     I                3
NBond                                      I   N=           4
           2           3           3           2
IBond                                      I   N=          12
           2           3           0           1           3           4
           1           2           4           2           3           0
RBond                                      R   N=          12
  1.00000000E-01  1.00000000E+00  0.00000000E+00  1.00000000E-01  1.00000000E-01
  1.00000000E+00  1.00000000E+00  1.00000000E-01  1.00000000E-01  1.00000000E+00
  1.00000000E-01  0.00000000E+00
Virial Ratio                               R      2.001808004896191E+00
SCF Energy                                 R     -4.743941301785260E+02
Total Energy                               R     -4.743941301785260E+02
S**2                                       R      1.530313653574922E-10
S**2 after annihilation                    R      1.865174681512968E-13
RMS Force                                  R      3.226020357483820E-06
RMS Density                                R      9.618970706962819E-10
Job Status                                 I                1
Nuclear derivative order                   I                1
External E-field                           R   N=          35
  0.00000000E+00  0.00000000E+00  0.00000000E+00  0.00000000E+00  0.00000000E+00
  0.00000000E+00  0.00000000E+00  0.00000000E+00  0.00000000E+00  0.00000000E+00
  0.00000000E+00  0.00000000E+00  0.00000000E+00  0.00000000E+00  0.00000000E+00
  0.00000000E+00  0.00000000E+00  0.00000000E+00  0.00000000E+00  0.00000000E+00
  0.00000000E+00  0.00000000E+00  0.00000000E+00  0.00000000E+00  0.00000000E+00
  0.00000000E+00  0.00000000E+00  0.00000000E+00  0.00000000E+00  0.00000000E+00
  0.00000000E+00  0.00000000E+00  0.00000000E+00  0.00000000E+00  0.00000000E+00
IOpCl                                      I                1
IROHF                                      I                0
Alpha Orbital Energies                     R   N=          64
 -8.99785615E+01 -1.96741665E+01 -8.33975692E+00 -6.26192588E+00 -6.25820168E+00
 -6.25255576E+00 -1.08532999E+00 -8.37157326E-01 -5.26014803E-01 -4.95693386E-01
 -3.98336698E-01 -3.56303272E-01 -3.52130610E-01 -2.12258317E-01  1.61879410E-02
  3.93694324E-02  4.66012460E-02  5.49683350E-02  7.05308314E-02  1.38839147E-01
  1.93436785E-01  1.99151408E-01  2.12474428E-01  2.57231292E-01  3.09186751E-01
  3.39608568E-01  3.48003050E-01  3.93487152E-01  5.34940420E-01  5.91945544E-01
  7.03432380E-01  7.16737667E-01  7.88937461E-01  8.14891927E-01  9.69099743E-01
  1.04112243E+00  1.08253366E+00  1.09230201E+00  1.37563000E+00  1.39029966E+00
  1.39863995E+00  1.46076615E+00  1.48016119E+00  1.64234828E+00  1.66338237E+00
  1.67881261E+00  2.06051528E+00  2.09092673E+00  2.48192427E+00  2.53482772E+00
  2.88411070E+00  2.88790812E+00  3.16550212E+00  3.18738548E+00  3.84319562E+00
  5.03579402E+00  5.04534555E+00  5.51386934E+00  7.81846277E+00  1.74062582E+01
  1.74225731E+01  1.74530303E+01  4.98724769E+01  1.89078275E+02
Beta Orbital Energies                      R   N=          64
 -8.99785615E+01 -1.96741665E+01 -8.33975692E+00 -6.26192589E+00 -6.25820168E+00
 -6.25255576E+00 -1.08532998E+00 -8.37157329E-01 -5.26014800E-01 -4.95693389E-01
 -3.98336718E-01 -3.56303408E-01 -3.52130444E-01 -2.12258313E-01  1.61879288E-02
  3.93694510E-02  4.66012209E-02  5.49683428E-02  7.05308397E-02  1.38839150E-01
  1.93436809E-01  1.99151351E-01  2.12474436E-01  2.57231309E-01  3.09186752E-01
  3.39608560E-01  3.48003061E-01  3.93487148E-01  5.34940421E-01  5.91945543E-01
  7.03432374E-01  7.16737667E-01  7.88937429E-01  8.14891950E-01  9.69099736E-01
  1.04112243E+00  1.08253373E+00  1.09230195E+00  1.37563000E+00  1.39029967E+00
  1.39863995E+00  1.46076615E+00  1.48016118E+00  1.64234828E+00  1.66338241E+00
  1.67881256E+00  2.06051528E+00  2.09092673E+00  2.48192428E+00  2.53482772E+00
  2.88411051E+00  2.88790832E+00  3.16550213E+00  3.18738548E+00  3.84319563E+00
  5.03579413E+00  5.04534545E+00  5.51386935E+00  7.81846277E+00  1.74062583E+01
  1.74225731E+01  1.74530303E+01  4.98724769E+01  1.89078275E+02
Alpha MO coefficients                      R   N=        4096
  2.35634307E-08  9.76210035E-08  3.00486785E-06 -1.29007243E-07 -6.69529968E-07
  7.59165464E-07 -9.85997529E-06  1.69489913E-07  3.06911762E-06 -1.37383870E-05
  8.14510275E-06 -3.88331171E-06  5.65172399E-06  1.60653857E-04  5.05936057E-05
 -1.78353958E-05  7.21178850E-05  1.94602996E-06  1.90851711E-06 -1.91546872E-06
  2.96468115E-06 -6.56348590E-07  4.10786661E-01  6.54412134E-01  1.53467896E-02
 -4.34307757E-03  1.60679700E-03 -9.03955739E-04  1.24463637E-04 -2.88407615E-05
 -9.36921405E-06 -2.01040065E-05 -3.41320851E-05 -3.14583447E-05 -6.73247883E-05
  8.47736584E-06  1.04288238E-05  2.24108447E-05  2.67334654E-06  2.55770095E-06
  6.41844504E-06 -4.01865048E-05 -7.17927010E-05 -1.60521631E-04  9.20921306E-05
  7.60932648E-05  1.66755083E-04  6.39218741E-05  1.90441165E-05  5.71060016E-05
 -8.78397467E-06  8.05858978E-06  8.25869811E-07 -1.09156172E-05 -1.49426798E-04
 -7.19365009E-06 -2.24907425E-06  5.60567447E-06  2.53006326E-05 -2.11687733E-04
  2.72249085E-04 -2.65369066E-05 -6.99799140E-05 -1.56497746E-04  5.52845325E-01
  4.69700335E-01  2.69727985E-04 -3.32071579E-04  1.19411958E-03  8.04027442E-03
 -4.63188335E-05  3.49187956E-05 -1.19458112E-04 -3.09902866E-03 -1.25364549E-04
 -5.10928980E-05  1.77629649E-04  2.52900999E-03  3.79647833E-04 -9.33708621E-05
  3.47512503E-04  1.27954313E-04  6.34085560E-06 -5.78879827E-05 -2.57178479E-05
 -2.84236326E-06  2.28861755E-08 -3.33311062E-08  1.03172238E-06 -4.69945303E-06
  3.22835416E-05 -5.04582317E-05 -4.98489756E-04  3.69878106E-04 -6.65590982E-06
  2.38921043E-05 -6.35710154E-07 -1.75217626E-07 -2.95399166E-07  1.66703077E-05
 -4.19178616E-07 -3.23276572E-07 -6.00909935E-05  1.33022502E-06  1.31392124E-06
  1.06230080E-04 -4.92080432E-06 -9.80267672E-06 -1.45132415E-05  5.54677705E-05
  1.00322379E-04  1.53602328E-05  1.04189543E-06 -3.49318178E-06 -3.00732738E-05
  7.05569577E-07  6.62643907E-05 -1.48942703E-05 -1.03963280E-03  1.07411721E-05
 -1.16908982E-04  4.25029938E-04  1.77001786E-05 -4.51620637E-05  2.30705870E-04
  1.22823574E-05 -1.59371337E-06 -7.82922275E-06  6.60071873E-07  6.57011636E-06
  5.25359191E-05  2.43430232E-07 -8.91914469E-06 -6.11326681E-05 -1.26992219E-04
 -4.35377313E-07  4.22843508E-05  2.22517192E-05  2.42581956E-04 -5.45942660E-05
  9.93413791E-05  1.88199433E-03  5.60348050E-04 -2.32392197E-04  9.32653049E-04
  2.31857867E-05  2.22346289E-05 -2.41587712E-05  4.04756150E-05 -6.93320487E-06
 -1.19759744E-01 -3.20474787E-01  5.15971519E-01  5.99033218E-01  4.28597361E-02
 -1.49369838E-02  2.31485680E-03 -4.47956165E-04 -1.09433804E-04 -2.31424320E-04
 -8.89078696E-04 -7.83362161E-04 -1.66161732E-03 -2.05580471E-03 -1.77015973E-03
 -3.75792345E-03 -1.84474114E-04 -1.64637828E-04 -3.26391673E-04 -4.35343177E-04
 -7.71808781E-04 -1.72729304E-03  1.17443254E-03  9.59826243E-04  2.09974348E-03
  6.32997521E-04  1.24443037E-04  8.41795170E-04  4.00317838E-04  2.95577160E-05
 -3.64794668E-06 -1.73794112E-04 -1.93447642E-03 -9.18493347E-05 -3.08811307E-05
  8.48987830E-05  1.43681462E-04 -1.98383636E-03  3.45842761E-03 -2.59840710E-04
 -6.62672033E-04 -1.48214302E-03  2.65135022E-06  1.47291083E-05 -6.29784408E-06
  1.73770676E-06  1.29681099E-06 -1.48872419E-04 -2.13501912E-05 -5.55028417E-06
 -1.34660651E-05  3.34620133E-04  1.83868623E-04  2.99644647E-05 -1.56679202E-05
 -4.04825006E-05  2.28602057E-04 -4.35900502E-05  5.97661379E-05 -1.54833596E-05
 -9.11383304E-06  8.67248005E-07  2.49345185E-05  3.78509076E-06 -1.90261828E-04
 -5.23008662E-04  9.89476239E-04  7.24824483E-04  1.41503497E-04 -6.33468507E-05
 -9.07701516E-05 -2.53803264E-03  2.27123700E-04  4.10732686E-04  3.70571782E-01
 -3.82675822E-02 -6.85924445E-02  6.93590437E-01 -7.16133842E-02 -1.28349145E-01
  5.37834313E-02 -5.54485591E-03 -9.94229933E-03 -7.55813837E-03  7.43282285E-04
  1.33094115E-03  4.78887949E-03 -4.17798551E-04 -7.50322512E-04  1.80154985E-04
 -4.20196307E-04  9.28185548E-05 -1.79239947E-04 -1.99247163E-04 -6.95676037E-05
  1.62686263E-04 -2.48767372E-04  4.93594016E-05  4.20105796E-06 -2.02467751E-05
  2.57745243E-05  8.29304990E-06  1.48720308E-05  6.24427139E-05 -3.16704686E-05
 -6.80276100E-05  6.55194800E-07  3.10462821E-06 -8.99996856E-07 -3.24398983E-06
 -8.35138857E-06 -3.16344184E-05 -1.28134494E-05  1.43652709E-05  3.96429645E-05
  9.63984262E-05  7.63905832E-05 -4.47073298E-05 -8.78700301E-05 -1.59649113E-05
  1.88506576E-05  4.25306446E-05  5.69476224E-05 -1.36100281E-06 -3.51087191E-06
 -1.55516490E-06  3.80324826E-06 -4.57395215E-06 -7.76191662E-04 -2.10057763E-03
  3.71981914E-03  3.75967097E-03 -6.72627531E-04 -3.34085668E-04 -4.75957601E-04
 -4.09708843E-04 -7.99759362E-04 -1.80270479E-03  7.83468042E-02  1.50774598E-01
  3.39316745E-01  1.46394964E-01  2.81661459E-01  6.33878563E-01  1.11226430E-02
  2.13875335E-02  4.81314856E-02 -1.48856137E-03 -2.77345910E-03 -6.24577090E-03
  9.61036225E-04  1.75463319E-03  3.94944255E-03 -4.84305812E-04 -2.96186044E-04
 -4.67910060E-04  3.22519073E-05 -1.33325398E-04  8.06415785E-06 -2.45299342E-05
  5.49060789E-05 -2.01036452E-05 -7.30169464E-07  9.67042634E-06 -5.57414671E-04
 -9.34794688E-05  1.13473962E-03  6.97868758E-05  2.62263043E-04  5.88741908E-04
  6.01505381E-08  5.26195900E-07 -1.25607535E-09 -7.30476024E-06  3.75930400E-06
 -4.09254963E-06 -4.78318169E-07  3.43072759E-05 -1.95982809E-05 -1.25796325E-05
 -8.26305905E-06 -8.30829377E-05  2.53446570E-05  3.16008696E-05  5.14381647E-06
  6.10411781E-05 -1.13668343E-05 -2.47453899E-06 -2.05138211E-06 -2.88359386E-07
  1.24198037E-09 -6.57191568E-06 -1.98562728E-05 -5.40023109E-05  9.73543740E-05
  9.15294047E-05 -1.55954453E-05  5.88428383E-06 -4.95222341E-06 -4.49625282E-05
 -1.94837135E-03  8.76624913E-04  6.99338541E-03  3.46860556E-01 -1.55741867E-01
  1.30384318E-02  6.46858533E-01 -2.90441796E-01  9.57155809E-04  4.73413151E-02
 -2.12553909E-02 -1.32936769E-04 -6.36663401E-03  2.85543767E-03  8.37524907E-05
  3.67854578E-03 -1.65283766E-03  2.75355124E-04  6.44922036E-05 -2.68062416E-04
  1.59924936E-04 -1.60591571E-04 -1.78676515E-05  4.28734388E-05 -4.88921453E-05
  2.66586561E-05  9.11925641E-06 -1.03755359E-05 -1.22015711E-06 -6.62990304E-06
  4.77609970E-06  1.39864131E-06  8.62058874E-05 -4.06054330E-05 -1.18660575E-01
 -1.95529564E-01  1.59426794E-03 -1.26479640E-02  4.55362790E-02  5.74305489E-01
  2.58316090E-03 -2.03029477E-02  7.31175593E-02  4.20468848E-01  4.65118321E-03
 -8.00646337E-03  2.74419105E-02 -2.11888514E-02 -5.87913232E-03  1.54680658E-03
 -5.89684651E-03  8.43747744E-03  4.62726173E-04 -5.61360749E-03  4.41246092E-03
  5.31176708E-05  5.19339467E-04  1.47413332E-03 -3.07903109E-03 -5.54652504E-03
  8.09254594E-03  1.00391904E-02  7.93033904E-03 -5.05913737E-03  7.99554964E-05
  1.81137427E-04  1.06742954E-03  1.54200895E-05  1.38002327E-05  1.93144862E-03
  2.89369635E-05  3.27644502E-05 -1.66261870E-03  1.56069613E-05  2.50992541E-05
 -8.70685161E-03 -9.26117297E-05 -5.96298432E-05 -2.92878819E-03 -1.18455663E-03
 -2.15726977E-03 -7.31354080E-04  4.50928787E-05  3.22955110E-04  1.86470112E-03
  8.62520379E-05  1.10366143E-01  8.86529433E-02  1.69053969E-02 -7.00064759E-04
  6.84431846E-03 -2.49244623E-02  1.05643813E-03  4.99538416E-04 -4.06546262E-03
 -1.10217489E-04  4.97836689E-05  1.12166635E-04  2.75650174E-03  4.57645806E-03
  6.19649655E-03  5.81985610E-04 -2.36168915E-03 -1.40932110E-02  9.85100975E-03
  8.98203590E-04 -3.57157326E-03 -8.49820706E-03  8.13153745E-03  4.45267646E-04
 -1.62736900E-03 -8.24999651E-03 -1.84697566E-03  9.90045871E-04 -4.05309691E-03
 -6.00975546E-04  2.61635072E-04  1.79880736E-04  4.28615731E-04 -8.07864497E-05
  3.34115239E-02  9.49502573E-02 -1.99346406E-01 -3.68604677E-01  6.68586310E-01
  4.08315602E-01 -1.02093257E-02  1.38551477E-03 -4.93903627E-05 -1.58673478E-03
  1.54953850E-03  7.06838486E-03  1.52949898E-02  3.17221397E-03  1.41138314E-02
  3.05664207E-02 -4.89953546E-03 -1.95955599E-02 -4.26807786E-02 -1.41019521E-03
 -2.68010457E-02 -5.68375863E-02 -2.98958025E-03 -5.08507356E-03 -7.51603407E-03
  1.45552285E-02  2.55272981E-03  1.80148495E-02  6.78408313E-03  9.90425352E-04
 -3.51005388E-03 -4.00079633E-03  9.12094371E-03  1.12148207E-03 -2.13543645E-04
  8.39138069E-04  1.01085390E-01  1.32970019E-01  2.07406350E-03  4.54638824E-03
  9.45396243E-03  2.11576177E-02  3.91754802E-02  6.55875568E-02  4.32452577E-03
 -6.54011223E-02  2.42718649E-01 -1.99948774E-01  6.46429258E-03 -9.41025004E-02
  3.49285854E-01 -2.86228400E-01  1.72840057E-03 -6.24391050E-02  2.33876353E-01
 -6.00544023E-02  1.48529284E-03 -6.19217586E-03  2.51664087E-02  1.70924526E-02
  1.55046520E-03 -8.02108883E-03 -2.74658011E-03 -4.50553722E-04  1.08396685E-03
  3.09190102E-03 -6.60013642E-03 -1.22769041E-02  2.39703732E-02  2.03107274E-02
  2.28304797E-03 -2.32117726E-03 -3.46096950E-04 -1.93110281E-03 -2.31702877E-03
 -1.04957957E-03 -5.04077443E-03 -4.45008542E-03 -2.05385605E-03 -9.76500679E-03
  5.90422286E-03  2.96237498E-03  1.38591235E-02  1.37171742E-02  4.88381215E-03
  2.57357560E-02  7.18146774E-03 -5.94352583E-04  9.46182905E-03 -1.70082147E-03
 -2.37657940E-03 -1.80294233E-03 -3.89208473E-04 -8.06703687E-05  1.65631341E-01
  2.59599851E-01  8.06851948E-02  1.53481016E-04  7.91932091E-03 -2.90100818E-02
 -9.27653995E-03 -1.40568464E-02 -1.04193560E-02  5.06188028E-04 -6.86012097E-04
 -1.14225339E-03 -2.28609344E-03 -3.83797738E-03  5.83004446E-03  1.06416620E-02
 -1.69335366E-02  1.17307826E-02  9.12296134E-03  1.54775581E-02 -2.45579740E-02
  1.76602378E-02  7.38913687E-03  1.18520759E-02 -1.53436336E-02  9.57301334E-03
  6.25544215E-03  1.85665931E-03  3.07971218E-04 -1.31952383E-03  4.81364463E-04
  8.45123375E-04  4.86151405E-04  1.13362711E-04  1.21057263E-02  3.45889619E-02
 -7.43763880E-02 -1.35830808E-01  2.49402768E-01  2.97710488E-01  2.25052593E-02
 -2.59745816E-03 -9.41514621E-03 -2.20358764E-02 -1.23030004E-02 -3.33175001E-02
 -7.47965316E-02 -2.39721476E-02 -6.48812007E-02 -1.45647610E-01  3.51918789E-02
  9.46451830E-02  2.12313590E-01  6.15282146E-02  1.64806861E-01  3.70638465E-01
  1.67843643E-02  4.32852402E-02  1.00094316E-01 -3.81668835E-02 -1.20029538E-02
 -3.13731072E-02  1.15395823E-02 -5.57103689E-03 -1.26116844E-02 -2.13702610E-02
 -6.97489662E-03  1.35476896E-03  8.70533730E-06  2.55337769E-03 -1.57383559E-01
 -2.85026199E-01 -1.31388711E-01 -5.85673604E-03 -1.06003087E-02 -2.40691970E-02
 -2.89331872E-04 -4.86541865E-04 -8.77927507E-03  2.93088873E-01  8.01885128E-02
  1.62942019E-03 -1.29602727E-02  4.29403657E-01  1.17483319E-01  1.84787257E-03
 -1.17355531E-02  3.87356171E-01  1.05635934E-01 -5.16357855E-03 -3.78242665E-03
  8.52202797E-02  2.20868113E-02  6.43053587E-03 -7.50931609E-05  1.23349251E-02
  3.72971992E-03  1.45603061E-03 -2.10187622E-04 -6.03465121E-04  1.32385795E-03
  2.29904608E-03 -3.79481868E-03 -8.03237663E-03 -3.62470878E-03  4.24179264E-04
 -1.64208932E-03  3.16450422E-03 -4.10845305E-04 -6.07463453E-03  5.37034738E-03
 -7.96057349E-04 -1.16582710E-02  1.04021935E-02  1.07579569E-03  1.68383199E-02
 -1.53823406E-02  2.54896381E-03  3.56909695E-02 -2.95393109E-02  1.77780367E-03
  2.24004762E-02 -1.04791691E-02  2.29437162E-03 -2.97306726E-04  4.01565034E-04
 -1.07140873E-04 -2.09332584E-03  7.00130629E-05  5.24855219E-04  3.46749251E-03
 -1.03000560E-03  3.45868628E-02  9.27632598E-03  4.98933540E-03  8.26281843E-03
  8.82715286E-03  1.10782494E-03  1.79867351E-03  8.54281043E-05 -1.03768272E-03
 -1.76343087E-03 -6.12290532E-02 -2.91742988E-02 -1.90949429E-03  5.99854223E-03
 -9.19534383E-02 -4.26075930E-02 -2.67124931E-03  6.09749824E-03 -8.65313207E-02
 -3.91225434E-02 -6.12658665E-03 -1.20301168E-02 -2.48953802E-02 -7.20649818E-03
 -3.69399818E-03  2.27244145E-04 -3.42728640E-03 -1.33593110E-03 -1.26262163E-03
  1.22654251E-03  6.42334192E-04  1.82549774E-03 -3.84275196E-03 -7.75966905E-03
  1.86254273E-02  3.79804384E-03 -6.15248045E-03 -1.48703185E-02 -5.19665690E-02
  2.32721618E-02 -2.05146480E-02 -8.86310868E-02  4.20211664E-02 -3.96211844E-02
 -1.70710110E-01  8.10071990E-02  5.52639494E-02  2.51956133E-01 -1.19423142E-01
  1.22609053E-01  5.17373547E-01 -2.44040667E-01  7.20304630E-02  2.87358862E-01
 -1.34741495E-01  1.23827128E-02 -2.81278486E-03 -9.58049250E-03  3.24688516E-03
 -2.23033236E-03  3.27105084E-03  8.02711889E-03  5.02308545E-03 -7.96505383E-03
 -2.72092454E-03 -2.21612262E-03 -3.41071735E-05  1.91525577E-03  3.87079630E-03
  3.87037879E-03  1.87529628E-02 -8.30303117E-03 -4.84490411E-03 -8.20937356E-03