Title Card Required                                                     
FOpt      UM062X                                                      6-311+G(d,p)        
Number of atoms                            I                4
Info1-9                                    I   N=           9
          13          13           0           0           0         110
           2          18        -502
Full Title                                 C   N=           2
Title Card Required     
Route                                      C   N=           5
#p opt UM062X/6-311+G** nosymm int=superfine SCF=NoVarAcc   
Charge                                     I                1
Multiplicity                               I                2
Number of electrons                        I               13
Number of alpha electrons                  I                7
Number of beta electrons                   I                6
Number of basis functions                  I               56
Number of independent functions            I               56
Number of point charges in /Mol/           I                0
Number of translation vectors              I                0
Atomic numbers                             I   N=           4
           6           6           1           1
Nuclear charges                            R   N=           4
  6.00000000E+00  6.00000000E+00  1.00000000E+00  1.00000000E+00
Current cartesian coordinates              R   N=          12
 -1.11156714E+01  0.00000000E+00  0.00000000E+00  1.11156714E+01  0.00000000E+00
  0.00000000E+00 -1.32283508E+01 -1.46648267E-13 -1.08905995E-14  1.32283491E+01
  3.85271764E-13 -3.72044790E-14
Number of symbols in /Mol/                 I                0
Force Field                                I                0
Atom Types                                 C   N=           4
                                                
Int Atom Types                             I   N=           4
           0           0           0           0
MM charges                                 R   N=           4
  0.00000000E+00  0.00000000E+00  0.00000000E+00  0.00000000E+00
Integer atomic weights                     I   N=           4
          12          12           1           1
Real atomic weights                        R   N=           4
  1.20000000E+01  1.20000000E+01  1.00782504E+00  1.00782504E+00
Atom fragment info                         I   N=           4
           0           0           0           0
Atom residue num                           I   N=           4
           0           0           0           0
Nuclear spins                              I   N=           4
           0           0           1           1
Nuclear ZEff                               R   N=           4
 -3.60000000E+00 -3.60000000E+00 -1.00000000E+00 -1.00000000E+00
Nuclear ZNuc                               R   N=           4
  6.00000000E+00  6.00000000E+00  1.00000000E+00  1.00000000E+00
Nuclear QMom                               R   N=           4
  0.00000000E+00  0.00000000E+00  0.00000000E+00  0.00000000E+00
Nuclear GFac                               R   N=           4
  0.00000000E+00  0.00000000E+00  2.79284600E+00  2.79284600E+00
MicOpt                                     I   N=           4
          -2          -2          -1          -1
Number of residues                         I                0
Number of secondary structures             I                0
Redundant internal dimensions              I   N=           4
          12           8           4           0
Redundant internal coordinate indices      I   N=          48
           1          -1           0           0           1          -2
           0           0           1          -3           0           0
           2          -1           0           0           2          -2
           0           0           2          -3           0           0
           1           3           0           0           2           4
           0           0           2           1           3          -4
           1           2           4          -4           2           1
           3          -8           1           2           4          -8
Redundant internal coordinates             R   N=          12
 -1.11156714E+01  0.00000000E+00  0.00000000E+00  1.11156714E+01  0.00000000E+00
  0.00000000E+00  2.11267941E+00  2.11267770E+00  3.14159267E+00  3.14159265E+00
  3.14159264E+00  3.14159265E+00
ZRed-IntVec                                I   N=          12
          -1          -1          -1          -1          -1          -1
           0           0           0           0           0           0
ZRed-FPVec                                 R   N=          12
  0.00000000E+00  0.00000000E+00  0.00000000E+00  0.00000000E+00  0.00000000E+00
  0.00000000E+00  0.00000000E+00  0.00000000E+00  0.00000000E+00  0.00000000E+00
  0.00000000E+00  0.00000000E+00
ZRed-Constraint1                           R   N=          12
 -1.11156714E+01  0.00000000E+00  0.00000000E+00  1.11156714E+01  0.00000000E+00
  0.00000000E+00  2.08057524E+00  2.08053366E+00  3.14159265E+00  3.14159265E+00
  3.14159265E+00  3.14159265E+00
ZRed-Constraint2                           R   N=          12
 -1.11156714E+01  0.00000000E+00  0.00000000E+00  1.11156714E+01  0.00000000E+00
  0.00000000E+00  0.00000000E+00  0.00000000E+00  0.00000000E+00  0.00000000E+00
  0.00000000E+00  0.00000000E+00
Number of contracted shells                I               20
Number of primitive shells                 I               38
Pure/Cartesian d shells                    I                0
Pure/Cartesian f shells                    I                0
Highest angular momentum                   I                2
Largest degree of contraction              I                6
Shell types                                I   N=          20
           0          -1          -1          -1          -1          -2
           0          -1          -1          -1          -1          -2
           0           0           0           1           0           0
           0           1
Number of primitives per shell             I   N=          20
           6           3           1           1           1           1
           6           3           1           1           1           1
           3           1           1           1           3           1
           1           1
Shell to atom map                          I   N=          20
           1           1           1           1           1           1
           2           2           2           2           2           2
           3           3           3           3           4           4
           4           4
Primitive exponents                        R   N=          38
  4.56324000E+03  6.82024000E+02  1.54973000E+02  4.44553000E+01  1.30290000E+01
  1.82773000E+00  2.09642000E+01  4.80331000E+00  1.45933000E+00  4.83456000E-01
  1.45585000E-01  4.38000000E-02  6.26000000E-01  4.56324000E+03  6.82024000E+02
  1.54973000E+02  4.44553000E+01  1.30290000E+01  1.82773000E+00  2.09642000E+01
  4.80331000E+00  1.45933000E+00  4.83456000E-01  1.45585000E-01  4.38000000E-02
  6.26000000E-01  3.38650000E+01  5.09479000E+00  1.15879000E+00  3.25840000E-01
  1.02741000E-01  7.50000000E-01  3.38650000E+01  5.09479000E+00  1.15879000E+00
  3.25840000E-01  1.02741000E-01  7.50000000E-01
Contraction coefficients                   R   N=          38
  1.96665025E-03  1.52306019E-02  7.61269097E-02  2.60801033E-01  6.16462078E-01
  2.21006028E-01  1.14660081E-01  9.19999648E-01 -3.03068213E-03  1.00000000E+00
  1.00000000E+00  1.00000000E+00  1.00000000E+00  1.96665025E-03  1.52306019E-02
  7.61269097E-02  2.60801033E-01  6.16462078E-01  2.21006028E-01  1.14660081E-01
  9.19999648E-01 -3.03068213E-03  1.00000000E+00  1.00000000E+00  1.00000000E+00
  1.00000000E+00  2.54938145E-02  1.90373109E-01  8.52161486E-01  1.00000000E+00
  1.00000000E+00  1.00000000E+00  2.54938145E-02  1.90373109E-01  8.52161486E-01
  1.00000000E+00  1.00000000E+00  1.00000000E+00
P(S=P) Contraction coefficients            R   N=          38
  0.00000000E+00  0.00000000E+00  0.00000000E+00  0.00000000E+00  0.00000000E+00
  0.00000000E+00  4.02486927E-02  2.37593957E-01  8.15853851E-01  1.00000000E+00
  1.00000000E+00  1.00000000E+00  0.00000000E+00  0.00000000E+00  0.00000000E+00
  0.00000000E+00  0.00000000E+00  0.00000000E+00  0.00000000E+00  4.02486927E-02
  2.37593957E-01  8.15853851E-01  1.00000000E+00  1.00000000E+00  1.00000000E+00
  0.00000000E+00  0.00000000E+00  0.00000000E+00  0.00000000E+00  0.00000000E+00
  0.00000000E+00  0.00000000E+00  0.00000000E+00  0.00000000E+00  0.00000000E+00
  0.00000000E+00  0.00000000E+00  0.00000000E+00
Coordinates of each shell                  R   N=          60
 -1.11156714E+01  0.00000000E+00  0.00000000E+00 -1.11156714E+01  0.00000000E+00
  0.00000000E+00 -1.11156714E+01  0.00000000E+00  0.00000000E+00 -1.11156714E+01
  0.00000000E+00  0.00000000E+00 -1.11156714E+01  0.00000000E+00  0.00000000E+00
 -1.11156714E+01  0.00000000E+00  0.00000000E+00  1.11156714E+01  0.00000000E+00
  0.00000000E+00  1.11156714E+01  0.00000000E+00  0.00000000E+00  1.11156714E+01
  0.00000000E+00  0.00000000E+00  1.11156714E+01  0.00000000E+00  0.00000000E+00
  1.11156714E+01  0.00000000E+00  0.00000000E+00  1.11156714E+01  0.00000000E+00
  0.00000000E+00 -1.32283508E+01 -1.46648267E-13 -1.08905995E-14 -1.32283508E+01
 -1.46648267E-13 -1.08905995E-14 -1.32283508E+01 -1.46648267E-13 -1.08905995E-14
 -1.32283508E+01 -1.46648267E-13 -1.08905995E-14  1.32283491E+01  3.85271764E-13
 -3.72044790E-14  1.32283491E+01  3.85271764E-13 -3.72044790E-14  1.32283491E+01
  3.85271764E-13 -3.72044790E-14  1.32283491E+01  3.85271764E-13 -3.72044790E-14
Num ILSW                                   I              100
ILSW                                       I   N=         100
           1           0           0           0           2           0
           0           0           0           0        4336          -1
           7           0           0           0           2           0
           0           0           0           0           1           0
           1           1           0           0           0           0
           0           0      100000           0          -1           0
           0           0           0           0           0           0
           0           0           0           1           0           0
           0 -2000000000           1           0           0           0
           0           0           4          52           0           0
           0           0          55           0           0           0
           0           0           0           4           0           1
           0           0           0           0           0           0
           0           0           0           0           0           0
           0           0           0           0           0           0
           0           0           0           0           0           0
           0           0           0           0
Num RLSW                                   I               52
RLSW                                       R   N=          52
  1.00000000E+00  1.00000000E+00  1.00000000E+00  1.00000000E+00  5.40000000E-01
  0.00000000E+00  0.00000000E+00  1.00000000E+00  0.00000000E+00  0.00000000E+00
  0.00000000E+00  0.00000000E+00  1.00000000E+00  0.00000000E+00  0.00000000E+00
  0.00000000E+00  0.00000000E+00  1.00000000E+00  0.00000000E+00  0.00000000E+00
  0.00000000E+00  0.00000000E+00  1.00000000E+00  0.00000000E+00  0.00000000E+00
  0.00000000E+00  0.00000000E+00  1.00000000E+00  0.00000000E+00  0.00000000E+00
  0.00000000E+00  0.00000000E+00  1.00000000E+00  0.00000000E+00  0.00000000E+00
  0.00000000E+00  0.00000000E+00  0.00000000E+00  1.00000000E+00  1.00000000E+00
  0.00000000E+00  1.00000000E+00  0.00000000E+00  0.00000000E+00  0.00000000E+00
  0.00000000E+00  0.00000000E+00  0.00000000E+00  0.00000000E+00  0.00000000E+00
  0.00000000E+00  0.00000000E+00
MxBond                                     I                2
NBond                                      I   N=           4
           2           2           1           1
IBond                                      I   N=           8
           2           3           1           4           1           0
           2           0
RBond                                      R   N=           8
  1.00000000E-01  1.00000000E+00  1.00000000E-01  1.00000000E+00  1.00000000E+00
  0.00000000E+00  1.00000000E+00  0.00000000E+00
Virial Ratio                               R      2.002699850502011E+00
SCF Energy                                 R     -7.658439203399382E+01
Total Energy                               R     -7.658439203399382E+01
S**2                                       R      7.513015936546568E-01
S**2 after annihilation                    R      7.500012189493247E-01
RMS Force                                  R      1.403904652304886E-04
RMS Density                                R      6.502237945428128E-09
Job Status                                 I                1
Nuclear derivative order                   I                1
External E-field                           R   N=          35
  0.00000000E+00  0.00000000E+00  0.00000000E+00  0.00000000E+00  0.00000000E+00
  0.00000000E+00  0.00000000E+00  0.00000000E+00  0.00000000E+00  0.00000000E+00
  0.00000000E+00  0.00000000E+00  0.00000000E+00  0.00000000E+00  0.00000000E+00
  0.00000000E+00  0.00000000E+00  0.00000000E+00  0.00000000E+00  0.00000000E+00
  0.00000000E+00  0.00000000E+00  0.00000000E+00  0.00000000E+00  0.00000000E+00
  0.00000000E+00  0.00000000E+00  0.00000000E+00  0.00000000E+00  0.00000000E+00
  0.00000000E+00  0.00000000E+00  0.00000000E+00  0.00000000E+00  0.00000000E+00
IOpCl                                      I                1
IROHF                                      I                0
Alpha Orbital Energies                     R   N=          56
 -1.09123830E+01 -1.09123827E+01 -9.50300613E-01 -9.50272435E-01 -6.00614315E-01
 -6.00602270E-01 -4.23826665E-01 -3.99723504E-01 -2.99739332E-01 -2.99739099E-01
 -8.96320903E-02 -8.96163656E-02 -3.67849646E-02 -3.67618608E-02 -3.53477573E-02
 -3.51075538E-02 -3.50838080E-02 -3.48833832E-02  2.43893098E-02  2.44926969E-02
  3.06707633E-01  3.07001432E-01  3.99605196E-01  3.99622494E-01  4.08675868E-01
  4.08693455E-01  4.35100052E-01  4.35120547E-01  5.01669834E-01  5.01915773E-01
  9.25195061E-01  9.25195202E-01  9.27118782E-01  9.27158467E-01  1.10973752E+00
  1.10975762E+00  1.12009309E+00  1.12011283E+00  1.38519583E+00  1.38528194E+00
  1.65818208E+00  1.65818294E+00  1.66097033E+00  1.66097478E+00  2.18891983E+00
  2.18894555E+00  2.30886851E+00  2.30897558E+00  2.47121475E+00  2.47122370E+00
  2.48553764E+00  2.48554664E+00  2.96497970E+00  2.96507069E+00  2.32708957E+01
  2.32709443E+01
Beta Orbital Energies                      R   N=          56
 -1.09082365E+01 -1.09082363E+01 -9.26670027E-01 -9.26669800E-01 -5.86694811E-01
 -5.86694795E-01 -2.80908855E-01 -2.80908762E-01 -2.64582451E-01 -2.64582318E-01
 -9.16735992E-02 -9.16723663E-02 -3.54351856E-02 -3.49805000E-02 -2.88306323E-02
 -2.88078781E-02 -1.95795736E-02 -1.95570645E-02  4.24415755E-02  4.25502521E-02
  3.00062278E-01  3.00377476E-01  4.04231524E-01  4.04251441E-01  4.06798982E-01
  4.06817722E-01  4.64803340E-01  4.64866897E-01  5.23204171E-01  5.23397710E-01
  9.96368841E-01  9.96369136E-01  1.00539860E+00  1.00539890E+00  1.14237759E+00
  1.14237767E+00  1.14247937E+00  1.14247941E+00  1.38921151E+00  1.38929841E+00
  1.67537195E+00  1.67537284E+00  1.68213862E+00  1.68213950E+00  2.34732711E+00
  2.34742241E+00  2.35637312E+00  2.35638932E+00  2.49732097E+00  2.49732996E+00
  2.52087597E+00  2.52088481E+00  3.05867389E+00  3.05878452E+00  2.32840238E+01
  2.32840723E+01
Alpha MO coefficients                      R   N=        3136
  4.63123498E-01  3.81554471E-01 -1.66536244E-03  1.29240589E-15  5.04414484E-16
  7.67500747E-03 -9.72960027E-04 -1.16713983E-15 -3.01274431E-16 -3.25409662E-03
 -5.99569871E-05  8.45788303E-16  9.18592151E-17  3.55868101E-04  5.29727258E-04
 -3.72759112E-16  2.57626660E-17 -4.00287094E-04 -2.15821946E-16  1.62518304E-05
  6.84229124E-04  1.43152899E-16  3.21925481E-01  2.65225391E-01  1.15760586E-03
 -9.51234804E-17  2.12566026E-16  5.33494041E-03  6.76374719E-04 -4.21399106E-17
  1.15432272E-16 -2.26165230E-03  4.15476326E-05  2.34652036E-16 -3.11421669E-16
  2.47545007E-04 -3.67838593E-04 -1.93779522E-16  1.11025104E-16 -2.78219834E-04
 -2.23241494E-16  1.12544890E-05  4.75597073E-04  2.67630540E-16  3.02580570E-04
 -2.15850546E-03  1.79471648E-03 -1.51817631E-03 -2.60668569E-16 -1.23096837E-16
  2.10280746E-04 -1.50020605E-03  1.24699021E-03  1.05531887E-03  4.24807933E-16
  4.56232728E-17 -3.21925502E-01 -2.65225370E-01  1.15767405E-03  7.53533795E-17
 -8.44151187E-17 -5.33532707E-03  6.76190897E-04 -7.68264284E-16  1.33156887E-16
  2.26292191E-03  4.20485824E-05  7.07003443E-16 -2.19179874E-16 -2.46861945E-04
 -3.69328833E-04 -3.59490048E-16  1.69977233E-16  2.78329157E-04  1.06126782E-16
 -1.14186914E-05 -4.75694514E-04 -6.11678621E-17  4.63123512E-01  3.81554455E-01
  1.66540997E-03 -5.06304204E-16  4.00717552E-16  7.67528881E-03  9.72847140E-04
  4.67362589E-16 -7.78100689E-17 -3.25497682E-03  6.03049144E-05 -1.46591682E-16
 -9.75493951E-17  3.55388033E-04 -5.30765218E-04 -7.59266572E-17  2.26043190E-17
 -4.00366864E-04 -1.65531052E-16  1.63659120E-05  6.84303364E-04  2.51628052E-16
 -2.10465216E-04  1.50104650E-03 -1.24913253E-03  1.05530665E-03  2.94317545E-16
  6.12310431E-17  3.02706522E-04 -2.15911038E-03  1.79621726E-03  1.51817936E-03
  7.44858841E-16 -1.10912035E-16 -7.94485803E-02 -1.29704197E-01 -5.61620217E-02
 -4.76139665E-15  2.39410986E-15  3.82489295E-01 -8.61521682E-02  5.47242523E-14
  5.25395352E-15  2.41674169E-01 -3.20722462E-02 -6.51900859E-15  3.85526181E-15
 -5.42098464E-03 -2.29003152E-03  5.81024138E-15 -2.40402868E-17 -4.16756586E-03
 -3.75453242E-15 -3.61553814E-04  7.42087036E-03 -3.11928342E-14 -8.00575710E-02
 -1.30698406E-01  5.65926869E-02  6.51860697E-15  6.83904674E-15  3.85421166E-01
  8.68127443E-02 -2.97265071E-15  1.44597841E-14  2.43526319E-01  3.23180568E-02
 -1.02708894E-14  1.60560567E-14 -5.46271234E-03  2.30761558E-03  4.05112848E-15
 -3.97478353E-15 -4.19955222E-03  6.68981936E-15 -3.64265979E-04  7.47779193E-03
 -1.10984762E-14  9.81204567E-02  1.21959374E-01 -2.12204135E-03  1.68055100E-02
 -6.47260330E-14 -5.56036036E-15  9.88727738E-02  1.22894506E-01 -2.13822024E-03
 -1.69343565E-02  3.88395798E-14 -1.78616221E-14 -8.00565911E-02 -1.30697078E-01
 -5.66000645E-02 -5.12941645E-15  1.66847504E-15  3.85425133E-01 -8.68229723E-02
  5.61406806E-14  5.94715687E-15  2.43498839E-01 -3.23121288E-02 -7.04353815E-15
  3.45007758E-15 -5.48648620E-03 -2.31128284E-03  5.91231532E-15  4.65965065E-17
 -4.20340493E-03 -3.85733292E-15 -3.56319040E-04  7.48001418E-03 -3.13423405E-14
  7.94475569E-02  1.29702792E-01 -5.61696467E-02 -6.46801999E-15 -6.03807290E-15
 -3.82493001E-01 -8.61626620E-02  2.80918826E-15 -1.49683363E-14 -2.41646077E-01
 -3.20662828E-02  9.71986665E-15 -1.54355153E-14  5.44492086E-03 -2.29372988E-03
 -3.69116168E-15  3.78311654E-15  4.17146809E-03 -6.68997091E-15  3.53549546E-04
 -7.42314830E-03  1.06979421E-14  9.88780536E-02  1.22915340E-01 -2.12454157E-03
  1.69362327E-02 -6.52172630E-14 -5.62443075E-15 -9.81260351E-02 -1.21980540E-01
  2.10829262E-03  1.68074179E-02 -3.83086720E-14  1.79575315E-14 -4.26341457E-02
 -7.10788452E-02  1.66102662E-01 -3.21553196E-14 -2.66694581E-14  2.20283179E-01
  2.45734020E-01 -1.35451519E-13 -3.91491354E-14  2.63144158E-01  1.40988335E-01
 -3.48796021E-14 -3.05259120E-14  1.80306000E-02 -2.02693304E-03 -1.70552002E-15
  4.95919843E-16  1.48708946E-02  4.18783846E-15 -8.00956622E-06 -2.57527104E-02
  4.12978195E-14 -4.27262853E-02 -7.12324605E-02 -1.66461504E-01 -2.63663091E-14
 -1.28335950E-14  2.20759258E-01 -2.46264848E-01  1.22875922E-14 -9.04028372E-15
  2.63712924E-01 -1.41292844E-01 -3.90281100E-14 -2.59901131E-14  1.80695159E-02
  2.03131903E-03  1.54731535E-14 -1.82517060E-15  1.49030190E-02 -1.62227308E-14
 -8.01409295E-06 -2.58083490E-02  1.01281757E-14 -9.53043864E-02 -1.71554780E-01
 -7.81652314E-02 -7.89041050E-03  1.84679102E-14  2.14449930E-15 -9.55102282E-02
 -1.71925275E-01 -7.83340628E-02  7.90744050E-03  2.96759718E-15  8.97238380E-15
 -4.27316641E-02 -7.12415714E-02  1.66459667E-01 -3.20514139E-14 -2.78180099E-14
  2.20793738E-01  2.46262658E-01 -1.33817372E-13 -4.17274329E-14  2.63713573E-01
  1.41303355E-01 -3.39363791E-14 -3.23392077E-14  1.80409789E-02 -2.03157536E-03
 -2.04830997E-15  3.93759861E-16  1.49002936E-02  4.16340052E-15 -1.74829869E-06
 -2.58071370E-02  4.14331678E-14  4.26395887E-02  7.10880666E-02  1.66100857E-01
  2.66215197E-14  1.27181001E-14 -2.20317996E-01  2.45731783E-01 -1.21796207E-14
  8.54156192E-15 -2.63145407E-01  1.40998694E-01  3.94477780E-14  2.57351358E-14
 -1.80020542E-02 -2.02720329E-03 -1.54987333E-14  1.76059986E-15 -1.48681733E-02
  1.63576155E-14  1.73178707E-06  2.57515122E-02 -1.00993358E-14 -9.55043546E-02
 -1.71909601E-01 -7.83192731E-02 -7.90532809E-03  1.83434761E-14  2.29021608E-15
  9.52984412E-02  1.71538919E-01  7.81504192E-02 -7.88827174E-03 -3.26699327E-15
 -8.75276316E-15 -9.36596308E-16  3.13705411E-15 -4.56380162E-14 -1.25832714E-01
  1.65901091E-01 -8.47907543E-14  7.83107674E-15 -1.98092987E-01  2.61170635E-01
  5.85374286E-13 -4.79775096E-13 -1.79190888E-01  2.36249592E-01  5.87740134E-13
 -3.36930363E-13 -1.47972214E-02  1.95089915E-02 -2.31592369E-16 -1.50251010E-02
  5.20506302E-15  9.77360561E-15  1.13962317E-02  3.77839028E-15  1.47892025E-15
 -5.41228338E-14 -1.25832611E-01  1.65901179E-01  1.49809521E-13 -2.10453844E-14
 -1.98092832E-01  2.61170784E-01 -1.36476746E-12 -9.72796581E-13 -1.79190749E-01
  2.36249729E-01 -1.36301936E-12 -8.13762365E-13 -1.47972087E-02  1.95090012E-02
  3.77263678E-14  1.50251230E-02 -4.28109425E-15 -6.17857245E-14 -1.13962329E-02
 -5.61111945E-15 -1.89949547E-15 -1.32944832E-12  1.37142637E-14 -9.85788476E-03
  1.29968785E-02  5.15204243E-14 -8.52074959E-14  3.11321642E-12 -1.16335313E-13
 -9.85788490E-03  1.29968963E-02 -1.02024008E-15  2.87600025E-15 -4.59212996E-14
 -1.25819167E-01  1.65883275E-01 -8.30506816E-14  5.50745023E-15 -1.98066575E-01
  2.61135888E-01  5.82865201E-13 -4.78521710E-13 -1.79173417E-01  2.36226630E-01
  5.83600821E-13 -3.33979811E-13 -1.48344739E-02  1.95581171E-02 -5.42676587E-16
 -1.52626678E-02  4.98322795E-15  1.03188711E-14  1.15764186E-02 -3.42771496E-15
 -8.45002753E-16  5.58068605E-14  1.25819041E-01 -1.65883335E-01 -1.52199118E-13
  2.29227458E-14  1.98066385E-01 -2.61135991E-01  1.36601884E-12  9.76594678E-13
  1.79173247E-01 -2.36226725E-01  1.37066657E-12  8.15031071E-13  1.48344586E-02
 -1.95581233E-02 -3.78564360E-14 -1.52626872E-02  4.49132360E-15  6.18657624E-14
  1.15764177E-02 -4.91065288E-15 -5.81916305E-15 -1.32093009E-12  1.32695223E-14
 -9.94500145E-03  1.31117392E-02 -5.09308937E-14  8.95325684E-14 -3.12684152E-12
  1.16031387E-13  9.94499979E-03 -1.31117547E-02 -2.94545320E-15 -9.88164982E-15
  1.02639302E-13  1.63424280E-01  1.23954326E-01  1.65993224E-13  1.00515724E-13
  2.64054811E-01  2.00280540E-01 -1.20050804E-12  1.02876323E-12  2.52222098E-01
  1.91305611E-01 -1.18211307E-12  7.03175509E-13  4.78028756E-02  3.62575438E-02
  2.96064391E-14 -1.12235138E-02  5.11728219E-15 -6.23832976E-14 -1.47973282E-02
  1.75159133E-15  1.52754440E-14  2.94610170E-14  1.47779320E-01  1.12087761E-01
 -1.61038494E-13 -2.36063161E-13  2.38776303E-01  1.81107034E-01  6.51673713E-13
  4.48851687E-13  2.28076275E-01  1.72991240E-01  1.18317733E-12  7.06761305E-13
  4.32268120E-02  3.27866454E-02  4.50976980E-14  1.01490564E-02  1.57907461E-15
 -6.86734713E-14  1.33807574E-02 -1.18159040E-14  1.13774113E-13  2.65143397E-12
  5.71092913E-14  1.44013186E-02  1.09231275E-02 -9.51025746E-14  6.92749950E-13
 -2.49033637E-12 -9.99576694E-14  1.30226610E-02  9.87742879E-03  2.66192524E-15
  8.94715941E-15 -9.28746208E-14 -1.47779486E-01 -1.12088000E-01 -1.50128013E-13
 -9.11939810E-14 -2.38776262E-01 -1.81107186E-01  1.08575930E-12 -9.30225606E-13
 -2.28077299E-01 -1.72992195E-01  1.06897431E-12 -6.35677143E-13 -4.32246375E-02
 -3.27850357E-02 -2.66520982E-14  1.01490735E-02 -4.60061482E-15  5.65248904E-14
  1.33807670E-02  1.92481058E-15  1.68654372E-14  3.21684037E-14  1.63424561E-01
  1.23954335E-01 -1.78045356E-13 -2.61307031E-13  2.64054991E-01  2.00280350E-01
  7.19827435E-13  4.95548172E-13  2.52223259E-01  1.91306182E-01  1.30421580E-12
  7.79394401E-13  4.78009623E-02  3.62560393E-02  4.99587254E-14  1.12235258E-02
  2.17899333E-15 -7.58352242E-14  1.47973686E-02  1.07789384E-14 -1.02938355E-13
 -2.39795762E-12 -5.16338916E-14 -1.30226462E-02 -9.87742772E-03 -1.05181580E-13
  7.64365675E-13 -2.74674998E-12 -1.10362481E-13  1.44013371E-02  1.09231239E-02
  2.56697573E-02  4.30070622E-02  4.88794403E-02 -2.38845813E-14  8.61062531E-17
 -1.25881134E-01  1.03484924E-01  5.25604650E-14  1.88652368E-16 -5.16730675E-01
  1.24196154E-01 -1.96914578E-13  4.49614594E-15  9.56255028E-01 -3.74510561E-01
  1.79338385E-13 -1.65102484E-15  6.82434514E-03 -3.32708513E-16 -1.81298172E-03
 -1.08049521E-02 -5.45835354E-15  2.56123444E-02  4.29108843E-02 -4.87700795E-02
 -8.71612138E-15 -1.32996059E-14 -1.25599783E-01 -1.03253451E-01  6.11966633E-14
 -2.15016707E-14 -5.15574100E-01 -1.23918294E-01 -5.61744045E-14 -1.45356856E-14
  9.54118247E-01  3.73676077E-01 -1.90571714E-14 -2.54517372E-16  6.80914439E-03
  1.58896893E-15 -1.80894520E-03 -1.07808788E-02  1.37392657E-14 -4.74680563E-04
  1.31862546E-01 -9.00117711E-02 -4.38299334E-03  6.20465032E-14  3.77123148E-15
 -4.73830850E-04  1.31567822E-01 -8.98134679E-02  4.37315683E-03 -7.76560519E-14
  1.59426222E-14 -2.56225194E-02 -4.29253869E-02 -4.87444706E-02  2.39815521E-14
  2.88814661E-17  1.25598053E-01 -1.03266627E-01 -5.21034318E-14 -1.33614870E-16
  5.16075662E-01 -1.23763532E-01  1.96305600E-13 -4.50536960E-15 -9.54283545E-01
  3.72756736E-01 -1.80009950E-13  3.25892069E-15 -6.79921081E-03  1.93500451E-16
  1.80175800E-03  1.07677028E-02  5.42068005E-15  2.56798735E-02  4.30214839E-02
 -4.88535444E-02 -8.35842464E-15 -1.37591082E-14 -1.25879389E-01 -1.03497764E-01
  6.16470649E-14 -2.14162970E-14 -5.17230000E-01 -1.24040485E-01 -5.50780435E-14
 -1.71881376E-14  9.56421621E-01  3.73594279E-01 -2.32709242E-14  5.54425133E-15
  6.81449307E-03  9.74395982E-16 -1.80580954E-03 -1.07918987E-02  1.34371941E-14
  4.41575358E-04 -1.31520081E-01  8.91974217E-02  4.36596315E-03 -6.20605522E-14
 -4.09551273E-15 -4.42776320E-04  1.31814679E-01 -8.94001089E-02  4.37570244E-03
 -7.75069583E-14  1.67033521E-14 -1.21760802E-14 -1.16955116E-14 -4.14697774E-13
 -6.86792893E-02 -5.20929373E-02 -1.35765034E-13 -3.54625835E-13 -7.72909947E-02
 -5.86246562E-02  2.17362317E-12 -2.71351206E-12 -2.45854956E-01 -1.86479870E-01
  4.32747967E-12 -4.79464217E-13  6.72547662E-01  5.10124957E-01  1.81319156E-14
  4.26334061E-03 -4.49891368E-15 -2.67196501E-14  5.62078062E-03  2.00239707E-14
  2.69185844E-14 -1.30677636E-13 -6.86382407E-02 -5.20617325E-02  2.58514627E-15
 -4.23030191E-14 -7.72447929E-02 -5.85895340E-02 -1.24018962E-12 -9.36743232E-13
 -2.45708057E-01 -1.86368199E-01 -1.69567568E-12 -1.14314152E-12  6.72145740E-01
  5.09819421E-01 -3.21076890E-14 -4.26079319E-03 -2.94062829E-16  5.10800374E-14
 -5.61742960E-03 -1.79625450E-13 -1.83116349E-13 -7.02767986E-12  6.26640159E-14
  2.26737914E-03  1.71981902E-03  1.16332990E-13 -1.68028167E-13  3.59096856E-12
  6.82337283E-14  2.26601406E-03  1.71878133E-03  1.45760786E-14  1.56651164E-14
  4.03758622E-13  6.86420552E-02  5.20646968E-02  1.24416361E-13  3.45533461E-13
  7.72626480E-02  5.86031566E-02 -2.21909877E-12  2.66516796E-12  2.45684194E-01
  1.86350355E-01 -4.24504580E-12  6.17360722E-13 -6.72151797E-01 -5.09824715E-01
 -1.90243463E-14 -4.26089058E-03  4.29128435E-15  2.81917358E-14 -5.61755034E-03
  1.78642976E-14  2.33412737E-14 -1.40773687E-13 -6.86831636E-02 -5.20958060E-02
  1.29471345E-14 -5.08347849E-14 -7.73089128E-02 -5.86381680E-02 -1.20069303E-12
 -9.81825402E-13 -2.45831375E-01 -1.86461735E-01 -1.77226902E-12 -1.01960087E-12
  6.72554388E-01  5.10129379E-01 -3.14223517E-14 -4.26344291E-03 -1.28542561E-16
  4.97255952E-14 -5.62092303E-03  1.82092282E-13  1.79493815E-13  7.02949324E-12
 -6.09394543E-14 -2.26562519E-03 -1.71848877E-03  1.14254511E-13 -1.64210388E-13
  3.59314646E-12  6.98137333E-14  2.26697215E-03  1.71950807E-03  1.31722563E-02
  2.18135772E-02 -6.16464688E-02 -2.88547907E-13  6.75981624E-13 -6.26937915E-02
 -5.31430652E-02 -2.67005722E-13  6.56509589E-13 -2.46511903E-01 -2.68451353E-01
 -1.09786418E-12  2.52630995E-12  4.59215983E-01  7.61382732E-01  3.23616218E-12
 -7.14968860E-12 -4.45834820E-03 -5.43076755E-14 -9.25992232E-04  8.24060780E-03
  2.00739025E-14  1.31717798E-02  2.18127885E-02  6.16441342E-02  7.44577151E-13
 -9.69517213E-13 -6.26915045E-02  5.31409850E-02  6.97730100E-13 -9.14793891E-13
 -2.46503139E-01  2.68441245E-01  2.80962184E-12 -3.64695592E-12  4.59198882E-01
 -7.61354826E-01 -7.99129219E-12  1.03753915E-11 -4.45818530E-03 -7.47179208E-14
 -9.25957498E-04  8.24030879E-03  5.64296357E-14  1.31875961E-02 -2.09947065E-02
  3.12710026E-04  9.68452239E-03  1.42760278E-14 -3.66332810E-14  1.31871703E-02
 -2.09938135E-02  3.13203583E-04 -9.68417149E-03 -3.03706731E-14  5.15933245E-14
 -2.20792535E-13 -3.72910322E-13  1.41103000E-12  4.79407949E-02 -6.32049670E-02
  1.20303146E-12  1.20058340E-12  4.53446360E-02 -5.97819022E-02  2.64362277E-12
  6.80120181E-12  1.80682637E-01 -2.38211330E-01 -1.14741102E-11 -1.29860160E-11
 -5.12602692E-01  6.75814340E-01  5.88754509E-14  4.94718365E-03  1.81353749E-14