Title Card Required                                                     
Force     UM062X                                                      6-311+G(d,p)        
Number of atoms                            I                6
Info1-9                                    I   N=           9
          15          15           0           0           0         100
           5          18        -502
Full Title                                 C   N=           2
Title Card Required     
Route                                      C   N=           4
#p UM062X/6-311+G** force int=superfine         
Charge                                     I                1
Multiplicity                               I                2
Number of electrons                        I               15
Number of alpha electrons                  I                8
Number of beta electrons                   I                7
Number of basis functions                  I               68
Number of independent functions            I               68
Number of point charges in /Mol/           I                0
Number of translation vectors              I                0
Atomic numbers                             I   N=           6
           6           6           1           1           1           1
Nuclear charges                            R   N=           6
  6.00000000E+00  6.00000000E+00  1.00000000E+00  1.00000000E+00  1.00000000E+00
  1.00000000E+00
Current cartesian coordinates              R   N=          18
 -7.63360666E-22  1.18889096E+00  0.00000000E+00 -1.45595878E-16 -1.18889096E+00
  2.46519033E-32  1.73928692E+00  2.29005138E+00  0.00000000E+00 -1.73906771E+00
  2.29017232E+00 -4.93038066E-32 -1.73928692E+00 -2.29005138E+00  4.93038066E-32
  1.73906771E+00 -2.29017232E+00  4.93038066E-32
Number of symbols in /Mol/                 I                0
Force Field                                I                0
Atom Types                                 C   N=           6
                                                            
            
Int Atom Types                             I   N=           6
           0           0           0           0           0           0
MM charges                                 R   N=           6
  0.00000000E+00  0.00000000E+00  0.00000000E+00  0.00000000E+00  0.00000000E+00
  0.00000000E+00
Integer atomic weights                     I   N=           6
          12          12           1           1           1           1
Real atomic weights                        R   N=           6
  1.20000000E+01  1.20000000E+01  1.00782504E+00  1.00782504E+00  1.00782504E+00
  1.00782504E+00
Atom fragment info                         I   N=           6
           0           0           0           0           0           0
Atom residue num                           I   N=           6
           0           0           0           0           0           0
Nuclear spins                              I   N=           6
           0           0           1           1           1           1
Nuclear ZEff                               R   N=           6
 -3.60000000E+00 -3.60000000E+00 -1.00000000E+00 -1.00000000E+00 -1.00000000E+00
 -1.00000000E+00
Nuclear ZNuc                               R   N=           6
  6.00000000E+00  6.00000000E+00  1.00000000E+00  1.00000000E+00  1.00000000E+00
  1.00000000E+00
Nuclear QMom                               R   N=           6
  0.00000000E+00  0.00000000E+00  0.00000000E+00  0.00000000E+00  0.00000000E+00
  0.00000000E+00
Nuclear GFac                               R   N=           6
  0.00000000E+00  0.00000000E+00  2.79284600E+00  2.79284600E+00  2.79284600E+00
  2.79284600E+00
MicOpt                                     I   N=           6
          -1          -1          -1          -1          -1          -1
Number of residues                         I                0
Number of secondary structures             I                0
SymInf integers                            I   N=          26
           2           4           1           1           1          -1
          -1           1           1           1          -1          -1
          -1          -1           0           0           0           0
           0           0           0           0           0           0
           0           0
RotTr to input orientation                 R   N=          12
  6.49573697E-17 -1.00000000E+00 -2.76454763E-21 -1.00000000E+00 -6.49571556E-17
 -1.22464680E-16  1.22464680E-16  2.76454763E-21 -1.00000000E+00  0.00000000E+00
  0.00000000E+00  0.00000000E+00
Number of contracted shells                I               28
Number of primitive shells                 I               50
Pure/Cartesian d shells                    I                0
Pure/Cartesian f shells                    I                0
Highest angular momentum                   I                2
Largest degree of contraction              I                6
Shell types                                I   N=          28
           0          -1          -1          -1          -1          -2
           0          -1          -1          -1          -1          -2
           0           0           0           1           0           0
           0           1           0           0           0           1
           0           0           0           1
Number of primitives per shell             I   N=          28
           6           3           1           1           1           1
           6           3           1           1           1           1
           3           1           1           1           3           1
           1           1           3           1           1           1
           3           1           1           1
Shell to atom map                          I   N=          28
           1           1           1           1           1           1
           2           2           2           2           2           2
           3           3           3           3           4           4
           4           4           5           5           5           5
           6           6           6           6
Primitive exponents                        R   N=          50
  4.56324000E+03  6.82024000E+02  1.54973000E+02  4.44553000E+01  1.30290000E+01
  1.82773000E+00  2.09642000E+01  4.80331000E+00  1.45933000E+00  4.83456000E-01
  1.45585000E-01  4.38000000E-02  6.26000000E-01  4.56324000E+03  6.82024000E+02
  1.54973000E+02  4.44553000E+01  1.30290000E+01  1.82773000E+00  2.09642000E+01
  4.80331000E+00  1.45933000E+00  4.83456000E-01  1.45585000E-01  4.38000000E-02
  6.26000000E-01  3.38650000E+01  5.09479000E+00  1.15879000E+00  3.25840000E-01
  1.02741000E-01  7.50000000E-01  3.38650000E+01  5.09479000E+00  1.15879000E+00
  3.25840000E-01  1.02741000E-01  7.50000000E-01  3.38650000E+01  5.09479000E+00
  1.15879000E+00  3.25840000E-01  1.02741000E-01  7.50000000E-01  3.38650000E+01
  5.09479000E+00  1.15879000E+00  3.25840000E-01  1.02741000E-01  7.50000000E-01
Contraction coefficients                   R   N=          50
  1.96665025E-03  1.52306019E-02  7.61269097E-02  2.60801033E-01  6.16462078E-01
  2.21006028E-01  1.14660081E-01  9.19999648E-01 -3.03068213E-03  1.00000000E+00
  1.00000000E+00  1.00000000E+00  1.00000000E+00  1.96665025E-03  1.52306019E-02
  7.61269097E-02  2.60801033E-01  6.16462078E-01  2.21006028E-01  1.14660081E-01
  9.19999648E-01 -3.03068213E-03  1.00000000E+00  1.00000000E+00  1.00000000E+00
  1.00000000E+00  2.54938145E-02  1.90373109E-01  8.52161486E-01  1.00000000E+00
  1.00000000E+00  1.00000000E+00  2.54938145E-02  1.90373109E-01  8.52161486E-01
  1.00000000E+00  1.00000000E+00  1.00000000E+00  2.54938145E-02  1.90373109E-01
  8.52161486E-01  1.00000000E+00  1.00000000E+00  1.00000000E+00  2.54938145E-02
  1.90373109E-01  8.52161486E-01  1.00000000E+00  1.00000000E+00  1.00000000E+00
P(S=P) Contraction coefficients            R   N=          50
  0.00000000E+00  0.00000000E+00  0.00000000E+00  0.00000000E+00  0.00000000E+00
  0.00000000E+00  4.02486927E-02  2.37593957E-01  8.15853851E-01  1.00000000E+00
  1.00000000E+00  1.00000000E+00  0.00000000E+00  0.00000000E+00  0.00000000E+00
  0.00000000E+00  0.00000000E+00  0.00000000E+00  0.00000000E+00  4.02486927E-02
  2.37593957E-01  8.15853851E-01  1.00000000E+00  1.00000000E+00  1.00000000E+00
  0.00000000E+00  0.00000000E+00  0.00000000E+00  0.00000000E+00  0.00000000E+00
  0.00000000E+00  0.00000000E+00  0.00000000E+00  0.00000000E+00  0.00000000E+00
  0.00000000E+00  0.00000000E+00  0.00000000E+00  0.00000000E+00  0.00000000E+00
  0.00000000E+00  0.00000000E+00  0.00000000E+00  0.00000000E+00  0.00000000E+00
  0.00000000E+00  0.00000000E+00  0.00000000E+00  0.00000000E+00  0.00000000E+00
Coordinates of each shell                  R   N=          84
 -5.08907110E-22  1.18889096E+00 -1.46542124E-32 -5.08907110E-22  1.18889096E+00
 -1.46542124E-32 -5.08907110E-22  1.18889096E+00 -1.46542124E-32 -5.08907110E-22
  1.18889096E+00 -1.46542124E-32 -5.08907110E-22  1.18889096E+00 -1.46542124E-32
 -5.08907110E-22  1.18889096E+00 -1.46542124E-32 -1.45596133E-16 -1.18889096E+00
  4.39626373E-32 -1.45596133E-16 -1.18889096E+00  4.39626373E-32 -1.45596133E-16
 -1.18889096E+00  4.39626373E-32 -1.45596133E-16 -1.18889096E+00  4.39626373E-32
 -1.45596133E-16 -1.18889096E+00  4.39626373E-32 -1.45596133E-16 -1.18889096E+00
  4.39626373E-32  1.73928692E+00  2.29005138E+00 -2.82267354E-32  1.73928692E+00
  2.29005138E+00 -2.82267354E-32  1.73928692E+00  2.29005138E+00 -2.82267354E-32
  1.73928692E+00  2.29005138E+00 -2.82267354E-32 -1.73906771E+00  2.29017232E+00
 -2.82288803E-32 -1.73906771E+00  2.29017232E+00 -2.82288803E-32 -1.73906771E+00
  2.29017232E+00 -2.82288803E-32 -1.73906771E+00  2.29017232E+00 -2.82288803E-32
 -1.73928692E+00 -2.29005138E+00  8.46808604E-32 -1.73928692E+00 -2.29005138E+00
  8.46808604E-32 -1.73928692E+00 -2.29005138E+00  8.46808604E-32 -1.73928692E+00
 -2.29005138E+00  8.46808604E-32  1.73906771E+00 -2.29017232E+00  8.46859868E-32
  1.73906771E+00 -2.29017232E+00  8.46859868E-32  1.73906771E+00 -2.29017232E+00
  8.46859868E-32  1.73906771E+00 -2.29017232E+00  8.46859868E-32
Num ILSW                                   I              100
ILSW                                       I   N=         100
           1           0           0           0           2           0
           0           0           0           0        4336          -1
           7           0           0           0           2           0
           0           0           0           0           1           0
           1           0           0           0           0           0
           0           0      100000           0          -1           0
           0           0           0           0           0           0
           0           0           0           1           0           0
           0 -2000000000           1           0           0           0
           0           0           4          52           0           0
           0           0          55           0           0           0
           0           0           0           6           0           1
           0           0           0           0           0           0
           0           0           0           0           0           0
           0           0           0           0           0           0
           0           0           0           0           0           0
           0           0           0           0
Num RLSW                                   I               52
RLSW                                       R   N=          52
  1.00000000E+00  1.00000000E+00  1.00000000E+00  1.00000000E+00  5.40000000E-01
  0.00000000E+00  0.00000000E+00  1.00000000E+00  0.00000000E+00  0.00000000E+00
  0.00000000E+00  0.00000000E+00  1.00000000E+00  0.00000000E+00  0.00000000E+00
  0.00000000E+00  0.00000000E+00  1.00000000E+00  0.00000000E+00  0.00000000E+00
  0.00000000E+00  0.00000000E+00  1.00000000E+00  0.00000000E+00  0.00000000E+00
  0.00000000E+00  0.00000000E+00  1.00000000E+00  0.00000000E+00  0.00000000E+00
  0.00000000E+00  0.00000000E+00  1.00000000E+00  0.00000000E+00  0.00000000E+00
  0.00000000E+00  0.00000000E+00  0.00000000E+00  1.00000000E+00  1.00000000E+00
  0.00000000E+00  1.00000000E+00  0.00000000E+00  0.00000000E+00  0.00000000E+00
  0.00000000E+00  0.00000000E+00  0.00000000E+00  0.00000000E+00  0.00000000E+00
  0.00000000E+00  0.00000000E+00
MxBond                                     I                3
NBond                                      I   N=           6
           3           3           1           1           1           1
IBond                                      I   N=          18
           2           3           4           1           5           6
           1           0           0           1           0           0
           2           0           0           2           0           0
RBond                                      R   N=          18
  2.00000000E+00  1.00000000E+00  1.00000000E+00  2.00000000E+00  1.00000000E+00
  1.00000000E+00  1.00000000E+00  0.00000000E+00  0.00000000E+00  1.00000000E+00
  0.00000000E+00  0.00000000E+00  1.00000000E+00  0.00000000E+00  0.00000000E+00
  1.00000000E+00  0.00000000E+00  0.00000000E+00
Virial Ratio                               R      1.998001312248367E+00
SCF Energy                                 R     -7.815739798944490E+01
Total Energy                               R     -7.815739798944490E+01
S**2                                       R      7.526375505303111E-01
S**2 after annihilation                    R      7.500055789063339E-01
RMS Force                                  R      6.983238900856456E-02
RMS Density                                R      1.810526309230337E-09
Job Status                                 I                1
Nuclear derivative order                   I                1
External E-field                           R   N=          35
  0.00000000E+00  0.00000000E+00  0.00000000E+00  0.00000000E+00  0.00000000E+00
  0.00000000E+00  0.00000000E+00  0.00000000E+00  0.00000000E+00  0.00000000E+00
  0.00000000E+00  0.00000000E+00  0.00000000E+00  0.00000000E+00  0.00000000E+00
  0.00000000E+00  0.00000000E+00  0.00000000E+00  0.00000000E+00  0.00000000E+00
  0.00000000E+00  0.00000000E+00  0.00000000E+00  0.00000000E+00  0.00000000E+00
  0.00000000E+00  0.00000000E+00  0.00000000E+00  0.00000000E+00  0.00000000E+00
  0.00000000E+00  0.00000000E+00  0.00000000E+00  0.00000000E+00  0.00000000E+00
IOpCl                                      I                1
IROHF                                      I                0
Alpha Orbital Energies                     R   N=          68
 -1.08847107E+01 -1.08828396E+01 -1.23917431E+00 -9.69464712E-01 -8.69408688E-01
 -8.25346277E-01 -7.11509024E-01 -7.06289805E-01 -2.63738755E-01 -1.48137979E-01
 -1.34019169E-01 -1.24649303E-01 -1.02788610E-01 -7.96990318E-02 -6.64125603E-02
 -4.94659187E-02 -4.27935035E-02 -3.05472430E-02 -1.50839300E-03  2.95875619E-02
  1.15768802E-01  1.31459199E-01  2.13951099E-01  2.18316306E-01  2.61277283E-01
  2.95845164E-01  3.24827590E-01  3.78904392E-01  3.85654122E-01  4.62055051E-01
  4.93390585E-01  5.00307918E-01  5.71770993E-01  6.58632964E-01  7.20161060E-01
  8.40633001E-01  8.78741402E-01  1.08768675E+00  1.18916874E+00  1.21460342E+00
  1.34824963E+00  1.36450204E+00  1.38901485E+00  1.39574539E+00  1.50538828E+00
  1.52589971E+00  1.73407125E+00  1.80041949E+00  1.84692565E+00  1.89363825E+00
  1.90529495E+00  1.99090937E+00  2.07857892E+00  2.22205807E+00  2.30044420E+00
  2.32111988E+00  2.40771794E+00  2.44212756E+00  2.47126535E+00  2.54792193E+00
  2.60258050E+00  2.92556095E+00  3.28016385E+00  3.34883264E+00  3.58073528E+00
  3.74228523E+00  2.34300305E+01  2.42837925E+01
Beta Orbital Energies                      R   N=          68
 -1.08822152E+01 -1.08804956E+01 -1.19526839E+00 -9.50834500E-01 -8.55963597E-01
 -8.16257554E-01 -7.03521783E-01 -4.48905585E-01 -2.00154938E-01 -1.64858124E-01
 -1.33206089E-01 -1.24398132E-01 -1.09299490E-01 -8.91018943E-02 -6.69150198E-02
 -4.79053051E-02 -3.15978699E-02 -2.65426653E-02 -4.11767768E-03  3.09331273E-02
  1.20331399E-01  1.38313962E-01  2.05885926E-01  2.12643872E-01  2.74030941E-01
  2.76546962E-01  3.30117225E-01  3.83835132E-01  3.88095452E-01  4.71734971E-01
  5.04994086E-01  5.16431384E-01  5.40232823E-01  6.67360344E-01  7.56247917E-01
  8.74673353E-01  9.00211158E-01  1.13129528E+00  1.20306408E+00  1.22231971E+00
  1.37881529E+00  1.38841272E+00  1.40071131E+00  1.40206095E+00  1.52656104E+00
  1.54275227E+00  1.75394821E+00  1.81469541E+00  1.87784571E+00  1.91547346E+00
  1.92058448E+00  2.03461196E+00  2.10740974E+00  2.24642604E+00  2.31137989E+00
  2.32660099E+00  2.41301691E+00  2.48114164E+00  2.48347220E+00  2.57509015E+00
  2.64778946E+00  2.96022850E+00  3.31388317E+00  3.39344607E+00  3.62441757E+00
  3.79115973E+00  2.34401421E+01  2.43041188E+01
Alpha MO coefficients                      R   N=        4624
  3.98732471E-01  3.27932071E-01  4.21602094E-08 -1.00003793E-03  0.00000000E+00
  9.04839739E-03 -6.11174327E-07  1.86036192E-03  0.00000000E+00 -2.42380800E-03
 -4.77336538E-07  1.53964978E-04  0.00000000E+00 -6.31572809E-04  3.83904337E-07
 -7.83977297E-04  0.00000000E+00 -6.88607057E-04  0.00000000E+00  0.00000000E+00
  5.64743863E-04 -5.66533783E-07  3.98732471E-01  3.27932071E-01 -4.21602094E-08
  1.00003793E-03  0.00000000E+00  9.04839739E-03  6.11174327E-07 -1.86036192E-03
  0.00000000E+00 -2.42380800E-03  4.77336538E-07 -1.53964978E-04  0.00000000E+00
 -6.31572809E-04 -3.83904337E-07  7.83977297E-04  0.00000000E+00 -6.88607057E-04
  0.00000000E+00  0.00000000E+00  5.64743863E-04 -5.66533783E-07  1.87587267E-04
 -2.36150137E-03  1.63624786E-03  1.27314609E-03  6.67984111E-04  0.00000000E+00
  1.87423676E-04 -2.36318553E-03  1.63699096E-03 -1.27369304E-03  6.68480860E-04
  0.00000000E+00  1.87587267E-04 -2.36150137E-03  1.63624786E-03 -1.27314609E-03
 -6.67984111E-04  0.00000000E+00  1.87423676E-04 -2.36318553E-03  1.63699096E-03
  1.27369304E-03 -6.68480860E-04  0.00000000E+00  3.99009980E-01  3.27559971E-01
  3.34257080E-08  3.72088115E-04  0.00000000E+00  1.15951288E-02 -3.40073231E-07
 -6.66233240E-03  0.00000000E+00 -1.75669169E-03  4.11718293E-08  1.09743547E-03
  0.00000000E+00  2.63668378E-03  3.65919722E-08 -8.58886525E-04  0.00000000E+00
 -1.89974859E-03  0.00000000E+00  0.00000000E+00 -3.04007451E-03 -1.89933062E-07
 -3.99009980E-01 -3.27559971E-01  3.34257080E-08  3.72088115E-04  0.00000000E+00
 -1.15951288E-02 -3.40073231E-07 -6.66233240E-03  0.00000000E+00  1.75669169E-03
  4.11718293E-08  1.09743547E-03  0.00000000E+00 -2.63668378E-03  3.65919722E-08
 -8.58886525E-04  0.00000000E+00  1.89974859E-03  0.00000000E+00  0.00000000E+00
  3.04007451E-03  1.89933062E-07  4.85362064E-04 -6.89937536E-04  3.49771160E-04
  4.29827333E-04  7.91318472E-05  0.00000000E+00  4.85290063E-04 -6.90470124E-04
  3.50068449E-04 -4.30197656E-04  7.92602304E-05  0.00000000E+00 -4.85362064E-04
  6.89937536E-04 -3.49771160E-04  4.29827333E-04  7.91318472E-05  0.00000000E+00
 -4.85290063E-04  6.90470124E-04 -3.50068449E-04 -4.30197656E-04  7.92602304E-05
  0.00000000E+00 -8.93247728E-02 -1.44117624E-01 -1.58039814E-06 -7.46997188E-02
  0.00000000E+00  3.72899011E-01 -1.90492482E-06 -9.73442936E-02  0.00000000E+00
  1.74104683E-01 -2.74916952E-07 -2.26517529E-02  0.00000000E+00  2.68708335E-04
 -5.35485636E-07  1.17699323E-02  0.00000000E+00 -6.76651141E-03  0.00000000E+00
  0.00000000E+00 -1.49268857E-02 -1.18368736E-06 -8.93247728E-02 -1.44117624E-01
  1.58039814E-06  7.46997188E-02  0.00000000E+00  3.72899011E-01  1.90492482E-06
  9.73442936E-02  0.00000000E+00  1.74104683E-01  2.74916952E-07  2.26517529E-02
  0.00000000E+00  2.68708335E-04  5.35485636E-07 -1.17699323E-02  0.00000000E+00
 -6.76651141E-03  0.00000000E+00  0.00000000E+00 -1.49268857E-02 -1.18368736E-06
  4.20178486E-02  4.40941047E-02 -9.95227499E-03 -7.05170636E-03 -7.42027262E-03
  0.00000000E+00  4.20213503E-02  4.40962705E-02 -9.95381007E-03  7.05015043E-03
 -7.42113153E-03  0.00000000E+00  4.20178486E-02  4.40941047E-02 -9.95227499E-03
  7.05170636E-03  7.42027262E-03  0.00000000E+00  4.20213503E-02  4.40962705E-02
 -9.95381007E-03 -7.05015043E-03  7.42113153E-03  0.00000000E+00 -6.87470110E-02
 -1.13250433E-01 -1.62843969E-05  8.00698519E-02  0.00000000E+00  3.07707955E-01
 -2.13341039E-05  1.23552393E-01  0.00000000E+00  2.82396595E-01 -8.98518138E-06
  2.74239229E-02  0.00000000E+00 -1.12077747E-01 -2.98486892E-07  3.14030118E-02
  0.00000000E+00  3.01549830E-04  0.00000000E+00  0.00000000E+00  1.23963521E-02
 -4.49845782E-07  6.87470110E-02  1.13250433E-01 -1.62843969E-05  8.00698519E-02
  0.00000000E+00 -3.07707955E-01 -2.13341039E-05  1.23552393E-01  0.00000000E+00
 -2.82396595E-01 -8.98518138E-06  2.74239229E-02  0.00000000E+00  1.12077747E-01
 -2.98486892E-07  3.14030118E-02  0.00000000E+00 -3.01549830E-04  0.00000000E+00
  0.00000000E+00 -1.23963521E-02  4.49845782E-07  8.82109492E-02  1.05407131E-01
 -2.40868001E-03 -1.35971811E-02 -5.41848611E-03  0.00000000E+00  8.82382410E-02
  1.05436027E-01 -2.41133793E-03  1.35997027E-02 -5.42233586E-03  0.00000000E+00
 -8.82109492E-02 -1.05407131E-01  2.40868001E-03 -1.35971811E-02 -5.41848611E-03
  0.00000000E+00 -8.82382410E-02 -1.05436027E-01  2.41133793E-03  1.35997027E-02
 -5.42233586E-03  0.00000000E+00 -6.13034049E-06 -1.02658059E-05  1.64022037E-01
  4.62880927E-06  0.00000000E+00  2.84526757E-05  2.43195051E-01  1.24471410E-05
  0.00000000E+00  4.01773022E-05  1.33749698E-01 -1.15624937E-06  0.00000000E+00
  2.45881539E-06  4.49834658E-03 -3.39309702E-07  0.00000000E+00  1.07092775E-07
  0.00000000E+00  0.00000000E+00  3.19048293E-06 -1.13246593E-02  6.13034049E-06
  1.02658059E-05  1.64022037E-01  4.62880927E-06  0.00000000E+00 -2.84526757E-05
  2.43195051E-01  1.24471410E-05  0.00000000E+00 -4.01773022E-05  1.33749698E-01
 -1.15624937E-06  0.00000000E+00 -2.45881539E-06  4.49834658E-03 -3.39309702E-07
  0.00000000E+00 -1.07092775E-07  0.00000000E+00  0.00000000E+00 -3.19048293E-06
  1.13246593E-02  9.03882581E-02  1.13170512E-01 -6.86868833E-03 -9.72590357E-03
 -1.04222684E-02  0.00000000E+00 -9.03710408E-02 -1.13144611E-01  6.87084591E-03
 -9.72258748E-03  1.04229696E-02  0.00000000E+00 -9.03882581E-02 -1.13170512E-01
  6.86868833E-03 -9.72590357E-03 -1.04222684E-02  0.00000000E+00  9.03710408E-02
  1.13144611E-01 -6.87084591E-03 -9.72258748E-03  1.04229696E-02  0.00000000E+00
 -2.92724420E-03 -5.02936372E-03 -1.87853096E-05  2.00057754E-01  0.00000000E+00
  1.57358462E-02 -2.38106575E-05  2.79917706E-01  0.00000000E+00  8.98772488E-02
 -1.97949044E-05  1.22639410E-01  0.00000000E+00  2.89785666E-03 -6.17335272E-06
 -7.65801097E-03  0.00000000E+00  2.26502432E-03  0.00000000E+00  0.00000000E+00
  2.34473439E-02 -4.74527024E-06 -2.92724420E-03 -5.02936372E-03  1.87853096E-05
 -2.00057754E-01  0.00000000E+00  1.57358462E-02  2.38106575E-05 -2.79917706E-01
  0.00000000E+00  8.98772488E-02  1.97949044E-05 -1.22639410E-01  0.00000000E+00
  2.89785666E-03  6.17335272E-06  7.65801097E-03  0.00000000E+00  2.26502432E-03
  0.00000000E+00  0.00000000E+00  2.34473439E-02 -4.74527024E-06  8.03103708E-02
  1.07262089E-01  1.45944682E-02 -1.24708797E-02  1.40676826E-03  0.00000000E+00
  8.03481450E-02  1.07307499E-01  1.45895242E-02  1.24749432E-02  1.40244116E-03
  0.00000000E+00  8.03103708E-02  1.07262089E-01  1.45944682E-02  1.24708797E-02
 -1.40676826E-03  0.00000000E+00  8.03481450E-02  1.07307499E-01  1.45895242E-02
 -1.24749432E-02 -1.40244116E-03  0.00000000E+00  0.00000000E+00  0.00000000E+00
  0.00000000E+00  0.00000000E+00  1.91972408E-01  0.00000000E+00  0.00000000E+00
  0.00000000E+00  3.19287898E-01  0.00000000E+00  0.00000000E+00  0.00000000E+00
  2.09479295E-01  0.00000000E+00  0.00000000E+00  0.00000000E+00 -7.29684262E-03
  0.00000000E+00 -2.09319891E-07 -3.50870359E-02  0.00000000E+00  0.00000000E+00
  0.00000000E+00  0.00000000E+00  0.00000000E+00  0.00000000E+00  1.91972408E-01
  0.00000000E+00  0.00000000E+00  0.00000000E+00  3.19287898E-01  0.00000000E+00
  0.00000000E+00  0.00000000E+00  2.09479295E-01  0.00000000E+00  0.00000000E+00
  0.00000000E+00 -7.29684262E-03  0.00000000E+00  2.09319891E-07  3.50870359E-02
  0.00000000E+00  0.00000000E+00  0.00000000E+00  0.00000000E+00  0.00000000E+00
  0.00000000E+00  0.00000000E+00  9.16955757E-03  0.00000000E+00  0.00000000E+00
  0.00000000E+00  0.00000000E+00  0.00000000E+00  9.17035929E-03  0.00000000E+00
  0.00000000E+00  0.00000000E+00  0.00000000E+00  0.00000000E+00  9.16955757E-03
  0.00000000E+00  0.00000000E+00  0.00000000E+00  0.00000000E+00  0.00000000E+00
  9.17035929E-03  9.12965015E-07  1.43223426E-06  1.52875224E-01  2.24652222E-05
  0.00000000E+00 -4.96897930E-06  2.34442388E-01  3.35062138E-05  0.00000000E+00
  1.02179431E-05  2.03423907E-01  1.48075199E-05  0.00000000E+00  2.69514223E-07
  1.99794696E-02 -2.77421293E-06  0.00000000E+00  1.60991506E-07  0.00000000E+00
  0.00000000E+00  5.37334454E-06  3.61505551E-02  9.12965015E-07  1.43223426E-06
 -1.52875224E-01 -2.24652222E-05  0.00000000E+00 -4.96897930E-06 -2.34442388E-01
 -3.35062138E-05  0.00000000E+00  1.02179431E-05 -2.03423907E-01 -1.48075199E-05
  0.00000000E+00  2.69514223E-07 -1.99794696E-02  2.77421293E-06  0.00000000E+00
  1.60991506E-07  0.00000000E+00  0.00000000E+00  5.37334454E-06  3.61505551E-02
  1.16354764E-01  1.59984030E-01  2.50159050E-02 -4.86107202E-03 -8.80268809E-03
  0.00000000E+00 -1.16332340E-01 -1.59943458E-01 -2.50001703E-02 -4.85536788E-03
  8.80411724E-03  0.00000000E+00  1.16354764E-01  1.59984030E-01  2.50159050E-02
  4.86107202E-03  8.80268809E-03  0.00000000E+00 -1.16332340E-01 -1.59943458E-01
 -2.50001703E-02  4.85536788E-03 -8.80411724E-03  0.00000000E+00  0.00000000E+00
  0.00000000E+00  0.00000000E+00  0.00000000E+00  2.00008269E-01  0.00000000E+00
  0.00000000E+00  0.00000000E+00  3.40563105E-01  0.00000000E+00  0.00000000E+00
  0.00000000E+00  5.23452475E-01  0.00000000E+00  0.00000000E+00  0.00000000E+00
  2.14385771E-01  0.00000000E+00 -2.17814645E-07  2.91369164E-02  0.00000000E+00
  0.00000000E+00  0.00000000E+00  0.00000000E+00  0.00000000E+00  0.00000000E+00
 -2.00008269E-01  0.00000000E+00  0.00000000E+00  0.00000000E+00 -3.40563105E-01
  0.00000000E+00  0.00000000E+00  0.00000000E+00 -5.23452475E-01  0.00000000E+00
  0.00000000E+00  0.00000000E+00 -2.14385771E-01  0.00000000E+00 -2.17814645E-07
  2.91369164E-02  0.00000000E+00  0.00000000E+00  0.00000000E+00  0.00000000E+00
  0.00000000E+00  0.00000000E+00  0.00000000E+00  1.95539121E-02  0.00000000E+00
  0.00000000E+00  0.00000000E+00  0.00000000E+00  0.00000000E+00  1.95556674E-02
  0.00000000E+00  0.00000000E+00  0.00000000E+00  0.00000000E+00  0.00000000E+00
 -1.95539121E-02  0.00000000E+00  0.00000000E+00  0.00000000E+00  0.00000000E+00
  0.00000000E+00 -1.95556674E-02  2.87565207E-02  4.98771329E-02 -8.58112235E-06
 -4.92027462E-02  0.00000000E+00 -1.58064528E-01 -8.63827527E-06 -7.69571446E-02
  0.00000000E+00 -6.35124941E-01 -6.20369181E-05 -2.31523100E-01  0.00000000E+00
  8.51793435E-01 -7.06097665E-05  1.58889404E-01  0.00000000E+00  9.93617816E-03
  0.00000000E+00  0.00000000E+00  5.30890543E-03  2.04797010E-06  2.87565207E-02
  4.98771329E-02  8.58112235E-06  4.92027462E-02  0.00000000E+00 -1.58064528E-01
  8.63827527E-06  7.69571446E-02  0.00000000E+00 -6.35124941E-01  6.20369181E-05
  2.31523100E-01  0.00000000E+00  8.51793435E-01  7.06097665E-05 -1.58889404E-01
  0.00000000E+00  9.93617816E-03  0.00000000E+00  0.00000000E+00  5.30890543E-03
  2.04797010E-06 -4.95008733E-03  9.18384671E-02 -1.92632183E-02  8.73011239E-03
 -4.17884880E-04  0.00000000E+00 -4.95387760E-03  9.18383621E-02 -1.93703288E-02
 -8.72781807E-03 -4.18627967E-04  0.00000000E+00 -4.95008733E-03  9.18384671E-02
 -1.92632183E-02 -8.73011239E-03  4.17884880E-04  0.00000000E+00 -4.95387760E-03
  9.18383621E-02 -1.93703288E-02  8.72781807E-03  4.18627967E-04  0.00000000E+00
  6.88047719E-06  1.20146754E-05 -9.62958029E-02 -8.95787306E-06  0.00000000E+00
 -3.64686415E-05 -1.53983226E-01 -9.89429714E-06  0.00000000E+00 -1.19834564E-04
 -3.25774176E-01 -2.21517798E-05  0.00000000E+00 -4.25366053E-04  4.84406434E-01
  2.06035114E-04  0.00000000E+00 -1.39884170E-06  0.00000000E+00  0.00000000E+00
  8.36746113E-07  3.24770387E-02 -6.88047719E-06 -1.20146754E-05 -9.62958029E-02
 -8.95787306E-06  0.00000000E+00  3.64686415E-05 -1.53983226E-01 -9.89429714E-06
  0.00000000E+00  1.19834564E-04 -3.25774176E-01 -2.21517798E-05  0.00000000E+00
  4.25366053E-04  4.84406434E-01  2.06035114E-04  0.00000000E+00  1.39884170E-06
  0.00000000E+00  0.00000000E+00 -8.36746113E-07 -3.24770387E-02  2.09175342E-02
  1.36577601E-01  1.68993683E-01  1.17065359E-02  7.89228666E-03  0.00000000E+00
 -2.09052689E-02 -1.36523824E-01 -1.68933529E-01  1.17020811E-02 -7.88900618E-03
  0.00000000E+00 -2.09175342E-02 -1.36577601E-01 -1.68993683E-01  1.17065359E-02
  7.89228666E-03  0.00000000E+00  2.09052689E-02  1.36523824E-01  1.68933529E-01
  1.17020811E-02 -7.88900618E-03  0.00000000E+00 -3.09300987E-02 -5.41089075E-02
 -1.35428126E-05  2.65580119E-02  0.00000000E+00  1.70047575E-01 -2.42594811E-05
  3.23664412E-02  0.00000000E+00  5.84218959E-01 -4.01507523E-05  4.91659981E-02
  0.00000000E+00  5.80257454E+00  1.06930126E-04 -2.10414371E+00  0.00000000E+00
  6.11376962E-03  0.00000000E+00  0.00000000E+00  9.39375012E-03  3.06881674E-06
  3.09300987E-02  5.41089075E-02 -1.35428126E-05  2.65580119E-02  0.00000000E+00
 -1.70047575E-01 -2.42594811E-05  3.23664412E-02  0.00000000E+00 -5.84218959E-01
 -4.01507523E-05  4.91659981E-02  0.00000000E+00 -5.80257454E+00  1.06930126E-04
 -2.10414371E+00  0.00000000E+00 -6.11376962E-03  0.00000000E+00  0.00000000E+00