 Entering Gaussian System, Link 0=g16
 Initial command:
 /home/szhao/Apps/g16/l1.exe "/home/szhao/tmp/Gau-139504.inp" -scrdir="/home/szhao/tmp/"
 Default is to use a total of  16 processors:
                               16 via shared-memory
                                1 via Linda
 Entering Link 1 = /home/szhao/Apps/g16/l1.exe PID=    139505.
  
 Copyright (c) 1988,1990,1992,1993,1995,1998,2003,2009,2016,
            Gaussian, Inc.  All Rights Reserved.
  
 This is part of the Gaussian(R) 16 program.  It is based on
 the Gaussian(R) 09 system (copyright 2009, Gaussian, Inc.),
 the Gaussian(R) 03 system (copyright 2003, Gaussian, Inc.),
 the Gaussian(R) 98 system (copyright 1998, Gaussian, Inc.),
 the Gaussian(R) 94 system (copyright 1995, Gaussian, Inc.),
 the Gaussian 92(TM) system (copyright 1992, Gaussian, Inc.),
 the Gaussian 90(TM) system (copyright 1990, Gaussian, Inc.),
 the Gaussian 88(TM) system (copyright 1988, Gaussian, Inc.),
 the Gaussian 86(TM) system (copyright 1986, Carnegie Mellon
 University), and the Gaussian 82(TM) system (copyright 1983,
 Carnegie Mellon University). Gaussian is a federally registered
 trademark of Gaussian, Inc.
  
 This software contains proprietary and confidential information,
 including trade secrets, belonging to Gaussian, Inc.
  
 This software is provided under written license and may be
 used, copied, transmitted, or stored only in accord with that
 written license.
  
 The following legend is applicable only to US Government
 contracts under FAR:
  
                    RESTRICTED RIGHTS LEGEND
  
 Use, reproduction and disclosure by the US Government is
 subject to restrictions as set forth in subparagraphs (a)
 and (c) of the Commercial Computer Software - Restricted
 Rights clause in FAR 52.227-19.
  
 Gaussian, Inc.
 340 Quinnipiac St., Bldg. 40, Wallingford CT 06492
  
  
 ---------------------------------------------------------------
 Warning -- This program may not be used in any manner that
 competes with the business of Gaussian, Inc. or will provide
 assistance to any competitor of Gaussian, Inc.  The licensee
 of this program is prohibited from giving any competitor of
 Gaussian, Inc. access to this program.  By using this program,
 the user acknowledges that Gaussian, Inc. is engaged in the
 business of creating and licensing software in the field of
 computational chemistry and represents and warrants to the
 licensee that it is not a competitor of Gaussian, Inc. and that
 it will not use this program in any manner prohibited above.
 ---------------------------------------------------------------
  

 Cite this work as:
 Gaussian 16, Revision A.03,
 M. J. Frisch, G. W. Trucks, H. B. Schlegel, G. E. Scuseria, 
 M. A. Robb, J. R. Cheeseman, G. Scalmani, V. Barone, 
 G. A. Petersson, H. Nakatsuji, X. Li, M. Caricato, A. V. Marenich, 
 J. Bloino, B. G. Janesko, R. Gomperts, B. Mennucci, H. P. Hratchian, 
 J. V. Ortiz, A. F. Izmaylov, J. L. Sonnenberg, D. Williams-Young, 
 F. Ding, F. Lipparini, F. Egidi, J. Goings, B. Peng, A. Petrone, 
 T. Henderson, D. Ranasinghe, V. G. Zakrzewski, J. Gao, N. Rega, 
 G. Zheng, W. Liang, M. Hada, M. Ehara, K. Toyota, R. Fukuda, 
 J. Hasegawa, M. Ishida, T. Nakajima, Y. Honda, O. Kitao, H. Nakai, 
 T. Vreven, K. Throssell, J. A. Montgomery, Jr., J. E. Peralta, 
 F. Ogliaro, M. J. Bearpark, J. J. Heyd, E. N. Brothers, K. N. Kudin, 
 V. N. Staroverov, T. A. Keith, R. Kobayashi, J. Normand, 
 K. Raghavachari, A. P. Rendell, J. C. Burant, S. S. Iyengar, 
 J. Tomasi, M. Cossi, J. M. Millam, M. Klene, C. Adamo, R. Cammi, 
 J. W. Ochterski, R. L. Martin, K. Morokuma, O. Farkas, 
 J. B. Foresman, and D. J. Fox, Gaussian, Inc., Wallingford CT, 2016.
 
 ******************************************
 Gaussian 16:  ES64L-G16RevA.03 25-Dec-2016
                21-Apr-2025 
 ******************************************
 %chk=opt.chk
 %mem=4GB
 %nprocshared=8
 Will use up to    8 processors via shared memory.
 --------------------------------------------
 #p opt UM062X/6-311+G** nosymm int=superfine
 --------------------------------------------
 1/18=20,19=15,26=5,38=1/1,3;
 2/9=110,12=2,15=1,17=6,18=5,40=1/2;
 3/5=4,6=6,7=111,11=2,25=1,30=1,71=1,74=-55,75=-7,116=2/1,2,3;
 4//1;
 5/5=2,38=5/2;
 6/7=2,8=2,9=2,10=2,28=1/1;
 7/30=1/1,2,3,16;
 1/18=20,19=15,26=5/3(2);
 2/9=110,15=1/2;
 99//99;
 2/9=110,15=1/2;
 3/5=4,6=6,7=111,11=2,25=1,30=1,71=1,74=-55,75=-7,116=2/1,2,3;
 4/5=5,16=3,69=1/1;
 5/5=2,38=5/2;
 7/30=1/1,2,3,16;
 1/18=20,19=15,26=5/3(-5);
 2/9=110,15=1/2;
 6/7=2,8=2,9=2,10=2,19=2,28=1/1;
 99/9=1/99;
 Leave Link    1 at Mon Apr 21 17:27:11 2025, MaxMem=   536870912 cpu:               1.0 elap:               0.1
 (Enter /home/szhao/Apps/g16/l101.exe)
 -------------------
 Title Card Required
 -------------------
 Symbolic Z-matrix:
 Charge =  0 Multiplicity = 3
 B                    -1   -0.85341   0.        0. 
 B                    -1    0.85341   0.        0. 
 H                    0    -2.02595  -0.00008   0. 
 H                    0     2.02595   0.00008   0. 
 
 ITRead=  2  2  0  0
 MicOpt= -2 -2 -1 -1
 NAtoms=      4 NQM=        2 NQMF=       2 NMMI=      0 NMMIF=      0
                NMic=       0 NMicF=      0.
                    Isotopes and Nuclear Properties:
 (Nuclear quadrupole moments (NQMom) in fm**2, nuclear magnetic moments (NMagM)
  in nuclear magnetons)

  Atom         1           2           3           4
 IAtWgt=          11          11           1           1
 AtmWgt=  11.0093053  11.0093053   1.0078250   1.0078250
 NucSpn=           3           3           1           1
 AtZEff=  -0.0000000  -0.0000000  -0.0000000  -0.0000000
 NQMom=    4.0590000   4.0590000   0.0000000   0.0000000
 NMagM=    2.6886370   2.6886370   2.7928460   2.7928460
 AtZNuc=   5.0000000   5.0000000   1.0000000   1.0000000
 Leave Link  101 at Mon Apr 21 17:27:11 2025, MaxMem=   536870912 cpu:               3.4 elap:               0.5
 (Enter /home/szhao/Apps/g16/l103.exe)

 GradGradGradGradGradGradGradGradGradGradGradGradGradGradGradGradGradGrad
 Berny optimization.
 Initialization pass.
                           ----------------------------
                           !    Initial Parameters    !
                           ! (Angstroms and Degrees)  !
 --------------------------                            --------------------------
 ! Name  Definition              Value          Derivative Info.                !
 --------------------------------------------------------------------------------
 ! X1    R(1,-1)                -0.8534         Frozen                          !
 ! Y1    R(1,-2)                 0.0            Frozen                          !
 ! Z1    R(1,-3)                 0.0            Frozen                          !
 ! X2    R(2,-1)                 0.8534         Frozen                          !
 ! Y2    R(2,-2)                 0.0            Frozen                          !
 ! Z2    R(2,-3)                 0.0            Frozen                          !
 ! R1    R(1,3)                  1.1725         estimate D2E/DX2                !
 ! R2    R(2,4)                  1.1725         estimate D2E/DX2                !
 ! A1    L(2,1,3,-3,-1)        179.9961         estimate D2E/DX2                !
 ! A2    L(1,2,4,-3,-1)        179.9961         estimate D2E/DX2                !
 ! A3    L(2,1,3,-2,-2)        180.0            estimate D2E/DX2                !
 ! A4    L(1,2,4,-2,-2)        180.0            estimate D2E/DX2                !
 --------------------------------------------------------------------------------
 Trust Radius=3.00D-01 FncErr=1.00D-07 GrdErr=1.00D-07 EigMax=2.50D+02 EigMin=1.00D-04
 Number of steps in this run=     22 maximum allowed number of steps=    100.
 GradGradGradGradGradGradGradGradGradGradGradGradGradGradGradGradGradGrad

 Leave Link  103 at Mon Apr 21 17:27:12 2025, MaxMem=   536870912 cpu:               0.2 elap:               0.1
 (Enter /home/szhao/Apps/g16/l202.exe)
                          Input orientation:                          
 ---------------------------------------------------------------------
 Center     Atomic      Atomic             Coordinates (Angstroms)
 Number     Number       Type             X           Y           Z
 ---------------------------------------------------------------------
      1          5           0       -0.853410    0.000000    0.000000
      2          5           0        0.853410    0.000000    0.000000
      3          1           0       -2.025953   -0.000080    0.000000
      4          1           0        2.025953    0.000080    0.000000
 ---------------------------------------------------------------------
                    Distance matrix (angstroms):
                    1          2          3          4
     1  B    0.000000
     2  B    1.706821   0.000000
     3  H    1.172542   2.879363   0.000000
     4  H    2.879363   1.172542   4.051906   0.000000
 Symmetry turned off by external request.
 Stoichiometry    B2H2(3)
 Framework group  C*V[C*(HBBH)]
 Deg. of freedom     3
 Full point group                 C*V     NOp   4
 Rotational constants (GHZ):           0.0000000          20.7893058          20.7893058
 Leave Link  202 at Mon Apr 21 17:27:12 2025, MaxMem=   536870912 cpu:               0.1 elap:               0.1
 (Enter /home/szhao/Apps/g16/l301.exe)
 Standard basis: 6-311+G(d,p) (5D, 7F)
 Ernie: Thresh=  0.10000D-02 Tol=  0.10000D-05 Strict=F.
    56 basis functions,    88 primitive gaussians,    58 cartesian basis functions
     7 alpha electrons        5 beta electrons
       nuclear repulsion energy        14.2324211515 Hartrees.
 IExCor= 4336 DFT=T Ex+Corr=M062X ExCW=0 ScaHFX=  0.540000
 ScaDFX=  1.000000  1.000000  1.000000  1.000000 ScalE2=  1.000000  1.000000
 IRadAn=      7 IRanWt=     -1 IRanGd=            0 ICorTp=0 IEmpDi=  4
 NAtoms=    4 NActive=    4 NUniq=    4 SFac= 1.00D+00 NAtFMM=   60 NAOKFM=F Big=F
 Integral buffers will be    131072 words long.
 Raffenetti 2 integral format.
 Two-electron integral symmetry is turned off.
 Leave Link  301 at Mon Apr 21 17:27:12 2025, MaxMem=   536870912 cpu:               0.5 elap:               0.1
 (Enter /home/szhao/Apps/g16/l302.exe)
 NPDir=0 NMtPBC=     1 NCelOv=     1 NCel=       1 NClECP=     1 NCelD=      1
         NCelK=      1 NCelE2=     1 NClLst=     1 CellRange=     0.0.
 One-electron integrals computed using PRISM.
 NBasis=    56 RedAO= T EigKep=  2.57D-04  NBF=    56
 NBsUse=    56 1.00D-06 EigRej= -1.00D+00 NBFU=    56
 Precomputing XC quadrature grid using
 IXCGrd= 4 IRadAn=           7 IRanWt=          -1 IRanGd=           0 AccXCQ= 0.00D+00.
 Generated NRdTot=       0 NPtTot=           0 NUsed=           0 NTot=          32
 NSgBfM=    58    58    58    58    58 MxSgAt=     4 MxSgA2=     4.
 Leave Link  302 at Mon Apr 21 17:27:12 2025, MaxMem=   536870912 cpu:               2.1 elap:               0.3
 (Enter /home/szhao/Apps/g16/l303.exe)
 DipDrv:  MaxL=1.
 Leave Link  303 at Mon Apr 21 17:27:13 2025, MaxMem=   536870912 cpu:               0.4 elap:               0.1
 (Enter /home/szhao/Apps/g16/l401.exe)
 ExpMin= 3.15D-02 ExpMax= 2.86D+03 ExpMxC= 4.28D+02 IAcc=3 IRadAn=         7 AccDes= 0.00D+00
 Harris functional with IExCor= 1009 and IRadAn=       7 diagonalized for initial guess.
 HarFok:  IExCor= 1009 AccDes= 0.00D+00 IRadAn=         7 IDoV= 1 UseB2=F ITyADJ=14
 ICtDFT=  3500011 ScaDFX=  1.000000  1.000000  1.000000  1.000000
 FoFCou: FMM=F IPFlag=           0 FMFlag=      100000 FMFlg1=           0
         NFxFlg=           0 DoJE=T BraDBF=F KetDBF=T FulRan=T
         wScrn=  0.000000 ICntrl=       500 IOpCl=  0 I1Cent=   200000004 NGrid=           0
         NMat0=    1 NMatS0=      1 NMatT0=    0 NMatD0=    1 NMtDS0=    0 NMtDT0=    0
 Symmetry not used in FoFCou.
 Harris En= -50.6525534445381    
 JPrj=0 DoOrth=F DoCkMO=F.
 Initial guess <Sx>= 0.0000 <Sy>= 0.0000 <Sz>= 1.0000 <S**2>= 2.0000 S= 1.0000
 Leave Link  401 at Mon Apr 21 17:27:13 2025, MaxMem=   536870912 cpu:               2.2 elap:               0.3
 (Enter /home/szhao/Apps/g16/l502.exe)
 Keep R1 and R2 ints in memory in canonical form, NReq=9624198.
 FoFCou: FMM=F IPFlag=           0 FMFlag=           0 FMFlg1=           0
         NFxFlg=           0 DoJE=F BraDBF=F KetDBF=F FulRan=T
         wScrn=  0.000000 ICntrl=       600 IOpCl=  0 I1Cent=           0 NGrid=           0
         NMat0=    1 NMatS0=   1596 NMatT0=    0 NMatD0=    1 NMtDS0=    0 NMtDT0=    0
 Symmetry not used in FoFCou.
 Two-electron integral symmetry not used.
 UHF open shell SCF:
 Using DIIS extrapolation, IDIIS=  1040.
 NGot=   536870912 LenX=   534314338 LenY=   534310533
 Requested convergence on RMS density matrix=1.00D-08 within 128 cycles.
 Requested convergence on MAX density matrix=1.00D-06.
 Requested convergence on             energy=1.00D-06.
 No special actions if energy rises.

 Cycle   1  Pass 1  IDiag  1:
 E= -50.7188087953162    
 DIIS: error= 2.37D-02 at cycle   1 NSaved=   1.
 NSaved= 1 IEnMin= 1 EnMin= -50.7188087953162     IErMin= 1 ErrMin= 2.37D-02
 ErrMax= 2.37D-02  0.00D+00 EMaxC= 1.00D-01 BMatC= 6.13D-02 BMatP= 6.13D-02
 IDIUse=3 WtCom= 7.63D-01 WtEn= 2.37D-01
 Coeff-Com:  0.100D+01
 Coeff-En:   0.100D+01
 Coeff:      0.100D+01
 Gap=     0.268 Goal=   None    Shift=    0.000
 Gap=     0.376 Goal=   None    Shift=    0.000
 GapD=    0.268 DampG=1.000 DampE=0.500 DampFc=0.5000 IDamp=-1.
 Damping current iteration by 5.00D-01
 RMSDP=2.63D-03 MaxDP=5.94D-02              OVMax= 5.83D-02

 Cycle   2  Pass 1  IDiag  1:
 E= -50.7268271652360     Delta-E=       -0.008018369920 Rises=F Damp=T
 DIIS: error= 1.05D-02 at cycle   2 NSaved=   2.
 NSaved= 2 IEnMin= 2 EnMin= -50.7268271652360     IErMin= 2 ErrMin= 1.05D-02
 ErrMax= 1.05D-02  0.00D+00 EMaxC= 1.00D-01 BMatC= 1.27D-02 BMatP= 6.13D-02
 IDIUse=3 WtCom= 8.95D-01 WtEn= 1.05D-01
 Coeff-Com: -0.739D+00 0.174D+01
 Coeff-En:   0.000D+00 0.100D+01
 Coeff:     -0.662D+00 0.166D+01
 Gap=     0.266 Goal=   None    Shift=    0.000
 Gap=     0.356 Goal=   None    Shift=    0.000
 RMSDP=1.17D-03 MaxDP=1.50D-02 DE=-8.02D-03 OVMax= 1.71D-02

 Cycle   3  Pass 1  IDiag  1:
 E= -50.7342147349436     Delta-E=       -0.007387569708 Rises=F Damp=F
 DIIS: error= 1.69D-03 at cycle   3 NSaved=   3.
 NSaved= 3 IEnMin= 3 EnMin= -50.7342147349436     IErMin= 3 ErrMin= 1.69D-03
 ErrMax= 1.69D-03  0.00D+00 EMaxC= 1.00D-01 BMatC= 1.79D-04 BMatP= 1.27D-02
 IDIUse=3 WtCom= 9.83D-01 WtEn= 1.69D-02
 Coeff-Com: -0.139D+00 0.272D+00 0.866D+00
 Coeff-En:   0.000D+00 0.000D+00 0.100D+01
 Coeff:     -0.136D+00 0.268D+00 0.869D+00
 Gap=     0.262 Goal=   None    Shift=    0.000
 Gap=     0.354 Goal=   None    Shift=    0.000
 RMSDP=1.56D-04 MaxDP=3.73D-03 DE=-7.39D-03 OVMax= 5.27D-03

 Cycle   4  Pass 1  IDiag  1:
 E= -50.7342914128443     Delta-E=       -0.000076677901 Rises=F Damp=F
 DIIS: error= 4.48D-04 at cycle   4 NSaved=   4.
 NSaved= 4 IEnMin= 4 EnMin= -50.7342914128443     IErMin= 4 ErrMin= 4.48D-04
 ErrMax= 4.48D-04  0.00D+00 EMaxC= 1.00D-01 BMatC= 1.19D-05 BMatP= 1.79D-04
 IDIUse=3 WtCom= 9.96D-01 WtEn= 4.48D-03
 Coeff-Com:  0.474D-01-0.104D+00-0.122D+00 0.118D+01
 Coeff-En:   0.000D+00 0.000D+00 0.000D+00 0.100D+01
 Coeff:      0.472D-01-0.103D+00-0.121D+00 0.118D+01
 Gap=     0.263 Goal=   None    Shift=    0.000
 Gap=     0.354 Goal=   None    Shift=    0.000
 RMSDP=6.26D-05 MaxDP=9.14D-04 DE=-7.67D-05 OVMax= 1.78D-03

 Cycle   5  Pass 1  IDiag  1:
 E= -50.7343003600005     Delta-E=       -0.000008947156 Rises=F Damp=F
 DIIS: error= 1.62D-04 at cycle   5 NSaved=   5.
 NSaved= 5 IEnMin= 5 EnMin= -50.7343003600005     IErMin= 5 ErrMin= 1.62D-04
 ErrMax= 1.62D-04  0.00D+00 EMaxC= 1.00D-01 BMatC= 1.17D-06 BMatP= 1.19D-05
 IDIUse=3 WtCom= 9.98D-01 WtEn= 1.62D-03
 Coeff-Com: -0.865D-03 0.461D-02-0.459D-01-0.270D+00 0.131D+01
 Coeff-En:   0.000D+00 0.000D+00 0.000D+00 0.000D+00 0.100D+01
 Coeff:     -0.864D-03 0.460D-02-0.459D-01-0.269D+00 0.131D+01
 Gap=     0.263 Goal=   None    Shift=    0.000
 Gap=     0.354 Goal=   None    Shift=    0.000
 RMSDP=2.47D-05 MaxDP=3.76D-04 DE=-8.95D-06 OVMax= 7.63D-04

 Cycle   6  Pass 1  IDiag  1:
 E= -50.7343012536173     Delta-E=       -0.000000893617 Rises=F Damp=F
 DIIS: error= 1.87D-05 at cycle   6 NSaved=   6.
 NSaved= 6 IEnMin= 6 EnMin= -50.7343012536173     IErMin= 6 ErrMin= 1.87D-05
 ErrMax= 1.87D-05  0.00D+00 EMaxC= 1.00D-01 BMatC= 1.97D-08 BMatP= 1.17D-06
 IDIUse=1 WtCom= 1.00D+00 WtEn= 0.00D+00
 Coeff-Com: -0.190D-02 0.406D-02 0.773D-02-0.225D-01-0.106D+00 0.112D+01
 Coeff:     -0.190D-02 0.406D-02 0.773D-02-0.225D-01-0.106D+00 0.112D+01
 Gap=     0.263 Goal=   None    Shift=    0.000
 Gap=     0.354 Goal=   None    Shift=    0.000
 RMSDP=3.24D-06 MaxDP=3.95D-05 DE=-8.94D-07 OVMax= 7.35D-05

 Cycle   7  Pass 1  IDiag  1:
 E= -50.7343012670211     Delta-E=       -0.000000013404 Rises=F Damp=F
 DIIS: error= 4.49D-06 at cycle   7 NSaved=   7.
 NSaved= 7 IEnMin= 7 EnMin= -50.7343012670211     IErMin= 7 ErrMin= 4.49D-06
 ErrMax= 4.49D-06  0.00D+00 EMaxC= 1.00D-01 BMatC= 4.13D-10 BMatP= 1.97D-08
 IDIUse=1 WtCom= 1.00D+00 WtEn= 0.00D+00
 Coeff-Com:  0.249D-03-0.568D-03-0.422D-03 0.899D-02-0.111D-01-0.175D+00
 Coeff-Com:  0.118D+01
 Coeff:      0.249D-03-0.568D-03-0.422D-03 0.899D-02-0.111D-01-0.175D+00
 Coeff:      0.118D+01
 Gap=     0.263 Goal=   None    Shift=    0.000
 Gap=     0.354 Goal=   None    Shift=    0.000
 RMSDP=4.07D-07 MaxDP=4.33D-06 DE=-1.34D-08 OVMax= 1.73D-05

 Cycle   8  Pass 1  IDiag  1:
 E= -50.7343012673166     Delta-E=       -0.000000000296 Rises=F Damp=F
 DIIS: error= 4.78D-07 at cycle   8 NSaved=   8.
 NSaved= 8 IEnMin= 8 EnMin= -50.7343012673166     IErMin= 8 ErrMin= 4.78D-07
 ErrMax= 4.78D-07  0.00D+00 EMaxC= 1.00D-01 BMatC= 6.61D-12 BMatP= 4.13D-10
 IDIUse=1 WtCom= 1.00D+00 WtEn= 0.00D+00
 Coeff-Com: -0.905D-05 0.212D-04 0.110D-04-0.632D-03 0.235D-02 0.108D-02
 Coeff-Com: -0.135D+00 0.113D+01
 Coeff:     -0.905D-05 0.212D-04 0.110D-04-0.632D-03 0.235D-02 0.108D-02
 Coeff:     -0.135D+00 0.113D+01
 Gap=     0.263 Goal=   None    Shift=    0.000
 Gap=     0.354 Goal=   None    Shift=    0.000
 RMSDP=8.44D-08 MaxDP=1.44D-06 DE=-2.96D-10 OVMax= 2.16D-06

 Cycle   9  Pass 1  IDiag  1:
 E= -50.7343012673217     Delta-E=       -0.000000000005 Rises=F Damp=F
 DIIS: error= 6.06D-08 at cycle   9 NSaved=   9.
 NSaved= 9 IEnMin= 9 EnMin= -50.7343012673217     IErMin= 9 ErrMin= 6.06D-08
 ErrMax= 6.06D-08  0.00D+00 EMaxC= 1.00D-01 BMatC= 1.32D-13 BMatP= 6.61D-12
 IDIUse=1 WtCom= 1.00D+00 WtEn= 0.00D+00
 Coeff-Com: -0.498D-05 0.102D-04 0.941D-05-0.109D-03-0.120D-03 0.231D-02
 Coeff-Com:  0.951D-03-0.155D+00 0.115D+01
 Coeff:     -0.498D-05 0.102D-04 0.941D-05-0.109D-03-0.120D-03 0.231D-02
 Coeff:      0.951D-03-0.155D+00 0.115D+01
 Gap=     0.263 Goal=   None    Shift=    0.000
 Gap=     0.354 Goal=   None    Shift=    0.000
 RMSDP=1.35D-08 MaxDP=1.91D-07 DE=-5.04D-12 OVMax= 3.02D-07

 Cycle  10  Pass 1  IDiag  1:
 E= -50.7343012673217     Delta-E=       -0.000000000000 Rises=F Damp=F
 DIIS: error= 4.01D-09 at cycle  10 NSaved=  10.
 NSaved=10 IEnMin=10 EnMin= -50.7343012673217     IErMin=10 ErrMin= 4.01D-09
 ErrMax= 4.01D-09  0.00D+00 EMaxC= 1.00D-01 BMatC= 1.90D-15 BMatP= 1.32D-13
 IDIUse=1 WtCom= 1.00D+00 WtEn= 0.00D+00
 Coeff-Com:  0.548D-06-0.113D-05-0.498D-06 0.166D-04 0.539D-05-0.353D-03
 Coeff-Com:  0.808D-03 0.124D-01-0.200D+00 0.119D+01
 Coeff:      0.548D-06-0.113D-05-0.498D-06 0.166D-04 0.539D-05-0.353D-03
 Coeff:      0.808D-03 0.124D-01-0.200D+00 0.119D+01
 Gap=     0.263 Goal=   None    Shift=    0.000
 Gap=     0.354 Goal=   None    Shift=    0.000
 RMSDP=2.20D-09 MaxDP=3.06D-08 DE=-4.26D-14 OVMax= 2.96D-08

 SCF Done:  E(UM062X) =  -50.7343012673     A.U. after   10 cycles
            NFock= 10  Conv=0.22D-08     -V/T= 2.0107
 <Sx>= 0.0000 <Sy>= 0.0000 <Sz>= 1.0000 <S**2>= 2.0062 S= 1.0021
 <L.S>=  0.00000000000    
 KE= 5.019602391962D+01 PE=-1.447673474070D+02 EE= 2.960460106856D+01
 Annihilation of the first spin contaminant:
 S**2 before annihilation     2.0062,   after     2.0000
 Leave Link  502 at Mon Apr 21 17:27:17 2025, MaxMem=   536870912 cpu:              29.1 elap:               3.8
 (Enter /home/szhao/Apps/g16/l601.exe)
 Copying SCF densities to generalized density rwf, IOpCl= 1 IROHF=0.

 **********************************************************************

            Population analysis using the SCF density.

 **********************************************************************

 Alpha  occ. eigenvalues --   -7.08946  -7.08892  -0.60432  -0.53335  -0.43737
 Alpha  occ. eigenvalues --   -0.26117  -0.26117
 Alpha virt. eigenvalues --    0.00142   0.00142   0.02442   0.02476   0.05639
 Alpha virt. eigenvalues --    0.05639   0.07130   0.08353   0.08353   0.09894
 Alpha virt. eigenvalues --    0.14427   0.22654   0.30241   0.35611   0.39278
 Alpha virt. eigenvalues --    0.39278   0.44455   0.44455   0.48434   0.48659
 Alpha virt. eigenvalues --    0.63387   0.68100   0.72421   0.72421   0.75016
 Alpha virt. eigenvalues --    0.75016   0.76522   0.94405   0.94406   1.13029
 Alpha virt. eigenvalues --    1.13029   1.29287   1.52795   1.61314   1.61314
 Alpha virt. eigenvalues --    1.84651   1.84651   1.86502   1.86502   1.97129
 Alpha virt. eigenvalues --    1.98858   1.98858   2.23513   2.49288   2.61925
 Alpha virt. eigenvalues --    2.64499   2.73600  14.18499  15.14700
  Beta  occ. eigenvalues --   -7.08713  -7.08639  -0.55048  -0.51506  -0.42619
  Beta virt. eigenvalues --   -0.07186  -0.07186   0.00970   0.02742   0.02742
  Beta virt. eigenvalues --    0.03032   0.05272   0.09021   0.09021   0.09283
  Beta virt. eigenvalues --    0.13218   0.13218   0.16897   0.23908   0.32882
  Beta virt. eigenvalues --    0.37156   0.39881   0.39881   0.43249   0.43314
  Beta virt. eigenvalues --    0.43314   0.48364   0.66412   0.67001   0.80437
  Beta virt. eigenvalues --    0.82168   0.82168   0.82437   0.82437   1.00099
  Beta virt. eigenvalues --    1.00099   1.16235   1.16235   1.33244   1.65663
  Beta virt. eigenvalues --    1.65663   1.78103   1.87828   1.87828   1.89027
  Beta virt. eigenvalues --    1.89027   2.01474   2.01474   2.02412   2.26202
  Beta virt. eigenvalues --    2.54570   2.67600   2.67665   2.83089  14.20232
  Beta virt. eigenvalues --   15.23536
          Condensed to atoms (all electrons):
               1          2          3          4
     1  B    3.954639   0.711388   0.386926   0.016001
     2  B    0.711388   3.954639   0.016001   0.386926
     3  H    0.386926   0.016001   0.528118   0.000001
     4  H    0.016001   0.386926   0.000001   0.528118
          Atomic-Atomic Spin Densities.
               1          2          3          4
     1  B    0.780383   0.265732  -0.014891   0.002826
     2  B    0.265732   0.780383   0.002826  -0.014891
     3  H   -0.014891   0.002826  -0.022216   0.000231
     4  H    0.002826  -0.014891   0.000231  -0.022216
 Mulliken charges and spin densities:
               1          2
     1  B   -0.068955   1.034050
     2  B   -0.068955   1.034050
     3  H    0.068955  -0.034050
     4  H    0.068955  -0.034050
 Sum of Mulliken charges =  -0.00000   2.00000
 Mulliken charges and spin densities with hydrogens summed into heavy atoms:
               1          2
     1  B    0.000000   1.000000
     2  B   -0.000000   1.000000
 Electronic spatial extent (au):  <R**2>=             86.3014
 Charge=             -0.0000 electrons
 Dipole moment (field-independent basis, Debye):
    X=             -0.0000    Y=              0.0000    Z=              0.0000  Tot=              0.0000
 Quadrupole moment (field-independent basis, Debye-Ang):
   XX=            -12.0184   YY=            -14.8242   ZZ=            -14.8242
   XY=              0.0001   XZ=              0.0000   YZ=             -0.0000
 Traceless Quadrupole moment (field-independent basis, Debye-Ang):
   XX=              1.8705   YY=             -0.9353   ZZ=             -0.9353
   XY=              0.0001   XZ=              0.0000   YZ=             -0.0000
 Octapole moment (field-independent basis, Debye-Ang**2):
  XXX=             -0.0000  YYY=              0.0000  ZZZ=              0.0000  XYY=             -0.0000
  XXY=              0.0000  XXZ=             -0.0000  XZZ=             -0.0000  YZZ=              0.0000
  YYZ=              0.0000  XYZ=             -0.0000
 Hexadecapole moment (field-independent basis, Debye-Ang**3):
 XXXX=           -104.0573 YYYY=            -24.7872 ZZZZ=            -24.7872 XXXY=             -0.0002
 XXXZ=              0.0000 YYYX=             -0.0008 YYYZ=              0.0000 ZZZX=             -0.0000
 ZZZY=              0.0000 XXYY=            -23.4957 XXZZ=            -23.4957 YYZZ=             -8.2624
 XXYZ=              0.0000 YYXZ=             -0.0000 ZZXY=             -0.0003
 N-N= 1.423242115146D+01 E-N=-1.447673474546D+02  KE= 5.019602391962D+01
                          Isotropic Fermi Contact Couplings
        Atom                 a.u.       MegaHertz       Gauss      10(-4) cm-1
     1  B(11)              0.09002      64.56303      23.03770      21.53591
     2  B(11)              0.09002      64.56303      23.03770      21.53591
     3  H(1)              -0.01467     -32.79645     -11.70259     -10.93972
     4  H(1)              -0.01467     -32.79645     -11.70259     -10.93972
 --------------------------------------------------------
       Center         ----  Spin Dipole Couplings  ----
                      3XX-RR        3YY-RR        3ZZ-RR
 --------------------------------------------------------
     1   Atom       -0.241613      0.120807      0.120807
     2   Atom       -0.241613      0.120807      0.120807
     3   Atom        0.053537     -0.026768     -0.026768
     4   Atom        0.053537     -0.026768     -0.026768
 --------------------------------------------------------
                        XY            XZ            YZ
 --------------------------------------------------------
     1   Atom       -0.000004     -0.000000      0.000000
     2   Atom       -0.000004     -0.000000      0.000000
     3   Atom        0.000005      0.000000      0.000000
     4   Atom        0.000005      0.000000      0.000000
 --------------------------------------------------------


 ---------------------------------------------------------------------------------
              Anisotropic Spin Dipole Couplings in Principal Axis System
 ---------------------------------------------------------------------------------

       Atom             a.u.   MegaHertz   Gauss  10(-4) cm-1        Axes

              Baa    -0.2416   -41.368   -14.761   -13.799  1.0000  0.0000  0.0000
     1 B(11)  Bbb     0.1208    20.684     7.381     6.899 -0.0000  1.0000 -0.0000
              Bcc     0.1208    20.684     7.381     6.899 -0.0000  0.0000  1.0000
 
              Baa    -0.2416   -41.368   -14.761   -13.799  1.0000  0.0000  0.0000
     2 B(11)  Bbb     0.1208    20.684     7.381     6.899 -0.0000  1.0000 -0.0000
              Bcc     0.1208    20.684     7.381     6.899 -0.0000  0.0000  1.0000
 
              Baa    -0.0268   -14.282    -5.096    -4.764 -0.0001  1.0000 -0.0000
     3 H(1)   Bbb    -0.0268   -14.282    -5.096    -4.764 -0.0000  0.0000  1.0000
              Bcc     0.0535    28.565    10.193     9.528  1.0000  0.0001  0.0000
 
              Baa    -0.0268   -14.282    -5.096    -4.764 -0.0001  1.0000 -0.0000
     4 H(1)   Bbb    -0.0268   -14.282    -5.096    -4.764 -0.0000  0.0000  1.0000
              Bcc     0.0535    28.565    10.193     9.528  1.0000  0.0001  0.0000
 

 ---------------------------------------------------------------------------------

 No NMR shielding tensors so no spin-rotation constants.
 Leave Link  601 at Mon Apr 21 17:27:17 2025, MaxMem=   536870912 cpu:               1.7 elap:               0.2
 (Enter /home/szhao/Apps/g16/l701.exe)
 ... and contract with generalized density number  0.
 Compute integral first derivatives.
 Leave Link  701 at Mon Apr 21 17:27:18 2025, MaxMem=   536870912 cpu:               1.4 elap:               0.2
 (Enter /home/szhao/Apps/g16/l702.exe)
 L702 exits ... SP integral derivatives will be done elsewhere.
 Leave Link  702 at Mon Apr 21 17:27:18 2025, MaxMem=   536870912 cpu:               0.4 elap:               0.1
 (Enter /home/szhao/Apps/g16/l703.exe)
 Integral derivatives from FoFJK, PRISM(SPDF).
 Compute integral first derivatives, UseDBF=F ICtDFT=           0.
 Calling FoFJK, ICntrl=      2127 FMM=F ISym2X=0 I1Cent= 0 IOpClX= 1 NMat=1 NMatS=1 NMatT=0.
 FoFJK:  IHMeth= 1 ICntrl=    2127 DoSepK=F KAlg= 0 I1Cent=           0 FoldK=F
 IRaf=         0 NMat=       1 IRICut=       1 DoRegI=T DoRafI=F ISym2E= 0 IDoP0=0 IntGTp=1.
 FoFCou: FMM=F IPFlag=           0 FMFlag=      100000 FMFlg1=         800
         NFxFlg=           0 DoJE=F BraDBF=F KetDBF=F FulRan=T
         wScrn=  0.000000 ICntrl=      2127 IOpCl=  1 I1Cent=           0 NGrid=           0
         NMat0=    1 NMatS0=      1 NMatT0=    0 NMatD0=    1 NMtDS0=    0 NMtDT0=    0
 Symmetry not used in FoFCou.
 Leave Link  703 at Mon Apr 21 17:27:19 2025, MaxMem=   536870912 cpu:               6.3 elap:               0.8
 (Enter /home/szhao/Apps/g16/l716.exe)
 Dipole        =-7.69606601D-13 1.95514178D-15 1.62363703D-15
 -------------------------------------------------------------------
 Center     Atomic                   Forces (Hartrees/Bohr)
 Number     Number              X              Y              Z
 -------------------------------------------------------------------
      1        5          -0.000000000   -0.000000000   -0.000000000
      2        5          -0.000000000   -0.000000000   -0.000000000
      3        1          -0.000406514    0.000000565    0.000000000
      4        1           0.000406514   -0.000000565   -0.000000000
 -------------------------------------------------------------------
 Cartesian Forces:  Max     0.000406514 RMS     0.000165959
 Leave Link  716 at Mon Apr 21 17:27:19 2025, MaxMem=   536870912 cpu:               0.6 elap:               0.1
 (Enter /home/szhao/Apps/g16/l103.exe)

 GradGradGradGradGradGradGradGradGradGradGradGradGradGradGradGradGradGrad
 Berny optimization.
 FormGI is forming the generalized inverse of G from B-inverse, IUseBI=4.
 Internal  Forces:  Max     0.000406514 RMS     0.000234701
 Search for a local minimum.
 Step number   1 out of a maximum of   22
 All quantities printed in internal units (Hartrees-Bohrs-Radians)
 RMS Force = .23470D-03 SwitMx=.10000D-02 MixMth= 2
 Mixed Optimization -- En-DIIS/RFO-DIIS
 Second derivative matrix not updated -- first step.
 The second derivative matrix:
                          X1        Y1        Z1        X2        Y2
           X1           0.50000
           Y1           0.00000   0.50000
           Z1           0.00000   0.00000   0.50000
           X2           0.00000   0.00000   0.00000   0.50000
           Y2           0.00000   0.00000   0.00000   0.00000   0.50000
           Z2           0.00000   0.00000   0.00000   0.00000   0.00000
           R1           0.00000   0.00000   0.00000   0.00000   0.00000
           R2           0.00000   0.00000   0.00000   0.00000   0.00000
           A1           0.00000   0.00000   0.00000   0.00000   0.00000
           A2           0.00000   0.00000   0.00000   0.00000   0.00000
           A3           0.00000   0.00000   0.00000   0.00000   0.00000
           A4           0.00000   0.00000   0.00000   0.00000   0.00000
                          Z2        R1        R2        A1        A2
           Z2           0.50000
           R1           0.00000   0.26783
           R2           0.00000   0.00000   0.26783
           A1           0.00000   0.00000   0.00000   0.00230
           A2           0.00000   0.00000   0.00000   0.00000   0.00230
           A3           0.00000   0.00000   0.00000   0.00000   0.00000
           A4           0.00000   0.00000   0.00000   0.00000   0.00000
                          A3        A4
           A3           0.00230
           A4           0.00000   0.00230
 ITU=  0
     Eigenvalues ---    0.00230   0.00230   0.00230   0.26783   0.26783
     Eigenvalues --- 1000.000001000.000001000.000001000.000001000.00000
     Eigenvalues --- 1000.000001000.00000
 RFO step:  Lambda=-1.23400755D-06 EMin= 2.30000000D-03
 Linear search not attempted -- first point.
 Iteration  1 RMS(Cart)=  0.00061963 RMS(Int)=  0.00000000
 Iteration  2 RMS(Cart)=  0.00000000 RMS(Int)=  0.00000000
 ITry= 1 IFail=0 DXMaxC= 1.52D-03 DCOld= 1.00D+10 DXMaxT= 3.00D-01 DXLimC= 3.00D+00 Rises=F
 Variable       Old X    -DE/DX   Delta X   Delta X   Delta X     New X
                                 (Linear)    (Quad)   (Total)
    X1       -1.61271  -0.00041   0.00000   0.00000   0.00000  -1.61271
    Y1        0.00000  -0.00000   0.00000   0.00000   0.00000   0.00000
    Z1        0.00000   0.00000   0.00000   0.00000   0.00000   0.00000
    X2        1.61271   0.00041   0.00000   0.00000   0.00000   1.61271
    Y2        0.00000   0.00000   0.00000   0.00000   0.00000   0.00000
    Z2        0.00000  -0.00000   0.00000   0.00000   0.00000   0.00000
    R1        2.21578   0.00041   0.00000   0.00152   0.00152   2.21730
    R2        2.21578   0.00041   0.00000   0.00152   0.00152   2.21730
    A1        3.14152   0.00000   0.00000   0.00000   0.00000   3.14152
    A2        3.14152   0.00000   0.00000   0.00000   0.00000   3.14152
    A3        3.14159  -0.00000   0.00000  -0.00000   0.00000   3.14159
    A4        3.14159  -0.00000   0.00000  -0.00000  -0.00000   3.14159
         Item               Value     Threshold  Converged?
 Maximum Force            0.000407     0.000450     YES
 RMS     Force            0.000235     0.000300     YES
 Maximum Displacement     0.001518     0.001800     YES
 RMS     Displacement     0.000620     0.001200     YES
 Predicted change in Energy=-6.170038D-07
 Optimization completed.
    -- Stationary point found.
                           ----------------------------
                           !   Optimized Parameters   !
                           ! (Angstroms and Degrees)  !
 --------------------------                            --------------------------
 ! Name  Definition              Value          Derivative Info.                !
 --------------------------------------------------------------------------------
 ! X1    R(1,-1)                -0.8534         -DE/DX =   -0.0004              !
 ! Y1    R(1,-2)                 0.0            -DE/DX =    0.0                 !
 ! Z1    R(1,-3)                 0.0            -DE/DX =    0.0                 !
 ! X2    R(2,-1)                 0.8534         -DE/DX =    0.0004              !
 ! Y2    R(2,-2)                 0.0            -DE/DX =    0.0                 !
 ! Z2    R(2,-3)                 0.0            -DE/DX =    0.0                 !
 ! R1    R(1,3)                  1.1725         -DE/DX =    0.0004              !
 ! R2    R(2,4)                  1.1725         -DE/DX =    0.0004              !
 ! A1    L(2,1,3,-3,-1)        179.9961         -DE/DX =    0.0                 !
 ! A2    L(1,2,4,-3,-1)        179.9961         -DE/DX =    0.0                 !
 ! A3    L(2,1,3,-2,-2)        180.0            -DE/DX =    0.0                 !
 ! A4    L(1,2,4,-2,-2)        180.0            -DE/DX =    0.0                 !
 --------------------------------------------------------------------------------
 Lowest energy point so far.  Saving SCF results.
 Largest change from initial coordinates is atom    0       0.000 Angstoms.
 GradGradGradGradGradGradGradGradGradGradGradGradGradGradGradGradGradGrad

 Leave Link  103 at Mon Apr 21 17:27:19 2025, MaxMem=   536870912 cpu:               0.7 elap:               0.1
 (Enter /home/szhao/Apps/g16/l202.exe)
                          Input orientation:                          
 ---------------------------------------------------------------------
 Center     Atomic      Atomic             Coordinates (Angstroms)
 Number     Number       Type             X           Y           Z
 ---------------------------------------------------------------------
      1          5           0       -0.853410    0.000000    0.000000
      2          5           0        0.853410    0.000000    0.000000
      3          1           0       -2.025953   -0.000080    0.000000
      4          1           0        2.025953    0.000080    0.000000
 ---------------------------------------------------------------------
                    Distance matrix (angstroms):
                    1          2          3          4
     1  B    0.000000
     2  B    1.706821   0.000000
     3  H    1.172542   2.879363   0.000000
     4  H    2.879363   1.172542   4.051906   0.000000
 Symmetry turned off by external request.
 Stoichiometry    B2H2(3)
 Framework group  C*V[C*(HBBH)]
 Deg. of freedom     3
 Full point group                 C*V     NOp   4
 Rotational constants (GHZ):           0.0000000          20.7893058          20.7893058
 Leave Link  202 at Mon Apr 21 17:27:20 2025, MaxMem=   536870912 cpu:               0.1 elap:               0.1
 (Enter /home/szhao/Apps/g16/l9999.exe)
 1\1\GINC-NODE06\FOpt\UM062X\6-311+G(d,p)\B2H2(3)\SZHAO\21-Apr-2025\0\\
 #p opt UM062X/6-311+G** nosymm int=superfine\\Title Card Required\\0,3
 \B,-0.85341047,0.,0.\B,0.85341047,0.,0.\H,-2.02595276,-0.00008027,0.\H
 ,2.02595276,0.00008027,0.\\Version=ES64L-G16RevA.03\HF=-50.7343013\S2=
 2.006195\S2-1=0.\S2A=2.000014\RMSD=2.196e-09\RMSF=1.660e-04\Dipole=0.,
 0.,0.\Quadrupole=1.390671,-0.6953355,-0.6953355,0.0000382,0.,0.\PG=C*V
  [C*(H1B1B1H1)]\\@


 IT IS A PROFOUNDLY ERRONEOUS TRUISM ... THAT WE SHOULD CULTIVATE
 THE HABIT OF THINKING OF WHAT WE ARE DOING.
 THE PRECISE OPPOSITE IS THE CASE.
 CIVILIZATION ADVANCES BY EXTENDING THE NUMBER OF IMPORTANT OPERATIONS
 WHICH WE CAN PERFORM WITHOUT THINKING ABOUT THEM.

                                    -- ALFRED NORTH WHITEHEAD
 Job cpu time:       0 days  0 hours  0 minutes 51.4 seconds.
 Elapsed time:       0 days  0 hours  0 minutes  7.2 seconds.
 File lengths (MBytes):  RWF=     17 Int=      0 D2E=      0 Chk=      2 Scr=      2
 Normal termination of Gaussian 16 at Mon Apr 21 17:27:20 2025.
