Title Card Required                                                     
FOpt      UM062X                                                      6-311+G(d,p)        
Number of atoms                            I                4
Info1-9                                    I   N=           9
          13          13           0           0           0         100
           2          18        -502
Full Title                                 C   N=           2
Title Card Required     
Route                                      C   N=           5
#p opt UM062X/6-311+G** nosymm int=superfine SCF=NoVarAcc   
Charge                                     I                0
Multiplicity                               I                1
Number of electrons                        I               14
Number of alpha electrons                  I                7
Number of beta electrons                   I                7
Number of basis functions                  I               56
Number of independent functions            I               56
Number of point charges in /Mol/           I                0
Number of translation vectors              I                0
Atomic numbers                             I   N=           4
           6           6           1           1
Nuclear charges                            R   N=           4
  6.00000000E+00  6.00000000E+00  1.00000000E+00  1.00000000E+00
Current cartesian coordinates              R   N=          12
 -3.65213195E+00  0.00000000E+00  0.00000000E+00  3.65213195E+00  0.00000000E+00
  0.00000000E+00 -5.77403361E+00 -1.13383567E-05  1.13383567E-05  5.77403172E+00
  7.55890450E-06 -7.55890450E-06
Number of symbols in /Mol/                 I                0
Force Field                                I                0
Atom Types                                 C   N=           4
                                                
Int Atom Types                             I   N=           4
           0           0           0           0
MM charges                                 R   N=           4
  0.00000000E+00  0.00000000E+00  0.00000000E+00  0.00000000E+00
Integer atomic weights                     I   N=           4
          12          12           1           1
Real atomic weights                        R   N=           4
  1.20000000E+01  1.20000000E+01  1.00782504E+00  1.00782504E+00
Atom fragment info                         I   N=           4
           0           0           0           0
Atom residue num                           I   N=           4
           0           0           0           0
Nuclear spins                              I   N=           4
           0           0           1           1
Nuclear ZEff                               R   N=           4
 -3.60000000E+00 -3.60000000E+00 -1.00000000E+00 -1.00000000E+00
Nuclear ZNuc                               R   N=           4
  6.00000000E+00  6.00000000E+00  1.00000000E+00  1.00000000E+00
Nuclear QMom                               R   N=           4
  0.00000000E+00  0.00000000E+00  0.00000000E+00  0.00000000E+00
Nuclear GFac                               R   N=           4
  0.00000000E+00  0.00000000E+00  2.79284600E+00  2.79284600E+00
MicOpt                                     I   N=           4
          -2          -2          -1          -1
Number of residues                         I                0
Number of secondary structures             I                0
Redundant internal dimensions              I   N=           4
          12           8           4           0
Redundant internal coordinate indices      I   N=          48
           1          -1           0           0           1          -2
           0           0           1          -3           0           0
           2          -1           0           0           2          -2
           0           0           2          -3           0           0
           1           3           0           0           2           4
           0           0           2           1           3          -4
           1           2           4          -4           2           1
           3          -8           1           2           4          -8
Redundant internal coordinates             R   N=          12
 -3.65213195E+00  0.00000000E+00  0.00000000E+00  3.65213195E+00  0.00000000E+00
  0.00000000E+00  2.12190166E+00  2.12189977E+00  3.14158731E+00  3.14158909E+00
  3.14158731E+00  3.14158909E+00
ZRed-IntVec                                I   N=          12
          -1          -1          -1          -1          -1          -1
           0           0           0           0           0           0
ZRed-FPVec                                 R   N=          12
  0.00000000E+00  0.00000000E+00  0.00000000E+00  0.00000000E+00  0.00000000E+00
  0.00000000E+00  0.00000000E+00  0.00000000E+00  0.00000000E+00  0.00000000E+00
  0.00000000E+00  0.00000000E+00
ZRed-Constraint1                           R   N=          12
 -3.65213195E+00  0.00000000E+00  0.00000000E+00  3.65213195E+00  0.00000000E+00
  0.00000000E+00  2.12190166E+00  2.12189977E+00  3.14158731E+00  3.14158909E+00
  3.14158731E+00  3.14158909E+00
ZRed-Constraint2                           R   N=          12
 -3.65213195E+00  0.00000000E+00  0.00000000E+00  3.65213195E+00  0.00000000E+00
  0.00000000E+00  0.00000000E+00  0.00000000E+00  0.00000000E+00  0.00000000E+00
  0.00000000E+00  0.00000000E+00
Number of contracted shells                I               20
Number of primitive shells                 I               38
Pure/Cartesian d shells                    I                0
Pure/Cartesian f shells                    I                0
Highest angular momentum                   I                2
Largest degree of contraction              I                6
Shell types                                I   N=          20
           0          -1          -1          -1          -1          -2
           0          -1          -1          -1          -1          -2
           0           0           0           1           0           0
           0           1
Number of primitives per shell             I   N=          20
           6           3           1           1           1           1
           6           3           1           1           1           1
           3           1           1           1           3           1
           1           1
Shell to atom map                          I   N=          20
           1           1           1           1           1           1
           2           2           2           2           2           2
           3           3           3           3           4           4
           4           4
Primitive exponents                        R   N=          38
  4.56324000E+03  6.82024000E+02  1.54973000E+02  4.44553000E+01  1.30290000E+01
  1.82773000E+00  2.09642000E+01  4.80331000E+00  1.45933000E+00  4.83456000E-01
  1.45585000E-01  4.38000000E-02  6.26000000E-01  4.56324000E+03  6.82024000E+02
  1.54973000E+02  4.44553000E+01  1.30290000E+01  1.82773000E+00  2.09642000E+01
  4.80331000E+00  1.45933000E+00  4.83456000E-01  1.45585000E-01  4.38000000E-02
  6.26000000E-01  3.38650000E+01  5.09479000E+00  1.15879000E+00  3.25840000E-01
  1.02741000E-01  7.50000000E-01  3.38650000E+01  5.09479000E+00  1.15879000E+00
  3.25840000E-01  1.02741000E-01  7.50000000E-01
Contraction coefficients                   R   N=          38
  1.96665025E-03  1.52306019E-02  7.61269097E-02  2.60801033E-01  6.16462078E-01
  2.21006028E-01  1.14660081E-01  9.19999648E-01 -3.03068213E-03  1.00000000E+00
  1.00000000E+00  1.00000000E+00  1.00000000E+00  1.96665025E-03  1.52306019E-02
  7.61269097E-02  2.60801033E-01  6.16462078E-01  2.21006028E-01  1.14660081E-01
  9.19999648E-01 -3.03068213E-03  1.00000000E+00  1.00000000E+00  1.00000000E+00
  1.00000000E+00  2.54938145E-02  1.90373109E-01  8.52161486E-01  1.00000000E+00
  1.00000000E+00  1.00000000E+00  2.54938145E-02  1.90373109E-01  8.52161486E-01
  1.00000000E+00  1.00000000E+00  1.00000000E+00
P(S=P) Contraction coefficients            R   N=          38
  0.00000000E+00  0.00000000E+00  0.00000000E+00  0.00000000E+00  0.00000000E+00
  0.00000000E+00  4.02486927E-02  2.37593957E-01  8.15853851E-01  1.00000000E+00
  1.00000000E+00  1.00000000E+00  0.00000000E+00  0.00000000E+00  0.00000000E+00
  0.00000000E+00  0.00000000E+00  0.00000000E+00  0.00000000E+00  4.02486927E-02
  2.37593957E-01  8.15853851E-01  1.00000000E+00  1.00000000E+00  1.00000000E+00
  0.00000000E+00  0.00000000E+00  0.00000000E+00  0.00000000E+00  0.00000000E+00
  0.00000000E+00  0.00000000E+00  0.00000000E+00  0.00000000E+00  0.00000000E+00
  0.00000000E+00  0.00000000E+00  0.00000000E+00
Coordinates of each shell                  R   N=          60
 -3.65213195E+00  0.00000000E+00  0.00000000E+00 -3.65213195E+00  0.00000000E+00
  0.00000000E+00 -3.65213195E+00  0.00000000E+00  0.00000000E+00 -3.65213195E+00
  0.00000000E+00  0.00000000E+00 -3.65213195E+00  0.00000000E+00  0.00000000E+00
 -3.65213195E+00  0.00000000E+00  0.00000000E+00  3.65213195E+00  0.00000000E+00
  0.00000000E+00  3.65213195E+00  0.00000000E+00  0.00000000E+00  3.65213195E+00
  0.00000000E+00  0.00000000E+00  3.65213195E+00  0.00000000E+00  0.00000000E+00
  3.65213195E+00  0.00000000E+00  0.00000000E+00  3.65213195E+00  0.00000000E+00
  0.00000000E+00 -5.77403361E+00 -1.13383567E-05  1.13383567E-05 -5.77403361E+00
 -1.13383567E-05  1.13383567E-05 -5.77403361E+00 -1.13383567E-05  1.13383567E-05
 -5.77403361E+00 -1.13383567E-05  1.13383567E-05  5.77403172E+00  7.55890450E-06
 -7.55890450E-06  5.77403172E+00  7.55890450E-06 -7.55890450E-06  5.77403172E+00
  7.55890450E-06 -7.55890450E-06  5.77403172E+00  7.55890450E-06 -7.55890450E-06
Num ILSW                                   I              100
ILSW                                       I   N=         100
           1           0           0           0           2           0
           0           0           0           0        4336          -1
           7           0           0           0           2           0
           0           0           0           0           1           0
           1           1           0           0           0           0
           0           0      100000           0          -1           0
           0           0           0           0           0           0
           0           0           0           1           0           0
           0 -2000000000           1           0           0           0
           0           0           4          52           0           0
           0           0          55           0           0           0
           0           0           0           4           0           1
           0           0           0           0           0           0
           0           0           0           0           0           0
           0           0           0           0           0           0
           0           0           0           0           0           0
           0           0           0           0
Num RLSW                                   I               52
RLSW                                       R   N=          52
  1.00000000E+00  1.00000000E+00  1.00000000E+00  1.00000000E+00  5.40000000E-01
  0.00000000E+00  0.00000000E+00  1.00000000E+00  0.00000000E+00  0.00000000E+00
  0.00000000E+00  0.00000000E+00  1.00000000E+00  0.00000000E+00  0.00000000E+00
  0.00000000E+00  0.00000000E+00  1.00000000E+00  0.00000000E+00  0.00000000E+00
  0.00000000E+00  0.00000000E+00  1.00000000E+00  0.00000000E+00  0.00000000E+00
  0.00000000E+00  0.00000000E+00  1.00000000E+00  0.00000000E+00  0.00000000E+00
  0.00000000E+00  0.00000000E+00  1.00000000E+00  0.00000000E+00  0.00000000E+00
  0.00000000E+00  0.00000000E+00  0.00000000E+00  1.00000000E+00  1.00000000E+00
  0.00000000E+00  1.00000000E+00  0.00000000E+00  0.00000000E+00  0.00000000E+00
  0.00000000E+00  0.00000000E+00  0.00000000E+00  0.00000000E+00  0.00000000E+00
  0.00000000E+00  0.00000000E+00
MxBond                                     I                2
NBond                                      I   N=           4
           2           2           1           1
IBond                                      I   N=           8
           2           3           1           4           1           0
           2           0
RBond                                      R   N=           8
  1.00000000E-01  1.00000000E+00  1.00000000E-01  1.00000000E+00  1.00000000E+00
  0.00000000E+00  1.00000000E+00  0.00000000E+00
Virial Ratio                               R      2.003652572071675E+00
SCF Energy                                 R     -7.684161363388510E+01
Total Energy                               R     -7.684161363388510E+01
S**2                                       R     -1.687538997430238E-14
S**2 after annihilation                    R     -1.021405182655133E-13
RMS Force                                  R      1.648450726334465E-06
RMS Density                                R      5.423303369269041E-09
Job Status                                 I                1
Nuclear derivative order                   I                1
External E-field                           R   N=          35
  0.00000000E+00  0.00000000E+00  0.00000000E+00  0.00000000E+00  0.00000000E+00
  0.00000000E+00  0.00000000E+00  0.00000000E+00  0.00000000E+00  0.00000000E+00
  0.00000000E+00  0.00000000E+00  0.00000000E+00  0.00000000E+00  0.00000000E+00
  0.00000000E+00  0.00000000E+00  0.00000000E+00  0.00000000E+00  0.00000000E+00
  0.00000000E+00  0.00000000E+00  0.00000000E+00  0.00000000E+00  0.00000000E+00
  0.00000000E+00  0.00000000E+00  0.00000000E+00  0.00000000E+00  0.00000000E+00
  0.00000000E+00  0.00000000E+00  0.00000000E+00  0.00000000E+00  0.00000000E+00
IOpCl                                      I                1
IROHF                                      I                0
Alpha Orbital Energies                     R   N=          56
 -1.06612478E+01 -1.06612432E+01 -7.18738512E-01 -7.17378774E-01 -3.84593308E-01
 -3.69701114E-01 -2.10958250E-01 -1.36210701E-01 -9.24211640E-02 -8.72632072E-02
  2.88348467E-02  3.05030242E-02  8.01367214E-02  9.12443803E-02  9.88232684E-02
  1.08889215E-01  1.13140000E-01  1.49176909E-01  1.75750622E-01  2.20367365E-01
  4.38200996E-01  4.84157974E-01  5.73649598E-01  5.77236677E-01  5.81241621E-01
  5.89596577E-01  5.96473973E-01  7.07666760E-01  7.40529357E-01  8.09085016E-01
  1.13374782E+00  1.13394020E+00  1.14364601E+00  1.14435629E+00  1.34106011E+00
  1.34157143E+00  1.35314622E+00  1.35365571E+00  1.58667967E+00  1.59193597E+00
  1.85372770E+00  1.85388667E+00  1.86461442E+00  1.86467229E+00  2.39121741E+00
  2.40652322E+00  2.48319619E+00  2.52812057E+00  2.70551663E+00  2.70919563E+00
  2.72139526E+00  2.72501285E+00  3.14973631E+00  3.23585628E+00  2.35263183E+01
  2.35438624E+01
Beta Orbital Energies                      R   N=          56
 -1.06612478E+01 -1.06612432E+01 -7.18738512E-01 -7.17378774E-01 -3.84593308E-01
 -3.69701114E-01 -2.10958250E-01 -1.36210701E-01 -9.24211640E-02 -8.72632072E-02
  2.88348467E-02  3.05030242E-02  8.01367214E-02  9.12443803E-02  9.88232684E-02
  1.08889215E-01  1.13140000E-01  1.49176909E-01  1.75750622E-01  2.20367365E-01
  4.38200996E-01  4.84157974E-01  5.73649598E-01  5.77236677E-01  5.81241621E-01
  5.89596577E-01  5.96473973E-01  7.07666760E-01  7.40529357E-01  8.09085016E-01
  1.13374782E+00  1.13394020E+00  1.14364601E+00  1.14435629E+00  1.34106011E+00
  1.34157143E+00  1.35314622E+00  1.35365571E+00  1.58667967E+00  1.59193597E+00
  1.85372770E+00  1.85388667E+00  1.86461442E+00  1.86467229E+00  2.39121741E+00
  2.40652322E+00  2.48319619E+00  2.52812057E+00  2.70551663E+00  2.70919563E+00
  2.72139526E+00  2.72501285E+00  3.14973631E+00  3.23585628E+00  2.35263183E+01
  2.35438624E+01
Alpha MO coefficients                      R   N=        3136
  4.02561375E-01  3.31643256E-01 -1.33492510E-03 -7.82970555E-09  7.82970635E-09
  6.82593258E-03 -9.34116125E-04 -4.70346691E-09  4.70346560E-09 -3.19478960E-03
 -1.01334947E-04 -1.91738526E-10  1.91739406E-10  3.91272206E-05  7.44754885E-04
  4.35636005E-09 -4.35636042E-09 -3.71271247E-04 -6.67720923E-09 -4.09602236E-05
  6.43060664E-04  6.67720931E-09  3.95037183E-01  3.25444929E-01  1.30962415E-03
  5.32208317E-09 -5.32208432E-09  6.69505306E-03  9.18222178E-04  2.90547643E-09
 -2.90547509E-09 -3.11863306E-03  1.03970897E-04  4.16508995E-10 -4.16509486E-10
  1.07106994E-05 -7.09294111E-04 -3.46355544E-09  3.46355554E-09 -3.64728058E-04
 -4.39362332E-09 -4.01276020E-05  6.31727529E-04  4.39362337E-09  2.77091005E-04
 -2.07764957E-03  2.12124999E-03 -1.34063727E-03 -7.26021981E-09  7.26021989E-09
  2.72078974E-04 -2.04260359E-03  2.07319797E-03  1.31707585E-03  4.77609477E-09
 -4.77609489E-09 -3.95037997E-01 -3.25426725E-01  1.32854219E-03  7.62202723E-09
 -7.62202683E-09 -6.87356470E-03  8.34182374E-04  4.64634108E-09 -4.64634178E-09
  4.00660921E-03 -1.40704294E-04 -1.74015575E-09  1.74015612E-09 -1.50570000E-03
 -1.87266957E-03 -3.31169703E-09  3.31169691E-09  3.43457031E-04  5.78614275E-09
  4.37451371E-05 -5.94885030E-04 -5.78614270E-09  4.02562173E-01  3.31625390E-01
  1.35348981E-03  5.32688622E-09 -5.32688643E-09  7.00112322E-03  8.51665402E-04
  3.18623638E-09 -3.18623610E-09 -4.06616678E-03 -1.38768051E-04 -1.43596275E-09
  1.43596265E-09  1.50616732E-03 -1.88638734E-03 -1.51906133E-09  1.51906134E-09
 -3.50402351E-04 -3.90800987E-09 -4.45100190E-05  6.06914677E-04  3.90800986E-09
 -2.62977111E-04  1.83875654E-03 -2.52745808E-03  1.23665651E-03  6.42084157E-09
 -6.42084153E-09  2.68156166E-04 -1.87763677E-03  2.56703350E-03  1.26173510E-03
  4.37185748E-09 -4.37185747E-09 -7.65790497E-02 -1.23902466E-01 -5.42448079E-02
 -2.90118184E-07  2.90118184E-07  3.52563506E-01 -8.24664831E-02 -4.39936348E-07
  4.39936349E-07  2.46137531E-01 -3.21291648E-02 -1.67849324E-07  1.67849324E-07
  1.45155816E-03 -2.19093245E-03 -1.89035662E-08  1.89035665E-08 -5.12277658E-03
 -7.80866173E-08 -3.11145887E-03  8.87290943E-03  7.80866178E-08 -7.65959467E-02
 -1.23929789E-01  5.42571633E-02  1.92973842E-07 -1.92973842E-07  3.52640963E-01
  8.24850752E-02  2.93680400E-07 -2.93680400E-07  2.46193874E-01  3.21375923E-02
  1.06028424E-07 -1.06028424E-07  1.44890801E-03  2.19449552E-03  1.81138198E-08
 -1.81138203E-08 -5.12397116E-03 -5.23262116E-08 -3.11218766E-03  8.87497852E-03
  5.23262121E-08  1.01928294E-01  1.31098765E-01  1.37909640E-02  1.57346228E-02
  8.43549595E-08 -8.43549596E-08  1.01951156E-01  1.31127743E-01  1.37920789E-02
 -1.57380283E-02 -5.62431323E-08  5.62431322E-08 -7.64727642E-02 -1.23676516E-01
 -5.53779599E-02 -2.93776743E-07  2.93776743E-07  3.50822399E-01 -8.35798300E-02
 -4.42657056E-07  4.42657056E-07  2.55869992E-01 -3.80705767E-02 -1.97134877E-07
  1.97134877E-07 -1.19937451E-02 -1.61745231E-02 -1.32501537E-08  1.32501533E-08
 -5.35285297E-03 -8.45680207E-08 -3.31855135E-03  9.27141345E-03  8.45680214E-08
  7.64558020E-02  1.23649068E-01 -5.53660679E-02 -1.95641250E-07  1.95641250E-07
 -3.50744249E-01 -8.35616972E-02 -2.93986275E-07  2.93986276E-07 -2.55815295E-01
 -3.80634843E-02 -1.31959199E-07  1.31959199E-07  1.19940792E-02 -1.61740330E-02
  6.79743803E-10 -6.79743720E-10  5.35173114E-03  5.65830710E-08  3.31785778E-03
 -9.26947038E-03 -5.65830714E-08  1.02726771E-01  1.30555737E-01  5.05797711E-03
  1.53382506E-02  8.11436018E-08 -8.11436018E-08 -1.02704362E-01 -1.30526824E-01
 -5.05491588E-03  1.53347808E-02  5.41521336E-08 -5.41521337E-08 -4.17800981E-02
 -6.90042838E-02  1.51282697E-01  8.10475695E-07 -8.10475694E-07  2.03235323E-01
  2.19431808E-01  1.16681419E-06 -1.16681419E-06  2.91415585E-01  1.36578545E-01
  7.48898535E-07 -7.48898536E-07  4.17369726E-02  8.86779608E-03  5.76274992E-08
 -5.76274988E-08  1.21664473E-02  2.45200163E-07 -2.67095350E-03 -2.10729047E-02
 -2.45200162E-07 -4.17802964E-02 -6.90046137E-02 -1.51283316E-01 -5.45041113E-07
  5.45041113E-07  2.03236298E-01 -2.19432639E-01 -7.84541343E-07  7.84541343E-07
  2.91417062E-01 -1.36579002E-01 -5.08627040E-07  5.08627040E-07  4.17372409E-02
 -8.86786993E-03 -5.08366817E-08  5.08366814E-08  1.21665012E-02  1.63795681E-07
 -2.67096652E-03 -2.10729982E-02 -1.63795681E-07 -9.40472904E-02 -1.76365123E-01
 -1.19347788E-01 -7.38093457E-03 -4.06418853E-08  4.06418852E-08 -9.40476117E-02
 -1.76365731E-01 -1.19348205E-01  7.38095415E-03  2.72399990E-08 -2.72399987E-08
 -4.52473527E-02 -7.49020192E-02  1.55056363E-01  8.72331561E-07 -8.72331561E-07
  2.24144604E-01  2.22206716E-01  1.25603863E-06 -1.25603863E-06  2.98848265E-01
  1.43540047E-01  8.70713420E-07 -8.70713421E-07  6.08067088E-02  2.97625579E-02
  8.20938828E-08 -8.20938825E-08  1.35023652E-02  2.59608073E-07 -3.15778602E-03
 -2.33867824E-02 -2.59608072E-07  4.52472181E-02  7.49017987E-02  1.55055828E-01
  5.88369623E-07 -5.88369623E-07 -2.24143945E-01  2.22205884E-01  8.45161770E-07
 -8.45161770E-07 -2.98847470E-01  1.43539466E-01  6.02254843E-07 -6.02254844E-07
 -6.08066119E-02  2.97625038E-02  4.47644980E-08 -4.47644981E-08 -1.35023233E-02
 -1.72812135E-07  3.15777651E-03  2.33867098E-02  1.72812134E-07 -9.56043812E-02
 -1.81650380E-01 -1.14146092E-01 -6.48204177E-03 -3.34506966E-08  3.34506967E-08
  9.56039856E-02  1.81649621E-01  1.14145600E-01 -6.48200825E-03 -2.25000510E-08
  2.25000508E-08  3.42894869E-16  6.03165835E-16 -1.49597757E-14  1.31224844E-01
  1.31224842E-01 -2.41045597E-15 -2.29072295E-14  2.00333566E-01  2.00333562E-01
  6.59982820E-16 -2.34977589E-14  2.23215090E-01  2.23215086E-01 -2.99043854E-15
 -1.42216347E-14  6.26649368E-02  6.26649355E-02  1.11911349E-07 -1.07228683E-02
  1.44865084E-15  6.46120502E-08 -1.07228685E-02 -4.70656253E-16 -7.41198725E-16
 -1.04772058E-14  1.31224873E-01  1.31224871E-01  2.58985490E-15 -1.57298358E-14
  2.00333621E-01  2.00333617E-01  2.03302501E-15 -1.72427528E-14  2.23215154E-01
  2.23215149E-01  6.77416096E-15 -6.79644702E-15  6.26649624E-02  6.26649612E-02
 -7.43174620E-08  1.07228854E-02 -1.09205168E-15 -4.29072087E-08  1.07228856E-02
  5.24255346E-16  2.23869308E-15 -3.03094633E-15 -1.37977007E-15  1.18455075E-02
  1.18455073E-02 -7.25432512E-16 -5.36597983E-16 -3.23601459E-15 -9.53265724E-16
  1.18455234E-02  1.18455232E-02  6.80176773E-17  1.30731742E-16 -1.43351568E-14
  1.32852643E-01  1.32852640E-01 -6.35977849E-16 -2.23309511E-14  2.04688353E-01
  2.04688349E-01  7.17064633E-16 -2.36740714E-14  2.20156727E-01  2.20156722E-01
  1.14136601E-15 -1.07743227E-14  8.42963283E-02  8.42963266E-02  1.11972135E-07
 -1.34130973E-02  1.56472772E-15  6.46471448E-08 -1.34130975E-02 -1.74562074E-16
 -3.06897817E-16  9.05423757E-15 -1.32852596E-01 -1.32852593E-01  1.07149731E-15
  1.44137257E-14 -2.04688291E-01 -2.04688287E-01 -5.53962334E-16  1.47456967E-14
 -2.20156668E-01 -2.20156663E-01  1.14483529E-15 -7.74837934E-16 -8.42963007E-02
 -8.42962990E-02  7.44384608E-08 -1.34131078E-02  1.11511404E-15  4.29770670E-08
 -1.34131081E-02 -2.08884183E-16 -3.87868609E-16 -1.62339414E-15 -1.48906812E-15
  1.31519406E-02  1.31519404E-02 -3.43904503E-16 -2.22875341E-15  5.48711068E-15
  9.57684492E-16 -1.31519495E-02 -1.31519492E-02  4.72782110E-08  8.38933040E-08
 -1.36687548E-06  1.20756444E-01 -1.20756446E-01 -3.57959361E-07 -2.13523340E-06
  1.90636951E-01 -1.90636955E-01  2.92504126E-07 -2.36315572E-06  2.11747172E-01
 -2.11747176E-01 -6.83629009E-07 -2.45589720E-06  1.00511984E-01 -1.00511986E-01
 -1.19442260E-07  1.04476869E-02  1.16527589E-07  2.06880060E-07 -1.04476867E-02
 -5.89778627E-08 -1.03231293E-07 -9.56339518E-07  1.20756951E-01 -1.20756954E-01
  4.15684592E-07 -1.47456402E-06  1.90637760E-01 -1.90637764E-01 -1.76958346E-07
 -1.65050411E-06  2.11748065E-01 -2.11748070E-01  7.17485580E-07 -2.08558662E-06
  1.00512494E-01 -1.00512496E-01  8.99849869E-08 -1.04477464E-02 -7.87987435E-08
 -1.55858567E-07  1.04477462E-02  5.19705166E-08  2.21400235E-07 -6.59252899E-07
 -1.50048343E-07  1.18141556E-02 -1.18141558E-02 -6.46072119E-08 -2.35383509E-07
  5.97368934E-07 -1.08257890E-07  1.18142191E-02 -1.18142193E-02 -1.06177224E-08
 -1.73715100E-08 -1.30286468E-06  1.24173164E-01 -1.24173167E-01  3.91101147E-08
 -2.09702098E-06  1.97082994E-01 -1.97082998E-01  1.75937927E-07 -2.26226098E-06
  2.13833844E-01 -2.13833848E-01 -9.44562257E-09 -1.28677423E-06  1.21910931E-01
 -1.21910934E-01 -9.88637562E-08  1.17248485E-02  1.14775110E-07  1.71237046E-07
 -1.17248483E-02 -2.53963820E-08 -4.36632239E-08  8.38753657E-07 -1.24172655E-01
  1.24172658E-01  1.53757517E-07  1.36836441E-06 -1.97082192E-01  1.97082196E-01
  6.31629669E-08  1.45842167E-06 -2.13832977E-01  2.13832981E-01  3.48529013E-07
  4.09493912E-07 -1.21910503E-01  1.21910506E-01 -5.66406051E-08  1.17248162E-02
  7.37511437E-08  9.81044040E-08 -1.17248160E-02 -2.41366359E-08 -1.01022318E-07
 -2.43892707E-08 -1.36621803E-07  1.25060699E-02 -1.25060702E-02 -3.79349607E-08
 -1.36071381E-07  1.30356822E-07  8.37315317E-08 -1.25060327E-02  1.25060329E-02
 -1.52314616E-02 -2.64718564E-02 -4.50699747E-02 -3.68926508E-08  3.68926543E-08
  9.59940944E-02 -8.04172669E-02 -2.23933830E-07  2.23933831E-07  5.02217271E-02
 -9.36736568E-02  3.90673718E-07 -3.90673696E-07 -4.63739179E-01  1.20158766E+00
  2.66089450E-06 -2.66089455E-06 -6.60367182E-03 -1.19737342E-07 -9.59473214E-04
  1.14378951E-02  1.19737341E-07  1.52319640E-02  2.64726900E-02 -4.50705174E-02
 -3.39966672E-08  3.39966632E-08 -9.59963320E-02 -8.04187496E-02 -1.76790131E-07
  1.76790128E-07 -5.02303006E-02 -9.36750848E-02  2.99539467E-07 -2.99539486E-07
  4.63764696E-01  1.20159956E+00  1.48976274E-06 -1.48976270E-06  6.60385730E-03
  8.60719320E-08  9.59510742E-04 -1.14382164E-02 -8.60719324E-08  2.38265208E-02
 -1.17421556E-01  6.87102116E-01  8.99375044E-03  3.27453854E-08 -3.27453864E-08
 -2.38269256E-02  1.17424600E-01 -6.87112876E-01  8.99370692E-03  1.67120229E-08
 -1.67120227E-08  2.32577414E-02  3.83266085E-02  2.76481236E-02  1.35138519E-07
 -1.35138521E-07 -9.89723580E-02  6.85680798E-02  3.90142407E-07 -3.90142408E-07
 -4.20046951E-01  7.97885284E-02  2.34744356E-07 -2.34744367E-07  1.14622440E+00
 -5.27896698E-01 -2.67142189E-06  2.67142191E-06  7.83205902E-03  1.38591350E-07
  1.78604644E-03 -1.35655242E-02 -1.38591350E-07  2.32573994E-02  3.83260224E-02
 -2.76470061E-02 -5.06890939E-08  5.06890912E-08 -9.89703213E-02 -6.85662682E-02
 -2.00755125E-07  2.00755124E-07 -4.20045471E-01 -7.97860262E-02 -7.59749513E-08
  7.59749369E-08  1.14621458E+00  5.27869899E-01  1.82969115E-06 -1.82969113E-06
  7.83193252E-03  8.43247645E-08  1.78602361E-03 -1.35653051E-02 -8.43247647E-08
 -1.57954764E-02  1.41764135E-01 -4.58251771E-01  4.32534887E-04  8.16771131E-09
 -8.16771090E-09 -1.57949956E-02  1.41761604E-01 -4.58237188E-01 -4.32797335E-04
 -8.07459744E-11  8.07458933E-11  6.71074076E-08  1.10645584E-07  5.89319765E-07
 -7.38500067E-02  7.38500082E-02 -3.17709639E-07  7.53774283E-07 -7.62420608E-02
  7.62420623E-02 -9.03053037E-07  2.01001696E-06 -2.90141358E-01  2.90141364E-01
 -5.46011346E-07 -3.90092361E-06  5.28158251E-01 -5.28158261E-01  2.24139288E-08
 -8.02531399E-03 -6.22748183E-08 -3.88220621E-08  8.02531383E-03 -2.67100483E-08
 -4.48209649E-08  3.86366525E-07 -7.38500485E-02  7.38500500E-02  1.55283049E-07
  5.01561240E-07 -7.62421034E-02  7.62421049E-02 -2.60392734E-10  1.13005332E-06
 -2.90141572E-01  2.90141577E-01  1.36073638E-06 -3.21133429E-06  5.28158774E-01
 -5.28158784E-01 -1.25783360E-08  8.02532551E-03  4.27402530E-08  2.17863160E-08
 -8.02532535E-03  1.59901311E-07  1.03990132E-07  6.61891797E-07  1.93979545E-08
 -1.35820073E-03  1.35820076E-03 -9.81936390E-08  2.83994902E-08 -3.02320429E-08
  6.90455875E-09 -1.35820860E-03  1.35820863E-03 -1.19835292E-15 -1.93679732E-15
  7.03666565E-15 -6.66873220E-02 -6.66873207E-02  5.47804766E-15  5.95907686E-15
 -6.79968777E-02 -6.79968763E-02  2.17820875E-14  3.44882623E-14 -2.59562336E-01
 -2.59562331E-01  7.46002098E-15 -7.20683789E-14  5.29436014E-01  5.29436003E-01
 -5.23600344E-08  7.30405982E-03 -7.62658152E-16 -3.02300823E-08  7.30405996E-03
 -2.41705600E-15 -3.92580690E-15 -1.08149083E-15 -6.66873641E-02 -6.66873628E-02
  9.51813021E-15  3.62921684E-15 -6.79969218E-02 -6.79969204E-02  4.91617111E-14
 -1.91363924E-14 -2.59562549E-01 -2.59562544E-01 -3.25363957E-14  4.78623629E-14
  5.29436585E-01  5.29436574E-01  3.50545220E-08 -7.30407099E-03  3.02115424E-16
  2.02387366E-08 -7.30407114E-03 -1.18577218E-15  8.56439155E-15 -3.30250600E-14
  8.97498044E-16 -8.67717689E-04 -8.67717671E-04 -3.58277862E-15  3.66516956E-15
 -2.76970854E-14  5.27448297E-16 -8.67724132E-04 -8.67724114E-04  8.62687604E-08
  1.41527207E-07  3.00334626E-08 -6.94206327E-02  6.94206341E-02 -4.18806458E-07
  9.48815176E-08 -6.59599521E-02  6.59599535E-02 -8.38066120E-07 -5.18835869E-07
 -3.09052298E-01  3.09052304E-01  2.22020282E-06 -5.31130075E-07  7.43441712E-01
 -7.43441728E-01 -1.34412657E-08 -3.24458381E-03 -5.45260117E-08  2.32809558E-08
  3.24458374E-03  8.28842968E-08  1.33989571E-07  7.00648315E-08  6.94205776E-02
 -6.94205790E-02 -3.42400041E-07 -1.18062938E-08  6.59599035E-02 -6.59599049E-02
 -1.35216502E-06  8.13945468E-07  3.09052095E-01 -3.09052101E-01  3.12479574E-06
 -1.41219446E-06 -7.43441342E-01  7.43441357E-01 -1.06621688E-08 -3.24458854E-03
 -3.38759813E-08  1.84674182E-08  3.24458848E-03  1.21455478E-07 -5.88414115E-07
 -1.08798873E-06  5.65775502E-08  2.74202571E-03 -2.74202577E-03  1.01437646E-07
 -4.05295359E-07 -6.19320588E-07 -5.93687111E-08 -2.74201605E-03  2.74201611E-03
  6.96583606E-15  1.14967791E-14 -3.44986007E-14 -6.43644764E-02 -6.43644751E-02
 -3.42340979E-14 -2.07224207E-14 -5.90218001E-02 -5.90217989E-02 -6.82782940E-14
 -2.15262924E-13 -2.87137393E-01 -2.87137387E-01  1.63661001E-13  2.85737673E-13
  7.44719843E-01  7.44719828E-01 -5.18977974E-08  2.70772336E-03 -1.04080993E-17