Title Card Required                                                     
Force     UM062X                                                      6-311+G(d,p)        
Number of atoms                            I                6
Info1-9                                    I   N=           9
          15          15           0           0           0         100
           5          18        -502
Full Title                                 C   N=           2
Title Card Required     
Route                                      C   N=           4
#p UM062X/6-311+G** force int=superfine         
Charge                                     I                1
Multiplicity                               I                2
Number of electrons                        I               15
Number of alpha electrons                  I                8
Number of beta electrons                   I                7
Number of basis functions                  I               68
Number of independent functions            I               68
Number of point charges in /Mol/           I                0
Number of translation vectors              I                0
Atomic numbers                             I   N=           6
           6           6           1           1           1           1
Nuclear charges                            R   N=           6
  6.00000000E+00  6.00000000E+00  1.00000000E+00  1.00000000E+00  1.00000000E+00
  1.00000000E+00
Current cartesian coordinates              R   N=          18
 -1.04986240E-20  2.07054079E+00  0.00000000E+00 -2.53550617E-16 -2.07054079E+00
  0.00000000E+00 -1.87391290E+00  2.90472070E+00  0.00000000E+00  1.87415856E+00
  2.90464889E+00  0.00000000E+00  1.87391290E+00 -2.90472070E+00  0.00000000E+00
 -1.87415856E+00 -2.90464889E+00  0.00000000E+00
Number of symbols in /Mol/                 I                0
Force Field                                I                0
Atom Types                                 C   N=           6
                                                            
            
Int Atom Types                             I   N=           6
           0           0           0           0           0           0
MM charges                                 R   N=           6
  0.00000000E+00  0.00000000E+00  0.00000000E+00  0.00000000E+00  0.00000000E+00
  0.00000000E+00
Integer atomic weights                     I   N=           6
          12          12           1           1           1           1
Real atomic weights                        R   N=           6
  1.20000000E+01  1.20000000E+01  1.00782504E+00  1.00782504E+00  1.00782504E+00
  1.00782504E+00
Atom fragment info                         I   N=           6
           0           0           0           0           0           0
Atom residue num                           I   N=           6
           0           0           0           0           0           0
Nuclear spins                              I   N=           6
           0           0           1           1           1           1
Nuclear ZEff                               R   N=           6
 -3.60000000E+00 -3.60000000E+00 -1.00000000E+00 -1.00000000E+00 -1.00000000E+00
 -1.00000000E+00
Nuclear ZNuc                               R   N=           6
  6.00000000E+00  6.00000000E+00  1.00000000E+00  1.00000000E+00  1.00000000E+00
  1.00000000E+00
Nuclear QMom                               R   N=           6
  0.00000000E+00  0.00000000E+00  0.00000000E+00  0.00000000E+00  0.00000000E+00
  0.00000000E+00
Nuclear GFac                               R   N=           6
  0.00000000E+00  0.00000000E+00  2.79284600E+00  2.79284600E+00  2.79284600E+00
  2.79284600E+00
MicOpt                                     I   N=           6
          -1          -1          -1          -1          -1          -1
Number of residues                         I                0
Number of secondary structures             I                0
SymInf integers                            I   N=          26
           2           4           1           1           1          -1
          -1           1           1           1          -1          -1
          -1          -1           0           0           0           0
           0           0           0           0           0           0
           0           0
RotTr to input orientation                 R   N=          12
 -2.42514023E-17  1.00000000E+00  0.00000000E+00 -1.00000000E+00 -2.42530924E-17
  0.00000000E+00  0.00000000E+00  0.00000000E+00  1.00000000E+00  2.77555756E-17
  0.00000000E+00  0.00000000E+00
Number of contracted shells                I               28
Number of primitive shells                 I               50
Pure/Cartesian d shells                    I                0
Pure/Cartesian f shells                    I                0
Highest angular momentum                   I                2
Largest degree of contraction              I                6
Shell types                                I   N=          28
           0          -1          -1          -1          -1          -2
           0          -1          -1          -1          -1          -2
           0           0           0           1           0           0
           0           1           0           0           0           1
           0           0           0           1
Number of primitives per shell             I   N=          28
           6           3           1           1           1           1
           6           3           1           1           1           1
           3           1           1           1           3           1
           1           1           3           1           1           1
           3           1           1           1
Shell to atom map                          I   N=          28
           1           1           1           1           1           1
           2           2           2           2           2           2
           3           3           3           3           4           4
           4           4           5           5           5           5
           6           6           6           6
Primitive exponents                        R   N=          50
  4.56324000E+03  6.82024000E+02  1.54973000E+02  4.44553000E+01  1.30290000E+01
  1.82773000E+00  2.09642000E+01  4.80331000E+00  1.45933000E+00  4.83456000E-01
  1.45585000E-01  4.38000000E-02  6.26000000E-01  4.56324000E+03  6.82024000E+02
  1.54973000E+02  4.44553000E+01  1.30290000E+01  1.82773000E+00  2.09642000E+01
  4.80331000E+00  1.45933000E+00  4.83456000E-01  1.45585000E-01  4.38000000E-02
  6.26000000E-01  3.38650000E+01  5.09479000E+00  1.15879000E+00  3.25840000E-01
  1.02741000E-01  7.50000000E-01  3.38650000E+01  5.09479000E+00  1.15879000E+00
  3.25840000E-01  1.02741000E-01  7.50000000E-01  3.38650000E+01  5.09479000E+00
  1.15879000E+00  3.25840000E-01  1.02741000E-01  7.50000000E-01  3.38650000E+01
  5.09479000E+00  1.15879000E+00  3.25840000E-01  1.02741000E-01  7.50000000E-01
Contraction coefficients                   R   N=          50
  1.96665025E-03  1.52306019E-02  7.61269097E-02  2.60801033E-01  6.16462078E-01
  2.21006028E-01  1.14660081E-01  9.19999648E-01 -3.03068213E-03  1.00000000E+00
  1.00000000E+00  1.00000000E+00  1.00000000E+00  1.96665025E-03  1.52306019E-02
  7.61269097E-02  2.60801033E-01  6.16462078E-01  2.21006028E-01  1.14660081E-01
  9.19999648E-01 -3.03068213E-03  1.00000000E+00  1.00000000E+00  1.00000000E+00
  1.00000000E+00  2.54938145E-02  1.90373109E-01  8.52161486E-01  1.00000000E+00
  1.00000000E+00  1.00000000E+00  2.54938145E-02  1.90373109E-01  8.52161486E-01
  1.00000000E+00  1.00000000E+00  1.00000000E+00  2.54938145E-02  1.90373109E-01
  8.52161486E-01  1.00000000E+00  1.00000000E+00  1.00000000E+00  2.54938145E-02
  1.90373109E-01  8.52161486E-01  1.00000000E+00  1.00000000E+00  1.00000000E+00
P(S=P) Contraction coefficients            R   N=          50
  0.00000000E+00  0.00000000E+00  0.00000000E+00  0.00000000E+00  0.00000000E+00
  0.00000000E+00  4.02486927E-02  2.37593957E-01  8.15853851E-01  1.00000000E+00
  1.00000000E+00  1.00000000E+00  0.00000000E+00  0.00000000E+00  0.00000000E+00
  0.00000000E+00  0.00000000E+00  0.00000000E+00  0.00000000E+00  4.02486927E-02
  2.37593957E-01  8.15853851E-01  1.00000000E+00  1.00000000E+00  1.00000000E+00
  0.00000000E+00  0.00000000E+00  0.00000000E+00  0.00000000E+00  0.00000000E+00
  0.00000000E+00  0.00000000E+00  0.00000000E+00  0.00000000E+00  0.00000000E+00
  0.00000000E+00  0.00000000E+00  0.00000000E+00  0.00000000E+00  0.00000000E+00
  0.00000000E+00  0.00000000E+00  0.00000000E+00  0.00000000E+00  0.00000000E+00
  0.00000000E+00  0.00000000E+00  0.00000000E+00  0.00000000E+00  0.00000000E+00
Coordinates of each shell                  R   N=          84
 -6.99908269E-21  2.07054079E+00  0.00000000E+00 -6.99908269E-21  2.07054079E+00
  0.00000000E+00 -6.99908269E-21  2.07054079E+00  0.00000000E+00 -6.99908269E-21
  2.07054079E+00  0.00000000E+00 -6.99908269E-21  2.07054079E+00  0.00000000E+00
 -6.99908269E-21  2.07054079E+00  0.00000000E+00 -2.53554117E-16 -2.07054079E+00
  0.00000000E+00 -2.53554117E-16 -2.07054079E+00  0.00000000E+00 -2.53554117E-16
 -2.07054079E+00  0.00000000E+00 -2.53554117E-16 -2.07054079E+00  0.00000000E+00
 -2.53554117E-16 -2.07054079E+00  0.00000000E+00 -2.53554117E-16 -2.07054079E+00
  0.00000000E+00 -1.87391290E+00  2.90472070E+00  0.00000000E+00 -1.87391290E+00
  2.90472070E+00  0.00000000E+00 -1.87391290E+00  2.90472070E+00  0.00000000E+00
 -1.87391290E+00  2.90472070E+00  0.00000000E+00  1.87415856E+00  2.90464889E+00
  0.00000000E+00  1.87415856E+00  2.90464889E+00  0.00000000E+00  1.87415856E+00
  2.90464889E+00  0.00000000E+00  1.87415856E+00  2.90464889E+00  0.00000000E+00
  1.87391290E+00 -2.90472070E+00  0.00000000E+00  1.87391290E+00 -2.90472070E+00
  0.00000000E+00  1.87391290E+00 -2.90472070E+00  0.00000000E+00  1.87391290E+00
 -2.90472070E+00  0.00000000E+00 -1.87415856E+00 -2.90464889E+00  0.00000000E+00
 -1.87415856E+00 -2.90464889E+00  0.00000000E+00 -1.87415856E+00 -2.90464889E+00
  0.00000000E+00 -1.87415856E+00 -2.90464889E+00  0.00000000E+00
Num ILSW                                   I              100
ILSW                                       I   N=         100
           1           0           0           0           2           0
           0           0           0           0        4336          -1
           7           0           0           0           2           0
           0           0           0           0           1           0
           1           0           0           0           0           0
           0           0      100000           0          -1           0
           0           0           0           0           0           0
           0           0           0           1           0           0
           0 -2000000000           1           0           0           0
           0           0           4          52           0           0
           0           0          55           0           0           0
           0           0           0           6           0           1
           0           0           0           0           0           0
           0           0           0           0           0           0
           0           0           0           0           0           0
           0           0           0           0           0           0
           0           0           0           0
Num RLSW                                   I               52
RLSW                                       R   N=          52
  1.00000000E+00  1.00000000E+00  1.00000000E+00  1.00000000E+00  5.40000000E-01
  0.00000000E+00  0.00000000E+00  1.00000000E+00  0.00000000E+00  0.00000000E+00
  0.00000000E+00  0.00000000E+00  1.00000000E+00  0.00000000E+00  0.00000000E+00
  0.00000000E+00  0.00000000E+00  1.00000000E+00  0.00000000E+00  0.00000000E+00
  0.00000000E+00  0.00000000E+00  1.00000000E+00  0.00000000E+00  0.00000000E+00
  0.00000000E+00  0.00000000E+00  1.00000000E+00  0.00000000E+00  0.00000000E+00
  0.00000000E+00  0.00000000E+00  1.00000000E+00  0.00000000E+00  0.00000000E+00
  0.00000000E+00  0.00000000E+00  0.00000000E+00  1.00000000E+00  1.00000000E+00
  0.00000000E+00  1.00000000E+00  0.00000000E+00  0.00000000E+00  0.00000000E+00
  0.00000000E+00  0.00000000E+00  0.00000000E+00  0.00000000E+00  0.00000000E+00
  0.00000000E+00  0.00000000E+00
MxBond                                     I                2
NBond                                      I   N=           6
           2           2           1           1           1           1
IBond                                      I   N=          12
           3           4           5           6           1           0
           1           0           2           0           2           0
RBond                                      R   N=          12
  1.00000000E+00  1.00000000E+00  1.00000000E+00  1.00000000E+00  1.00000000E+00
  0.00000000E+00  1.00000000E+00  0.00000000E+00  1.00000000E+00  0.00000000E+00
  1.00000000E+00  0.00000000E+00
Virial Ratio                               R      2.010160384331112E+00
SCF Energy                                 R     -7.802394027174303E+01
Total Energy                               R     -7.802394027174303E+01
S**2                                       R      7.521568052356908E-01
S**2 after annihilation                    R      7.500035441250329E-01
RMS Force                                  R      3.846499688972067E-02
RMS Density                                R      5.139000897620184E-09
Job Status                                 I                1
Nuclear derivative order                   I                1
External E-field                           R   N=          35
  0.00000000E+00  0.00000000E+00  0.00000000E+00  0.00000000E+00  0.00000000E+00
  0.00000000E+00  0.00000000E+00  0.00000000E+00  0.00000000E+00  0.00000000E+00
  0.00000000E+00  0.00000000E+00  0.00000000E+00  0.00000000E+00  0.00000000E+00
  0.00000000E+00  0.00000000E+00  0.00000000E+00  0.00000000E+00  0.00000000E+00
  0.00000000E+00  0.00000000E+00  0.00000000E+00  0.00000000E+00  0.00000000E+00
  0.00000000E+00  0.00000000E+00  0.00000000E+00  0.00000000E+00  0.00000000E+00
  0.00000000E+00  0.00000000E+00  0.00000000E+00  0.00000000E+00  0.00000000E+00
IOpCl                                      I                1
IROHF                                      I                0
Alpha Orbital Energies                     R   N=          68
 -1.09236251E+01 -1.09235089E+01 -1.05434848E+00 -1.00400689E+00 -8.02977431E-01
 -7.79978131E-01 -6.45328564E-01 -5.48111792E-01 -3.74172669E-01 -2.78551099E-01
 -1.39515141E-01 -1.09393175E-01 -1.03250787E-01 -8.19538421E-02 -7.52709850E-02
 -7.05435864E-02 -4.74748374E-02 -3.92438236E-02 -3.28308690E-02 -4.86388323E-04
  1.93823476E-02  9.25253038E-02  1.79282286E-01  2.26204424E-01  2.41318625E-01
  3.21391533E-01  3.80045565E-01  4.02463442E-01  4.12082786E-01  4.36159457E-01
  4.55516440E-01  4.92221712E-01  5.27011028E-01  5.59242897E-01  8.01617211E-01
  8.12991528E-01  8.80858121E-01  8.99720677E-01  1.13270240E+00  1.13369517E+00
  1.14275951E+00  1.24676462E+00  1.26082187E+00  1.46949099E+00  1.48466026E+00
  1.48725665E+00  1.48887784E+00  1.59766121E+00  1.66164851E+00  1.74442097E+00
  1.74557018E+00  1.77805763E+00  2.12197013E+00  2.26233174E+00  2.26998309E+00
  2.33945232E+00  2.38051785E+00  2.39597350E+00  2.40232573E+00  2.41223061E+00
  2.45271823E+00  2.46693456E+00  2.51605490E+00  2.91971400E+00  3.40903236E+00
  3.44329164E+00  2.34986701E+01  2.35081516E+01
Beta Orbital Energies                      R   N=          68
 -1.09212073E+01 -1.09211358E+01 -1.02463230E+00 -9.81115821E-01 -7.98182884E-01
 -7.76385103E-01 -6.28871007E-01 -3.44626101E-01 -2.83922073E-01 -2.55983020E-01
 -1.51764220E-01 -1.12197017E-01 -1.04568200E-01 -7.57590237E-02 -7.38595428E-02
 -7.35603730E-02 -4.06134655E-02 -3.83394197E-02 -2.77724345E-02  4.85339035E-03
  1.01826588E-02  1.00888069E-01  1.79952599E-01  2.28840092E-01  2.46044564E-01
  3.36414593E-01  3.68490655E-01  4.12370918E-01  4.23146212E-01  4.24548590E-01
  4.71237091E-01  5.04524076E-01  5.31003306E-01  5.61044251E-01  8.32749647E-01
  8.41687277E-01  9.18230038E-01  9.29029131E-01  1.14281438E+00  1.15501160E+00
  1.15927891E+00  1.28078631E+00  1.28574529E+00  1.48386420E+00  1.49725997E+00
  1.50229423E+00  1.52536545E+00  1.60892072E+00  1.67400101E+00  1.75634519E+00
  1.76231003E+00  1.79413835E+00  2.15875986E+00  2.28089460E+00  2.30115592E+00
  2.35278385E+00  2.40275196E+00  2.41908890E+00  2.44176766E+00  2.44566246E+00
  2.49538819E+00  2.50807250E+00  2.53811120E+00  2.95622861E+00  3.45362188E+00
  3.48830609E+00  2.35110683E+01  2.35208239E+01
Alpha MO coefficients                      R   N=        4624
  3.99024576E-01  3.28089984E-01  2.46083958E-08 -5.45247948E-04  0.00000000E+00
  7.81952473E-03 -1.04648309E-06  1.32606784E-03  0.00000000E+00 -1.90013683E-03
  2.55410712E-09 -1.06646829E-04  0.00000000E+00 -5.27212866E-04  4.22442938E-07
 -3.03363525E-04  0.00000000E+00 -8.53052444E-04  0.00000000E+00  0.00000000E+00
  9.68500401E-04 -4.50924317E-07  3.99024576E-01  3.28089984E-01 -2.46083958E-08
  5.45247948E-04  0.00000000E+00  7.81952473E-03  1.04648309E-06 -1.32606784E-03
  0.00000000E+00 -1.90013683E-03 -2.55410712E-09  1.06646829E-04  0.00000000E+00
 -5.27212866E-04 -4.22442938E-07  3.03363525E-04  0.00000000E+00 -8.53052444E-04
  0.00000000E+00  0.00000000E+00  9.68500401E-04 -4.50924317E-07  1.33601952E-04
 -2.24671995E-03  1.44825192E-03 -1.28156425E-03  6.46782335E-04  0.00000000E+00
  1.33818041E-04 -2.24490470E-03  1.44691200E-03  1.28084554E-03  6.46348767E-04
  0.00000000E+00  1.33601952E-04 -2.24671995E-03  1.44825192E-03  1.28156425E-03
 -6.46782335E-04  0.00000000E+00  1.33818041E-04 -2.24490470E-03  1.44691200E-03
 -1.28084554E-03 -6.46348767E-04  0.00000000E+00  3.99038612E-01  3.28100729E-01
  2.27572302E-08 -6.12179938E-04  0.00000000E+00  8.01994963E-03 -1.01985833E-06
  1.64683986E-03  0.00000000E+00 -3.03185384E-03  6.02501972E-08  3.08202199E-04
  0.00000000E+00  5.97222241E-04  1.45576285E-07 -8.25441728E-04  0.00000000E+00
 -7.46603726E-04  0.00000000E+00  0.00000000E+00  1.16917852E-03 -4.49984906E-07
 -3.99038612E-01 -3.28100729E-01  2.27572302E-08 -6.12179938E-04  0.00000000E+00
 -8.01994963E-03 -1.01985833E-06  1.64683986E-03  0.00000000E+00  3.03185384E-03
  6.02501972E-08  3.08202199E-04  0.00000000E+00 -5.97222241E-04  1.45576285E-07
 -8.25441728E-04  0.00000000E+00  7.46603726E-04  0.00000000E+00  0.00000000E+00
 -1.16917852E-03  4.49984906E-07  9.30716056E-05 -2.13792739E-03  1.60690339E-03
 -1.30468037E-03  5.98000378E-04  0.00000000E+00  9.33267923E-05 -2.13630489E-03
  1.60585613E-03  1.30397145E-03  5.97573380E-04  0.00000000E+00 -9.30716056E-05
  2.13792739E-03 -1.60690339E-03 -1.30468037E-03  5.98000378E-04  0.00000000E+00
 -9.33267923E-05  2.13630489E-03 -1.60585613E-03  1.30397145E-03  5.97573380E-04
  0.00000000E+00 -8.05387787E-02 -1.31120104E-01 -1.11359257E-05  1.06173394E-02
  0.00000000E+00  3.63836208E-01 -1.16912716E-05  1.00002527E-02  0.00000000E+00
  2.46266346E-01 -3.98426629E-06 -4.17225050E-03  0.00000000E+00  7.45134231E-04
 -1.93759052E-06  5.06860620E-03  0.00000000E+00 -5.00512509E-03  0.00000000E+00
  0.00000000E+00  2.03372191E-03 -1.49897184E-06 -8.05387787E-02 -1.31120104E-01
  1.11359257E-05 -1.06173394E-02  0.00000000E+00  3.63836208E-01  1.16912716E-05
 -1.00002527E-02  0.00000000E+00  2.46266346E-01  3.98426629E-06  4.17225050E-03
  0.00000000E+00  7.45134231E-04  1.93759052E-06 -5.06860620E-03  0.00000000E+00
 -5.00512509E-03  0.00000000E+00  0.00000000E+00  2.03372191E-03 -1.49897184E-06
  6.99998054E-02  7.77894715E-02 -6.86228507E-03  1.18740118E-02 -4.61474279E-03
  0.00000000E+00  6.99794998E-02  7.77701182E-02 -6.85705876E-03 -1.18719818E-02
 -4.61232539E-03  0.00000000E+00  6.99998054E-02  7.77894715E-02 -6.86228507E-03
 -1.18740118E-02  4.61474279E-03  0.00000000E+00  6.99794998E-02  7.77701182E-02
 -6.85705876E-03  1.18719818E-02  4.61232539E-03  0.00000000E+00 -7.90080192E-02
 -1.29034977E-01 -1.61415132E-05  4.26172485E-02  0.00000000E+00  3.62853105E-01
 -1.90603917E-05  6.42753231E-02  0.00000000E+00  2.51145307E-01 -6.71649468E-06
  1.84178005E-02  0.00000000E+00 -2.33456104E-02 -2.88007801E-07  1.15039486E-02
  0.00000000E+00 -3.98414895E-03  0.00000000E+00  0.00000000E+00  1.01707896E-02
 -2.27183463E-06  7.90080192E-02  1.29034977E-01 -1.61415132E-05  4.26172485E-02
  0.00000000E+00 -3.62853105E-01 -1.90603917E-05  6.42753231E-02  0.00000000E+00
 -2.51145307E-01 -6.71649468E-06  1.84178005E-02  0.00000000E+00  2.33456104E-02
 -2.88007801E-07  1.15039486E-02  0.00000000E+00  3.98414895E-03  0.00000000E+00
  0.00000000E+00 -1.01707896E-02  2.27183463E-06  8.02989119E-02  9.18671217E-02
 -3.18613848E-03  1.26062963E-02 -3.32237308E-03  0.00000000E+00  8.02708475E-02
  9.18407155E-02 -3.18381883E-03 -1.26036569E-02 -3.31981699E-03  0.00000000E+00
 -8.02989119E-02 -9.18671217E-02  3.18613848E-03  1.26062963E-02 -3.32237308E-03
  0.00000000E+00 -8.02708475E-02 -9.18407155E-02  3.18381883E-03 -1.26036569E-02
 -3.31981699E-03  0.00000000E+00 -6.71422436E-06 -1.13343767E-05  1.59675779E-01
 -2.79024420E-06  0.00000000E+00  3.35975052E-05  2.30490171E-01 -8.29845581E-07
  0.00000000E+00  3.96993138E-05  1.35607030E-01 -2.10797195E-06  0.00000000E+00
 -1.47733640E-06  3.55720758E-03  1.23922611E-06  0.00000000E+00  1.82085344E-07
  0.00000000E+00  0.00000000E+00  1.36924309E-06  1.14116552E-02  6.71422436E-06
  1.13343767E-05  1.59675779E-01 -2.79024420E-06  0.00000000E+00 -3.35975052E-05
  2.30490171E-01 -8.29845581E-07  0.00000000E+00 -3.96993138E-05  1.35607030E-01
 -2.10797195E-06  0.00000000E+00  1.47733640E-06  3.55720758E-03  1.23922611E-06
  0.00000000E+00 -1.82085344E-07  0.00000000E+00  0.00000000E+00 -1.36924309E-06
 -1.14116552E-02 -1.04326857E-01 -1.35907366E-01 -8.94476074E-03 -1.04503018E-02
  7.66106953E-03  0.00000000E+00  1.04336345E-01  1.35929087E-01  8.94775037E-03
 -1.04536607E-02 -7.66033229E-03  0.00000000E+00  1.04326857E-01  1.35907366E-01
  8.94476074E-03 -1.04503018E-02  7.66106953E-03  0.00000000E+00 -1.04336345E-01
 -1.35929087E-01 -8.94775037E-03 -1.04536607E-02 -7.66033229E-03  0.00000000E+00
 -4.33020876E-06 -7.42276532E-06  1.63392225E-01 -2.00944074E-05  0.00000000E+00
  2.19192099E-05  2.32953881E-01 -2.84169630E-05  0.00000000E+00  3.28364443E-05
  1.40112859E-01 -1.73076968E-05  0.00000000E+00  6.88499864E-07  1.16382857E-02
  6.51194039E-07  0.00000000E+00  2.50651935E-07  0.00000000E+00  0.00000000E+00
 -9.78148704E-07  1.75974790E-02 -4.33020876E-06 -7.42276532E-06 -1.63392225E-01
  2.00944074E-05  0.00000000E+00  2.19192099E-05 -2.32953881E-01  2.84169630E-05
  0.00000000E+00  3.28364443E-05 -1.40112859E-01  1.73076968E-05  0.00000000E+00
  6.88499864E-07 -1.16382857E-02 -6.51194039E-07  0.00000000E+00  2.50651935E-07
  0.00000000E+00  0.00000000E+00 -9.78148704E-07  1.75974790E-02 -1.08872121E-01
 -1.46798411E-01 -1.01124289E-02 -1.08964640E-02  8.14666095E-03  0.00000000E+00
  1.08865839E-01  1.46798812E-01  1.01140710E-02 -1.08978806E-02 -8.14656864E-03
  0.00000000E+00 -1.08872121E-01 -1.46798411E-01 -1.01124289E-02  1.08964640E-02
 -8.14666095E-03  0.00000000E+00  1.08865839E-01  1.46798812E-01  1.01140710E-02
  1.08978806E-02  8.14656864E-03  0.00000000E+00  9.94046829E-03  1.65142434E-02
  1.67063982E-05  1.77150170E-01  0.00000000E+00 -3.98628788E-02  2.74383362E-05
  2.84402652E-01  0.00000000E+00 -1.06902555E-01  1.88139781E-05  2.12877807E-01
  0.00000000E+00 -2.52168229E-03  5.67033150E-07 -5.32471038E-03  0.00000000E+00
  1.11976545E-06  0.00000000E+00  0.00000000E+00  1.67937796E-02  2.57728607E-07
  9.94046829E-03  1.65142434E-02 -1.67063982E-05 -1.77150170E-01  0.00000000E+00
 -3.98628788E-02 -2.74383362E-05 -2.84402652E-01  0.00000000E+00 -1.06902555E-01
 -1.88139781E-05 -2.12877807E-01  0.00000000E+00 -2.52168229E-03 -5.67033150E-07
  5.32471038E-03  0.00000000E+00  1.11976545E-06  0.00000000E+00  0.00000000E+00
  1.67937796E-02  2.57728607E-07  5.27088017E-02  8.48074254E-02  2.27581582E-02
  7.94629056E-03  6.46669901E-03  0.00000000E+00  5.27239613E-02  8.48368486E-02
  2.27681689E-02 -7.94711017E-03  6.46489858E-03  0.00000000E+00  5.27088017E-02
  8.48074254E-02  2.27581582E-02 -7.94629056E-03 -6.46669901E-03  0.00000000E+00
  5.27239613E-02  8.48368486E-02  2.27681689E-02  7.94711017E-03 -6.46489858E-03
  0.00000000E+00  0.00000000E+00  0.00000000E+00  0.00000000E+00  0.00000000E+00
  1.89624595E-01  0.00000000E+00  0.00000000E+00  0.00000000E+00  3.02987463E-01
  0.00000000E+00  0.00000000E+00  0.00000000E+00  2.98473501E-01  0.00000000E+00
  0.00000000E+00  0.00000000E+00  1.16411916E-02  0.00000000E+00 -9.68311061E-07
 -8.38209037E-03  0.00000000E+00  0.00000000E+00  0.00000000E+00  0.00000000E+00
  0.00000000E+00  0.00000000E+00  1.89624595E-01  0.00000000E+00  0.00000000E+00
  0.00000000E+00  3.02987463E-01  0.00000000E+00  0.00000000E+00  0.00000000E+00
  2.98473501E-01  0.00000000E+00  0.00000000E+00  0.00000000E+00  1.16411916E-02
  0.00000000E+00  9.68311061E-07  8.38209037E-03  0.00000000E+00  0.00000000E+00
  0.00000000E+00  0.00000000E+00  0.00000000E+00  0.00000000E+00  0.00000000E+00
  1.27017329E-02  0.00000000E+00  0.00000000E+00  0.00000000E+00  0.00000000E+00
  0.00000000E+00  1.27003348E-02  0.00000000E+00  0.00000000E+00  0.00000000E+00
  0.00000000E+00  0.00000000E+00  1.27017329E-02  0.00000000E+00  0.00000000E+00
  0.00000000E+00  0.00000000E+00  0.00000000E+00  1.27003348E-02  0.00000000E+00
  0.00000000E+00  0.00000000E+00  0.00000000E+00  2.06676310E-01  0.00000000E+00
  0.00000000E+00  0.00000000E+00  3.26838800E-01  0.00000000E+00  0.00000000E+00
  0.00000000E+00  3.43879706E-01  0.00000000E+00  0.00000000E+00  0.00000000E+00
  4.73780399E-02  0.00000000E+00 -9.37598012E-07  1.28192998E-02  0.00000000E+00
  0.00000000E+00  0.00000000E+00  0.00000000E+00  0.00000000E+00  0.00000000E+00
 -2.06676310E-01  0.00000000E+00  0.00000000E+00  0.00000000E+00 -3.26838800E-01
  0.00000000E+00  0.00000000E+00  0.00000000E+00 -3.43879706E-01  0.00000000E+00
  0.00000000E+00  0.00000000E+00 -4.73780399E-02  0.00000000E+00 -9.37598012E-07
  1.28192998E-02  0.00000000E+00  0.00000000E+00  0.00000000E+00  0.00000000E+00
  0.00000000E+00  0.00000000E+00  0.00000000E+00  1.66418500E-02  0.00000000E+00
  0.00000000E+00  0.00000000E+00  0.00000000E+00  0.00000000E+00  1.66399892E-02
  0.00000000E+00  0.00000000E+00  0.00000000E+00  0.00000000E+00  0.00000000E+00
 -1.66418500E-02  0.00000000E+00  0.00000000E+00  0.00000000E+00  0.00000000E+00
  0.00000000E+00 -1.66399892E-02 -4.50449103E-02 -7.60102802E-02 -2.09933693E-06
 -2.01719034E-01  0.00000000E+00  2.27476085E-01 -7.99930139E-06 -3.02297742E-01
  0.00000000E+00  4.67720438E-01 -9.30776166E-06 -4.25729958E-01  0.00000000E+00
  3.32776406E-01 -3.57221415E-06 -2.03399148E-01  0.00000000E+00  1.48177811E-02
  0.00000000E+00  0.00000000E+00  1.78697368E-02  8.79380364E-07  4.50449103E-02
  7.60102802E-02 -2.09933693E-06 -2.01719034E-01  0.00000000E+00 -2.27476085E-01
 -7.99930139E-06 -3.02297742E-01  0.00000000E+00 -4.67720438E-01 -9.30776166E-06
 -4.25729958E-01  0.00000000E+00 -3.32776406E-01 -3.57221415E-06 -2.03399148E-01
  0.00000000E+00 -1.48177811E-02  0.00000000E+00  0.00000000E+00 -1.78697368E-02
 -8.79380364E-07 -3.30826918E-02 -7.41666916E-02 -6.97871316E-02 -7.88079760E-03
 -1.37797442E-02  0.00000000E+00 -3.30782549E-02 -7.41579406E-02 -6.97936378E-02
  7.87728161E-03 -1.37793519E-02  0.00000000E+00  3.30826918E-02  7.41666916E-02
  6.97871316E-02 -7.88079760E-03 -1.37797442E-02  0.00000000E+00  3.30782549E-02
  7.41579406E-02  6.97936378E-02  7.87728161E-03 -1.37793519E-02  0.00000000E+00
  3.46706856E-02  5.92779303E-02 -1.46656645E-05 -3.16948496E-02  0.00000000E+00
 -1.73125607E-01 -1.04577489E-05 -4.90293177E-02  0.00000000E+00 -7.47590977E-01
 -6.32903872E-05 -1.14280108E-01  0.00000000E+00  8.21329192E-01 -3.01986445E-05
  1.11750437E-01  0.00000000E+00  1.01954426E-02  0.00000000E+00  0.00000000E+00
  2.53488061E-03  3.48056813E-06  3.46706856E-02  5.92779303E-02  1.46656645E-05
  3.16948496E-02  0.00000000E+00 -1.73125607E-01  1.04577489E-05  4.90293177E-02
  0.00000000E+00 -7.47590977E-01  6.32903872E-05  1.14280108E-01  0.00000000E+00
  8.21329192E-01  3.01986445E-05 -1.11750437E-01  0.00000000E+00  1.01954426E-02
  0.00000000E+00  0.00000000E+00  2.53488061E-03  3.48056813E-06  7.95047987E-03
  1.21834520E-01  5.29094166E-02 -6.65981062E-03 -2.94055437E-03  0.00000000E+00
  7.95890322E-03  1.21835234E-01  5.30618071E-02  6.66541908E-03 -2.93722146E-03
  0.00000000E+00  7.95047987E-03  1.21834520E-01  5.29094166E-02  6.65981062E-03
  2.94055437E-03  0.00000000E+00  7.95890322E-03  1.21835234E-01  5.30618071E-02
 -6.66541908E-03  2.93722146E-03  0.00000000E+00  4.00424096E-06  6.65219806E-06
 -7.15969429E-02 -1.66715116E-05  0.00000000E+00 -1.51507634E-05 -1.17226882E-01
 -2.15936166E-05  0.00000000E+00 -1.19117050E-04 -2.03324337E-01 -8.41873162E-05
  0.00000000E+00  5.78503439E-05  7.29946836E-01  3.50566452E-07  0.00000000E+00
 -1.58766330E-06  0.00000000E+00  0.00000000E+00  2.62102873E-06 -9.82057847E-03
 -4.00424096E-06 -6.65219806E-06 -7.15969429E-02 -1.66715116E-05  0.00000000E+00
  1.51507634E-05 -1.17226882E-01 -2.15936166E-05  0.00000000E+00  1.19117050E-04
 -2.03324337E-01 -8.41873162E-05  0.00000000E+00 -5.78503439E-05  7.29946836E-01
  3.50566452E-07  0.00000000E+00  1.58766330E-06  0.00000000E+00  0.00000000E+00
 -2.62102873E-06  9.82057847E-03  1.69567713E-02 -5.14944283E-02  1.62881581E-01
  9.62338613E-03 -1.28391728E-03  0.00000000E+00 -1.69406751E-02  5.15521423E-02
 -1.62745920E-01  9.62919050E-03  1.28219959E-03  0.00000000E+00 -1.69567713E-02