Title Card Required                                                     
FOpt      UM062X                                                      6-311+G(d,p)        
Number of atoms                            I                4
Info1-9                                    I   N=           9
          13          13           0           0           0         110
           2          18        -502
Full Title                                 C   N=           2
Title Card Required     
Route                                      C   N=           4
#p opt UM062X/6-311+G** nosymm int=superfine    
Charge                                     I                0
Multiplicity                               I                1
Number of electrons                        I               14
Number of alpha electrons                  I                7
Number of beta electrons                   I                7
Number of basis functions                  I               56
Number of independent functions            I               56
Number of point charges in /Mol/           I                0
Number of translation vectors              I                0
Atomic numbers                             I   N=           4
           6           6           1           1
Nuclear charges                            R   N=           4
  6.00000000E+00  6.00000000E+00  1.00000000E+00  1.00000000E+00
Current cartesian coordinates              R   N=          12
 -1.85689213E+00  0.00000000E+00  0.00000000E+00  1.85689213E+00  0.00000000E+00
  0.00000000E+00 -2.07051825E+00  6.07267402E-01  2.01023982E+00  2.07174373E+00
  1.95382640E+00 -7.69083072E-01
Number of symbols in /Mol/                 I                0
Force Field                                I                0
Atom Types                                 C   N=           4
                                                
Int Atom Types                             I   N=           4
           0           0           0           0
MM charges                                 R   N=           4
  0.00000000E+00  0.00000000E+00  0.00000000E+00  0.00000000E+00
Integer atomic weights                     I   N=           4
          12          12           1           1
Real atomic weights                        R   N=           4
  1.20000000E+01  1.20000000E+01  1.00782504E+00  1.00782504E+00
Atom fragment info                         I   N=           4
           0           0           0           0
Atom residue num                           I   N=           4
           0           0           0           0
Nuclear spins                              I   N=           4
           0           0           1           1
Nuclear ZEff                               R   N=           4
 -3.60000000E+00 -3.60000000E+00 -1.00000000E+00 -1.00000000E+00
Nuclear ZNuc                               R   N=           4
  6.00000000E+00  6.00000000E+00  1.00000000E+00  1.00000000E+00
Nuclear QMom                               R   N=           4
  0.00000000E+00  0.00000000E+00  0.00000000E+00  0.00000000E+00
Nuclear GFac                               R   N=           4
  0.00000000E+00  0.00000000E+00  2.79284600E+00  2.79284600E+00
MicOpt                                     I   N=           4
          -2          -2          -1          -1
Number of residues                         I                0
Number of secondary structures             I                0
Redundant internal dimensions              I   N=           4
          11           8           2           1
Redundant internal coordinate indices      I   N=          44
           1          -1           0           0           1          -2
           0           0           1          -3           0           0
           2          -1           0           0           2          -2
           0           0           2          -3           0           0
           1           3           0           0           2           4
           0           0           2           1           3           0
           1           2           4           0           3           1
           2           4
Redundant internal coordinates             R   N=          11
 -1.85689213E+00  0.00000000E+00  0.00000000E+00  1.85689213E+00  0.00000000E+00
  0.00000000E+00  2.11079936E+00  2.11070784E+00  1.67217616E+00  1.67276419E+00
 -1.65242817E+00
ZRed-IntVec                                I   N=          11
          -1          -1          -1          -1          -1          -1
           0           0           0           0           0
ZRed-FPVec                                 R   N=          11
  0.00000000E+00  0.00000000E+00  0.00000000E+00  0.00000000E+00  0.00000000E+00
  0.00000000E+00  0.00000000E+00  0.00000000E+00  0.00000000E+00  0.00000000E+00
  0.00000000E+00
ZRed-Constraint1                           R   N=          11
 -1.85689213E+00  0.00000000E+00  0.00000000E+00  1.85689213E+00  0.00000000E+00
  0.00000000E+00  2.14388967E+00  2.21064361E+00  1.69741585E+00  1.52398323E+00
 -2.06729813E+00
ZRed-Constraint2                           R   N=          11
 -1.85689213E+00  0.00000000E+00  0.00000000E+00  1.85689213E+00  0.00000000E+00
  0.00000000E+00  0.00000000E+00  0.00000000E+00  0.00000000E+00  0.00000000E+00
  0.00000000E+00
Number of contracted shells                I               20
Number of primitive shells                 I               38
Pure/Cartesian d shells                    I                0
Pure/Cartesian f shells                    I                0
Highest angular momentum                   I                2
Largest degree of contraction              I                6
Shell types                                I   N=          20
           0          -1          -1          -1          -1          -2
           0          -1          -1          -1          -1          -2
           0           0           0           1           0           0
           0           1
Number of primitives per shell             I   N=          20
           6           3           1           1           1           1
           6           3           1           1           1           1
           3           1           1           1           3           1
           1           1
Shell to atom map                          I   N=          20
           1           1           1           1           1           1
           2           2           2           2           2           2
           3           3           3           3           4           4
           4           4
Primitive exponents                        R   N=          38
  4.56324000E+03  6.82024000E+02  1.54973000E+02  4.44553000E+01  1.30290000E+01
  1.82773000E+00  2.09642000E+01  4.80331000E+00  1.45933000E+00  4.83456000E-01
  1.45585000E-01  4.38000000E-02  6.26000000E-01  4.56324000E+03  6.82024000E+02
  1.54973000E+02  4.44553000E+01  1.30290000E+01  1.82773000E+00  2.09642000E+01
  4.80331000E+00  1.45933000E+00  4.83456000E-01  1.45585000E-01  4.38000000E-02
  6.26000000E-01  3.38650000E+01  5.09479000E+00  1.15879000E+00  3.25840000E-01
  1.02741000E-01  7.50000000E-01  3.38650000E+01  5.09479000E+00  1.15879000E+00
  3.25840000E-01  1.02741000E-01  7.50000000E-01
Contraction coefficients                   R   N=          38
  1.96665025E-03  1.52306019E-02  7.61269097E-02  2.60801033E-01  6.16462078E-01
  2.21006028E-01  1.14660081E-01  9.19999648E-01 -3.03068213E-03  1.00000000E+00
  1.00000000E+00  1.00000000E+00  1.00000000E+00  1.96665025E-03  1.52306019E-02
  7.61269097E-02  2.60801033E-01  6.16462078E-01  2.21006028E-01  1.14660081E-01
  9.19999648E-01 -3.03068213E-03  1.00000000E+00  1.00000000E+00  1.00000000E+00
  1.00000000E+00  2.54938145E-02  1.90373109E-01  8.52161486E-01  1.00000000E+00
  1.00000000E+00  1.00000000E+00  2.54938145E-02  1.90373109E-01  8.52161486E-01
  1.00000000E+00  1.00000000E+00  1.00000000E+00
P(S=P) Contraction coefficients            R   N=          38
  0.00000000E+00  0.00000000E+00  0.00000000E+00  0.00000000E+00  0.00000000E+00
  0.00000000E+00  4.02486927E-02  2.37593957E-01  8.15853851E-01  1.00000000E+00
  1.00000000E+00  1.00000000E+00  0.00000000E+00  0.00000000E+00  0.00000000E+00
  0.00000000E+00  0.00000000E+00  0.00000000E+00  0.00000000E+00  4.02486927E-02
  2.37593957E-01  8.15853851E-01  1.00000000E+00  1.00000000E+00  1.00000000E+00
  0.00000000E+00  0.00000000E+00  0.00000000E+00  0.00000000E+00  0.00000000E+00
  0.00000000E+00  0.00000000E+00  0.00000000E+00  0.00000000E+00  0.00000000E+00
  0.00000000E+00  0.00000000E+00  0.00000000E+00
Coordinates of each shell                  R   N=          60
 -1.85689213E+00  0.00000000E+00  0.00000000E+00 -1.85689213E+00  0.00000000E+00
  0.00000000E+00 -1.85689213E+00  0.00000000E+00  0.00000000E+00 -1.85689213E+00
  0.00000000E+00  0.00000000E+00 -1.85689213E+00  0.00000000E+00  0.00000000E+00
 -1.85689213E+00  0.00000000E+00  0.00000000E+00  1.85689213E+00  0.00000000E+00
  0.00000000E+00  1.85689213E+00  0.00000000E+00  0.00000000E+00  1.85689213E+00
  0.00000000E+00  0.00000000E+00  1.85689213E+00  0.00000000E+00  0.00000000E+00
  1.85689213E+00  0.00000000E+00  0.00000000E+00  1.85689213E+00  0.00000000E+00
  0.00000000E+00 -2.07051825E+00  6.07267402E-01  2.01023982E+00 -2.07051825E+00
  6.07267402E-01  2.01023982E+00 -2.07051825E+00  6.07267402E-01  2.01023982E+00
 -2.07051825E+00  6.07267402E-01  2.01023982E+00  2.07174373E+00  1.95382640E+00
 -7.69083072E-01  2.07174373E+00  1.95382640E+00 -7.69083072E-01  2.07174373E+00
  1.95382640E+00 -7.69083072E-01  2.07174373E+00  1.95382640E+00 -7.69083072E-01
Num ILSW                                   I              100
ILSW                                       I   N=         100
           1           0           0           1           2           0
           0           0           0           0        4336          -1
           7           0           0           0           2           0
           0           0           0           0           1           0
           1           1           0           0           0           0
           0           0      100000           0          -1           0
           0           0           0           0           0           0
           0           0           0           1           0           0
           0 -2000000000           1           0           0           0
           0           0           4          52           0           0
           0           0          55           0           0           0
           0           0           0           4           0           1
           0           0           0           0           0           0
           0           0           0           0           0           0
           0           0           0           0           0           0
           0           0           0           0           0           0
           0           0           0           0
Num RLSW                                   I               52
RLSW                                       R   N=          52
  1.00000000E+00  1.00000000E+00  1.00000000E+00  1.00000000E+00  5.40000000E-01
  0.00000000E+00  0.00000000E+00  1.00000000E+00  0.00000000E+00  0.00000000E+00
  0.00000000E+00  0.00000000E+00  1.00000000E+00  0.00000000E+00  0.00000000E+00
  0.00000000E+00  0.00000000E+00  1.00000000E+00  0.00000000E+00  0.00000000E+00
  0.00000000E+00  0.00000000E+00  1.00000000E+00  0.00000000E+00  0.00000000E+00
  0.00000000E+00  0.00000000E+00  1.00000000E+00  0.00000000E+00  0.00000000E+00
  0.00000000E+00  0.00000000E+00  1.00000000E+00  0.00000000E+00  0.00000000E+00
  0.00000000E+00  0.00000000E+00  0.00000000E+00  1.00000000E+00  1.00000000E+00
  0.00000000E+00  1.00000000E+00  0.00000000E+00  0.00000000E+00  0.00000000E+00
  0.00000000E+00  0.00000000E+00  0.00000000E+00  0.00000000E+00  0.00000000E+00
  0.00000000E+00  0.00000000E+00
MxBond                                     I                2
NBond                                      I   N=           4
           2           2           1           1
IBond                                      I   N=           8
           2           3           1           4           1           0
           2           0
RBond                                      R   N=           8
  1.00000000E-01  1.00000000E+00  1.00000000E-01  1.00000000E+00  1.00000000E+00
  0.00000000E+00  1.00000000E+00  0.00000000E+00
Virial Ratio                               R      2.008502103395646E+00
SCF Energy                                 R     -7.704280015666775E+01
Total Energy                               R     -7.704280015666775E+01
S**2                                       R     -3.552713678800501E-15
S**2 after annihilation                    R      3.552713678800495E-15
RMS Force                                  R      6.189268902321752E-06
RMS Density                                R      6.343966011511770E-09
Job Status                                 I                1
Nuclear derivative order                   I                1
External E-field                           R   N=          35
  0.00000000E+00  0.00000000E+00  0.00000000E+00  0.00000000E+00  0.00000000E+00
  0.00000000E+00  0.00000000E+00  0.00000000E+00  0.00000000E+00  0.00000000E+00
  0.00000000E+00  0.00000000E+00  0.00000000E+00  0.00000000E+00  0.00000000E+00
  0.00000000E+00  0.00000000E+00  0.00000000E+00  0.00000000E+00  0.00000000E+00
  0.00000000E+00  0.00000000E+00  0.00000000E+00  0.00000000E+00  0.00000000E+00
  0.00000000E+00  0.00000000E+00  0.00000000E+00  0.00000000E+00  0.00000000E+00
  0.00000000E+00  0.00000000E+00  0.00000000E+00  0.00000000E+00  0.00000000E+00
IOpCl                                      I                1
IROHF                                      I                0
Alpha Orbital Energies                     R   N=          56
 -1.06572260E+01 -1.06570732E+01 -7.80208098E-01 -6.76085946E-01 -4.22074213E-01
 -3.76089082E-01 -3.08320138E-01 -8.92270388E-02 -8.34277404E-02  2.66694265E-02
  2.71176978E-02  6.65439974E-02  7.67610710E-02  9.72835379E-02  1.02193311E-01
  1.05378166E-01  1.09075049E-01  1.59524305E-01  1.66809799E-01  2.12187772E-01
  4.62500402E-01  4.78810015E-01  5.69686261E-01  5.71850658E-01  5.83191694E-01
  6.13362262E-01  6.16589845E-01  6.53066058E-01  7.36322033E-01  8.13240637E-01
  1.07969681E+00  1.08916134E+00  1.14330124E+00  1.15929225E+00  1.28722215E+00
  1.43950632E+00  1.44446701E+00  1.58458817E+00  1.59077180E+00  1.84077478E+00
  1.86784916E+00  1.87485383E+00  1.88919587E+00  1.95925948E+00  2.41215701E+00
  2.42059855E+00  2.49522110E+00  2.56858236E+00  2.65406901E+00  2.72359464E+00
  2.72496161E+00  3.04128801E+00  3.19034395E+00  3.30803258E+00  2.35471608E+01
  2.35501575E+01
Beta Orbital Energies                      R   N=          56
 -1.06572260E+01 -1.06570732E+01 -7.80208098E-01 -6.76085946E-01 -4.22074213E-01
 -3.76089082E-01 -3.08320138E-01 -8.92270388E-02 -8.34277404E-02  2.66694265E-02
  2.71176978E-02  6.65439974E-02  7.67610710E-02  9.72835379E-02  1.02193311E-01
  1.05378166E-01  1.09075049E-01  1.59524305E-01  1.66809799E-01  2.12187772E-01
  4.62500402E-01  4.78810015E-01  5.69686261E-01  5.71850658E-01  5.83191694E-01
  6.13362262E-01  6.16589845E-01  6.53066058E-01  7.36322033E-01  8.13240637E-01
  1.07969681E+00  1.08916134E+00  1.14330124E+00  1.15929225E+00  1.28722215E+00
  1.43950632E+00  1.44446701E+00  1.58458817E+00  1.59077180E+00  1.84077478E+00
  1.86784916E+00  1.87485383E+00  1.88919587E+00  1.95925948E+00  2.41215701E+00
  2.42059855E+00  2.49522110E+00  2.56858236E+00  2.65406901E+00  2.72359464E+00
  2.72496161E+00  3.04128801E+00  3.19034395E+00  3.30803258E+00  2.35471608E+01
  2.35501575E+01
Alpha MO coefficients                      R   N=        3136
  4.09518378E-01  3.37203078E-01  8.65542093E-04  2.93888578E-04  9.96567249E-04
  7.08052064E-03 -2.36158523E-04  3.39439716E-04  1.06189429E-03 -2.97436308E-03
  9.54886183E-06 -7.21339420E-05 -8.90856178E-05  1.72268224E-04  1.08603412E-04
 -5.79060499E-05 -6.89413266E-04  6.72138560E-04 -1.53247861E-04  3.59008167E-04
 -9.31388355E-05 -7.03624959E-05  3.87947785E-01  3.19441442E-01 -8.19916720E-04
  9.11556603E-04 -3.64851080E-04  6.68754599E-03  2.08712475E-04  9.98531514E-04
 -3.75808334E-04 -2.68425224E-03 -8.67465348E-05 -1.10017389E-04 -1.23261798E-06
 -2.15008831E-04  3.63728726E-05 -5.63703764E-04  3.78634011E-04 -2.01697288E-04
 -3.74441985E-05 -4.18472015E-04 -5.56427578E-04  1.56439481E-04  1.73977563E-04
 -2.00050480E-03  2.03204873E-03 -5.88432536E-05  4.04907094E-04  1.33945127E-03
  1.67309629E-04 -1.93333738E-03  1.98795216E-03  5.66674207E-05  1.23624079E-03
 -4.86399576E-04 -3.87962814E-01 -3.19452474E-01 -8.12149841E-04 -2.75355078E-04
 -9.95624769E-04 -7.08486783E-03  5.17248908E-04 -2.82850619E-04 -8.21504439E-04
  5.26418150E-03  1.41619112E-03  5.14621547E-05  5.71713018E-05 -7.09573451E-03
 -2.66252614E-03  1.13120936E-04  2.17874056E-04 -6.92041210E-04  1.45376363E-04
 -2.80316401E-04  3.50493789E-04  5.34310146E-05  4.09532707E-01  3.37213238E-01
 -8.57227124E-04  1.00301627E-03 -4.21385705E-04  7.45772586E-03  5.29934358E-04
  8.75391443E-04 -3.07919435E-04 -5.41740071E-03  1.41359564E-03 -8.28707611E-05
 -4.98831588E-06  7.09437468E-03 -2.66467249E-03 -2.72119871E-04  6.70103653E-05
 -7.53128783E-06 -5.06094302E-05 -3.70711610E-04 -7.79174448E-04  1.56645002E-04
 -1.19066449E-04  1.22131546E-03 -7.83619325E-04  5.64823045E-05 -3.72232871E-04
 -1.22794000E-03  1.28133161E-04 -1.32814854E-03  8.92879324E-04  6.01501913E-05
  1.26322985E-03 -4.95903894E-04 -7.68454336E-02 -1.23886585E-01  2.36459852E-02
  1.47224515E-02  3.70980847E-02  3.42778728E-01  4.35867302E-02  2.26337348E-02
  5.43987290E-02  2.40707036E-01  2.18710575E-02  1.40966732E-02  2.47787037E-02
  6.81673205E-04 -4.20514909E-03 -8.63610055E-05  2.63095934E-03  2.19139809E-03
  4.16088641E-04  3.44563412E-03  4.99015645E-03  1.59662845E-03 -7.68520836E-02
 -1.23897267E-01 -2.36253779E-02  3.82424089E-02 -1.14369290E-02  3.42805186E-01
 -4.35584907E-02  5.67236836E-02 -1.59493647E-02  2.40734456E-01 -2.18636150E-02
  2.81880195E-02 -4.28996526E-03  6.93771495E-04  4.20300630E-03  2.01387874E-03
 -1.69799655E-03 -5.39693085E-03 -1.00235039E-03 -3.47311297E-03  6.09236434E-04
 -1.30692125E-03  8.78162686E-02  1.03318135E-01  2.38325624E-03  2.66322308E-03
 -3.85559020E-03 -1.34515547E-02  8.78196388E-02  1.03316347E-01  2.37947854E-03
 -2.66910838E-03 -1.29462537E-02  5.30928780E-03 -7.31968553E-02 -1.18580187E-01
 -2.64192410E-02  1.56751296E-02  6.24761011E-02  3.36467696E-01 -3.93806390E-02
  2.33348750E-02  9.38064862E-02  2.53798322E-01 -1.36524169E-02  1.00133688E-02
  3.75637464E-02 -4.92423167E-02 -1.87609453E-02 -9.64608307E-04 -2.17356126E-03
  1.40012307E-02 -2.14056787E-03  5.61232174E-03 -7.29417646E-03 -3.28527054E-03
  7.31905458E-02  1.18569865E-01 -2.64707777E-02 -5.87579723E-02  2.64208958E-02
 -3.36435511E-01 -3.94584119E-02 -8.80973364E-02  3.98290937E-02 -2.53770337E-01
 -1.36826801E-02 -3.56916042E-02  1.54238363E-02  4.92409780E-02 -1.87573963E-02
  2.30297999E-03 -5.89997382E-04 -2.28031575E-04 -1.24501711E-03  6.94771473E-03
  1.52495777E-02 -3.73159190E-03  1.14226604E-01  1.47613670E-01  3.46567012E-02
  6.53525416E-04 -4.51600627E-03 -1.51808294E-02 -1.14249745E-01 -1.47638959E-01
 -3.46614574E-02  6.61362004E-04  1.47131617E-02 -5.86346260E-03  2.47532017E-02
  4.09158964E-02 -8.44671411E-02  5.66527618E-02  1.24806914E-01 -1.16866880E-01
 -1.36620809E-01  8.55994278E-02  1.79841869E-01 -1.79430863E-01 -9.54457189E-02
  6.19514523E-02  1.20906856E-01 -9.75784519E-03  5.35010843E-03  2.53432588E-03
  8.58584841E-03  2.43753351E-02 -3.96161431E-03  1.20330817E-02 -1.29273951E-02
  6.38053411E-03  2.47793262E-02  4.09589504E-02  8.44986309E-02  1.33054177E-01
 -3.28654532E-02 -1.16992581E-01  1.36663408E-01  1.94177771E-01 -4.42420072E-02
 -1.79584727E-01  9.54740325E-02  1.33279636E-01 -2.62860948E-02 -9.77111322E-03
 -5.34898270E-03  8.31268327E-03 -3.33031907E-03 -1.39197330E-03 -7.47060326E-03
 -1.14554665E-02 -2.77941877E-02 -8.29348839E-04  1.06280167E-01  1.78841748E-01
  9.21803664E-02 -3.68931879E-03 -5.49658399E-04 -7.96414453E-03  1.06277151E-01
  1.78833781E-01  9.21696126E-02  3.68000690E-03 -6.59137315E-03  4.50394776E-03
 -4.67467111E-02 -7.71671948E-02 -3.03904990E-02 -1.12546468E-02 -1.44494744E-01
  2.26262934E-01 -4.41026792E-02 -1.19499880E-02 -2.10610488E-01  3.16040819E-01
 -4.17659906E-02  7.28218909E-03 -1.60944668E-01  9.64407829E-02  1.07447772E-02
  3.62768710E-03 -6.32009089E-03 -1.71344121E-02 -1.24852088E-02 -9.62740928E-03
 -5.76430020E-03  6.05153323E-03  4.67179676E-02  7.71198002E-02 -3.02633123E-02
  1.20330082E-01 -8.07204452E-02 -2.26119152E-01 -4.39090544E-02  1.72628055E-01
 -1.21153591E-01 -3.15858989E-01 -4.16228161E-02  1.21763595E-01 -1.05490491E-01
 -9.63965679E-02  1.07364591E-02  2.72001305E-03 -6.77131997E-03 -9.87310762E-03
  1.24871074E-02 -1.50052973E-02 -9.84237402E-03 -6.02489673E-03 -7.80451574E-02
 -1.40804636E-01 -1.12740198E-01 -6.73541268E-03  2.71580487E-03  3.36306481E-03
  7.80222249E-02  1.40743531E-01  1.12670179E-01 -6.72751756E-03 -4.31755710E-03
 -5.00899231E-05 -2.47406671E-02 -4.10530494E-02 -1.67363626E-01 -5.78783392E-02
 -5.20642956E-02  1.27068445E-01 -2.58645108E-01 -8.59701085E-02 -7.54040377E-02
  1.65218658E-01 -2.39134132E-01 -9.88826046E-02 -7.47425967E-02  4.16283458E-02
 -2.57767806E-02 -1.37859561E-02 -4.43323088E-03  3.10067586E-03 -1.46973006E-02
 -7.47040951E-03 -1.45910675E-02 -1.34716479E-02 -2.47547603E-02 -4.10767682E-02
  1.67375458E-01 -7.68403463E-02 -1.30491312E-02  1.27148424E-01  2.58661604E-01
 -1.12623212E-01 -2.05747638E-02  1.65265770E-01  2.39208521E-01 -1.20112984E-01
 -3.11165359E-02  4.15869861E-02  2.58067201E-02 -1.20382881E-02 -8.04861130E-03
  1.43167695E-02  1.45076930E-03  2.76708052E-03 -8.10311851E-03  1.98883218E-02
 -1.40282404E-02 -1.97417376E-02 -1.70945774E-02 -1.48914234E-02 -3.45294397E-03
 -5.02358851E-04 -1.40569845E-02 -1.97617038E-02 -1.71596028E-02  1.48917803E-02
 -2.54132253E-03 -2.38864753E-03 -7.65131744E-03 -1.26589284E-02 -3.11807610E-02
  1.47822752E-01 -9.26479921E-02  3.29883368E-02 -5.16272269E-02  2.31474077E-01
 -1.37357530E-01  1.00944521E-01 -5.14521401E-02  2.85486528E-01 -1.29285212E-01
  7.68429731E-02 -1.03261593E-02  1.42790730E-01 -7.82847854E-02 -1.09974186E-02
  6.96584414E-03  7.13253713E-03 -6.60774549E-03  5.50928616E-03 -7.65695132E-03
 -1.26680988E-02  3.11648977E-02  1.88868876E-02  1.73420893E-01  3.30085107E-02
  5.16038410E-02  3.56352095E-02  2.66770636E-01  1.01048325E-01  5.14366285E-02
  7.54770726E-02  3.04162251E-01  7.69861797E-02  1.02788004E-02  2.70582272E-02
  1.60587380E-01 -3.32201228E-03  1.97986163E-07  1.41311655E-02 -2.17738014E-03
 -8.88399836E-03 -3.39397859E-02 -7.38786771E-02 -1.02895797E-01  1.19227217E-03
  1.71141619E-02 -1.23904701E-04 -3.39413715E-02 -7.39140019E-02 -1.02952647E-01
 -1.18190869E-03  1.05076787E-02  1.35088609E-02  8.25878315E-03  1.37556117E-02
  1.76911011E-02  1.77758133E-01 -1.04242496E-02 -3.99565901E-02  2.53042630E-02
  2.73542009E-01 -2.27100907E-02 -8.40885197E-02  4.40938706E-02  3.22576590E-01
 -4.76830179E-02  6.32022936E-02  4.51914378E-02  1.82465209E-01 -5.11072739E-03
 -1.05589157E-03 -9.60718595E-03  1.39599122E-02 -4.61343275E-03 -3.29692339E-04
 -8.26132369E-03 -1.37600138E-02  1.77314528E-02 -1.01977578E-01 -1.45986744E-01
  3.99706066E-02  2.53687073E-02 -1.51693668E-01 -2.28781716E-01  8.41328821E-02
  4.41845436E-02 -1.62464412E-01 -2.82771914E-01 -6.31501995E-02  4.52153634E-02
 -1.09053079E-01 -1.46416803E-01  9.38300788E-03  5.68967194E-03 -6.37361344E-03
  9.41419451E-03 -7.74622655E-03  3.23482516E-02  6.67753344E-02  6.77918842E-02
 -2.62390133E-03  1.54997797E-02 -8.13525768E-03 -3.23444818E-02 -6.67870684E-02
 -6.78391773E-02 -2.60984960E-03 -3.22371801E-03 -1.72087169E-02 -3.15825430E-02
 -5.30751021E-02  1.00818923E-01 -6.15485191E-03  9.21764720E-03  1.67582658E-01
  1.76175618E-01 -6.15361087E-03  1.81805204E-02  3.31985716E-01  1.49962496E-01
 -1.03870185E-02  3.87998349E-02  1.60776506E+00  1.27027865E+00 -2.17786574E-01
 -2.61070655E-01  1.16321205E-02  7.27700782E-03  1.09006401E-03 -1.46720893E-02
  2.40184312E-03  3.19465290E-02  5.36711296E-02  1.00397937E-01 -4.08853937E-03
  1.03716029E-02 -1.69042395E-01  1.75751977E-01 -1.19523743E-02  1.61397093E-02
 -3.39676536E-01  1.48658213E-01 -2.51836854E-02  3.12189961E-02 -1.59166658E+00
  1.27106284E+00  3.48286134E-01  5.72407967E-03 -7.69633150E-03 -2.59097118E-03
  2.51495003E-03  1.70320847E-02  7.17481723E-03  1.08035587E-02 -2.90199219E-02
  8.58419459E-02  1.73061689E-02 -1.61796136E-03 -3.54337907E-03 -1.09738616E-02
  3.12159022E-02 -9.40923283E-02  1.73256758E-02  3.81480055E-03 -9.45780292E-04
  2.30341753E-02  3.77042747E-02  2.48787303E-02 -3.54623648E-02 -2.35404756E-02
 -9.23615073E-02  2.33333680E-02 -5.73365330E-02 -7.14979347E-02 -4.87472068E-01
  7.92215840E-02 -9.66202542E-02 -1.03341453E-02  1.01066111E+00 -4.78486747E-02
  1.68603878E-01  5.59520799E-01 -9.72468658E-03  2.11907087E-03 -8.10045360E-03
 -4.05751605E-04 -7.05015621E-04  2.25295373E-02  3.68568744E-02 -2.64947732E-02
 -4.03857026E-02 -1.34096756E-02 -8.96933420E-02 -2.61769708E-02 -9.14709240E-02
 -9.45185635E-04 -4.82113804E-01 -8.16396744E-02 -6.75653887E-02 -6.99194632E-02
  1.03694594E+00  2.76278017E-02  5.38511765E-01 -2.14471340E-01  6.42795456E-03
  1.91503029E-03  6.47620503E-03  8.57881856E-03 -1.35653621E-03 -1.23999198E-02
  1.34082000E-01 -5.31177166E-01 -7.89235016E-04  3.24920008E-04  2.97630589E-03
 -1.22432710E-02  1.33645669E-01 -5.30029391E-01  5.10475801E-04  2.47405137E-03
 -1.57398354E-03  7.97678968E-03  1.34568439E-02 -3.46144861E-02 -3.63905011E-02
  6.44899084E-02 -5.18028376E-02 -5.71573551E-02 -3.22332162E-02  7.86856995E-02
 -1.92608175E-02 -6.50570613E-02 -1.46078183E-01  2.61140440E-01 -3.02606763E+00
 -1.23022868E+00  1.29748309E-03 -8.08209945E-01  1.24765196E-02  2.23723401E-03
  5.36949853E-03  7.57990176E-03 -2.11353784E-03 -7.97438899E-03 -1.34527927E-02
 -3.46207569E-02 -2.80237060E-02  6.85554248E-02  5.17884249E-02 -5.71604870E-02
 -4.17320349E-02  7.40847395E-02  1.92147258E-02 -6.50986953E-02 -1.14295828E-01
  2.76614449E-01  3.02612851E+00 -1.22978411E+00  6.33201229E-01 -5.02210351E-01
  7.61493443E-03 -3.04069517E-03  1.29514456E-02  4.01496505E-03  4.30255599E-04
  1.65329163E-02 -1.03233666E-01  4.15432310E-01 -2.67041347E-03 -1.07075172E-04
 -2.07585302E-03 -1.65349327E-02  1.03174033E-01 -4.15196221E-01 -2.67614980E-03
  1.69672062E-03 -1.20320452E-03 -1.31938275E-02 -2.13526371E-02 -2.62223050E-02
 -6.71974199E-02 -1.36534677E-02  5.12631228E-02 -1.06570362E-02 -6.14829987E-02
 -4.54569237E-03  3.03221129E-01 -1.28369154E-01 -2.89233631E-01 -6.65343197E-02
 -3.34717914E-01  3.80956142E-01  5.30080635E-01  3.47532918E-01 -2.53670313E-03
 -5.02082652E-03 -6.44700761E-03  1.32499986E-03 -5.75869708E-03 -1.31944516E-02
 -2.13542194E-02  2.61959098E-02 -5.24021029E-02 -4.42319533E-02  5.12768075E-02
  1.06223080E-02 -4.17144230E-02 -4.53934508E-02  3.03134711E-01  1.28277741E-01
 -2.31676914E-01 -1.85561864E-01 -3.34515194E-01 -3.80933653E-01  6.01632128E-01
  2.00426843E-01  4.53282968E-03  1.40397677E-03  1.32212027E-06  5.40841495E-03
  7.50632967E-03 -1.04363498E-02  2.68357601E-02 -2.38018875E-01 -1.05617482E-03
  2.03953455E-03  3.18850269E-03 -1.04338640E-02  2.68773295E-02 -2.37872436E-01
  1.05627026E-03  3.77208744E-03 -3.78026133E-04 -1.17840786E-02 -1.84634141E-02
  3.54298348E-02  9.87900601E-03 -2.93496587E-03  3.29514007E-02  2.42088589E-02
  1.69336350E-02  2.33492682E-02  4.25235632E-01  1.84875558E-01  3.81163587E-02
 -8.16895509E-02  5.87412441E-02 -9.91372142E-01 -1.94415945E-01  7.54856899E-01
 -1.29691090E-02 -4.13098354E-04 -2.23300643E-03  1.20947048E-02  3.64377948E-03
 -1.18024381E-02 -1.84941643E-02 -3.56699492E-02  3.76356916E-03  9.56475199E-03
  3.30427982E-02 -2.45348528E-02  2.87332590E-02 -1.16927679E-03  4.25462644E-01
 -1.85758985E-01 -4.07122518E-02  8.04844191E-02  5.57877505E-02  9.93211715E-01
  4.71970605E-01 -6.20117746E-01 -5.55040659E-03 -3.10786661E-03  4.52232777E-03
  1.63625556E-02 -1.95507608E-03 -2.48890577E-02 -1.50853077E-02 -2.35136493E-01
 -7.35974738E-03 -1.11414772E-03 -2.04514433E-03 -2.48606405E-02 -1.49660121E-02
 -2.34847243E-01  7.34756943E-03 -2.29011540E-03  3.90641626E-04 -7.97202367E-03
 -1.35054062E-02  4.61210881E-02 -7.99445911E-02  6.28892666E-04  4.93167944E-02
  6.73794475E-02 -7.93917738E-02 -1.53749487E-02  6.33371621E-02  1.46457330E-01
 -3.53875576E-01  5.39441584E-02  3.35382010E+00  1.21213409E+00  1.49311415E+00
  6.71515676E-01 -4.87120105E-03  5.01966444E-03 -1.13714905E-02 -4.13393855E-03
 -4.92029726E-03  7.97211603E-03  1.35053290E-02  4.61003048E-02  4.90345793E-02
  6.31672347E-02 -4.93096148E-02  6.73631514E-02  6.12553141E-02  5.28177589E-02
 -6.33741136E-02  1.46342736E-01  1.76873442E-01  3.11338012E-01 -3.35375331E+00
  1.21213969E+00 -1.45197644E+00 -7.56218728E-01 -1.14174754E-02 -6.97521191E-03
 -3.47068395E-03 -5.25750815E-03  8.99971318E-04 -1.82369762E-02  5.44219759E-02
 -5.39598684E-01  1.86240621E-03  3.07555045E-04 -1.90431928E-03  1.82309523E-02
 -5.43861628E-02  5.39538774E-01  1.86914823E-03  1.29924092E-03 -1.42134726E-03
  2.28736176E-03  3.77194847E-03  2.64457717E-02 -5.26402940E-02  5.54575579E-02
 -1.05716645E-02  1.07992035E-02 -4.45012743E-02  6.11629636E-02 -2.13894005E-02
  1.40236402E-01 -2.55862508E-01  2.30377010E-01  9.51283122E-03 -5.50746662E-01
  7.22854343E-01 -1.31905055E+00  7.62260184E-03  4.68911803E-03  1.15365133E-04
  5.54052249E-03 -3.66745946E-03  2.31784497E-03  3.82247119E-03 -2.60700821E-02
  1.09451622E-02 -7.56748003E-02 -1.07015647E-02 -1.02992242E-02  2.04842054E-02