Title Card Required                                                     
Force     UM062X                                                      6-311+G(d,p)        
Number of atoms                            I                6
Info1-9                                    I   N=           9
          15          15           0           0           0         100
           5          18        -502
Full Title                                 C   N=           2
Title Card Required     
Route                                      C   N=           4
#p UM062X/6-311+G** force int=superfine         
Charge                                     I                0
Multiplicity                               I                1
Number of electrons                        I               16
Number of alpha electrons                  I                8
Number of beta electrons                   I                8
Number of basis functions                  I               68
Number of independent functions            I               68
Number of point charges in /Mol/           I                0
Number of translation vectors              I                0
Atomic numbers                             I   N=           6
           6           6           1           1           1           1
Nuclear charges                            R   N=           6
  6.00000000E+00  6.00000000E+00  1.00000000E+00  1.00000000E+00  1.00000000E+00
  1.00000000E+00
Current cartesian coordinates              R   N=          18
  7.81263752E-21  1.13990925E+00  0.00000000E+00 -1.39611643E-16 -1.13990925E+00
  0.00000000E+00  1.72579427E+00  2.25658244E+00  4.93038066E-32 -1.72554483E+00
  2.25680164E+00 -4.93038066E-32 -1.72579427E+00 -2.25658244E+00 -4.93038066E-32
  1.72554483E+00 -2.25680164E+00  4.93038066E-32
Number of symbols in /Mol/                 I                0
Force Field                                I                0
Atom Types                                 C   N=           6
                                                            
            
Int Atom Types                             I   N=           6
           0           0           0           0           0           0
MM charges                                 R   N=           6
  0.00000000E+00  0.00000000E+00  0.00000000E+00  0.00000000E+00  0.00000000E+00
  0.00000000E+00
Integer atomic weights                     I   N=           6
          12          12           1           1           1           1
Real atomic weights                        R   N=           6
  1.20000000E+01  1.20000000E+01  1.00782504E+00  1.00782504E+00  1.00782504E+00
  1.00782504E+00
Atom fragment info                         I   N=           6
           0           0           0           0           0           0
Atom residue num                           I   N=           6
           0           0           0           0           0           0
Nuclear spins                              I   N=           6
           0           0           1           1           1           1
Nuclear ZEff                               R   N=           6
 -3.60000000E+00 -3.60000000E+00 -1.00000000E+00 -1.00000000E+00 -1.00000000E+00
 -1.00000000E+00
Nuclear ZNuc                               R   N=           6
  6.00000000E+00  6.00000000E+00  1.00000000E+00  1.00000000E+00  1.00000000E+00
  1.00000000E+00
Nuclear QMom                               R   N=           6
  0.00000000E+00  0.00000000E+00  0.00000000E+00  0.00000000E+00  0.00000000E+00
  0.00000000E+00
Nuclear GFac                               R   N=           6
  0.00000000E+00  0.00000000E+00  2.79284600E+00  2.79284600E+00  2.79284600E+00
  2.79284600E+00
MicOpt                                     I   N=           6
          -1          -1          -1          -1          -1          -1
Number of residues                         I                0
Number of secondary structures             I                0
SymInf integers                            I   N=          26
           2           4           1           1           1          -1
          -1           1           1           1          -1          -1
          -1          -1           0           0           0           0
           0           0           0           0           0           0
           0           0
RotTr to input orientation                 R   N=          12
 -2.47006230E-17 -1.00000000E+00 -1.88024893E-21 -1.00000000E+00  2.46983385E-17
 -1.22464680E-16  1.22464680E-16  1.88024893E-21 -1.00000000E+00  2.77555756E-17
  0.00000000E+00  0.00000000E+00
Number of contracted shells                I               28
Number of primitive shells                 I               50
Pure/Cartesian d shells                    I                0
Pure/Cartesian f shells                    I                0
Highest angular momentum                   I                2
Largest degree of contraction              I                6
Shell types                                I   N=          28
           0          -1          -1          -1          -1          -2
           0          -1          -1          -1          -1          -2
           0           0           0           1           0           0
           0           1           0           0           0           1
           0           0           0           1
Number of primitives per shell             I   N=          28
           6           3           1           1           1           1
           6           3           1           1           1           1
           3           1           1           1           3           1
           1           1           3           1           1           1
           3           1           1           1
Shell to atom map                          I   N=          28
           1           1           1           1           1           1
           2           2           2           2           2           2
           3           3           3           3           4           4
           4           4           5           5           5           5
           6           6           6           6
Primitive exponents                        R   N=          50
  4.56324000E+03  6.82024000E+02  1.54973000E+02  4.44553000E+01  1.30290000E+01
  1.82773000E+00  2.09642000E+01  4.80331000E+00  1.45933000E+00  4.83456000E-01
  1.45585000E-01  4.38000000E-02  6.26000000E-01  4.56324000E+03  6.82024000E+02
  1.54973000E+02  4.44553000E+01  1.30290000E+01  1.82773000E+00  2.09642000E+01
  4.80331000E+00  1.45933000E+00  4.83456000E-01  1.45585000E-01  4.38000000E-02
  6.26000000E-01  3.38650000E+01  5.09479000E+00  1.15879000E+00  3.25840000E-01
  1.02741000E-01  7.50000000E-01  3.38650000E+01  5.09479000E+00  1.15879000E+00
  3.25840000E-01  1.02741000E-01  7.50000000E-01  3.38650000E+01  5.09479000E+00
  1.15879000E+00  3.25840000E-01  1.02741000E-01  7.50000000E-01  3.38650000E+01
  5.09479000E+00  1.15879000E+00  3.25840000E-01  1.02741000E-01  7.50000000E-01
Contraction coefficients                   R   N=          50
  1.96665025E-03  1.52306019E-02  7.61269097E-02  2.60801033E-01  6.16462078E-01
  2.21006028E-01  1.14660081E-01  9.19999648E-01 -3.03068213E-03  1.00000000E+00
  1.00000000E+00  1.00000000E+00  1.00000000E+00  1.96665025E-03  1.52306019E-02
  7.61269097E-02  2.60801033E-01  6.16462078E-01  2.21006028E-01  1.14660081E-01
  9.19999648E-01 -3.03068213E-03  1.00000000E+00  1.00000000E+00  1.00000000E+00
  1.00000000E+00  2.54938145E-02  1.90373109E-01  8.52161486E-01  1.00000000E+00
  1.00000000E+00  1.00000000E+00  2.54938145E-02  1.90373109E-01  8.52161486E-01
  1.00000000E+00  1.00000000E+00  1.00000000E+00  2.54938145E-02  1.90373109E-01
  8.52161486E-01  1.00000000E+00  1.00000000E+00  1.00000000E+00  2.54938145E-02
  1.90373109E-01  8.52161486E-01  1.00000000E+00  1.00000000E+00  1.00000000E+00
P(S=P) Contraction coefficients            R   N=          50
  0.00000000E+00  0.00000000E+00  0.00000000E+00  0.00000000E+00  0.00000000E+00
  0.00000000E+00  4.02486927E-02  2.37593957E-01  8.15853851E-01  1.00000000E+00
  1.00000000E+00  1.00000000E+00  0.00000000E+00  0.00000000E+00  0.00000000E+00
  0.00000000E+00  0.00000000E+00  0.00000000E+00  0.00000000E+00  4.02486927E-02
  2.37593957E-01  8.15853851E-01  1.00000000E+00  1.00000000E+00  1.00000000E+00
  0.00000000E+00  0.00000000E+00  0.00000000E+00  0.00000000E+00  0.00000000E+00
  0.00000000E+00  0.00000000E+00  0.00000000E+00  0.00000000E+00  0.00000000E+00
  0.00000000E+00  0.00000000E+00  0.00000000E+00  0.00000000E+00  0.00000000E+00
  0.00000000E+00  0.00000000E+00  0.00000000E+00  0.00000000E+00  0.00000000E+00
  0.00000000E+00  0.00000000E+00  0.00000000E+00  0.00000000E+00  0.00000000E+00
Coordinates of each shell                  R   N=          84
  5.20842502E-21  1.13990925E+00  0.00000000E+00  5.20842502E-21  1.13990925E+00
  0.00000000E+00  5.20842502E-21  1.13990925E+00  0.00000000E+00  5.20842502E-21
  1.13990925E+00  0.00000000E+00  5.20842502E-21  1.13990925E+00  0.00000000E+00
  5.20842502E-21  1.13990925E+00  0.00000000E+00 -1.39609039E-16 -1.13990925E+00
 -3.91838348E-57 -1.39609039E-16 -1.13990925E+00 -3.91838348E-57 -1.39609039E-16
 -1.13990925E+00 -3.91838348E-57 -1.39609039E-16 -1.13990925E+00 -3.91838348E-57
 -1.39609039E-16 -1.13990925E+00 -3.91838348E-57 -1.39609039E-16 -1.13990925E+00
 -3.91838348E-57  1.72579427E+00  2.25658244E+00 -3.24585827E-37  1.72579427E+00
  2.25658244E+00 -3.24585827E-37  1.72579427E+00  2.25658244E+00 -3.24585827E-37
  1.72579427E+00  2.25658244E+00 -3.24585827E-37 -1.72554483E+00  2.25680164E+00
  3.24538912E-37 -1.72554483E+00  2.25680164E+00  3.24538912E-37 -1.72554483E+00
  2.25680164E+00  3.24538912E-37 -1.72554483E+00  2.25680164E+00  3.24538912E-37
 -1.72579427E+00 -2.25658244E+00 -1.62292913E-36 -1.72579427E+00 -2.25658244E+00
 -1.62292913E-36 -1.72579427E+00 -2.25658244E+00 -1.62292913E-36 -1.72579427E+00
 -2.25658244E+00 -1.62292913E-36  1.72554483E+00 -2.25680164E+00  1.62269456E-36
  1.72554483E+00 -2.25680164E+00  1.62269456E-36  1.72554483E+00 -2.25680164E+00
  1.62269456E-36  1.72554483E+00 -2.25680164E+00  1.62269456E-36
Num ILSW                                   I              100
ILSW                                       I   N=         100
           1           0           0           0           2           0
           0           0           0           0        4336          -1
           7           0           0           0           2           0
           0           0           0           0           1           0
           1           0           0           0           0           0
           0           0      100000           0          -1           0
           0           0           0           0           0           0
           0           0           0           1           0           0
           0 -2000000000           1           0           0           0
           0           0           4          52           0           0
           0           0          55           0           0           0
           0           0           0           6           0           1
           0           0           0           0           0           0
           0           0           0           0           0           0
           0           0           0           0           0           0
           0           0           0           0           0           0
           0           0           0           0
Num RLSW                                   I               52
RLSW                                       R   N=          52
  1.00000000E+00  1.00000000E+00  1.00000000E+00  1.00000000E+00  5.40000000E-01
  0.00000000E+00  0.00000000E+00  1.00000000E+00  0.00000000E+00  0.00000000E+00
  0.00000000E+00  0.00000000E+00  1.00000000E+00  0.00000000E+00  0.00000000E+00
  0.00000000E+00  0.00000000E+00  1.00000000E+00  0.00000000E+00  0.00000000E+00
  0.00000000E+00  0.00000000E+00  1.00000000E+00  0.00000000E+00  0.00000000E+00
  0.00000000E+00  0.00000000E+00  1.00000000E+00  0.00000000E+00  0.00000000E+00
  0.00000000E+00  0.00000000E+00  1.00000000E+00  0.00000000E+00  0.00000000E+00
  0.00000000E+00  0.00000000E+00  0.00000000E+00  1.00000000E+00  1.00000000E+00
  0.00000000E+00  1.00000000E+00  0.00000000E+00  0.00000000E+00  0.00000000E+00
  0.00000000E+00  0.00000000E+00  0.00000000E+00  0.00000000E+00  0.00000000E+00
  0.00000000E+00  0.00000000E+00
MxBond                                     I                3
NBond                                      I   N=           6
           3           3           1           1           1           1
IBond                                      I   N=          18
           2           3           4           1           5           6
           1           0           0           1           0           0
           2           0           0           2           0           0
RBond                                      R   N=          18
  3.00000000E+00  1.00000000E+00  1.00000000E+00  3.00000000E+00  1.00000000E+00
  1.00000000E+00  1.00000000E+00  0.00000000E+00  0.00000000E+00  1.00000000E+00
  0.00000000E+00  0.00000000E+00  1.00000000E+00  0.00000000E+00  0.00000000E+00
  1.00000000E+00  0.00000000E+00  0.00000000E+00
Virial Ratio                               R      1.998864828247124E+00
SCF Energy                                 R     -7.854313355240804E+01
Total Energy                               R     -7.854313355240804E+01
S**2                                       R     -2.842170943040401E-14
S**2 after annihilation                    R     -2.842170943040360E-14
RMS Force                                  R      6.742019948537277E-02
RMS Density                                R      3.040963721596124E-09
Job Status                                 I                1
Nuclear derivative order                   I                1
External E-field                           R   N=          35
  0.00000000E+00  0.00000000E+00  0.00000000E+00  0.00000000E+00  0.00000000E+00
  0.00000000E+00  0.00000000E+00  0.00000000E+00  0.00000000E+00  0.00000000E+00
  0.00000000E+00  0.00000000E+00  0.00000000E+00  0.00000000E+00  0.00000000E+00
  0.00000000E+00  0.00000000E+00  0.00000000E+00  0.00000000E+00  0.00000000E+00
  0.00000000E+00  0.00000000E+00  0.00000000E+00  0.00000000E+00  0.00000000E+00
  0.00000000E+00  0.00000000E+00  0.00000000E+00  0.00000000E+00  0.00000000E+00
  0.00000000E+00  0.00000000E+00  0.00000000E+00  0.00000000E+00  0.00000000E+00
IOpCl                                      I                1
IROHF                                      I                0
Alpha Orbital Energies                     R   N=          68
 -1.05191746E+01 -1.05166165E+01 -8.91109749E-01 -6.50823076E-01 -5.53202684E-01
 -5.03875300E-01 -3.95213539E-01 -3.60016940E-01  3.39737223E-02  4.17689483E-02
  4.61982974E-02  4.91968411E-02  7.37404955E-02  8.41399551E-02  9.75382430E-02
  1.48472401E-01  1.60972386E-01  1.76223323E-01  1.94577046E-01  2.38361919E-01
  3.23569524E-01  3.87039784E-01  4.41605878E-01  4.51673103E-01  5.35504268E-01
  5.62679929E-01  5.88798569E-01  6.39579647E-01  6.59827952E-01  7.48021765E-01
  7.82257829E-01  7.86612852E-01  8.07280442E-01  1.00948209E+00  1.03926656E+00
  1.18997448E+00  1.19838812E+00  1.39551386E+00  1.49711353E+00  1.49988798E+00
  1.66425060E+00  1.68095987E+00  1.68516310E+00  1.68538565E+00  1.80032882E+00
  1.84034873E+00  2.03608863E+00  2.10595603E+00  2.20326757E+00  2.22103916E+00
  2.23503639E+00  2.32869328E+00  2.35566182E+00  2.51524375E+00  2.58733367E+00
  2.61600716E+00  2.67489629E+00  2.76678425E+00  2.80994316E+00  2.88371900E+00
  2.98286640E+00  3.30430954E+00  3.64820299E+00  3.73778821E+00  3.92245348E+00
  4.01405744E+00  2.37579343E+01  2.48862109E+01
Beta Orbital Energies                      R   N=          68
 -1.05191746E+01 -1.05166165E+01 -8.91109749E-01 -6.50823076E-01 -5.53202684E-01
 -5.03875300E-01 -3.95213539E-01 -3.60016940E-01  3.39737223E-02  4.17689483E-02
  4.61982974E-02  4.91968411E-02  7.37404955E-02  8.41399551E-02  9.75382430E-02
  1.48472401E-01  1.60972386E-01  1.76223323E-01  1.94577046E-01  2.38361919E-01
  3.23569524E-01  3.87039784E-01  4.41605878E-01  4.51673103E-01  5.35504268E-01
  5.62679929E-01  5.88798569E-01  6.39579647E-01  6.59827952E-01  7.48021765E-01
  7.82257829E-01  7.86612852E-01  8.07280442E-01  1.00948209E+00  1.03926656E+00
  1.18997448E+00  1.19838812E+00  1.39551386E+00  1.49711353E+00  1.49988798E+00
  1.66425060E+00  1.68095987E+00  1.68516310E+00  1.68538565E+00  1.80032882E+00
  1.84034873E+00  2.03608863E+00  2.10595603E+00  2.20326757E+00  2.22103916E+00
  2.23503639E+00  2.32869328E+00  2.35566182E+00  2.51524375E+00  2.58733367E+00
  2.61600716E+00  2.67489629E+00  2.76678425E+00  2.80994316E+00  2.88371900E+00
  2.98286640E+00  3.30430954E+00  3.64820299E+00  3.73778821E+00  3.92245348E+00
  4.01405744E+00  2.37579343E+01  2.48862109E+01
Alpha MO coefficients                      R   N=        4624
  3.98581685E-01  3.27970271E-01  5.15695439E-08 -4.10867246E-04  0.00000000E+00
  9.03540286E-03 -4.26858379E-07  1.60777205E-03  0.00000000E+00 -2.33182139E-03
 -6.59394201E-07  3.06471526E-04  0.00000000E+00 -5.99688538E-04  3.12790881E-07
 -8.70516359E-04  0.00000000E+00 -7.79150590E-04  0.00000000E+00  0.00000000E+00
  3.70616552E-04 -6.28491352E-07  3.98581685E-01  3.27970271E-01 -5.15695439E-08
  4.10867246E-04  0.00000000E+00  9.03540286E-03  4.26858379E-07 -1.60777205E-03
  0.00000000E+00 -2.33182139E-03  6.59394201E-07 -3.06471526E-04  0.00000000E+00
 -5.99688538E-04 -3.12790881E-07  8.70516359E-04  0.00000000E+00 -7.79150590E-04
  0.00000000E+00  0.00000000E+00  3.70616552E-04 -6.28491352E-07  1.95044719E-04
 -2.33372562E-03  1.57477179E-03  1.26705178E-03  6.25357483E-04  0.00000000E+00
  1.94894692E-04 -2.33536374E-03  1.57527092E-03 -1.26754424E-03  6.25874968E-04
  0.00000000E+00  1.95044719E-04 -2.33372562E-03  1.57477179E-03 -1.26705178E-03
 -6.25357483E-04  0.00000000E+00  1.94894692E-04 -2.33536374E-03  1.57527092E-03
  1.26754424E-03 -6.25874968E-04  0.00000000E+00  3.98974304E-01  3.27420943E-01
  5.08763755E-08  9.43511717E-04  0.00000000E+00  1.39851916E-02 -2.47845188E-07
 -9.87072858E-03  0.00000000E+00 -1.89042603E-04  8.51238551E-08  1.04519088E-03
  0.00000000E+00  7.37918863E-04  1.37233839E-08 -2.98152812E-04  0.00000000E+00
 -2.35575281E-03  0.00000000E+00  0.00000000E+00 -3.98887232E-03 -1.44898243E-07
 -3.98974304E-01 -3.27420943E-01  5.08763755E-08  9.43511717E-04  0.00000000E+00
 -1.39851916E-02 -2.47845188E-07 -9.87072858E-03  0.00000000E+00  1.89042603E-04
  8.51238551E-08  1.04519088E-03  0.00000000E+00 -7.37918863E-04  1.37233839E-08
 -2.98152812E-04  0.00000000E+00  2.35575281E-03  0.00000000E+00  0.00000000E+00
  3.98887232E-03  1.44898243E-07  5.39155105E-04 -4.88270587E-04  1.27118778E-05
  2.80201875E-04  3.29134633E-05  0.00000000E+00  5.39061980E-04 -4.88535604E-04
  1.28634792E-05 -2.80544483E-04  3.29209439E-05  0.00000000E+00 -5.39155105E-04
  4.88270587E-04 -1.27118778E-05  2.80201875E-04  3.29134633E-05  0.00000000E+00
 -5.39061980E-04  4.88535604E-04 -1.28634792E-05 -2.80544483E-04  3.29209439E-05
  0.00000000E+00 -8.95098472E-02 -1.43070158E-01 -6.03811551E-07 -7.00902351E-02
  0.00000000E+00  3.54213373E-01 -1.63782744E-06 -7.93672614E-02  0.00000000E+00
  1.75002051E-01 -3.19687255E-06 -1.95503526E-02  0.00000000E+00  5.38765378E-04
 -4.28598628E-07  8.77361475E-03  0.00000000E+00 -1.18953284E-02  0.00000000E+00
  0.00000000E+00 -1.12375512E-02 -2.06450431E-06 -8.95098472E-02 -1.43070158E-01
  6.03811551E-07  7.00902351E-02  0.00000000E+00  3.54213373E-01  1.63782744E-06
  7.93672614E-02  0.00000000E+00  1.75002051E-01  3.19687255E-06  1.95503526E-02
  0.00000000E+00  5.38765378E-04  4.28598628E-07 -8.77361475E-03  0.00000000E+00
 -1.18953284E-02  0.00000000E+00  0.00000000E+00 -1.12375512E-02 -2.06450431E-06
  4.74249527E-02  5.11524598E-02 -1.06552449E-03 -5.87838921E-03 -7.07446858E-03
  0.00000000E+00  4.74261127E-02  5.11498033E-02 -1.06727828E-03  5.87555944E-03
 -7.07457423E-03  0.00000000E+00  4.74249527E-02  5.11524598E-02 -1.06552449E-03
  5.87838921E-03  7.07446858E-03  0.00000000E+00  4.74261127E-02  5.11498033E-02
 -1.06727828E-03 -5.87555944E-03  7.07457423E-03  0.00000000E+00 -6.37844694E-02
 -1.03808133E-01 -1.01461760E-05  7.82114175E-02  0.00000000E+00  2.67804780E-01
 -1.20762824E-05  1.19339658E-01  0.00000000E+00  2.21099175E-01 -5.57163743E-06
  5.44253051E-02  0.00000000E+00 -1.05063868E-01 -2.76616964E-07  2.87274364E-02
  0.00000000E+00 -5.26930865E-03  0.00000000E+00  0.00000000E+00  9.11135380E-03
 -1.02125963E-06  6.37844694E-02  1.03808133E-01 -1.01461760E-05  7.82114175E-02
  0.00000000E+00 -2.67804780E-01 -1.20762824E-05  1.19339658E-01  0.00000000E+00
 -2.21099175E-01 -5.57163743E-06  5.44253051E-02  0.00000000E+00  1.05063868E-01
 -2.76616964E-07  2.87274364E-02  0.00000000E+00  5.26930865E-03  0.00000000E+00
  0.00000000E+00 -9.11135380E-03  1.02125963E-06  9.21010221E-02  1.15075085E-01
  1.91442593E-02 -1.25346079E-02 -4.25228627E-03  0.00000000E+00  9.21245176E-02
  1.15102590E-01  1.91469625E-02  1.25364843E-02 -4.25642210E-03  0.00000000E+00
 -9.21010221E-02 -1.15075085E-01 -1.91442593E-02 -1.25346079E-02 -4.25228627E-03
  0.00000000E+00 -9.21245176E-02 -1.15102590E-01 -1.91469625E-02  1.25364843E-02
 -4.25642210E-03  0.00000000E+00 -3.76622180E-06 -6.20521804E-06  1.52598175E-01
  1.37689105E-06  0.00000000E+00  1.58772291E-05  2.13521867E-01  9.05551539E-06
  0.00000000E+00  1.81540285E-05  1.21364521E-01  3.79659072E-06  0.00000000E+00
  1.56741472E-05  6.00169370E-03 -3.30855345E-06  0.00000000E+00 -3.07892467E-07
  0.00000000E+00  0.00000000E+00  3.65948063E-06 -7.96567899E-03  3.76622180E-06
  6.20521804E-06  1.52598175E-01  1.37689105E-06  0.00000000E+00 -1.58772291E-05
  2.13521867E-01  9.05551539E-06  0.00000000E+00 -1.81540285E-05  1.21364521E-01
  3.79659072E-06  0.00000000E+00 -1.56741472E-05  6.00169370E-03 -3.30855345E-06
  0.00000000E+00  3.07892467E-07  0.00000000E+00  0.00000000E+00 -3.65948063E-06
  7.96567899E-03  9.43480930E-02  1.29256556E-01  2.63918251E-02 -9.33165890E-03
 -1.06485380E-02  0.00000000E+00 -9.43319779E-02 -1.29233890E-01 -2.63858356E-02
 -9.32886403E-03  1.06505331E-02  0.00000000E+00 -9.43480930E-02 -1.29256556E-01
 -2.63918251E-02 -9.33165890E-03 -1.06485380E-02  0.00000000E+00  9.43319779E-02
  1.29233890E-01  2.63858356E-02 -9.32886403E-03  1.06505331E-02  0.00000000E+00
  6.73898071E-03  1.10077029E-02 -1.85273401E-05  1.99162320E-01  0.00000000E+00
 -2.45071362E-02 -2.14527336E-05  2.59951985E-01  0.00000000E+00  5.34886512E-02
 -1.74917080E-05  1.43092632E-01  0.00000000E+00  7.08117413E-03 -7.07986871E-06
  1.10717298E-03  0.00000000E+00  2.26472687E-03  0.00000000E+00  0.00000000E+00
  1.81116878E-02 -4.63073114E-06  6.73898071E-03  1.10077029E-02  1.85273401E-05
 -1.99162320E-01  0.00000000E+00 -2.45071362E-02  2.14527336E-05 -2.59951985E-01
  0.00000000E+00  5.34886512E-02  1.74917080E-05 -1.43092632E-01  0.00000000E+00
  7.08117413E-03  7.07986871E-06 -1.10717298E-03  0.00000000E+00  2.26472687E-03
  0.00000000E+00  0.00000000E+00  1.81116878E-02 -4.63073114E-06  8.06429525E-02
  1.14375104E-01  3.76062165E-02 -1.25848243E-02  2.72721852E-03  0.00000000E+00
  8.06886467E-02  1.14439152E-01  3.76172633E-02  1.25903355E-02  2.72102039E-03
  0.00000000E+00  8.06429525E-02  1.14375104E-01  3.76062165E-02  1.25848243E-02
 -2.72721852E-03  0.00000000E+00  8.06886467E-02  1.14439152E-01  3.76172633E-02
 -1.25903355E-02 -2.72102039E-03  0.00000000E+00  3.28341370E-06  5.37364686E-06
  1.34062550E-01  2.73396649E-05  0.00000000E+00 -1.41602518E-05  1.96771823E-01
  3.67931144E-05  0.00000000E+00 -4.33129044E-07  1.78620324E-01  2.35736551E-05
  0.00000000E+00  2.76027598E-06  3.03473009E-02  6.46921069E-08  0.00000000E+00
  1.73914522E-07  0.00000000E+00  0.00000000E+00  6.59266354E-06  3.85324303E-02
  3.28341370E-06  5.37364686E-06 -1.34062550E-01 -2.73396649E-05  0.00000000E+00
 -1.41602518E-05 -1.96771823E-01 -3.67931144E-05  0.00000000E+00 -4.33129044E-07
 -1.78620324E-01 -2.35736551E-05  0.00000000E+00  2.76027598E-06 -3.03473009E-02
 -6.46921069E-08  0.00000000E+00  1.73914522E-07  0.00000000E+00  0.00000000E+00
  6.59266354E-06  3.85324303E-02  1.19227343E-01  1.75990970E-01  8.97425043E-02
 -3.28503541E-03 -7.07651388E-03  0.00000000E+00 -1.19198896E-01 -1.75942042E-01
 -8.97151106E-02 -3.27845341E-03  7.07884942E-03  0.00000000E+00  1.19227343E-01
  1.75990970E-01  8.97425043E-02  3.28503541E-03  7.07651388E-03  0.00000000E+00
 -1.19198896E-01 -1.75942042E-01 -8.97151106E-02  3.27845341E-03 -7.07884942E-03
  0.00000000E+00  0.00000000E+00  0.00000000E+00  0.00000000E+00  0.00000000E+00
  1.82058157E-01  0.00000000E+00  0.00000000E+00  0.00000000E+00  2.86365482E-01
  0.00000000E+00  0.00000000E+00  0.00000000E+00  2.28447974E-01  0.00000000E+00
  0.00000000E+00  0.00000000E+00  2.05161727E-02  0.00000000E+00  1.82368633E-07
 -2.49265087E-02  0.00000000E+00  0.00000000E+00  0.00000000E+00  0.00000000E+00
  0.00000000E+00  0.00000000E+00  1.82058157E-01  0.00000000E+00  0.00000000E+00
  0.00000000E+00  2.86365482E-01  0.00000000E+00  0.00000000E+00  0.00000000E+00
  2.28447974E-01  0.00000000E+00  0.00000000E+00  0.00000000E+00  2.05161727E-02
  0.00000000E+00 -1.82368633E-07  2.49265087E-02  0.00000000E+00  0.00000000E+00
  0.00000000E+00  0.00000000E+00  0.00000000E+00  0.00000000E+00  0.00000000E+00
  1.23566921E-02  0.00000000E+00  0.00000000E+00  0.00000000E+00  0.00000000E+00
  0.00000000E+00  1.23575095E-02  0.00000000E+00  0.00000000E+00  0.00000000E+00
  0.00000000E+00  0.00000000E+00  1.23566921E-02  0.00000000E+00  0.00000000E+00
  0.00000000E+00  0.00000000E+00  0.00000000E+00  1.23575095E-02  1.63042632E-02
  2.79638267E-02 -2.28304206E-06 -4.16139529E-02  0.00000000E+00 -7.92704852E-02
  4.56247539E-06 -6.45673374E-02  0.00000000E+00 -2.74550290E-01 -9.01872708E-05
 -1.47373234E-01  0.00000000E+00  1.20603301E+00 -2.71344804E-04  7.38310901E-01
  0.00000000E+00  1.20406386E-02  0.00000000E+00  0.00000000E+00 -6.62015702E-03
  3.71586393E-06  1.63042632E-02  2.79638267E-02  2.28304206E-06  4.16139529E-02
  0.00000000E+00 -7.92704852E-02 -4.56247539E-06  6.45673374E-02  0.00000000E+00
 -2.74550290E-01  9.01872708E-05  1.47373234E-01  0.00000000E+00  1.20603301E+00
  2.71344804E-04 -7.38310901E-01  0.00000000E+00  1.20406386E-02  0.00000000E+00
  0.00000000E+00 -6.62015702E-03  3.71586393E-06 -2.27101211E-02  8.29631974E-02
 -4.06349411E-01  1.57917201E-03  2.24103372E-03  0.00000000E+00 -2.27125466E-02
  8.29684451E-02 -4.06612115E-01 -1.57770362E-03  2.24213493E-03  0.00000000E+00
 -2.27101211E-02  8.29631974E-02 -4.06349411E-01 -1.57917201E-03 -2.24103372E-03
  0.00000000E+00 -2.27125466E-02  8.29684451E-02 -4.06612115E-01  1.57770362E-03
 -2.24213493E-03  0.00000000E+00 -1.83696191E-02 -3.14616570E-02 -5.50510554E-06
  1.94684290E-02  0.00000000E+00  1.03328463E-01 -1.30101315E-05  4.44122251E-02
  0.00000000E+00 -2.24797114E-01 -1.05742506E-05  2.50290037E-01  0.00000000E+00
  1.43847424E+01  9.09934962E-05 -4.32151065E+00  0.00000000E+00  3.34618456E-03
  0.00000000E+00  0.00000000E+00  1.57566105E-02 -2.01544922E-06  1.83696191E-02
  3.14616570E-02 -5.50510554E-06  1.94684290E-02  0.00000000E+00 -1.03328463E-01
 -1.30101315E-05  4.44122251E-02  0.00000000E+00  2.24797114E-01 -1.05742506E-05
  2.50290037E-01  0.00000000E+00 -1.43847424E+01  9.09934962E-05 -4.32151065E+00
  0.00000000E+00 -3.34618456E-03  0.00000000E+00  0.00000000E+00 -1.57566105E-02
  2.01544922E-06  1.17201460E-02 -4.83777247E-02  1.93362149E-01 -1.74946709E-03
 -9.92650878E-03  0.00000000E+00  1.17245152E-02 -4.84155875E-02  1.93511701E-01
  1.74880958E-03 -9.92665893E-03  0.00000000E+00 -1.17201460E-02  4.83777247E-02
 -1.93362149E-01 -1.74946709E-03 -9.92650878E-03  0.00000000E+00 -1.17245152E-02
  4.84155875E-02 -1.93511701E-01  1.74880958E-03 -9.92665893E-03  0.00000000E+00
  0.00000000E+00  0.00000000E+00  0.00000000E+00  0.00000000E+00  1.20248277E-01
  0.00000000E+00  0.00000000E+00  0.00000000E+00  2.05117734E-01  0.00000000E+00
  0.00000000E+00  0.00000000E+00  3.23451981E-01  0.00000000E+00  0.00000000E+00
  0.00000000E+00  1.36610604E+00  0.00000000E+00  2.51470577E-07  2.90708378E-02
  0.00000000E+00  0.00000000E+00  0.00000000E+00  0.00000000E+00  0.00000000E+00
  0.00000000E+00 -1.20248277E-01  0.00000000E+00  0.00000000E+00  0.00000000E+00
 -2.05117734E-01  0.00000000E+00  0.00000000E+00  0.00000000E+00 -3.23451981E-01
  0.00000000E+00  0.00000000E+00  0.00000000E+00 -1.36610604E+00  0.00000000E+00
  2.51470577E-07  2.90708378E-02  0.00000000E+00  0.00000000E+00  0.00000000E+00
  0.00000000E+00  0.00000000E+00  0.00000000E+00  0.00000000E+00  1.95488335E-02
  0.00000000E+00  0.00000000E+00  0.00000000E+00  0.00000000E+00  0.00000000E+00
  1.95509244E-02  0.00000000E+00  0.00000000E+00  0.00000000E+00  0.00000000E+00
  0.00000000E+00 -1.95488335E-02  0.00000000E+00  0.00000000E+00  0.00000000E+00
  0.00000000E+00  0.00000000E+00 -1.95509244E-02  2.49743421E-06  4.23744188E-06
 -5.97550523E-02 -2.67541069E-06  0.00000000E+00 -1.19403833E-05 -9.75783438E-02
 -4.20748589E-06  0.00000000E+00  1.99683767E-05 -1.61011436E-01 -2.88572772E-05
  0.00000000E+00 -3.55186762E-05  8.09325270E-01  1.10346873E-04  0.00000000E+00
  1.01095608E-07  0.00000000E+00  0.00000000E+00 -4.29013426E-06  7.05230763E-04
 -2.49743421E-06 -4.23744188E-06 -5.97550523E-02 -2.67541069E-06  0.00000000E+00
  1.19403833E-05 -9.75783438E-02 -4.20748589E-06  0.00000000E+00 -1.99683767E-05
 -1.61011436E-01 -2.88572772E-05  0.00000000E+00  3.55186762E-05  8.09325270E-01
  1.10346873E-04  0.00000000E+00 -1.01095608E-07  0.00000000E+00  0.00000000E+00