 Entering Gaussian System, Link 0=g16
 Initial command:
 /home/szhao/Apps/g16/l1.exe "/home/szhao/tmp/Gau-101151.inp" -scrdir="/home/szhao/tmp/"
 Default is to use a total of  16 processors:
                               16 via shared-memory
                                1 via Linda
 Entering Link 1 = /home/szhao/Apps/g16/l1.exe PID=    101152.
  
 Copyright (c) 1988,1990,1992,1993,1995,1998,2003,2009,2016,
            Gaussian, Inc.  All Rights Reserved.
  
 This is part of the Gaussian(R) 16 program.  It is based on
 the Gaussian(R) 09 system (copyright 2009, Gaussian, Inc.),
 the Gaussian(R) 03 system (copyright 2003, Gaussian, Inc.),
 the Gaussian(R) 98 system (copyright 1998, Gaussian, Inc.),
 the Gaussian(R) 94 system (copyright 1995, Gaussian, Inc.),
 the Gaussian 92(TM) system (copyright 1992, Gaussian, Inc.),
 the Gaussian 90(TM) system (copyright 1990, Gaussian, Inc.),
 the Gaussian 88(TM) system (copyright 1988, Gaussian, Inc.),
 the Gaussian 86(TM) system (copyright 1986, Carnegie Mellon
 University), and the Gaussian 82(TM) system (copyright 1983,
 Carnegie Mellon University). Gaussian is a federally registered
 trademark of Gaussian, Inc.
  
 This software contains proprietary and confidential information,
 including trade secrets, belonging to Gaussian, Inc.
  
 This software is provided under written license and may be
 used, copied, transmitted, or stored only in accord with that
 written license.
  
 The following legend is applicable only to US Government
 contracts under FAR:
  
                    RESTRICTED RIGHTS LEGEND
  
 Use, reproduction and disclosure by the US Government is
 subject to restrictions as set forth in subparagraphs (a)
 and (c) of the Commercial Computer Software - Restricted
 Rights clause in FAR 52.227-19.
  
 Gaussian, Inc.
 340 Quinnipiac St., Bldg. 40, Wallingford CT 06492
  
  
 ---------------------------------------------------------------
 Warning -- This program may not be used in any manner that
 competes with the business of Gaussian, Inc. or will provide
 assistance to any competitor of Gaussian, Inc.  The licensee
 of this program is prohibited from giving any competitor of
 Gaussian, Inc. access to this program.  By using this program,
 the user acknowledges that Gaussian, Inc. is engaged in the
 business of creating and licensing software in the field of
 computational chemistry and represents and warrants to the
 licensee that it is not a competitor of Gaussian, Inc. and that
 it will not use this program in any manner prohibited above.
 ---------------------------------------------------------------
  

 Cite this work as:
 Gaussian 16, Revision A.03,
 M. J. Frisch, G. W. Trucks, H. B. Schlegel, G. E. Scuseria, 
 M. A. Robb, J. R. Cheeseman, G. Scalmani, V. Barone, 
 G. A. Petersson, H. Nakatsuji, X. Li, M. Caricato, A. V. Marenich, 
 J. Bloino, B. G. Janesko, R. Gomperts, B. Mennucci, H. P. Hratchian, 
 J. V. Ortiz, A. F. Izmaylov, J. L. Sonnenberg, D. Williams-Young, 
 F. Ding, F. Lipparini, F. Egidi, J. Goings, B. Peng, A. Petrone, 
 T. Henderson, D. Ranasinghe, V. G. Zakrzewski, J. Gao, N. Rega, 
 G. Zheng, W. Liang, M. Hada, M. Ehara, K. Toyota, R. Fukuda, 
 J. Hasegawa, M. Ishida, T. Nakajima, Y. Honda, O. Kitao, H. Nakai, 
 T. Vreven, K. Throssell, J. A. Montgomery, Jr., J. E. Peralta, 
 F. Ogliaro, M. J. Bearpark, J. J. Heyd, E. N. Brothers, K. N. Kudin, 
 V. N. Staroverov, T. A. Keith, R. Kobayashi, J. Normand, 
 K. Raghavachari, A. P. Rendell, J. C. Burant, S. S. Iyengar, 
 J. Tomasi, M. Cossi, J. M. Millam, M. Klene, C. Adamo, R. Cammi, 
 J. W. Ochterski, R. L. Martin, K. Morokuma, O. Farkas, 
 J. B. Foresman, and D. J. Fox, Gaussian, Inc., Wallingford CT, 2016.
 
 ******************************************
 Gaussian 16:  ES64L-G16RevA.03 25-Dec-2016
                16-Apr-2025 
 ******************************************
 %chk=opt.chk
 %mem=4GB
 %nprocshared=8
 Will use up to    8 processors via shared memory.
 --------------------------------------------
 #p opt UM062X/6-311+G** nosymm int=superfine
 --------------------------------------------
 1/18=20,19=15,26=5,38=1/1,3;
 2/9=110,12=2,15=1,17=6,18=5,40=1/2;
 3/5=4,6=6,7=111,11=2,25=1,30=1,71=1,74=-55,75=-7,116=2/1,2,3;
 4//1;
 5/5=2,38=5/2;
 6/7=2,8=2,9=2,10=2,28=1/1;
 7/30=1/1,2,3,16;
 1/18=20,19=15,26=5/3(2);
 2/9=110,15=1/2;
 99//99;
 2/9=110,15=1/2;
 3/5=4,6=6,7=111,11=2,25=1,30=1,71=1,74=-55,75=-7,116=2/1,2,3;
 4/5=5,16=3,69=1/1;
 5/5=2,38=5/2;
 7/30=1/1,2,3,16;
 1/18=20,19=15,26=5/3(-5);
 2/9=110,15=1/2;
 6/7=2,8=2,9=2,10=2,19=2,28=1/1;
 99/9=1/99;
 Leave Link    1 at Wed Apr 16 05:07:52 2025, MaxMem=   536870912 cpu:               0.7 elap:               0.1
 (Enter /home/szhao/Apps/g16/l101.exe)
 -------------------
 Title Card Required
 -------------------
 Symbolic Z-matrix:
 Charge =  0 Multiplicity = 1
 O                    -0.61543   0.        0. 
 S                     0.61543   0.        0. 
 H                    -1.21606   0.        0. 
 H                     1.21606   0.        0. 
 
 ITRead=  0  0  0  0
 MicOpt= -1 -1 -1 -1
 NAtoms=      4 NQM=        4 NQMF=       0 NMMI=      0 NMMIF=      0
                NMic=       0 NMicF=      0.
                    Isotopes and Nuclear Properties:
 (Nuclear quadrupole moments (NQMom) in fm**2, nuclear magnetic moments (NMagM)
  in nuclear magnetons)

  Atom         1           2           3           4
 IAtWgt=          16          32           1           1
 AtmWgt=  15.9949146  31.9720718   1.0078250   1.0078250
 NucSpn=           0           0           1           1
 AtZEff=  -0.0000000  -0.0000000  -0.0000000  -0.0000000
 NQMom=    0.0000000   0.0000000   0.0000000   0.0000000
 NMagM=    0.0000000   0.0000000   2.7928460   2.7928460
 AtZNuc=   8.0000000  16.0000000   1.0000000   1.0000000
 Leave Link  101 at Wed Apr 16 05:07:52 2025, MaxMem=   536870912 cpu:               2.5 elap:               0.3
 (Enter /home/szhao/Apps/g16/l103.exe)

 GradGradGradGradGradGradGradGradGradGradGradGradGradGradGradGradGradGrad
 Berny optimization.
 Initialization pass.
                           ----------------------------
                           !    Initial Parameters    !
                           ! (Angstroms and Degrees)  !
 --------------------------                            --------------------------
 ! Name  Definition              Value          Derivative Info.                !
 --------------------------------------------------------------------------------
 ! R1    R(1,2)                  1.2309         estimate D2E/DX2                !
 ! R2    R(1,3)                  0.6006         estimate D2E/DX2                !
 ! R3    R(2,4)                  0.6006         estimate D2E/DX2                !
 ! A1    L(2,1,3,-2,-1)        180.0            estimate D2E/DX2                !
 ! A2    L(1,2,4,-2,-1)        180.0            estimate D2E/DX2                !
 ! A3    L(2,1,3,-3,-2)        180.0            estimate D2E/DX2                !
 ! A4    L(1,2,4,-3,-2)        180.0            estimate D2E/DX2                !
 --------------------------------------------------------------------------------
 Trust Radius=3.00D-01 FncErr=1.00D-07 GrdErr=1.00D-07 EigMax=2.50D+02 EigMin=1.00D-04
 Number of steps in this run=     20 maximum allowed number of steps=    100.
 GradGradGradGradGradGradGradGradGradGradGradGradGradGradGradGradGradGrad

 Leave Link  103 at Wed Apr 16 05:07:52 2025, MaxMem=   536870912 cpu:               0.1 elap:               0.0
 (Enter /home/szhao/Apps/g16/l202.exe)
                          Input orientation:                          
 ---------------------------------------------------------------------
 Center     Atomic      Atomic             Coordinates (Angstroms)
 Number     Number       Type             X           Y           Z
 ---------------------------------------------------------------------
      1          8           0       -0.615428    0.000000    0.000000
      2         16           0        0.615428    0.000000    0.000000
      3          1           0       -1.216061    0.000000    0.000000
      4          1           0        1.216061    0.000000    0.000000
 ---------------------------------------------------------------------
                    Distance matrix (angstroms):
                    1          2          3          4
     1  O    0.000000
     2  S    1.230856   0.000000
     3  H    0.600633   1.831489   0.000000
     4  H    1.831489   0.600633   2.432122   0.000000
 Symmetry turned off by external request.
 Stoichiometry    H2OS
 Framework group  C*V[C*(HOSH)]
 Deg. of freedom     3
 Full point group                 C*V     NOp   4
 Rotational constants (GHZ):           0.0000000          26.3026717          26.3026717
 Leave Link  202 at Wed Apr 16 05:07:52 2025, MaxMem=   536870912 cpu:               0.0 elap:               0.0
 (Enter /home/szhao/Apps/g16/l301.exe)
 Standard basis: 6-311+G(d,p) (5D, 7F)
 Ernie: Thresh=  0.10000D-02 Tol=  0.10000D-05 Strict=F.
    64 basis functions,   102 primitive gaussians,    66 cartesian basis functions
    13 alpha electrons       13 beta electrons
       nuclear repulsion energy        83.3272928064 Hartrees.
 IExCor= 4336 DFT=T Ex+Corr=M062X ExCW=0 ScaHFX=  0.540000
 ScaDFX=  1.000000  1.000000  1.000000  1.000000 ScalE2=  1.000000  1.000000
 IRadAn=      7 IRanWt=     -1 IRanGd=            0 ICorTp=0 IEmpDi=  4
 NAtoms=    4 NActive=    4 NUniq=    4 SFac= 1.00D+00 NAtFMM=   60 NAOKFM=F Big=F
 Integral buffers will be    131072 words long.
 Raffenetti 2 integral format.
 Two-electron integral symmetry is turned off.
 Leave Link  301 at Wed Apr 16 05:07:53 2025, MaxMem=   536870912 cpu:               0.3 elap:               0.0
 (Enter /home/szhao/Apps/g16/l302.exe)
 NPDir=0 NMtPBC=     1 NCelOv=     1 NCel=       1 NClECP=     1 NCelD=      1
         NCelK=      1 NCelE2=     1 NClLst=     1 CellRange=     0.0.
 One-electron integrals computed using PRISM.
 NBasis=    64 RedAO= T EigKep=  1.72D-04  NBF=    64
 NBsUse=    64 1.00D-06 EigRej= -1.00D+00 NBFU=    64
 Precomputing XC quadrature grid using
 IXCGrd= 4 IRadAn=           7 IRanWt=          -1 IRanGd=           0 AccXCQ= 0.00D+00.
 Generated NRdTot=       0 NPtTot=           0 NUsed=           0 NTot=          32
 NSgBfM=    66    66    66    66    66 MxSgAt=     4 MxSgA2=     4.
 Leave Link  302 at Wed Apr 16 05:07:53 2025, MaxMem=   536870912 cpu:               1.2 elap:               0.2
 (Enter /home/szhao/Apps/g16/l303.exe)
 DipDrv:  MaxL=1.
 Leave Link  303 at Wed Apr 16 05:07:53 2025, MaxMem=   536870912 cpu:               0.3 elap:               0.1
 (Enter /home/szhao/Apps/g16/l401.exe)
 ExpMin= 4.05D-02 ExpMax= 9.34D+04 ExpMxC= 3.17D+03 IAcc=3 IRadAn=         7 AccDes= 0.00D+00
 Harris functional with IExCor= 1009 and IRadAn=       7 diagonalized for initial guess.
 HarFok:  IExCor= 1009 AccDes= 0.00D+00 IRadAn=         7 IDoV= 1 UseB2=F ITyADJ=14
 ICtDFT=  3500011 ScaDFX=  1.000000  1.000000  1.000000  1.000000
 FoFCou: FMM=F IPFlag=           0 FMFlag=      100000 FMFlg1=           0
         NFxFlg=           0 DoJE=T BraDBF=F KetDBF=T FulRan=T
         wScrn=  0.000000 ICntrl=       500 IOpCl=  0 I1Cent=   200000004 NGrid=           0
         NMat0=    1 NMatS0=      1 NMatT0=    0 NMatD0=    1 NMtDS0=    0 NMtDT0=    0
 Symmetry not used in FoFCou.
 Harris En= -472.367855183372    
 JPrj=0 DoOrth=F DoCkMO=F.
 Initial guess <Sx>= 0.0000 <Sy>= 0.0000 <Sz>= 0.0000 <S**2>=-0.0000 S=-0.0000
 Leave Link  401 at Wed Apr 16 05:07:53 2025, MaxMem=   536870912 cpu:               2.2 elap:               0.3
 (Enter /home/szhao/Apps/g16/l502.exe)
 Keep R1 and R2 ints in memory in canonical form, NReq=11470672.
 FoFCou: FMM=F IPFlag=           0 FMFlag=           0 FMFlg1=           0
         NFxFlg=           0 DoJE=F BraDBF=F KetDBF=F FulRan=T
         wScrn=  0.000000 ICntrl=       600 IOpCl=  0 I1Cent=           0 NGrid=           0
         NMat0=    1 NMatS0=   2080 NMatT0=    0 NMatD0=    1 NMtDS0=    0 NMtDT0=    0
 Symmetry not used in FoFCou.
 Two-electron integral symmetry not used.
 UHF open shell SCF:
 Using DIIS extrapolation, IDIIS=  1040.
 NGot=   536870912 LenX=   532532582 LenY=   532527785
 Requested convergence on RMS density matrix=1.00D-08 within 128 cycles.
 Requested convergence on MAX density matrix=1.00D-06.
 Requested convergence on             energy=1.00D-06.
 No special actions if energy rises.

 Cycle   1  Pass 1  IDiag  1:
 E= -472.283072929476    
 DIIS: error= 5.77D-02 at cycle   1 NSaved=   1.
 NSaved= 1 IEnMin= 1 EnMin= -472.283072929476     IErMin= 1 ErrMin= 5.77D-02
 ErrMax= 5.77D-02  0.00D+00 EMaxC= 1.00D-01 BMatC= 1.15D+00 BMatP= 1.15D+00
 IDIUse=3 WtCom= 4.23D-01 WtEn= 5.77D-01
 Coeff-Com:  0.100D+01
 Coeff-En:   0.100D+01
 Coeff:      0.100D+01
 Gap=     0.263 Goal=   None    Shift=    0.000
 Gap=     0.263 Goal=   None    Shift=    0.000
 GapD=    0.263 DampG=1.000 DampE=0.500 DampFc=0.5000 IDamp=-1.
 Damping current iteration by 5.00D-01
 RMSDP=1.03D-02 MaxDP=1.59D-01              OVMax= 1.50D-01

 Cycle   2  Pass 1  IDiag  1:
 E= -472.371492140194     Delta-E=       -0.088419210718 Rises=F Damp=T
 DIIS: error= 1.22D-02 at cycle   2 NSaved=   2.
 NSaved= 2 IEnMin= 2 EnMin= -472.371492140194     IErMin= 2 ErrMin= 1.22D-02
 ErrMax= 1.22D-02  0.00D+00 EMaxC= 1.00D-01 BMatC= 7.17D-02 BMatP= 1.15D+00
 IDIUse=3 WtCom= 8.78D-01 WtEn= 1.22D-01
 Coeff-Com: -0.190D+00 0.119D+01
 Coeff-En:   0.000D+00 0.100D+01
 Coeff:     -0.167D+00 0.117D+01
 Gap=     0.242 Goal=   None    Shift=    0.000
 Gap=     0.242 Goal=   None    Shift=    0.000
 RMSDP=2.13D-03 MaxDP=2.27D-02 DE=-8.84D-02 OVMax= 6.35D-02

 Cycle   3  Pass 1  IDiag  1:
 E= -472.447141336269     Delta-E=       -0.075649196074 Rises=F Damp=F
 DIIS: error= 7.44D-03 at cycle   3 NSaved=   3.
 NSaved= 3 IEnMin= 3 EnMin= -472.447141336269     IErMin= 3 ErrMin= 7.44D-03
 ErrMax= 7.44D-03  0.00D+00 EMaxC= 1.00D-01 BMatC= 1.01D-02 BMatP= 7.17D-02
 IDIUse=3 WtCom= 9.26D-01 WtEn= 7.44D-02
 Coeff-Com: -0.893D-01 0.356D+00 0.733D+00
 Coeff-En:   0.000D+00 0.000D+00 0.100D+01
 Coeff:     -0.826D-01 0.330D+00 0.753D+00
 Gap=     0.231 Goal=   None    Shift=    0.000
 Gap=     0.231 Goal=   None    Shift=    0.000
 RMSDP=7.70D-04 MaxDP=1.51D-02 DE=-7.56D-02 OVMax= 1.41D-02

 Cycle   4  Pass 1  IDiag  1:
 E= -472.448829520522     Delta-E=       -0.001688184253 Rises=F Damp=F
 DIIS: error= 1.46D-03 at cycle   4 NSaved=   4.
 NSaved= 4 IEnMin= 4 EnMin= -472.448829520522     IErMin= 4 ErrMin= 1.46D-03
 ErrMax= 1.46D-03  0.00D+00 EMaxC= 1.00D-01 BMatC= 5.01D-04 BMatP= 1.01D-02
 IDIUse=3 WtCom= 9.85D-01 WtEn= 1.46D-02
 Coeff-Com: -0.611D-02 0.238D-01 0.193D+00 0.790D+00
 Coeff-En:   0.000D+00 0.000D+00 0.000D+00 0.100D+01
 Coeff:     -0.602D-02 0.234D-01 0.190D+00 0.793D+00
 Gap=     0.230 Goal=   None    Shift=    0.000
 Gap=     0.230 Goal=   None    Shift=    0.000
 RMSDP=1.59D-04 MaxDP=3.30D-03 DE=-1.69D-03 OVMax= 3.26D-03

 Cycle   5  Pass 1  IDiag  1:
 E= -472.448918145856     Delta-E=       -0.000088625334 Rises=F Damp=F
 DIIS: error= 2.05D-04 at cycle   5 NSaved=   5.
 NSaved= 5 IEnMin= 5 EnMin= -472.448918145856     IErMin= 5 ErrMin= 2.05D-04
 ErrMax= 2.05D-04  0.00D+00 EMaxC= 1.00D-01 BMatC= 1.92D-05 BMatP= 5.01D-04
 IDIUse=3 WtCom= 9.98D-01 WtEn= 2.05D-03
 Coeff-Com:  0.115D-03-0.202D-02 0.443D-01 0.257D+00 0.701D+00
 Coeff-En:   0.000D+00 0.000D+00 0.000D+00 0.000D+00 0.100D+01
 Coeff:      0.115D-03-0.201D-02 0.442D-01 0.256D+00 0.701D+00
 Gap=     0.230 Goal=   None    Shift=    0.000
 Gap=     0.230 Goal=   None    Shift=    0.000
 RMSDP=2.62D-05 MaxDP=4.65D-04 DE=-8.86D-05 OVMax= 4.48D-04

 Cycle   6  Pass 1  IDiag  1:
 E= -472.448920352228     Delta-E=       -0.000002206372 Rises=F Damp=F
 DIIS: error= 1.54D-05 at cycle   6 NSaved=   6.
 NSaved= 6 IEnMin= 6 EnMin= -472.448920352228     IErMin= 6 ErrMin= 1.54D-05
 ErrMax= 1.54D-05  0.00D+00 EMaxC= 1.00D-01 BMatC= 9.21D-08 BMatP= 1.92D-05
 IDIUse=1 WtCom= 1.00D+00 WtEn= 0.00D+00
 Coeff-Com:  0.155D-03-0.521D-03-0.334D-03 0.579D-02 0.628D-01 0.932D+00
 Coeff:      0.155D-03-0.521D-03-0.334D-03 0.579D-02 0.628D-01 0.932D+00
 Gap=     0.230 Goal=   None    Shift=    0.000
 Gap=     0.230 Goal=   None    Shift=    0.000
 RMSDP=4.39D-06 MaxDP=6.91D-05 DE=-2.21D-06 OVMax= 6.46D-05

 Cycle   7  Pass 1  IDiag  1:
 E= -472.448920374289     Delta-E=       -0.000000022061 Rises=F Damp=F
 DIIS: error= 4.39D-06 at cycle   7 NSaved=   7.
 NSaved= 7 IEnMin= 7 EnMin= -472.448920374289     IErMin= 7 ErrMin= 4.39D-06
 ErrMax= 4.39D-06  0.00D+00 EMaxC= 1.00D-01 BMatC= 6.15D-09 BMatP= 9.21D-08
 IDIUse=1 WtCom= 1.00D+00 WtEn= 0.00D+00
 Coeff-Com:  0.137D-04-0.310D-05-0.138D-02-0.679D-02-0.242D-01 0.106D+00
 Coeff-Com:  0.926D+00
 Coeff:      0.137D-04-0.310D-05-0.138D-02-0.679D-02-0.242D-01 0.106D+00
 Coeff:      0.926D+00
 Gap=     0.230 Goal=   None    Shift=    0.000
 Gap=     0.230 Goal=   None    Shift=    0.000
 RMSDP=1.28D-06 MaxDP=2.18D-05 DE=-2.21D-08 OVMax= 9.76D-06

 Cycle   8  Pass 1  IDiag  1:
 E= -472.448920375619     Delta-E=       -0.000000001329 Rises=F Damp=F
 DIIS: error= 5.28D-07 at cycle   8 NSaved=   8.
 NSaved= 8 IEnMin= 8 EnMin= -472.448920375619     IErMin= 8 ErrMin= 5.28D-07
 ErrMax= 5.28D-07  0.00D+00 EMaxC= 1.00D-01 BMatC= 4.58D-11 BMatP= 6.15D-09
 IDIUse=1 WtCom= 1.00D+00 WtEn= 0.00D+00
 Coeff-Com: -0.578D-05 0.124D-04 0.104D-04 0.964D-04-0.666D-03-0.185D-01
 Coeff-Com: -0.209D-01 0.104D+01
 Coeff:     -0.578D-05 0.124D-04 0.104D-04 0.964D-04-0.666D-03-0.185D-01
 Coeff:     -0.209D-01 0.104D+01
 Gap=     0.230 Goal=   None    Shift=    0.000
 Gap=     0.230 Goal=   None    Shift=    0.000
 RMSDP=2.36D-07 MaxDP=4.42D-06 DE=-1.33D-09 OVMax= 2.08D-06

 Cycle   9  Pass 1  IDiag  1:
 E= -472.448920375635     Delta-E=       -0.000000000016 Rises=F Damp=F
 DIIS: error= 3.78D-08 at cycle   9 NSaved=   9.
 NSaved= 9 IEnMin= 9 EnMin= -472.448920375635     IErMin= 9 ErrMin= 3.78D-08
 ErrMax= 3.78D-08  0.00D+00 EMaxC= 1.00D-01 BMatC= 2.92D-13 BMatP= 4.58D-11
 IDIUse=1 WtCom= 1.00D+00 WtEn= 0.00D+00
 Coeff-Com:  0.159D-06-0.170D-06 0.687D-05 0.414D-04 0.173D-03-0.455D-03
 Coeff-Com: -0.789D-02-0.226D-01 0.103D+01
 Coeff:      0.159D-06-0.170D-06 0.687D-05 0.414D-04 0.173D-03-0.455D-03
 Coeff:     -0.789D-02-0.226D-01 0.103D+01
 Gap=     0.230 Goal=   None    Shift=    0.000
 Gap=     0.230 Goal=   None    Shift=    0.000
 RMSDP=2.50D-08 MaxDP=4.09D-07 DE=-1.59D-11 OVMax= 3.48D-07

 Cycle  10  Pass 1  IDiag  1:
 E= -472.448920375634     Delta-E=        0.000000000001 Rises=F Damp=F
 DIIS: error= 6.67D-09 at cycle  10 NSaved=  10.
 NSaved=10 IEnMin= 9 EnMin= -472.448920375635     IErMin=10 ErrMin= 6.67D-09
 ErrMax= 6.67D-09  0.00D+00 EMaxC= 1.00D-01 BMatC= 2.14D-14 BMatP= 2.92D-13
 IDIUse=1 WtCom= 1.00D+00 WtEn= 0.00D+00
 Coeff-Com:  0.104D-06-0.193D-06-0.329D-06-0.362D-05-0.777D-05 0.564D-03
 Coeff-Com:  0.793D-03-0.291D-01-0.267D-01 0.105D+01
 Coeff:      0.104D-06-0.193D-06-0.329D-06-0.362D-05-0.777D-05 0.564D-03
 Coeff:      0.793D-03-0.291D-01-0.267D-01 0.105D+01
 Gap=     0.230 Goal=   None    Shift=    0.000
 Gap=     0.230 Goal=   None    Shift=    0.000
 RMSDP=4.83D-09 MaxDP=7.16D-08 DE= 6.82D-13 OVMax= 7.23D-08

 SCF Done:  E(UM062X) =  -472.448920376     A.U. after   10 cycles
            NFock= 10  Conv=0.48D-08     -V/T= 1.9847
 <Sx>= 0.0000 <Sy>= 0.0000 <Sz>= 0.0000 <S**2>=-0.0000 S=-0.0000
 <L.S>=  0.00000000000    
 KE= 4.797659731346D+02 PE=-1.293352909368D+03 EE= 2.578107230516D+02
 Annihilation of the first spin contaminant:
 S**2 before annihilation    -0.0000,   after     0.0000
 Leave Link  502 at Wed Apr 16 05:07:57 2025, MaxMem=   536870912 cpu:              24.3 elap:               3.1
 (Enter /home/szhao/Apps/g16/l601.exe)
 Copying SCF densities to generalized density rwf, IOpCl= 1 IROHF=0.

 **********************************************************************

            Population analysis using the SCF density.

 **********************************************************************

 Alpha  occ. eigenvalues --  -89.92144 -19.68055  -8.37527  -6.34034  -6.25958
 Alpha  occ. eigenvalues --   -6.25958  -1.44118  -1.08357  -0.85891  -0.65613
 Alpha  occ. eigenvalues --   -0.65613  -0.25850  -0.25850
 Alpha virt. eigenvalues --   -0.02823   0.03392   0.05113   0.05113   0.06153
 Alpha virt. eigenvalues --    0.15897   0.18820   0.18820   0.21087   0.24893
 Alpha virt. eigenvalues --    0.33588   0.33588   0.35588   0.55167   0.70326
 Alpha virt. eigenvalues --    0.76282   0.76282   0.79252   0.79252   0.90033
 Alpha virt. eigenvalues --    1.00854   1.00854   1.03200   1.16461   1.48513
 Alpha virt. eigenvalues --    1.56615   1.57715   1.57715   1.67154   1.67154
 Alpha virt. eigenvalues --    1.83873   2.21225   2.21225   2.42175   2.73581
 Alpha virt. eigenvalues --    2.73581   2.82725   3.73429   3.73429   3.75927
 Alpha virt. eigenvalues --    5.05628   5.05628   5.15501   5.59374   6.81568
 Alpha virt. eigenvalues --    8.86682  17.49130  17.49130  18.10171  50.73472
 Alpha virt. eigenvalues --  190.30922
  Beta  occ. eigenvalues --  -89.92144 -19.68055  -8.37527  -6.34034  -6.25958
  Beta  occ. eigenvalues --   -6.25958  -1.44118  -1.08357  -0.85891  -0.65613
  Beta  occ. eigenvalues --   -0.65613  -0.25850  -0.25850
  Beta virt. eigenvalues --   -0.02823   0.03392   0.05113   0.05113   0.06153
  Beta virt. eigenvalues --    0.15897   0.18820   0.18820   0.21087   0.24893
  Beta virt. eigenvalues --    0.33588   0.33588   0.35588   0.55167   0.70326
  Beta virt. eigenvalues --    0.76282   0.76282   0.79252   0.79252   0.90033
  Beta virt. eigenvalues --    1.00854   1.00854   1.03200   1.16461   1.48513
  Beta virt. eigenvalues --    1.56615   1.57715   1.57715   1.67154   1.67154
  Beta virt. eigenvalues --    1.83873   2.21225   2.21225   2.42175   2.73581
  Beta virt. eigenvalues --    2.73581   2.82725   3.73429   3.73429   3.75927
  Beta virt. eigenvalues --    5.05628   5.05628   5.15501   5.59374   6.81568
  Beta virt. eigenvalues --    8.86682  17.49130  17.49130  18.10171  50.73472
  Beta virt. eigenvalues --  190.30922
          Condensed to atoms (all electrons):
               1          2          3          4
     1  O    7.965755  -0.474800   0.477871   0.016143
     2  S   -0.474800  16.257067  -0.101625   0.353261
     3  H    0.477871  -0.101625   0.412824  -0.004147
     4  H    0.016143   0.353261  -0.004147   0.830949
          Atomic-Atomic Spin Densities.
               1          2          3          4
     1  O    0.000000   0.000000  -0.000000   0.000000
     2  S    0.000000   0.000000   0.000000  -0.000000
     3  H   -0.000000   0.000000   0.000000   0.000000
     4  H    0.000000  -0.000000   0.000000  -0.000000
 Mulliken charges and spin densities:
               1          2
     1  O    0.015032   0.000000
     2  S   -0.033903   0.000000
     3  H    0.215078  -0.000000
     4  H   -0.196207  -0.000000
 Sum of Mulliken charges =  -0.00000  -0.00000
 Mulliken charges and spin densities with hydrogens summed into heavy atoms:
               1          2
     1  O    0.230110   0.000000
     2  S   -0.230110  -0.000000
 Electronic spatial extent (au):  <R**2>=             85.4423
 Charge=             -0.0000 electrons
 Dipole moment (field-independent basis, Debye):
    X=             -2.8982    Y=              0.0000    Z=              0.0000  Tot=              2.8982
 Quadrupole moment (field-independent basis, Debye-Ang):
   XX=            -17.0850   YY=            -19.9853   ZZ=            -19.9853
   XY=              0.0000   XZ=             -0.0000   YZ=             -0.0000
 Traceless Quadrupole moment (field-independent basis, Debye-Ang):
   XX=              1.9335   YY=             -0.9668   ZZ=             -0.9668
   XY=              0.0000   XZ=             -0.0000   YZ=             -0.0000
 Octapole moment (field-independent basis, Debye-Ang**2):
  XXX=            -19.6901  YYY=             -0.0000  ZZZ=              0.0000  XYY=             -7.9901
  XXY=              0.0000  XXZ=              0.0000  XZZ=             -7.9901  YZZ=             -0.0000
  YYZ=              0.0000  XYZ=             -0.0000
 Hexadecapole moment (field-independent basis, Debye-Ang**3):
 XXXX=            -60.5527 YYYY=            -27.1177 ZZZZ=            -27.1177 XXXY=              0.0000
 XXXZ=             -0.0000 YYYX=             -0.0000 YYYZ=              0.0000 ZZZX=             -0.0000
 ZZZY=              0.0000 XXYY=            -18.2742 XXZZ=            -18.2742 YYZZ=             -9.0392
 XXYZ=              0.0000 YYXZ=             -0.0000 ZZXY=             -0.0000
 N-N= 8.332729280640D+01 E-N=-1.293352909737D+03  KE= 4.797659731346D+02
                          Isotropic Fermi Contact Couplings
        Atom                 a.u.       MegaHertz       Gauss      10(-4) cm-1
     1  O(17)              0.00000      -0.00000      -0.00000      -0.00000
     2  S(33)             -0.00000      -0.00000      -0.00000      -0.00000
     3  H(1)               0.00000       0.00000       0.00000       0.00000
     4  H(1)              -0.00000      -0.00000      -0.00000      -0.00000
 --------------------------------------------------------
       Center         ----  Spin Dipole Couplings  ----
                      3XX-RR        3YY-RR        3ZZ-RR
 --------------------------------------------------------
     1   Atom        0.000000     -0.000000     -0.000000
     2   Atom       -0.000000      0.000000      0.000000
     3   Atom       -0.000000      0.000000      0.000000
     4   Atom       -0.000000      0.000000      0.000000
 --------------------------------------------------------
                        XY            XZ            YZ
 --------------------------------------------------------
     1   Atom        0.000000      0.000000      0.000000
     2   Atom       -0.000000      0.000000     -0.000000
     3   Atom       -0.000000      0.000000      0.000000
     4   Atom        0.000000      0.000000     -0.000000
 --------------------------------------------------------


 ---------------------------------------------------------------------------------
              Anisotropic Spin Dipole Couplings in Principal Axis System
 ---------------------------------------------------------------------------------

       Atom             a.u.   MegaHertz   Gauss  10(-4) cm-1        Axes

              Baa    -0.0000     0.000     0.000     0.000 -0.0620  0.0428  0.9972
     1 O(17)  Bbb    -0.0000     0.000     0.000     0.000 -0.1084  0.9929 -0.0494
              Bcc     0.0000    -0.000    -0.000    -0.000  0.9922  0.1111  0.0569
 
              Baa    -0.0000    -0.000    -0.000    -0.000  0.9989  0.0390 -0.0256
     2 S(33)  Bbb     0.0000     0.000     0.000     0.000  0.0021  0.5105  0.8599
              Bcc     0.0000     0.000     0.000     0.000 -0.0466  0.8590 -0.5099
 
              Baa    -0.0000    -0.000    -0.000    -0.000  0.9596  0.2810 -0.0112
     3 H(1)   Bbb     0.0000     0.000     0.000     0.000  0.0075  0.0141  0.9999
              Bcc     0.0000     0.000     0.000     0.000 -0.2811  0.9596 -0.0114
 
              Baa    -0.0000    -0.000    -0.000    -0.000  1.0000 -0.0050 -0.0047
     4 H(1)   Bbb     0.0000     0.000     0.000     0.000  0.0049  0.0374  0.9993
              Bcc     0.0000     0.000     0.000     0.000  0.0048  0.9993 -0.0374
 

 ---------------------------------------------------------------------------------

 No NMR shielding tensors so no spin-rotation constants.
 Leave Link  601 at Wed Apr 16 05:07:57 2025, MaxMem=   536870912 cpu:               1.5 elap:               0.2
 (Enter /home/szhao/Apps/g16/l701.exe)
 ... and contract with generalized density number  0.
 Compute integral first derivatives.
 Leave Link  701 at Wed Apr 16 05:07:57 2025, MaxMem=   536870912 cpu:               0.9 elap:               0.1
 (Enter /home/szhao/Apps/g16/l702.exe)
 L702 exits ... SP integral derivatives will be done elsewhere.
 Leave Link  702 at Wed Apr 16 05:07:57 2025, MaxMem=   536870912 cpu:               0.3 elap:               0.1
 (Enter /home/szhao/Apps/g16/l703.exe)
 Integral derivatives from FoFJK, PRISM(SPDF).
 Compute integral first derivatives, UseDBF=F ICtDFT=           0.
 Calling FoFJK, ICntrl=      2127 FMM=F ISym2X=0 I1Cent= 0 IOpClX= 1 NMat=1 NMatS=1 NMatT=0.
 FoFJK:  IHMeth= 1 ICntrl=    2127 DoSepK=F KAlg= 0 I1Cent=           0 FoldK=F
 IRaf=         0 NMat=       1 IRICut=       1 DoRegI=T DoRafI=F ISym2E= 0 IDoP0=0 IntGTp=1.
 FoFCou: FMM=F IPFlag=           0 FMFlag=      100000 FMFlg1=         800
         NFxFlg=           0 DoJE=F BraDBF=F KetDBF=F FulRan=T
         wScrn=  0.000000 ICntrl=      2127 IOpCl=  1 I1Cent=           0 NGrid=           0
         NMat0=    1 NMatS0=      1 NMatT0=    0 NMatD0=    1 NMtDS0=    0 NMtDT0=    0
 Symmetry not used in FoFCou.
 Leave Link  703 at Wed Apr 16 05:07:58 2025, MaxMem=   536870912 cpu:               5.3 elap:               0.7
 (Enter /home/szhao/Apps/g16/l716.exe)
 Dipole        =-1.14023335D+00 8.29353423D-16 2.71301024D-15
 -------------------------------------------------------------------
 Center     Atomic                   Forces (Hartrees/Bohr)
 Number     Number              X              Y              Z
 -------------------------------------------------------------------
      1        8           0.729039446    0.000000000    0.000000000
      2       16          -3.134391615   -0.000000000   -0.000000000
      3        1          -1.545251716    0.000000000   -0.000000000
      4        1           3.950603885   -0.000000000   -0.000000000
 -------------------------------------------------------------------
 Cartesian Forces:  Max     3.950603885 RMS     1.537069268
 Leave Link  716 at Wed Apr 16 05:07:58 2025, MaxMem=   536870912 cpu:               0.3 elap:               0.1
 (Enter /home/szhao/Apps/g16/l103.exe)

 GradGradGradGradGradGradGradGradGradGradGradGradGradGradGradGradGradGrad
 Berny optimization.
 FormGI is forming the generalized inverse of G from B-inverse, IUseBI=4.
 Internal  Forces:  Max     3.950603885 RMS     1.632757369
 Search for a local minimum.
 Step number   1 out of a maximum of   20
 All quantities printed in internal units (Hartrees-Bohrs-Radians)
 RMS Force = .16328D+01 SwitMx=.10000D-02 MixMth= 1
 Mixed Optimization -- RFO/linear search
 Second derivative matrix not updated -- first step.
 The second derivative matrix:
                          R1        R2        R3        A1        A2
           R1           3.33666
           R2           0.00000   3.61169
           R3           0.00000   0.00000  16.17635
           A1           0.00000   0.00000   0.00000   0.06311
           A2           0.00000   0.00000   0.00000   0.00000   0.10281
           A3           0.00000   0.00000   0.00000   0.00000   0.00000
           A4           0.00000   0.00000   0.00000   0.00000   0.00000
                          A3        A4
           A3           0.06311
           A4           0.00000   0.10281
 ITU=  0
     Eigenvalues ---    0.06311   0.06311   0.10281   0.10281   3.33666
     Eigenvalues ---    3.61169  16.17635
 RFO step:  Lambda=-1.48958411D+00 EMin= 6.31124114D-02
 Linear search not attempted -- first point.
 Maximum step size (   0.300) exceeded in Quadratic search.
    -- Step size scaled by   0.727
 Iteration  1 RMS(Cart)=  0.13402540 RMS(Int)=  0.00762144
 Iteration  2 RMS(Cart)=  0.00660036 RMS(Int)=  0.00000001
 Iteration  3 RMS(Cart)=  0.00000001 RMS(Int)=  0.00000001
 ITry= 1 IFail=0 DXMaxC= 2.67D-01 DCOld= 1.00D+10 DXMaxT= 3.00D-01 DXLimC= 3.00D+00 Rises=F
 Variable       Old X    -DE/DX   Delta X   Delta X   Delta X     New X
                                 (Linear)    (Quad)   (Total)
    R1        2.32598   0.81621   0.00000   0.12292   0.12292   2.44890
    R2        1.13503   1.54525   0.00000   0.22016   0.22016   1.35520
    R3        1.13503   3.95060   0.00000   0.16254   0.16254   1.29757
    A1        3.14159   0.00000   0.00000   0.00000   0.00000   3.14159
    A2        3.14159  -0.00000   0.00000  -0.00000   0.00000   3.14159
    A3        3.14159  -0.00000   0.00000  -0.00000   0.00000   3.14159
    A4        3.14159  -0.00000   0.00000  -0.00000  -0.00000   3.14159
         Item               Value     Threshold  Converged?
 Maximum Force            3.950604     0.000450     NO 
 RMS     Force            1.632757     0.000300     NO 
 Maximum Displacement     0.267217     0.001800     NO 
 RMS     Displacement     0.139495     0.001200     NO 
 Predicted change in Energy=-7.562414D-01
 Lowest energy point so far.  Saving SCF results.
 GradGradGradGradGradGradGradGradGradGradGradGradGradGradGradGradGradGrad

 Leave Link  103 at Wed Apr 16 05:07:58 2025, MaxMem=   536870912 cpu:               0.6 elap:               0.1
 (Enter /home/szhao/Apps/g16/l202.exe)
                          Input orientation:                          
 ---------------------------------------------------------------------
 Center     Atomic      Atomic             Coordinates (Angstroms)
 Number     Number       Type             X           Y           Z
 ---------------------------------------------------------------------
      1          8           0       -0.640327   -0.000000   -0.000000
      2         16           0        0.655575   -0.000000   -0.000000
      3          1           0       -1.357466    0.000000    0.000000
      4          1           0        1.342219    0.000000    0.000000
 ---------------------------------------------------------------------
                    Distance matrix (angstroms):
                    1          2          3          4
     1  O    0.000000
     2  S    1.295902   0.000000
     3  H    0.717139   2.013041   0.000000
     4  H    1.982546   0.686644   2.699685   0.000000
 Symmetry turned off by external request.
 Stoichiometry    H2OS
 Framework group  C*V[C*(HOSH)]
 Deg. of freedom     3
 Full point group                 C*V     NOp   4
 Rotational constants (GHZ):           0.0000000          23.3106887          23.3106887
 Leave Link  202 at Wed Apr 16 05:07:58 2025, MaxMem=   536870912 cpu:               0.1 elap:               0.0
 (Enter /home/szhao/Apps/g16/l301.exe)
 Standard basis: 6-311+G(d,p) (5D, 7F)
 Ernie: Thresh=  0.10000D-02 Tol=  0.10000D-05 Strict=F.
    64 basis functions,   102 primitive gaussians,    66 cartesian basis functions
    13 alpha electrons       13 beta electrons
       nuclear repulsion energy        77.0396611436 Hartrees.
 IExCor= 4336 DFT=T Ex+Corr=M062X ExCW=0 ScaHFX=  0.540000
 ScaDFX=  1.000000  1.000000  1.000000  1.000000 ScalE2=  1.000000  1.000000
 IRadAn=      7 IRanWt=     -1 IRanGd=            0 ICorTp=0 IEmpDi=  4
 NAtoms=    4 NActive=    4 NUniq=    4 SFac= 1.00D+00 NAtFMM=   60 NAOKFM=F Big=F
 Integral buffers will be    131072 words long.
 Raffenetti 2 integral format.
 Two-electron integral symmetry is turned off.
 Leave Link  301 at Wed Apr 16 05:07:58 2025, MaxMem=   536870912 cpu:               0.4 elap:               0.1
 (Enter /home/szhao/Apps/g16/l302.exe)
 NPDir=0 NMtPBC=     1 NCelOv=     1 NCel=       1 NClECP=     1 NCelD=      1
         NCelK=      1 NCelE2=     1 NClLst=     1 CellRange=     0.0.
 One-electron integrals computed using PRISM.
 NBasis=    64 RedAO= T EigKep=  2.20D-04  NBF=    64
 NBsUse=    64 1.00D-06 EigRej= -1.00D+00 NBFU=    64
 Precomputing XC quadrature grid using
 IXCGrd= 4 IRadAn=           7 IRanWt=          -1 IRanGd=           0 AccXCQ= 0.00D+00.
 Generated NRdTot=       0 NPtTot=           0 NUsed=           0 NTot=          32
 NSgBfM=    66    66    66    66    66 MxSgAt=     4 MxSgA2=     4.
 Leave Link  302 at Wed Apr 16 05:07:59 2025, MaxMem=   536870912 cpu:               1.2 elap:               0.2
 (Enter /home/szhao/Apps/g16/l303.exe)
 DipDrv:  MaxL=1.
 Leave Link  303 at Wed Apr 16 05:07:59 2025, MaxMem=   536870912 cpu:               0.4 elap:               0.1
 (Enter /home/szhao/Apps/g16/l401.exe)
 Initial guess from the checkpoint file:  "opt.chk"
 B after Tr=     0.031101   -0.000000   -0.000000
         Rot=    0.707115   -0.707098    0.000000   -0.000000 Ang= -90.00 deg.
 Guess basis will be translated and rotated to current coordinates.
 JPrj=2 DoOrth=T DoCkMO=T.
 Initial guess <Sx>= 0.0000 <Sy>= 0.0000 <Sz>= 0.0000 <S**2>= 0.0000 S= 0.0000
 Generating alternative initial guess.
 ExpMin= 4.05D-02 ExpMax= 9.34D+04 ExpMxC= 3.17D+03 IAcc=3 IRadAn=         5 AccDes= 0.00D+00
 Harris functional with IExCor= 1009 and IRadAn=       5 diagonalized for initial guess.
 HarFok:  IExCor= 1009 AccDes= 0.00D+00 IRadAn=         5 IDoV= 1 UseB2=F ITyADJ=14
 ICtDFT=  3500011 ScaDFX=  1.000000  1.000000  1.000000  1.000000
 FoFCou: FMM=F IPFlag=           0 FMFlag=      100000 FMFlg1=           0
         NFxFlg=           0 DoJE=T BraDBF=F KetDBF=T FulRan=T
         wScrn=  0.000000 ICntrl=       500 IOpCl=  0 I1Cent=   200000004 NGrid=           0
         NMat0=    1 NMatS0=      1 NMatT0=    0 NMatD0=    1 NMtDS0=    0 NMtDT0=    0
 Symmetry not used in FoFCou.
 Harris En= -473.137961446722    
 Leave Link  401 at Wed Apr 16 05:07:59 2025, MaxMem=   536870912 cpu:               1.6 elap:               0.2
 (Enter /home/szhao/Apps/g16/l502.exe)
 Keep R1 and R2 ints in memory in canonical form, NReq=11470672.
 FoFCou: FMM=F IPFlag=           0 FMFlag=           0 FMFlg1=           0
         NFxFlg=           0 DoJE=F BraDBF=F KetDBF=F FulRan=T
         wScrn=  0.000000 ICntrl=       600 IOpCl=  0 I1Cent=           0 NGrid=           0
         NMat0=    1 NMatS0=   2080 NMatT0=    0 NMatD0=    1 NMtDS0=    0 NMtDT0=    0
 Symmetry not used in FoFCou.
 Two-electron integral symmetry not used.
 UHF open shell SCF:
 Using DIIS extrapolation, IDIIS=  1040.
 NGot=   536870912 LenX=   532532582 LenY=   532527785
 Requested convergence on RMS density matrix=1.00D-08 within 128 cycles.
 Requested convergence on MAX density matrix=1.00D-06.
 Requested convergence on             energy=1.00D-06.
 No special actions if energy rises.

 Cycle   1  Pass 1  IDiag  1:
 E= -473.252293632023    
 DIIS: error= 2.46D-02 at cycle   1 NSaved=   1.
 NSaved= 1 IEnMin= 1 EnMin= -473.252293632023     IErMin= 1 ErrMin= 2.46D-02
 ErrMax= 2.46D-02  0.00D+00 EMaxC= 1.00D-01 BMatC= 2.44D-01 BMatP= 2.44D-01
 IDIUse=3 WtCom= 7.54D-01 WtEn= 2.46D-01
 Coeff-Com:  0.100D+01
 Coeff-En:   0.100D+01
 Coeff:      0.100D+01
 Recover alternate guess density for next cycle.
 RMSDP=7.80D-03 MaxDP=9.80D-02              OVMax= 0.00D+00

 Cycle   2  Pass 1  IDiag  1:
 E= -473.159213127840     Delta-E=        0.093080504183 Rises=F Damp=F
 Switch densities from cycles 1 and 2 for lowest energy.
 DIIS: error= 4.58D-02 at cycle   2 NSaved=   2.
 NSaved= 2 IEnMin= 1 EnMin= -473.252293632023     IErMin= 1 ErrMin= 2.46D-02
 ErrMax= 4.58D-02  0.00D+00 EMaxC= 1.00D+00 BMatC= 7.86D-01 BMatP= 2.44D-01
 IDIUse=1 WtCom= 1.00D+00 WtEn= 0.00D+00
 Coeff-Com:  0.858D+00 0.142D+00
 Coeff:      0.858D+00 0.142D+00
 Gap=     0.250 Goal=   None    Shift=    0.000
 Gap=     0.250 Goal=   None    Shift=    0.000
 RMSDP=7.01D-03 MaxDP=9.33D-02 DE= 9.31D-02 OVMax= 8.77D-02

 Cycle   3  Pass 1  IDiag  1:
 E= -473.269359662745     Delta-E=       -0.110146534905 Rises=F Damp=F
 DIIS: error= 1.00D-02 at cycle   3 NSaved=   3.
 NSaved= 3 IEnMin= 3 EnMin= -473.269359662745     IErMin= 3 ErrMin= 1.00D-02
 ErrMax= 1.00D-02  0.00D+00 EMaxC= 1.00D+00 BMatC= 3.93D-02 BMatP= 2.44D-01
 IDIUse=1 WtCom= 1.00D+00 WtEn= 0.00D+00
 Coeff-Com:  0.217D-01 0.160D+00 0.818D+00
 Coeff:      0.217D-01 0.160D+00 0.818D+00
 Gap=     0.229 Goal=   None    Shift=    0.000
 Gap=     0.229 Goal=   None    Shift=    0.000
 RMSDP=1.14D-03 MaxDP=2.18D-02 DE=-1.10D-01 OVMax= 1.93D-02

 Cycle   4  Pass 1  IDiag  1:
 E= -473.274349486809     Delta-E=       -0.004989824064 Rises=F Damp=F
 DIIS: error= 3.50D-03 at cycle   4 NSaved=   4.
 NSaved= 4 IEnMin= 4 EnMin= -473.274349486809     IErMin= 4 ErrMin= 3.50D-03
 ErrMax= 3.50D-03  0.00D+00 EMaxC= 1.00D+00 BMatC= 3.58D-03 BMatP= 3.93D-02
 IDIUse=1 WtCom= 1.00D+00 WtEn= 0.00D+00
 Coeff-Com: -0.406D-02 0.376D-01 0.307D+00 0.660D+00
 Coeff:     -0.406D-02 0.376D-01 0.307D+00 0.660D+00
 Gap=     0.229 Goal=   None    Shift=    0.000
 Gap=     0.229 Goal=   None    Shift=    0.000
 RMSDP=3.15D-04 MaxDP=5.33D-03 DE=-4.99D-03 OVMax= 6.98D-03

 Cycle   5  Pass 1  IDiag  1:
 E= -473.274943800949     Delta-E=       -0.000594314140 Rises=F Damp=F
 DIIS: error= 3.99D-04 at cycle   5 NSaved=   5.
 NSaved= 5 IEnMin= 5 EnMin= -473.274943800949     IErMin= 5 ErrMin= 3.99D-04
 ErrMax= 3.99D-04  0.00D+00 EMaxC= 1.00D+00 BMatC= 5.67D-05 BMatP= 3.58D-03
 IDIUse=1 WtCom= 1.00D+00 WtEn= 0.00D+00
 Coeff-Com: -0.145D-02 0.251D-03 0.251D-01 0.145D+00 0.831D+00
 Coeff:     -0.145D-02 0.251D-03 0.251D-01 0.145D+00 0.831D+00
 Gap=     0.229 Goal=   None    Shift=    0.000
 Gap=     0.229 Goal=   None    Shift=    0.000
 RMSDP=4.95D-05 MaxDP=9.53D-04 DE=-5.94D-04 OVMax= 1.02D-03

 Cycle   6  Pass 1  IDiag  1:
 E= -473.274954501687     Delta-E=       -0.000010700738 Rises=F Damp=F
 DIIS: error= 5.81D-05 at cycle   6 NSaved=   6.
 NSaved= 6 IEnMin= 6 EnMin= -473.274954501687     IErMin= 6 ErrMin= 5.81D-05
 ErrMax= 5.81D-05  0.00D+00 EMaxC= 1.00D+00 BMatC= 1.18D-06 BMatP= 5.67D-05
 IDIUse=1 WtCom= 1.00D+00 WtEn= 0.00D+00
 Coeff-Com: -0.268D-03-0.812D-03-0.174D-02 0.190D-01 0.169D+00 0.815D+00
 Coeff:     -0.268D-03-0.812D-03-0.174D-02 0.190D-01 0.169D+00 0.815D+00
 Gap=     0.229 Goal=   None    Shift=    0.000
 Gap=     0.229 Goal=   None    Shift=    0.000
 DSYEVD-2 returned Info=          97 IAlg= 4 N=    64 NDim=    64 NE2=     8320745 trying  DSYEV.
 RMSDP=6.54D-06 MaxDP=1.23D-04 DE=-1.07D-05 OVMax= 1.04D-04

 Cycle   7  Pass 1  IDiag  1:
 E= -473.274954607766     Delta-E=       -0.000000106079 Rises=F Damp=F
 DIIS: error= 1.03D-05 at cycle   7 NSaved=   7.
 NSaved= 7 IEnMin= 7 EnMin= -473.274954607766     IErMin= 7 ErrMin= 1.03D-05
 ErrMax= 1.03D-05  0.00D+00 EMaxC= 1.00D+00 BMatC= 3.33D-08 BMatP= 1.18D-06
 IDIUse=1 WtCom= 1.00D+00 WtEn= 0.00D+00
 Coeff-Com:  0.272D-04-0.524D-04-0.910D-03-0.287D-02-0.908D-02 0.925D-01
 Coeff-Com:  0.920D+00
 Coeff:      0.272D-04-0.524D-04-0.910D-03-0.287D-02-0.908D-02 0.925D-01
 Coeff:      0.920D+00
 Gap=     0.229 Goal=   None    Shift=    0.000
 Gap=     0.229 Goal=   None    Shift=    0.000
 RMSDP=1.96D-06 MaxDP=3.72D-05 DE=-1.06D-07 OVMax= 2.62D-05

 Cycle   8  Pass 1  IDiag  1:
 E= -473.274954614234     Delta-E=       -0.000000006468 Rises=F Damp=F
 DIIS: error= 3.02D-06 at cycle   8 NSaved=   8.
 NSaved= 8 IEnMin= 8 EnMin= -473.274954614234     IErMin= 8 ErrMin= 3.02D-06
 ErrMax= 3.02D-06  0.00D+00 EMaxC= 1.00D+00 BMatC= 2.74D-09 BMatP= 3.33D-08
 IDIUse=1 WtCom= 1.00D+00 WtEn= 0.00D+00
 Coeff-Com:  0.100D-04 0.318D-04-0.103D-03-0.151D-02-0.937D-02-0.351D-01
 Coeff-Com:  0.201D+00 0.845D+00
 Coeff:      0.100D-04 0.318D-04-0.103D-03-0.151D-02-0.937D-02-0.351D-01
 Coeff:      0.201D+00 0.845D+00
 Gap=     0.229 Goal=   None    Shift=    0.000
 DSYEVD-2 returned Info=          97 IAlg= 4 N=    64 NDim=    64 NE2=     8320745 trying  DSYEV.
 Gap=     0.229 Goal=   None    Shift=    0.000
 RMSDP=4.57D-07 MaxDP=8.17D-06 DE=-6.47D-09 OVMax= 7.74D-06

 Cycle   9  Pass 1  IDiag  1:
 E= -473.274954614818     Delta-E=       -0.000000000584 Rises=F Damp=F
 DIIS: error= 2.59D-07 at cycle   9 NSaved=   9.
 NSaved= 9 IEnMin= 9 EnMin= -473.274954614818     IErMin= 9 ErrMin= 2.59D-07
 ErrMax= 2.59D-07  0.00D+00 EMaxC= 1.00D+00 BMatC= 8.76D-12 BMatP= 2.74D-09
 IDIUse=1 WtCom= 1.00D+00 WtEn= 0.00D+00
 Coeff-Com: -0.288D-06-0.484D-06 0.156D-04 0.426D-04 0.241D-03 0.146D-03
 Coeff-Com: -0.147D-01-0.122D-01 0.103D+01
 Coeff:     -0.288D-06-0.484D-06 0.156D-04 0.426D-04 0.241D-03 0.146D-03
 Coeff:     -0.147D-01-0.122D-01 0.103D+01
 Gap=     0.229 Goal=   None    Shift=    0.000
 Gap=     0.229 Goal=   None    Shift=    0.000
 RMSDP=3.96D-08 MaxDP=3.88D-07 DE=-5.84D-10 OVMax= 5.03D-07

 Cycle  10  Pass 1  IDiag  1:
 E= -473.274954614820     Delta-E=       -0.000000000002 Rises=F Damp=F
 DIIS: error= 2.80D-08 at cycle  10 NSaved=  10.
 NSaved=10 IEnMin=10 EnMin= -473.274954614820     IErMin=10 ErrMin= 2.80D-08
 ErrMax= 2.80D-08  0.00D+00 EMaxC= 1.00D+00 BMatC= 1.29D-13 BMatP= 8.76D-12
 IDIUse=1 WtCom= 1.00D+00 WtEn= 0.00D+00
 Coeff-Com: -0.152D-06-0.367D-06 0.162D-05 0.187D-04 0.112D-03 0.536D-03
 Coeff-Com: -0.308D-02-0.127D-01-0.440D-02 0.102D+01
 Coeff:     -0.152D-06-0.367D-06 0.162D-05 0.187D-04 0.112D-03 0.536D-03
 Coeff:     -0.308D-02-0.127D-01-0.440D-02 0.102D+01
 Gap=     0.229 Goal=   None    Shift=    0.000
 Gap=     0.229 Goal=   None    Shift=    0.000
 RMSDP=6.98D-09 MaxDP=8.95D-08 DE=-1.93D-12 OVMax= 1.06D-07

 SCF Done:  E(UM062X) =  -473.274954615     A.U. after   10 cycles
            NFock= 10  Conv=0.70D-08     -V/T= 1.9902
 <Sx>= 0.0000 <Sy>= 0.0000 <Sz>= 0.0000 <S**2>=-0.0000 S=-0.0000
 <L.S>=  0.00000000000    
 KE= 4.779446104356D+02 PE=-1.281546450040D+03 EE= 2.532872238454D+02
 Annihilation of the first spin contaminant:
 S**2 before annihilation    -0.0000,   after     0.0000
 Leave Link  502 at Wed Apr 16 05:08:02 2025, MaxMem=   536870912 cpu:              22.7 elap:               2.9
 (Enter /home/szhao/Apps/g16/l701.exe)
 ... and contract with generalized density number  0.
 Compute integral first derivatives.
 Leave Link  701 at Wed Apr 16 05:08:02 2025, MaxMem=   536870912 cpu:               0.7 elap:               0.1
 (Enter /home/szhao/Apps/g16/l702.exe)
 L702 exits ... SP integral derivatives will be done elsewhere.
 Leave Link  702 at Wed Apr 16 05:08:02 2025, MaxMem=   536870912 cpu:               0.3 elap:               0.1
 (Enter /home/szhao/Apps/g16/l703.exe)
 Integral derivatives from FoFJK, PRISM(SPDF).
 Compute integral first derivatives, UseDBF=F ICtDFT=           0.
 Calling FoFJK, ICntrl=      2127 FMM=F ISym2X=0 I1Cent= 0 IOpClX= 1 NMat=1 NMatS=1 NMatT=0.
 FoFJK:  IHMeth= 1 ICntrl=    2127 DoSepK=F KAlg= 0 I1Cent=           0 FoldK=F
 IRaf=         0 NMat=       1 IRICut=       1 DoRegI=T DoRafI=F ISym2E= 0 IDoP0=0 IntGTp=1.
 FoFCou: FMM=F IPFlag=           0 FMFlag=      100000 FMFlg1=         800
         NFxFlg=           0 DoJE=F BraDBF=F KetDBF=F FulRan=T
         wScrn=  0.000000 ICntrl=      2127 IOpCl=  1 I1Cent=           0 NGrid=           0
         NMat0=    1 NMatS0=      1 NMatT0=    0 NMatD0=    1 NMtDS0=    0 NMtDT0=    0
 Symmetry not used in FoFCou.
 Leave Link  703 at Wed Apr 16 05:08:03 2025, MaxMem=   536870912 cpu:               4.9 elap:               0.6
 (Enter /home/szhao/Apps/g16/l716.exe)
 Dipole        =-1.03717743D+00 8.77473994D-09 8.77439212D-09
 -------------------------------------------------------------------
 Center     Atomic                   Forces (Hartrees/Bohr)
 Number     Number              X              Y              Z
 -------------------------------------------------------------------
      1        8           0.083577068   -0.000000011   -0.000000011
      2       16          -2.003227841   -0.000000007   -0.000000007
      3        1          -0.618186762    0.000000008    0.000000008
      4        1           2.537837535    0.000000009    0.000000009
 -------------------------------------------------------------------
 Cartesian Forces:  Max     2.537837535 RMS     0.950556027
 Leave Link  716 at Wed Apr 16 05:08:03 2025, MaxMem=   536870912 cpu:               0.2 elap:               0.1
 (Enter /home/szhao/Apps/g16/l103.exe)

 GradGradGradGradGradGradGradGradGradGradGradGradGradGradGradGradGradGrad
 Berny optimization.
 Using GEDIIS/GDIIS optimizer.
 FormGI is forming the generalized inverse of G from B-inverse, IUseBI=4.
 Internal  Forces:  Max     2.537837535 RMS     1.007725994
 Search for a local minimum.
 Step number   2 out of a maximum of   20
 All quantities printed in internal units (Hartrees-Bohrs-Radians)
 RMS Force = .10077D+01 SwitMx=.10000D-02 MixMth= 1
 Mixed Optimization -- RFO/linear search
 Update second derivatives using D2CorX and points    1    2
 DE= -8.26D-01 DEPred=-7.56D-01 R= 1.09D+00
 TightC=F SS=  1.41D+00  RLast= 3.00D-01 DXNew= 5.0454D-01 9.0000D-01
 Trust test= 1.09D+00 RLast= 3.00D-01 DXMaxT set to 5.05D-01
 The second derivative matrix:
                          R1        R2        R3        A1        A2
           R1           3.24831
           R2           0.05785   4.47823
           R3          -0.80237  -0.40602   9.84870
           A1           0.00000   0.00000   0.00000   0.06311
           A2          -0.00000  -0.00000  -0.00000  -0.00000   0.10281
           A3          -0.00000  -0.00000  -0.00000  -0.00000   0.00000
           A4           0.00000   0.00000   0.00000   0.00000   0.00000
                          A3        A4
           A3           0.06311
           A4          -0.00000   0.10281
 ITU=  1  0
 Use linear search instead of GDIIS.
 Linear search step of   0.600 exceeds DXMaxT=   0.505 but not scaled.
 Quartic linear search produced a step of  2.00000.
 SLEqS3 Cycle:   121 Max:0.100000     RMS:0.577350E-01 Conv:0.200000E-06
 SLEqS3 Cycle:   121 Max:0.100000     RMS:0.577350E-01 Conv:0.200000E-06
 Iteration  1 RMS(Cart)=  0.05345225 RMS(Int)=  0.18004730
 SLEqS3 Cycle:     2 Max:0.100000     RMS:0.408248E-01 Conv:0.200000E-06
 Iteration  2 RMS(Cart)=  0.11019463 RMS(Int)=  0.09496638
 Iteration  3 RMS(Cart)=  0.11863245 RMS(Int)=  0.00000000
 Iteration  4 RMS(Cart)=  0.00000000 RMS(Int)=  0.00000000
 ITry= 1 IFail=0 DXMaxC= 5.34D-01 DCOld= 1.00D+10 DXMaxT= 5.05D-01 DXLimC= 3.00D+00 Rises=F
 Variable       Old X    -DE/DX   Delta X   Delta X   Delta X     New X
                                 (Linear)    (Quad)   (Total)
    R1        2.44890   0.53461   0.24584   0.00000   0.24584   2.69474
    R2        1.35520   0.61819   0.44033   0.00000   0.44033   1.79553
    R3        1.29757   2.53784   0.32507   0.00000   0.32507   1.62264
    A1        3.14159  -0.00000   0.00000   0.00000   0.00000   3.14159
    A2        3.14159   0.00000   0.00000   0.00000   0.00000   3.14159
    A3        3.14159   0.00000   0.00000   0.00000   0.00000   3.14159
    A4        3.14159  -0.00000  -0.00000   0.00000  -0.00000   3.14159
         Item               Value     Threshold  Converged?
 Maximum Force            2.537838     0.000450     NO 
 RMS     Force            1.007726     0.000300     NO 
 Maximum Displacement     0.534435     0.001800     NO 
 RMS     Displacement     0.278989     0.001200     NO 
 Predicted change in Energy=-2.919235D-01
 Lowest energy point so far.  Saving SCF results.
 GradGradGradGradGradGradGradGradGradGradGradGradGradGradGradGradGradGrad

 Leave Link  103 at Wed Apr 16 05:08:03 2025, MaxMem=   536870912 cpu:               0.8 elap:               0.1
 (Enter /home/szhao/Apps/g16/l202.exe)
                          Input orientation:                          
 ---------------------------------------------------------------------
 Center     Atomic      Atomic             Coordinates (Angstroms)
 Number     Number       Type             X           Y           Z
 ---------------------------------------------------------------------
      1          8           0       -0.690126    0.000000    0.000000
      2         16           0        0.735868   -0.000000   -0.000000
      3          1           0       -1.640277    0.000000    0.000000
      4          1           0        1.594535    0.000000    0.000000
 ---------------------------------------------------------------------
                    Distance matrix (angstroms):
                    1          2          3          4
     1  O    0.000000
     2  S    1.425994   0.000000
     3  H    0.950151   2.376146   0.000000
     4  H    2.284661   0.858666   3.234812   0.000000
 Symmetry turned off by external request.
 Stoichiometry    H2OS
 Framework group  C*V[C*(HOSH)]
 Deg. of freedom     3
 Full point group                 C*V     NOp   4
 Rotational constants (GHZ):           0.0000000          18.6435432          18.6435432
 Leave Link  202 at Wed Apr 16 05:08:04 2025, MaxMem=   536870912 cpu:               0.1 elap:               0.0
 (Enter /home/szhao/Apps/g16/l301.exe)
 Standard basis: 6-311+G(d,p) (5D, 7F)
 Ernie: Thresh=  0.10000D-02 Tol=  0.10000D-05 Strict=F.
    64 basis functions,   102 primitive gaussians,    66 cartesian basis functions
    13 alpha electrons       13 beta electrons
       nuclear repulsion energy        67.3957570844 Hartrees.
 IExCor= 4336 DFT=T Ex+Corr=M062X ExCW=0 ScaHFX=  0.540000
 ScaDFX=  1.000000  1.000000  1.000000  1.000000 ScalE2=  1.000000  1.000000
 IRadAn=      7 IRanWt=     -1 IRanGd=            0 ICorTp=0 IEmpDi=  4
 NAtoms=    4 NActive=    4 NUniq=    4 SFac= 1.00D+00 NAtFMM=   60 NAOKFM=F Big=F
 Integral buffers will be    131072 words long.
 Raffenetti 2 integral format.
 Two-electron integral symmetry is turned off.
 Leave Link  301 at Wed Apr 16 05:08:04 2025, MaxMem=   536870912 cpu:               0.5 elap:               0.1
 (Enter /home/szhao/Apps/g16/l302.exe)
 NPDir=0 NMtPBC=     1 NCelOv=     1 NCel=       1 NClECP=     1 NCelD=      1
         NCelK=      1 NCelE2=     1 NClLst=     1 CellRange=     0.0.
 One-electron integrals computed using PRISM.
 NBasis=    64 RedAO= T EigKep=  4.68D-04  NBF=    64
 NBsUse=    64 1.00D-06 EigRej= -1.00D+00 NBFU=    64
 Precomputing XC quadrature grid using
 IXCGrd= 4 IRadAn=           7 IRanWt=          -1 IRanGd=           0 AccXCQ= 0.00D+00.
 Generated NRdTot=       0 NPtTot=           0 NUsed=           0 NTot=          32
 NSgBfM=    66    66    66    66    66 MxSgAt=     4 MxSgA2=     4.
 Leave Link  302 at Wed Apr 16 05:08:04 2025, MaxMem=   536870912 cpu:               1.0 elap:               0.1
 (Enter /home/szhao/Apps/g16/l303.exe)
 DipDrv:  MaxL=1.
 Leave Link  303 at Wed Apr 16 05:08:04 2025, MaxMem=   536870912 cpu:               0.2 elap:               0.0
 (Enter /home/szhao/Apps/g16/l401.exe)
 Initial guess from the checkpoint file:  "opt.chk"
 B after Tr=     0.062202   -0.000000   -0.000000
         Rot=    0.862757   -0.505619   -0.000000    0.000000 Ang= -60.74 deg.
 Guess basis will be translated and rotated to current coordinates.
 JPrj=2 DoOrth=T DoCkMO=T.
 Initial guess <Sx>= 0.0000 <Sy>= 0.0000 <Sz>= 0.0000 <S**2>=-0.0000 S=-0.0000
 Generating alternative initial guess.
 ExpMin= 4.05D-02 ExpMax= 9.34D+04 ExpMxC= 3.17D+03 IAcc=3 IRadAn=         5 AccDes= 0.00D+00
 Harris functional with IExCor= 1009 and IRadAn=       5 diagonalized for initial guess.
 HarFok:  IExCor= 1009 AccDes= 0.00D+00 IRadAn=         5 IDoV= 1 UseB2=F ITyADJ=14
 ICtDFT=  3500011 ScaDFX=  1.000000  1.000000  1.000000  1.000000
 FoFCou: FMM=F IPFlag=           0 FMFlag=      100000 FMFlg1=           0
         NFxFlg=           0 DoJE=T BraDBF=F KetDBF=T FulRan=T
         wScrn=  0.000000 ICntrl=       500 IOpCl=  0 I1Cent=   200000004 NGrid=           0
         NMat0=    1 NMatS0=      1 NMatT0=    0 NMatD0=    1 NMtDS0=    0 NMtDT0=    0
 Symmetry not used in FoFCou.
 Harris En= -473.817181297261    
 Leave Link  401 at Wed Apr 16 05:08:04 2025, MaxMem=   536870912 cpu:               1.5 elap:               0.2
 (Enter /home/szhao/Apps/g16/l502.exe)
 Keep R1 and R2 ints in memory in canonical form, NReq=11470672.
 FoFCou: FMM=F IPFlag=           0 FMFlag=           0 FMFlg1=           0
         NFxFlg=           0 DoJE=F BraDBF=F KetDBF=F FulRan=T
         wScrn=  0.000000 ICntrl=       600 IOpCl=  0 I1Cent=           0 NGrid=           0
         NMat0=    1 NMatS0=   2080 NMatT0=    0 NMatD0=    1 NMtDS0=    0 NMtDT0=    0
 Symmetry not used in FoFCou.
 Two-electron integral symmetry not used.
 UHF open shell SCF:
 Using DIIS extrapolation, IDIIS=  1040.
 NGot=   536870912 LenX=   532532582 LenY=   532527785
 Requested convergence on RMS density matrix=1.00D-08 within 128 cycles.
 Requested convergence on MAX density matrix=1.00D-06.
 Requested convergence on             energy=1.00D-06.
 No special actions if energy rises.

 Cycle   1  Pass 1  IDiag  1:
 E= -473.949278478207    
 DIIS: error= 3.76D-02 at cycle   1 NSaved=   1.
 NSaved= 1 IEnMin= 1 EnMin= -473.949278478207     IErMin= 1 ErrMin= 3.76D-02
 ErrMax= 3.76D-02  0.00D+00 EMaxC= 1.00D-01 BMatC= 4.05D-01 BMatP= 4.05D-01
 IDIUse=3 WtCom= 6.24D-01 WtEn= 3.76D-01
 Coeff-Com:  0.100D+01
 Coeff-En:   0.100D+01
 Coeff:      0.100D+01
 Recover alternate guess density for next cycle.
 RMSDP=6.72D-03 MaxDP=1.02D-01              OVMax= 0.00D+00

 Cycle   2  Pass 1  IDiag  1:
 E= -473.939580717994     Delta-E=        0.009697760213 Rises=F Damp=F
 Switch densities from cycles 1 and 2 for lowest energy.
 DIIS: error= 3.03D-02 at cycle   2 NSaved=   2.
 NSaved= 2 IEnMin= 1 EnMin= -473.949278478207     IErMin= 2 ErrMin= 3.03D-02
 ErrMax= 3.03D-02  0.00D+00 EMaxC= 1.00D+00 BMatC= 4.79D-01 BMatP= 4.05D-01
 IDIUse=1 WtCom= 1.00D+00 WtEn= 0.00D+00
 Coeff-Com:  0.562D+00 0.438D+00
 Coeff:      0.562D+00 0.438D+00
 Gap=     0.214 Goal=   None    Shift=    0.000
 Gap=     0.214 Goal=   None    Shift=    0.000
 RMSDP=6.68D-03 MaxDP=1.20D-01 DE= 9.70D-03 OVMax= 7.55D-02

 Cycle   3  Pass 1  IDiag  1:
 E= -473.985728031575     Delta-E=       -0.046147313582 Rises=F Damp=F
 DIIS: error= 1.84D-02 at cycle   3 NSaved=   3.
 NSaved= 3 IEnMin= 3 EnMin= -473.985728031575     IErMin= 3 ErrMin= 1.84D-02
 ErrMax= 1.84D-02  0.00D+00 EMaxC= 1.00D+00 BMatC= 1.22D-01 BMatP= 4.05D-01
 IDIUse=1 WtCom= 1.00D+00 WtEn= 0.00D+00
 Coeff-Com:  0.677D-01 0.283D+00 0.650D+00
 Coeff:      0.677D-01 0.283D+00 0.650D+00
 Gap=     0.207 Goal=   None    Shift=    0.000
 Gap=     0.207 Goal=   None    Shift=    0.000
 RMSDP=1.82D-03 MaxDP=3.50D-02 DE=-4.61D-02 OVMax= 3.59D-02

 Cycle   4  Pass 1  IDiag  1:
 E= -474.002634950831     Delta-E=       -0.016906919255 Rises=F Damp=F
 DIIS: error= 6.63D-03 at cycle   4 NSaved=   4.
 NSaved= 4 IEnMin= 4 EnMin= -474.002634950831     IErMin= 4 ErrMin= 6.63D-03
 ErrMax= 6.63D-03  0.00D+00 EMaxC= 1.00D+00 BMatC= 9.51D-03 BMatP= 1.22D-01
 IDIUse=1 WtCom= 1.00D+00 WtEn= 0.00D+00
 Coeff-Com:  0.278D-02 0.599D-01 0.262D+00 0.676D+00
 Coeff:      0.278D-02 0.599D-01 0.262D+00 0.676D+00
 Gap=     0.203 Goal=   None    Shift=    0.000
 Gap=     0.203 Goal=   None    Shift=    0.000
 RMSDP=4.64D-04 MaxDP=6.84D-03 DE=-1.69D-02 OVMax= 1.23D-02

 Cycle   5  Pass 1  IDiag  1:
 E= -474.004226804038     Delta-E=       -0.001591853207 Rises=F Damp=F
 DIIS: error= 7.84D-04 at cycle   5 NSaved=   5.
 NSaved= 5 IEnMin= 5 EnMin= -474.004226804038     IErMin= 5 ErrMin= 7.84D-04
 ErrMax= 7.84D-04  0.00D+00 EMaxC= 1.00D+00 BMatC= 1.50D-04 BMatP= 9.51D-03
 IDIUse=1 WtCom= 1.00D+00 WtEn= 0.00D+00
 Coeff-Com: -0.201D-02 0.649D-03 0.261D-01 0.156D+00 0.819D+00
 Coeff:     -0.201D-02 0.649D-03 0.261D-01 0.156D+00 0.819D+00
 Gap=     0.203 Goal=   None    Shift=    0.000
 Gap=     0.203 Goal=   None    Shift=    0.000
 RMSDP=7.63D-05 MaxDP=1.34D-03 DE=-1.59D-03 OVMax= 1.80D-03

 Cycle   6  Pass 1  IDiag  1:
 E= -474.004261347442     Delta-E=       -0.000034543404 Rises=F Damp=F
 DIIS: error= 9.72D-05 at cycle   6 NSaved=   6.
 NSaved= 6 IEnMin= 6 EnMin= -474.004261347442     IErMin= 6 ErrMin= 9.72D-05
 ErrMax= 9.72D-05  0.00D+00 EMaxC= 1.00D+00 BMatC= 2.28D-06 BMatP= 1.50D-04
 IDIUse=1 WtCom= 1.00D+00 WtEn= 0.00D+00
 Coeff-Com: -0.365D-03-0.123D-02-0.198D-03 0.143D-01 0.149D+00 0.838D+00
 Coeff:     -0.365D-03-0.123D-02-0.198D-03 0.143D-01 0.149D+00 0.838D+00
 Gap=     0.203 Goal=   None    Shift=    0.000
 Gap=     0.203 Goal=   None    Shift=    0.000
 RMSDP=7.20D-06 MaxDP=1.25D-04 DE=-3.45D-05 OVMax= 1.74D-04

 Cycle   7  Pass 1  IDiag  1:
 E= -474.004261631934     Delta-E=       -0.000000284493 Rises=F Damp=F
 DIIS: error= 1.65D-05 at cycle   7 NSaved=   7.
 NSaved= 7 IEnMin= 7 EnMin= -474.004261631934     IErMin= 7 ErrMin= 1.65D-05
 ErrMax= 1.65D-05  0.00D+00 EMaxC= 1.00D+00 BMatC= 4.43D-08 BMatP= 2.28D-06
 IDIUse=1 WtCom= 1.00D+00 WtEn= 0.00D+00
 Coeff-Com:  0.424D-04 0.889D-04-0.795D-03-0.577D-02-0.275D-01-0.387D-01
 Coeff-Com:  0.107D+01
 Coeff:      0.424D-04 0.889D-04-0.795D-03-0.577D-02-0.275D-01-0.387D-01
 Coeff:      0.107D+01
 Gap=     0.203 Goal=   None    Shift=    0.000
 Gap=     0.203 Goal=   None    Shift=    0.000
 RMSDP=2.17D-06 MaxDP=3.01D-05 DE=-2.84D-07 OVMax= 4.61D-05

 Cycle   8  Pass 1  IDiag  1:
 E= -474.004261644319     Delta-E=       -0.000000012385 Rises=F Damp=F
 DIIS: error= 4.00D-06 at cycle   8 NSaved=   8.
 NSaved= 8 IEnMin= 8 EnMin= -474.004261644319     IErMin= 8 ErrMin= 4.00D-06
 ErrMax= 4.00D-06  0.00D+00 EMaxC= 1.00D+00 BMatC= 6.61D-09 BMatP= 4.43D-08
 IDIUse=1 WtCom= 1.00D+00 WtEn= 0.00D+00
 Coeff-Com:  0.159D-04 0.605D-04-0.199D-03-0.192D-02-0.119D-01-0.464D-01
 Coeff-Com:  0.356D+00 0.704D+00
 Coeff:      0.159D-04 0.605D-04-0.199D-03-0.192D-02-0.119D-01-0.464D-01
 Coeff:      0.356D+00 0.704D+00
 Gap=     0.203 Goal=   None    Shift=    0.000
 Gap=     0.203 Goal=   None    Shift=    0.000
 RMSDP=7.52D-07 MaxDP=1.68D-05 DE=-1.24D-08 OVMax= 1.15D-05

 Cycle   9  Pass 1  IDiag  1:
 E= -474.004261645721     Delta-E=       -0.000000001403 Rises=F Damp=F
 DIIS: error= 7.26D-07 at cycle   9 NSaved=   9.
 NSaved= 9 IEnMin= 9 EnMin= -474.004261645721     IErMin= 9 ErrMin= 7.26D-07
 ErrMax= 7.26D-07  0.00D+00 EMaxC= 1.00D+00 BMatC= 5.33D-11 BMatP= 6.61D-09
 IDIUse=1 WtCom= 1.00D+00 WtEn= 0.00D+00
 Coeff-Com: -0.102D-06 0.346D-06 0.170D-04 0.740D-04 0.372D-03 0.512D-04
 Coeff-Com: -0.281D-01 0.205D-01 0.101D+01
 Coeff:     -0.102D-06 0.346D-06 0.170D-04 0.740D-04 0.372D-03 0.512D-04
 Coeff:     -0.281D-01 0.205D-01 0.101D+01
 Gap=     0.203 Goal=   None    Shift=    0.000
 Gap=     0.203 Goal=   None    Shift=    0.000
 RMSDP=7.08D-08 MaxDP=6.91D-07 DE=-1.40D-09 OVMax= 1.77D-06

 Cycle  10  Pass 1  IDiag  1:
 E= -474.004261645741     Delta-E=       -0.000000000019 Rises=F Damp=F
 DIIS: error= 8.71D-08 at cycle  10 NSaved=  10.
 NSaved=10 IEnMin=10 EnMin= -474.004261645741     IErMin=10 ErrMin= 8.71D-08
 ErrMax= 8.71D-08  0.00D+00 EMaxC= 1.00D+00 BMatC= 1.34D-12 BMatP= 5.33D-11
 IDIUse=1 WtCom= 1.00D+00 WtEn= 0.00D+00
 Coeff-Com: -0.400D-06-0.136D-05 0.507D-05 0.394D-04 0.273D-03 0.116D-02
 Coeff-Com: -0.845D-02-0.175D-01 0.791D-02 0.102D+01
 Coeff:     -0.400D-06-0.136D-05 0.507D-05 0.394D-04 0.273D-03 0.116D-02
 Coeff:     -0.845D-02-0.175D-01 0.791D-02 0.102D+01
 Gap=     0.203 Goal=   None    Shift=    0.000
 Gap=     0.203 Goal=   None    Shift=    0.000
 RMSDP=1.59D-08 MaxDP=1.92D-07 DE=-1.93D-11 OVMax= 3.72D-07

 Cycle  11  Pass 1  IDiag  1:
 E= -474.004261645741     Delta-E=       -0.000000000000 Rises=F Damp=F
 DIIS: error= 1.33D-08 at cycle  11 NSaved=  11.
 NSaved=11 IEnMin=11 EnMin= -474.004261645741     IErMin=11 ErrMin= 1.33D-08
 ErrMax= 1.33D-08  0.00D+00 EMaxC= 1.00D+00 BMatC= 5.18D-14 BMatP= 1.34D-12
 IDIUse=1 WtCom= 1.00D+00 WtEn= 0.00D+00
 Coeff-Com: -0.567D-09 0.754D-07-0.359D-06-0.311D-05-0.244D-04-0.757D-04
 Coeff-Com:  0.143D-02-0.140D-02-0.337D-01-0.340D-01 0.107D+01
 Coeff:     -0.567D-09 0.754D-07-0.359D-06-0.311D-05-0.244D-04-0.757D-04
 Coeff:      0.143D-02-0.140D-02-0.337D-01-0.340D-01 0.107D+01
 Gap=     0.203 Goal=   None    Shift=    0.000
 Gap=     0.203 Goal=   None    Shift=    0.000
 RMSDP=4.15D-09 MaxDP=4.89D-08 DE=-4.55D-13 OVMax= 8.31D-08

 SCF Done:  E(UM062X) =  -474.004261646     A.U. after   11 cycles
            NFock= 11  Conv=0.42D-08     -V/T= 1.9969
 <Sx>= 0.0000 <Sy>= 0.0000 <Sz>= 0.0000 <S**2>=-0.0000 S=-0.0000
 <L.S>=  0.00000000000    
 KE= 4.754803155280D+02 PE=-1.262515469050D+03 EE= 2.456351347913D+02
 Annihilation of the first spin contaminant:
 S**2 before annihilation    -0.0000,   after    -0.0000
 Leave Link  502 at Wed Apr 16 05:08:07 2025, MaxMem=   536870912 cpu:              24.3 elap:               3.1
 (Enter /home/szhao/Apps/g16/l701.exe)
 ... and contract with generalized density number  0.
 Compute integral first derivatives.
 Leave Link  701 at Wed Apr 16 05:08:08 2025, MaxMem=   536870912 cpu:               1.0 elap:               0.2
 (Enter /home/szhao/Apps/g16/l702.exe)
 L702 exits ... SP integral derivatives will be done elsewhere.
 Leave Link  702 at Wed Apr 16 05:08:08 2025, MaxMem=   536870912 cpu:               0.5 elap:               0.1
 (Enter /home/szhao/Apps/g16/l703.exe)
 Integral derivatives from FoFJK, PRISM(SPDF).
 Compute integral first derivatives, UseDBF=F ICtDFT=           0.
 Calling FoFJK, ICntrl=      2127 FMM=F ISym2X=0 I1Cent= 0 IOpClX= 1 NMat=1 NMatS=1 NMatT=0.
 FoFJK:  IHMeth= 1 ICntrl=    2127 DoSepK=F KAlg= 0 I1Cent=           0 FoldK=F
 IRaf=         0 NMat=       1 IRICut=       1 DoRegI=T DoRafI=F ISym2E= 0 IDoP0=0 IntGTp=1.
 FoFCou: FMM=F IPFlag=           0 FMFlag=      100000 FMFlg1=         800
         NFxFlg=           0 DoJE=F BraDBF=F KetDBF=F FulRan=T
         wScrn=  0.000000 ICntrl=      2127 IOpCl=  1 I1Cent=           0 NGrid=           0
         NMat0=    1 NMatS0=      1 NMatT0=    0 NMatD0=    1 NMtDS0=    0 NMtDT0=    0
 Symmetry not used in FoFCou.
 Leave Link  703 at Wed Apr 16 05:08:09 2025, MaxMem=   536870912 cpu:               4.9 elap:               0.6
 (Enter /home/szhao/Apps/g16/l716.exe)
 Dipole        =-9.24581851D-01 1.28032829D-07 1.28051268D-07
 -------------------------------------------------------------------
 Center     Atomic                   Forces (Hartrees/Bohr)
 Number     Number              X              Y              Z
 -------------------------------------------------------------------
      1        8          -0.197732205    0.000000011    0.000000011
      2       16          -0.833547309   -0.000000066   -0.000000066
      3        1           0.006674550    0.000000002    0.000000002
      4        1           1.024604964    0.000000053    0.000000053
 -------------------------------------------------------------------
 Cartesian Forces:  Max     1.024604964 RMS     0.385547125
 Leave Link  716 at Wed Apr 16 05:08:09 2025, MaxMem=   536870912 cpu:               0.3 elap:               0.1
 (Enter /home/szhao/Apps/g16/l103.exe)

 GradGradGradGradGradGradGradGradGradGradGradGradGradGradGradGradGradGrad
 Berny optimization.
 Using GEDIIS/GDIIS optimizer.
 FormGI is forming the generalized inverse of G from B-inverse, IUseBI=4.
 Internal  Forces:  Max     1.024604964 RMS     0.393947587
 Search for a local minimum.
 Step number   3 out of a maximum of   20
 All quantities printed in internal units (Hartrees-Bohrs-Radians)
 RMS Force = .39395D+00 SwitMx=.10000D-02 MixMth= 1
 Mixed Optimization -- RFO/linear search
 Update second derivatives using D2CorX and points    2    3
 The second derivative matrix:
                          R1        R2        R3        A1        A2
           R1           3.21760
           R2          -0.24745   3.10170
           R3          -1.04129  -2.09205   8.27629
           A1           0.00000   0.00000   0.00000   0.06311
           A2          -0.00000  -0.00000  -0.00000  -0.00000   0.10281
           A3          -0.00000  -0.00000  -0.00000  -0.00000   0.00000
           A4           0.00000   0.00000   0.00000   0.00000  -0.00000
                          A3        A4
           A3           0.06311
           A4          -0.00000   0.10281
 ITU=  0  1  0
 Use linear search instead of GDIIS.
 Linear search step of   1.200 exceeds DXMaxT=   0.505 scaled by   0.841
 Quartic linear search produced a step of  1.68179.
 Iteration  1 RMS(Cart)=  0.16903085 RMS(Int)=  0.25577710
 Iteration  2 RMS(Cart)=  0.16903085 RMS(Int)=  0.14024122
 Iteration  3 RMS(Cart)=  0.09684863 RMS(Int)=  0.05311987
 Iteration  4 RMS(Cart)=  0.04600315 RMS(Int)=  0.00000001
 SLEqS3 Cycle:   121 Max:0.911836E-11 RMS:0.505947E-11 Conv:0.274141E-13
 SLEqS3 Cycle:   121 Max:0.474363E-10 RMS:0.263227E-10 Conv:0.274141E-13
 Iteration  5 RMS(Cart)=  0.00000001 RMS(Int)=  0.00000000
 ITry= 1 IFail=0 DXMaxC= 8.99D-01 DCOld= 1.00D+10 DXMaxT= 5.05D-01 DXLimC= 3.00D+00 Rises=F
 Variable       Old X    -DE/DX   Delta X   Delta X   Delta X     New X
                                 (Linear)    (Quad)   (Total)
    R1        2.69474   0.19106   0.41345   0.00000   0.41345   3.10819
    R2        1.79553  -0.00667   0.74054   0.00000   0.74054   2.53607
    R3        1.62264   1.02460   0.54671   0.00000   0.54671   2.16935
    A1        3.14159  -0.00000   0.00000   0.00000   0.00000   3.14159
    A2        3.14159   0.00000   0.00000   0.00000   0.00000   3.14159
    A3        3.14159   0.00000   0.00000   0.00000   0.00000   3.14159
    A4        3.14159  -0.00000  -0.00000   0.00000  -0.00000   3.14159
         Item               Value     Threshold  Converged?
 Maximum Force            1.024605     0.000450     NO 
 RMS     Force            0.393948     0.000300     NO 
 Maximum Displacement     0.898809     0.001800     NO 
 RMS     Displacement     0.469202     0.001200     NO 
 Predicted change in Energy=-5.700163D-01
 Lowest energy point so far.  Saving SCF results.
 GradGradGradGradGradGradGradGradGradGradGradGradGradGradGradGradGradGrad

 Leave Link  103 at Wed Apr 16 05:08:09 2025, MaxMem=   536870912 cpu:               0.7 elap:               0.1
 (Enter /home/szhao/Apps/g16/l202.exe)
                          Input orientation:                          
 ---------------------------------------------------------------------
 Center     Atomic      Atomic             Coordinates (Angstroms)
 Number     Number       Type             X           Y           Z
 ---------------------------------------------------------------------
      1          8           0       -0.773877   -0.000000   -0.000000
      2         16           0        0.870906   -0.000000   -0.000000
      3          1           0       -2.115906    0.000000    0.000000
      4          1           0        2.018878    0.000000    0.000000
 ---------------------------------------------------------------------
                    Distance matrix (angstroms):
                    1          2          3          4
     1  O    0.000000
     2  S    1.644783   0.000000
     3  H    1.342029   2.986812   0.000000
     4  H    2.792755   1.147972   4.134784   0.000000
 Symmetry turned off by external request.
 Stoichiometry    H2OS
 Framework group  C*V[C*(HOSH)]
 Deg. of freedom     3
 Full point group                 C*V     NOp   4
 Rotational constants (GHZ):           0.0000000          13.3969543          13.3969543
 Leave Link  202 at Wed Apr 16 05:08:09 2025, MaxMem=   536870912 cpu:               0.1 elap:               0.0
 (Enter /home/szhao/Apps/g16/l301.exe)
 Standard basis: 6-311+G(d,p) (5D, 7F)
 Ernie: Thresh=  0.10000D-02 Tol=  0.10000D-05 Strict=F.
    64 basis functions,   102 primitive gaussians,    66 cartesian basis functions
    13 alpha electrons       13 beta electrons
       nuclear repulsion energy        56.1900777562 Hartrees.
 IExCor= 4336 DFT=T Ex+Corr=M062X ExCW=0 ScaHFX=  0.540000
 ScaDFX=  1.000000  1.000000  1.000000  1.000000 ScalE2=  1.000000  1.000000
 IRadAn=      7 IRanWt=     -1 IRanGd=            0 ICorTp=0 IEmpDi=  4
 NAtoms=    4 NActive=    4 NUniq=    4 SFac= 1.00D+00 NAtFMM=   60 NAOKFM=F Big=F
 Integral buffers will be    131072 words long.
 Raffenetti 2 integral format.
 Two-electron integral symmetry is turned off.
 Leave Link  301 at Wed Apr 16 05:08:09 2025, MaxMem=   536870912 cpu:               0.3 elap:               0.1
 (Enter /home/szhao/Apps/g16/l302.exe)
 NPDir=0 NMtPBC=     1 NCelOv=     1 NCel=       1 NClECP=     1 NCelD=      1
         NCelK=      1 NCelE2=     1 NClLst=     1 CellRange=     0.0.
 One-electron integrals computed using PRISM.
 NBasis=    64 RedAO= T EigKep=  1.26D-03  NBF=    64
 NBsUse=    64 1.00D-06 EigRej= -1.00D+00 NBFU=    64
 Precomputing XC quadrature grid using
 IXCGrd= 4 IRadAn=           7 IRanWt=          -1 IRanGd=           0 AccXCQ= 0.00D+00.
 Generated NRdTot=       0 NPtTot=           0 NUsed=           0 NTot=          32
 NSgBfM=    66    66    66    66    66 MxSgAt=     4 MxSgA2=     4.
 Leave Link  302 at Wed Apr 16 05:08:09 2025, MaxMem=   536870912 cpu:               0.9 elap:               0.1
 (Enter /home/szhao/Apps/g16/l303.exe)
 DipDrv:  MaxL=1.
 Leave Link  303 at Wed Apr 16 05:08:09 2025, MaxMem=   536870912 cpu:               0.3 elap:               0.1
 (Enter /home/szhao/Apps/g16/l401.exe)
 Initial guess from the checkpoint file:  "opt.chk"
 B after Tr=     0.104611   -0.000000   -0.000000
         Rot=    0.995810    0.091451   -0.000000    0.000000 Ang=  10.49 deg.
 Guess basis will be translated and rotated to current coordinates.
 JPrj=2 DoOrth=T DoCkMO=T.
 Initial guess <Sx>= 0.0000 <Sy>= 0.0000 <Sz>= 0.0000 <S**2>=-0.0000 S=-0.0000
 Generating alternative initial guess.
 ExpMin= 4.05D-02 ExpMax= 9.34D+04 ExpMxC= 3.17D+03 IAcc=3 IRadAn=         5 AccDes= 0.00D+00
 Harris functional with IExCor= 1009 and IRadAn=       5 diagonalized for initial guess.
 HarFok:  IExCor= 1009 AccDes= 0.00D+00 IRadAn=         5 IDoV= 1 UseB2=F ITyADJ=14
 ICtDFT=  3500011 ScaDFX=  1.000000  1.000000  1.000000  1.000000
 FoFCou: FMM=F IPFlag=           0 FMFlag=      100000 FMFlg1=           0
         NFxFlg=           0 DoJE=T BraDBF=F KetDBF=T FulRan=T
         wScrn=  0.000000 ICntrl=       500 IOpCl=  0 I1Cent=   200000004 NGrid=           0
         NMat0=    1 NMatS0=      1 NMatT0=    0 NMatD0=    1 NMtDS0=    0 NMtDT0=    0
 Symmetry not used in FoFCou.
 Harris En= -474.076804953701    
 Leave Link  401 at Wed Apr 16 05:08:10 2025, MaxMem=   536870912 cpu:               1.7 elap:               0.2
 (Enter /home/szhao/Apps/g16/l502.exe)
 Keep R1 and R2 ints in memory in canonical form, NReq=11470672.
 FoFCou: FMM=F IPFlag=           0 FMFlag=           0 FMFlg1=           0
         NFxFlg=           0 DoJE=F BraDBF=F KetDBF=F FulRan=T
         wScrn=  0.000000 ICntrl=       600 IOpCl=  0 I1Cent=           0 NGrid=           0
         NMat0=    1 NMatS0=   2080 NMatT0=    0 NMatD0=    1 NMtDS0=    0 NMtDT0=    0
 Symmetry not used in FoFCou.
 Two-electron integral symmetry not used.
 UHF open shell SCF:
 Using DIIS extrapolation, IDIIS=  1040.
 NGot=   536870912 LenX=   532532582 LenY=   532527785
 Requested convergence on RMS density matrix=1.00D-08 within 128 cycles.
 Requested convergence on MAX density matrix=1.00D-06.
 Requested convergence on             energy=1.00D-06.
 No special actions if energy rises.

 Cycle   1  Pass 1  IDiag  1:
 E= -474.141024528840    
 DIIS: error= 3.78D-02 at cycle   1 NSaved=   1.
 NSaved= 1 IEnMin= 1 EnMin= -474.141024528840     IErMin= 1 ErrMin= 3.78D-02
 ErrMax= 3.78D-02  0.00D+00 EMaxC= 1.00D-01 BMatC= 3.57D-01 BMatP= 3.57D-01
 IDIUse=3 WtCom= 6.22D-01 WtEn= 3.78D-01
 Coeff-Com:  0.100D+01
 Coeff-En:   0.100D+01
 Coeff:      0.100D+01
 Recover alternate guess density for next cycle.
 RMSDP=2.72D-02 MaxDP=6.04D-01              OVMax= 0.00D+00

 Cycle   2  Pass 1  IDiag  1:
 E= -474.189194700959     Delta-E=       -0.048170172120 Rises=F Damp=F
 DIIS: error= 3.36D-02 at cycle   2 NSaved=   2.
 NSaved= 2 IEnMin= 2 EnMin= -474.189194700959     IErMin= 2 ErrMin= 3.36D-02
 ErrMax= 3.36D-02  0.00D+00 EMaxC= 1.00D-01 BMatC= 4.91D-01 BMatP= 3.57D-01
 IDIUse=2 WtCom= 0.00D+00 WtEn= 1.00D+00
 Coeff-En:   0.000D+00 0.100D+01
 Coeff:      0.000D+00 0.100D+01
 Gap=     0.146 Goal=   None    Shift=    0.000
 Gap=     0.146 Goal=   None    Shift=    0.000
 RMSDP=7.74D-03 MaxDP=8.76D-02 DE=-4.82D-02 OVMax= 3.78D-01

 Cycle   3  Pass 1  IDiag  1:
 E= -473.980527583318     Delta-E=        0.208667117641 Rises=F Damp=F
 DIIS: error= 7.89D-02 at cycle   3 NSaved=   3.
 NSaved= 3 IEnMin= 2 EnMin= -474.189194700959     IErMin= 2 ErrMin= 3.36D-02
 ErrMax= 7.89D-02  0.00D+00 EMaxC= 1.00D-01 BMatC= 1.35D+00 BMatP= 3.57D-01
 IDIUse=2 WtCom= 0.00D+00 WtEn= 1.00D+00
 Coeff-En:   0.000D+00 0.768D+00 0.232D+00
 Coeff:      0.000D+00 0.768D+00 0.232D+00
 Gap=     0.161 Goal=   None    Shift=    0.000
 Gap=     0.161 Goal=   None    Shift=    0.000
 RMSDP=4.31D-03 MaxDP=5.33D-02 DE= 2.09D-01 OVMax= 2.13D-01

 Cycle   4  Pass 1  IDiag  1:
 E= -474.241811078649     Delta-E=       -0.261283495331 Rises=F Damp=F
 DIIS: error= 1.58D-02 at cycle   4 NSaved=   4.
 NSaved= 4 IEnMin= 4 EnMin= -474.241811078649     IErMin= 4 ErrMin= 1.58D-02
 ErrMax= 1.58D-02  0.00D+00 EMaxC= 1.00D-01 BMatC= 7.46D-02 BMatP= 3.57D-01
 IDIUse=3 WtCom= 8.42D-01 WtEn= 1.58D-01
 Coeff-Com:  0.216D-01 0.127D+00-0.165D+00 0.102D+01
 Coeff-En:   0.000D+00 0.161D+00 0.000D+00 0.839D+00
 Coeff:      0.182D-01 0.133D+00-0.139D+00 0.988D+00
 Gap=     0.139 Goal=   None    Shift=    0.000
 Gap=     0.139 Goal=   None    Shift=    0.000
 RMSDP=1.25D-03 MaxDP=2.14D-02 DE=-2.61D-01 OVMax= 4.17D-02

 Cycle   5  Pass 1  IDiag  1:
 E= -474.253829742337     Delta-E=       -0.012018663687 Rises=F Damp=F
 DIIS: error= 1.16D-03 at cycle   5 NSaved=   5.
 NSaved= 5 IEnMin= 5 EnMin= -474.253829742337     IErMin= 5 ErrMin= 1.16D-03
 ErrMax= 1.16D-03  0.00D+00 EMaxC= 1.00D-01 BMatC= 4.04D-04 BMatP= 7.46D-02
 IDIUse=3 WtCom= 9.88D-01 WtEn= 1.16D-02
 Coeff-Com: -0.397D-02 0.922D-02-0.379D-01 0.195D+00 0.838D+00
 Coeff-En:   0.000D+00 0.000D+00 0.000D+00 0.000D+00 0.100D+01
 Coeff:     -0.393D-02 0.911D-02-0.375D-01 0.192D+00 0.840D+00
 Gap=     0.148 Goal=   None    Shift=    0.000
 Gap=     0.148 Goal=   None    Shift=    0.000
 RMSDP=3.46D-04 MaxDP=5.45D-03 DE=-1.20D-02 OVMax= 8.87D-03

 Cycle   6  Pass 1  IDiag  1:
 E= -474.253927238050     Delta-E=       -0.000097495714 Rises=F Damp=F
 DIIS: error= 8.19D-04 at cycle   6 NSaved=   6.
 NSaved= 6 IEnMin= 6 EnMin= -474.253927238050     IErMin= 6 ErrMin= 8.19D-04
 ErrMax= 8.19D-04  0.00D+00 EMaxC= 1.00D-01 BMatC= 1.36D-04 BMatP= 4.04D-04
 IDIUse=3 WtCom= 9.92D-01 WtEn= 8.19D-03
 Coeff-Com:  0.859D-04-0.153D-02-0.145D-01 0.472D-01 0.335D+00 0.634D+00
 Coeff-En:   0.000D+00 0.000D+00 0.000D+00 0.000D+00 0.000D+00 0.100D+01
 Coeff:      0.852D-04-0.151D-02-0.144D-01 0.468D-01 0.332D+00 0.637D+00
 Gap=     0.146 Goal=   None    Shift=    0.000
 Gap=     0.146 Goal=   None    Shift=    0.000
 RMSDP=1.08D-04 MaxDP=1.34D-03 DE=-9.75D-05 OVMax= 2.41D-03

 Cycle   7  Pass 1  IDiag  1:
 E= -474.253952891835     Delta-E=       -0.000025653785 Rises=F Damp=F
 DIIS: error= 2.12D-04 at cycle   7 NSaved=   7.
 NSaved= 7 IEnMin= 7 EnMin= -474.253952891835     IErMin= 7 ErrMin= 2.12D-04
 ErrMax= 2.12D-04  0.00D+00 EMaxC= 1.00D-01 BMatC= 1.43D-05 BMatP= 1.36D-04
 IDIUse=3 WtCom= 9.98D-01 WtEn= 2.12D-03
 Coeff-Com:  0.676D-04 0.203D-03-0.769D-03-0.112D-01-0.577D-01 0.305D-01
 Coeff-Com:  0.104D+01
 Coeff-En:   0.000D+00 0.000D+00 0.000D+00 0.000D+00 0.000D+00 0.000D+00
 Coeff-En:   0.100D+01
 Coeff:      0.675D-04 0.203D-03-0.767D-03-0.111D-01-0.576D-01 0.304D-01
 Coeff:      0.104D+01
 Gap=     0.146 Goal=   None    Shift=    0.000
 Gap=     0.146 Goal=   None    Shift=    0.000
 RMSDP=3.31D-05 MaxDP=4.66D-04 DE=-2.57D-05 OVMax= 6.31D-04

 Cycle   8  Pass 1  IDiag  1:
 E= -474.253956075965     Delta-E=       -0.000003184130 Rises=F Damp=F
 DIIS: error= 7.49D-05 at cycle   8 NSaved=   8.
 NSaved= 8 IEnMin= 8 EnMin= -474.253956075965     IErMin= 8 ErrMin= 7.49D-05
 ErrMax= 7.49D-05  0.00D+00 EMaxC= 1.00D-01 BMatC= 9.07D-07 BMatP= 1.43D-05
 IDIUse=1 WtCom= 1.00D+00 WtEn= 0.00D+00
 Coeff-Com: -0.246D-06 0.291D-03 0.255D-03-0.343D-02-0.314D-01-0.693D-01
 Coeff-Com:  0.937D-01 0.101D+01
 Coeff:     -0.246D-06 0.291D-03 0.255D-03-0.343D-02-0.314D-01-0.693D-01
 Coeff:      0.937D-01 0.101D+01
 Gap=     0.146 Goal=   None    Shift=    0.000
 Gap=     0.146 Goal=   None    Shift=    0.000
 RMSDP=1.52D-05 MaxDP=3.26D-04 DE=-3.18D-06 OVMax= 2.21D-04

 Cycle   9  Pass 1  IDiag  1:
 E= -474.253956327652     Delta-E=       -0.000000251687 Rises=F Damp=F
 DIIS: error= 1.12D-05 at cycle   9 NSaved=   9.
 NSaved= 9 IEnMin= 9 EnMin= -474.253956327652     IErMin= 9 ErrMin= 1.12D-05
 ErrMax= 1.12D-05  0.00D+00 EMaxC= 1.00D-01 BMatC= 1.85D-08 BMatP= 9.07D-07
 IDIUse=1 WtCom= 1.00D+00 WtEn= 0.00D+00
 Coeff-Com:  0.107D-04-0.403D-04 0.723D-06 0.577D-03 0.743D-02 0.697D-02
 Coeff-Com: -0.539D-01-0.173D+00 0.121D+01
[...]
 DIIS: error= 9.22D-08 at cycle  11 NSaved=  11.
 NSaved=11 IEnMin= 8 EnMin= -474.384666549552     IErMin=10 ErrMin= 7.43D-08
 ErrMax= 9.22D-08  0.00D+00 EMaxC= 1.00D-01 BMatC= 5.25D-13 BMatP= 3.38D-13
 IDIUse=1 WtCom= 1.00D+00 WtEn= 0.00D+00
 Coeff-Com: -0.174D-03 0.176D-02 0.358D-03 0.468D-02-0.796D-02-0.785D-01
 Coeff-Com: -0.110D+00-0.115D+01 0.138D+01 0.326D+01-0.230D+01
 Coeff:     -0.174D-03 0.176D-02 0.358D-03 0.468D-02-0.796D-02-0.785D-01
 Coeff:     -0.110D+00-0.115D+01 0.138D+01 0.326D+01-0.230D+01
 Gap=     0.140 Goal=   None    Shift=    0.000
 Gap=     0.140 Goal=   None    Shift=    0.000
 RMSDP=5.79D-08 MaxDP=1.25D-06 DE=-1.71D-12 OVMax= 4.18D-06

 Cycle  12  Pass 1  IDiag  1:
 E= -474.384666549529     Delta-E=        0.000000000004 Rises=F Damp=F
 DIIS: error= 3.87D-08 at cycle  12 NSaved=  12.
 NSaved=12 IEnMin= 8 EnMin= -474.384666549552     IErMin=12 ErrMin= 3.87D-08
 ErrMax= 3.87D-08  0.00D+00 EMaxC= 1.00D-01 BMatC= 2.02D-13 BMatP= 3.38D-13
 IDIUse=1 WtCom= 1.00D+00 WtEn= 0.00D+00
 Coeff-Com:  0.968D-05-0.550D-03-0.265D-04-0.694D-04 0.733D-02 0.137D-01
 Coeff-Com: -0.106D+00 0.591D+00-0.685D+00-0.993D-02-0.400D+00 0.159D+01
 Coeff:      0.968D-05-0.550D-03-0.265D-04-0.694D-04 0.733D-02 0.137D-01
 Coeff:     -0.106D+00 0.591D+00-0.685D+00-0.993D-02-0.400D+00 0.159D+01
 Gap=     0.140 Goal=   None    Shift=    0.000
 Gap=     0.140 Goal=   None    Shift=    0.000
 RMSDP=2.74D-08 MaxDP=5.93D-07 DE= 3.75D-12 OVMax= 1.95D-06

 Cycle  13  Pass 1  IDiag  1:
 E= -474.384666549528     Delta-E=        0.000000000000 Rises=F Damp=F
 DIIS: error= 2.60D-09 at cycle  13 NSaved=  13.
 NSaved=13 IEnMin= 8 EnMin= -474.384666549552     IErMin=13 ErrMin= 2.60D-09
 ErrMax= 2.60D-09  0.00D+00 EMaxC= 1.00D-01 BMatC= 1.59D-15 BMatP= 2.02D-13
 IDIUse=1 WtCom= 1.00D+00 WtEn= 0.00D+00
 Coeff-Com:  0.503D-05 0.528D-04-0.245D-05-0.166D-03-0.138D-02-0.924D-03
 Coeff-Com:  0.305D-01-0.775D-01 0.850D-01-0.123D+00 0.179D+00-0.358D+00
 Coeff-Com:  0.127D+01
 Coeff:      0.503D-05 0.528D-04-0.245D-05-0.166D-03-0.138D-02-0.924D-03
 Coeff:      0.305D-01-0.775D-01 0.850D-01-0.123D+00 0.179D+00-0.358D+00
 Coeff:      0.127D+01
 Gap=     0.140 Goal=   None    Shift=    0.000
 Gap=     0.140 Goal=   None    Shift=    0.000
 RMSDP=1.46D-09 MaxDP=2.94D-08 DE= 4.55D-13 OVMax= 1.04D-07

 SCF Done:  E(UM062X) =  -474.384666550     A.U. after   13 cycles
            NFock= 13  Conv=0.15D-08     -V/T= 2.0014
 <Sx>= 0.0000 <Sy>= 0.0000 <Sz>= 0.0000 <S**2>=-0.0000 S=-0.0000
 <L.S>=  0.00000000000    
 KE= 4.737316196683D+02 PE=-1.219106637046D+03 EE= 2.252830995777D+02
 Annihilation of the first spin contaminant:
 S**2 before annihilation    -0.0000,   after    -0.0000
 Leave Link  502 at Wed Apr 16 05:09:53 2025, MaxMem=   536870912 cpu:              26.8 elap:               3.5
 (Enter /home/szhao/Apps/g16/l701.exe)
 ... and contract with generalized density number  0.
 Compute integral first derivatives.
 Leave Link  701 at Wed Apr 16 05:09:53 2025, MaxMem=   536870912 cpu:               0.7 elap:               0.1
 (Enter /home/szhao/Apps/g16/l702.exe)
 L702 exits ... SP integral derivatives will be done elsewhere.
 Leave Link  702 at Wed Apr 16 05:09:53 2025, MaxMem=   536870912 cpu:               0.2 elap:               0.1
 (Enter /home/szhao/Apps/g16/l703.exe)
 Integral derivatives from FoFJK, PRISM(SPDF).
 Compute integral first derivatives, UseDBF=F ICtDFT=           0.
 Calling FoFJK, ICntrl=      2127 FMM=F ISym2X=0 I1Cent= 0 IOpClX= 1 NMat=1 NMatS=1 NMatT=0.
 FoFJK:  IHMeth= 1 ICntrl=    2127 DoSepK=F KAlg= 0 I1Cent=           0 FoldK=F
 IRaf=         0 NMat=       1 IRICut=       1 DoRegI=T DoRafI=F ISym2E= 0 IDoP0=0 IntGTp=1.
 FoFCou: FMM=F IPFlag=           0 FMFlag=      100000 FMFlg1=         800
         NFxFlg=           0 DoJE=F BraDBF=F KetDBF=F FulRan=T
         wScrn=  0.000000 ICntrl=      2127 IOpCl=  1 I1Cent=           0 NGrid=           0
         NMat0=    1 NMatS0=      1 NMatT0=    0 NMatD0=    1 NMtDS0=    0 NMtDT0=    0
 Symmetry not used in FoFCou.
 Leave Link  703 at Wed Apr 16 05:09:54 2025, MaxMem=   536870912 cpu:               3.9 elap:               0.5
 (Enter /home/szhao/Apps/g16/l716.exe)
 Dipole        = 3.94918327D-01 8.80785613D-04 8.83416093D-04
 -------------------------------------------------------------------
 Center     Atomic                   Forces (Hartrees/Bohr)
 Number     Number              X              Y              Z
 -------------------------------------------------------------------
      1        8           0.000000104   -0.000029240   -0.000029216
      2       16           0.000012242   -0.000073845   -0.000073826
      3        1           0.000007283    0.000045537    0.000045512
      4        1          -0.000019628    0.000057548    0.000057530
 -------------------------------------------------------------------
 Cartesian Forces:  Max     0.000073845 RMS     0.000044690
 Leave Link  716 at Wed Apr 16 05:09:54 2025, MaxMem=   536870912 cpu:               0.2 elap:               0.1
 (Enter /home/szhao/Apps/g16/l103.exe)

 GradGradGradGradGradGradGradGradGradGradGradGradGradGradGradGradGradGrad
 Berny optimization.
 Using GEDIIS/GDIIS optimizer.
 FormGI is forming the generalized inverse of G from B-inverse, IUseBI=4.
 Internal  Forces:  Max     0.000019358 RMS     0.000008633
 Search for a local minimum.
 Step number  20 out of a maximum of   20
 All quantities printed in internal units (Hartrees-Bohrs-Radians)
 RMS Force = .86333D-05 SwitMx=.10000D-02 MixMth= 2
 Mixed Optimization -- En-DIIS/RFO-DIIS
 Swapping is turned off.
 Update second derivatives using D2CorX and points   13   14   15   16   17
                                                     18   19   20
 DE= -6.75D-07 DEPred=-6.72D-07 R= 1.00D+00
 Trust test= 1.00D+00 RLast= 3.48D-03 DXMaxT set to 1.17D+00
 The second derivative matrix:
                          R1        R2        R3        A1        A2
           R1           0.04827
           R2           0.01129   0.52053
           R3           0.02114   0.01176   0.23032
           A1           0.00036  -0.00244  -0.00042   0.06318
           A2           0.00006  -0.00016   0.00003   0.00003   0.10282
           A3          -0.00036   0.00241   0.00042  -0.00006  -0.00003
           A4          -0.00007   0.00024  -0.00001  -0.00003  -0.00001
                          A3        A4
           A3           0.06318
           A4           0.00003   0.10282
 ITU=  0  1  1  1  1  1  1  1
     Eigenvalues ---    0.04562   0.06311   0.07364   0.10281   0.23216
     Eigenvalues ---    0.52134
 En-DIIS/RFO-DIIS/Sim-DIIS IScMMF=       -3 using points:    20   19
 RFO step:  Lambda=-2.81128737D-09.
 NNeg= 0 NGDIIS= 2 SimSw=  2.50D-01 Rises=F DC= -6.75D-07 SmlDif=  1.00D-05
 NRisDI= 0 DoIntr=F SqrtH=F CThrHd= 10.0 CDAdj=  3.0
 RMS Error=  0.6211952926D-04 NUsed= 2 OKEnD=F EnDIS=F
 InvSVX:  RCond= 3.02D-06 Info=           0 Equed=N FErr=  9.33D-16 BErr=  2.48D-17
 DidBck=F Rises=F RFO-DIIS coefs:    1.02215   -0.02215
 Iteration  1 RMS(Cart)=  0.00006956 RMS(Int)=  0.00000106
 Iteration  2 RMS(Cart)=  0.00000003 RMS(Int)=  0.00000106
 ITry= 1 IFail=0 DXMaxC= 1.14D-04 DCOld= 1.00D+10 DXMaxT= 1.17D+00 DXLimC= 3.00D+00 Rises=F
 Variable       Old X    -DE/DX   Delta X   Delta X   Delta X     New X
                                 (Linear)    (Quad)   (Total)
    R1        4.10451  -0.00001  -0.00007  -0.00004  -0.00011   4.10440
    R2        1.83597  -0.00001   0.00003  -0.00004  -0.00001   1.83596
    R3        2.59722  -0.00002   0.00002  -0.00009  -0.00007   2.59715
    A1        3.14097   0.00000  -0.00000   0.00006   0.00006   3.14103
    A2        3.14211   0.00000  -0.00000   0.00004   0.00003   3.14215
    A3        3.14221  -0.00000   0.00000  -0.00006  -0.00006   3.14215
    A4        3.14107  -0.00000   0.00000  -0.00003  -0.00003   3.14103
         Item               Value     Threshold  Converged?
 Maximum Force            0.000019     0.000450     YES
 RMS     Force            0.000009     0.000300     YES
 Maximum Displacement     0.000114     0.001800     YES
 RMS     Displacement     0.000070     0.001200     YES
 Predicted change in Energy=-1.460937D-09
 Optimization completed.
    -- Stationary point found.
                           ----------------------------
                           !   Optimized Parameters   !
                           ! (Angstroms and Degrees)  !
 --------------------------                            --------------------------
 ! Name  Definition              Value          Derivative Info.                !
 --------------------------------------------------------------------------------
 ! R1    R(1,2)                  2.172          -DE/DX =    0.0                 !
 ! R2    R(1,3)                  0.9716         -DE/DX =    0.0                 !
 ! R3    R(2,4)                  1.3744         -DE/DX =    0.0                 !
 ! A1    L(2,1,3,-2,-1)        179.9644         -DE/DX =    0.0                 !
 ! A2    L(1,2,4,-2,-1)        180.0298         -DE/DX =    0.0                 !
 ! A3    L(2,1,3,-3,-2)        180.0353         -DE/DX =    0.0                 !
 ! A4    L(1,2,4,-3,-2)        179.9699         -DE/DX =    0.0                 !
 --------------------------------------------------------------------------------
 Lowest energy point so far.  Saving SCF results.
 Largest change from initial coordinates is atom    4       1.144 Angstoms.
 GradGradGradGradGradGradGradGradGradGradGradGradGradGradGradGradGradGrad

 Leave Link  103 at Wed Apr 16 05:09:54 2025, MaxMem=   536870912 cpu:               0.5 elap:               0.1
 (Enter /home/szhao/Apps/g16/l202.exe)
                          Input orientation:                          
 ---------------------------------------------------------------------
 Center     Atomic      Atomic             Coordinates (Angstroms)
 Number     Number       Type             X           Y           Z
 ---------------------------------------------------------------------
      1          8           0       -1.186715   -0.000287   -0.000289
      2         16           0        0.985298   -0.000366   -0.000364
      3          1           0       -2.158269    0.000347    0.000348
      4          1           0        2.359686    0.000306    0.000305
 ---------------------------------------------------------------------
                    Distance matrix (angstroms):
                    1          2          3          4
     1  O    0.000000
     2  S    2.172012   0.000000
     3  H    0.971555   3.143567   0.000000
     4  H    3.546401   1.374389   4.517956   0.000000
 Symmetry turned off by external request.
 Stoichiometry    H2OS
 Framework group  C1[X(H2OS)]
 Deg. of freedom     6
 Full point group                 C1      NOp   1
 Rotational constants (GHZ):   297577966.8637376           8.3352263           8.3352260
 Leave Link  202 at Wed Apr 16 05:09:54 2025, MaxMem=   536870912 cpu:               0.1 elap:               0.0
 (Enter /home/szhao/Apps/g16/l601.exe)
 Copying SCF densities to generalized density rwf, IOpCl= 1 IROHF=0.

 **********************************************************************

            Population analysis using the SCF density.

 **********************************************************************

 Alpha  occ. eigenvalues --  -89.97170 -19.64561  -8.33171  -6.25328  -6.24992
 Alpha  occ. eigenvalues --   -6.24280  -1.07568  -0.82365  -0.57486  -0.40905
 Alpha  occ. eigenvalues --   -0.39758  -0.36014  -0.33131
 Alpha virt. eigenvalues --   -0.19173   0.01797   0.05349   0.05484   0.06025
 Alpha virt. eigenvalues --    0.08481   0.16550   0.20537   0.20899   0.23856
 Alpha virt. eigenvalues --    0.34216   0.35257   0.35501   0.36123   0.39003
 Alpha virt. eigenvalues --    0.56089   0.72053   0.73508   0.74253   0.79229
 Alpha virt. eigenvalues --    0.79637   0.92689   1.09683   1.10227   1.32412
 Alpha virt. eigenvalues --    1.41194   1.41795   1.45921   1.47008   1.52140
 Alpha virt. eigenvalues --    1.67103   1.67442   1.77506   2.08735   2.11068
 Alpha virt. eigenvalues --    2.53786   2.60888   2.89274   2.90094   3.17250
 Alpha virt. eigenvalues --    3.19123   3.90314   5.04487   5.07597   5.59425
 Alpha virt. eigenvalues --    7.94171  17.41555  17.41611  17.54925  49.94205
 Alpha virt. eigenvalues --  189.21482
  Beta  occ. eigenvalues --  -89.97170 -19.64561  -8.33171  -6.25328  -6.24992
  Beta  occ. eigenvalues --   -6.24280  -1.07568  -0.82365  -0.57486  -0.40905
  Beta  occ. eigenvalues --   -0.39758  -0.36014  -0.33131
  Beta virt. eigenvalues --   -0.19173   0.01797   0.05349   0.05484   0.06025
  Beta virt. eigenvalues --    0.08481   0.16550   0.20537   0.20899   0.23856
  Beta virt. eigenvalues --    0.34216   0.35257   0.35501   0.36123   0.39003
  Beta virt. eigenvalues --    0.56089   0.72053   0.73508   0.74253   0.79229
  Beta virt. eigenvalues --    0.79637   0.92689   1.09683   1.10227   1.32412
  Beta virt. eigenvalues --    1.41194   1.41795   1.45921   1.47008   1.52140
  Beta virt. eigenvalues --    1.67103   1.67442   1.77506   2.08735   2.11068
  Beta virt. eigenvalues --    2.53786   2.60888   2.89274   2.90094   3.17250
  Beta virt. eigenvalues --    3.19123   3.90314   5.04487   5.07597   5.59425
  Beta virt. eigenvalues --    7.94171  17.41555  17.41611  17.54925  49.94205
  Beta virt. eigenvalues --  189.21482
          Condensed to atoms (all electrons):
               1          2          3          4
     1  O    8.537462  -0.327933   0.170060   0.019460
     2  S   -0.327933  16.022885   0.018541   0.240313
     3  H    0.170060   0.018541   0.494169  -0.000770
     4  H    0.019460   0.240313  -0.000770   0.706142
          Atomic-Atomic Spin Densities.
               1          2          3          4
     1  O    0.000000   0.000000   0.000000  -0.000000
     2  S    0.000000  -0.000000  -0.000000   0.000000
     3  H    0.000000  -0.000000  -0.000000   0.000000
     4  H   -0.000000   0.000000   0.000000  -0.000000
 Mulliken charges and spin densities:
               1          2
     1  O   -0.399049   0.000000
     2  S    0.046194  -0.000000
     3  H    0.318000  -0.000000
     4  H    0.034855  -0.000000
 Sum of Mulliken charges =  -0.00000  -0.00000
 Mulliken charges and spin densities with hydrogens summed into heavy atoms:
               1          2
     1  O   -0.081049   0.000000
     2  S    0.081049  -0.000000
 Electronic spatial extent (au):  <R**2>=            171.9611
 Charge=             -0.0000 electrons
 Dipole moment (field-independent basis, Debye):
    X=              1.0038    Y=              0.0022    Z=              0.0022  Tot=              1.0038
 Quadrupole moment (field-independent basis, Debye-Ang):
   XX=            -12.0700   YY=            -20.6885   ZZ=            -20.6936
   XY=             -0.0024   XZ=             -0.0024   YZ=              1.9942
 Traceless Quadrupole moment (field-independent basis, Debye-Ang):
   XX=              5.7474   YY=             -2.8711   ZZ=             -2.8762
   XY=             -0.0024   XZ=             -0.0024   YZ=              1.9942
 Octapole moment (field-independent basis, Debye-Ang**2):
  XXX=            -24.8733  YYY=              0.0196  ZZZ=              0.0196  XYY=             -5.7934
  XXY=              0.0071  XXZ=              0.0071  XZZ=             -5.7972  YZZ=              0.0052
  YYZ=              0.0052  XYZ=              1.5020
 Hexadecapole moment (field-independent basis, Debye-Ang**3):
 XXXX=           -133.8372 YYYY=            -25.6808 ZZZZ=            -25.6918 XXXY=             -0.0052
 XXXZ=             -0.0053 YYYX=              0.0066 YYYZ=              2.1716 ZZZX=              0.0065
 ZZZY=              2.1716 XXYY=            -35.9733 XXZZ=            -35.9820 YYZZ=             -8.5622
 XXYZ=              3.4250 YYXZ=              0.0010 ZZXY=              0.0011
 N-N= 4.570725125010D+01 E-N=-1.219106636960D+03  KE= 4.737316196683D+02
                          Isotropic Fermi Contact Couplings
        Atom                 a.u.       MegaHertz       Gauss      10(-4) cm-1
     1  O(17)             -0.00000       0.00000       0.00000       0.00000
     2  S(33)             -0.00000      -0.00000      -0.00000      -0.00000
     3  H(1)              -0.00000      -0.00000      -0.00000      -0.00000
     4  H(1)              -0.00000      -0.00000      -0.00000      -0.00000
 --------------------------------------------------------
       Center         ----  Spin Dipole Couplings  ----
                      3XX-RR        3YY-RR        3ZZ-RR
 --------------------------------------------------------
     1   Atom       -0.000000      0.000000     -0.000000
     2   Atom       -0.000000     -0.000000      0.000000
     3   Atom        0.000000     -0.000000     -0.000000
     4   Atom       -0.000000     -0.000000      0.000000
 --------------------------------------------------------
                        XY            XZ            YZ
 --------------------------------------------------------
     1   Atom       -0.000000     -0.000000      0.000000
     2   Atom        0.000000      0.000000     -0.000000
     3   Atom        0.000000      0.000000      0.000000
     4   Atom       -0.000000     -0.000000     -0.000000
 --------------------------------------------------------


 ---------------------------------------------------------------------------------
              Anisotropic Spin Dipole Couplings in Principal Axis System
 ---------------------------------------------------------------------------------

       Atom             a.u.   MegaHertz   Gauss  10(-4) cm-1        Axes

              Baa    -0.0000     0.000     0.000     0.000  0.7091  0.4923  0.5047
     1 O(17)  Bbb    -0.0000     0.000     0.000     0.000 -0.0130 -0.7066  0.7075
              Bcc     0.0000    -0.000    -0.000    -0.000  0.7050 -0.5083 -0.4947
 
              Baa    -0.0000    -0.000    -0.000    -0.000  0.7018 -0.5623 -0.4374
     2 S(33)  Bbb     0.0000     0.000     0.000     0.000 -0.1243 -0.7012  0.7020
              Bcc     0.0000     0.000     0.000     0.000  0.7015  0.4383  0.5620
 
              Baa    -0.0000    -0.000    -0.000    -0.000  0.7047 -0.5000 -0.5034
     3 H(1)   Bbb    -0.0000    -0.000    -0.000    -0.000  0.0039 -0.7067  0.7075
              Bcc     0.0000     0.000     0.000     0.000  0.7095  0.5005  0.4961
 
              Baa    -0.0000    -0.000    -0.000    -0.000  0.7037  0.5484  0.4517
     4 H(1)   Bbb     0.0000     0.000     0.000     0.000  0.0964 -0.7036  0.7041
              Bcc     0.0000     0.000     0.000     0.000  0.7039 -0.4519 -0.5480
 

 ---------------------------------------------------------------------------------

 No NMR shielding tensors so no spin-rotation constants.
 Leave Link  601 at Wed Apr 16 05:09:55 2025, MaxMem=   536870912 cpu:               1.3 elap:               0.2
 (Enter /home/szhao/Apps/g16/l9999.exe)
 1\1\GINC-NODE02\FOpt\UM062X\6-311+G(d,p)\H2O1S1\SZHAO\16-Apr-2025\0\\#
 p opt UM062X/6-311+G** nosymm int=superfine\\Title Card Required\\0,1\
 O,-1.1867146477,-0.0002870177,-0.0002890796\S,0.985297815,-0.000365713
 6,-0.0003637223\H,-2.1582694511,0.0003470688,0.0003480551\H,2.35968628
 37,0.0003056625,0.0003047469\\Version=ES64L-G16RevA.03\HF=-474.3846665
 \S2=0.\S2-1=0.\S2A=0.\RMSD=1.465e-09\RMSF=4.469e-05\Dipole=0.3949183,0
 .0008808,0.0008834\Quadrupole=4.2730157,-2.1346207,-2.138395,-0.001804
 6,-0.0018191,1.4826321\PG=C01 [X(H2O1S1)]\\@


 The number of Unix installations has grown to 10,
  with more expected.
                  -- The Unix Programmer's Manual,
                     2nd Edition, June, 1972.
 Job cpu time:       0 days  0 hours 13 minutes 18.9 seconds.
 Elapsed time:       0 days  0 hours  1 minutes 47.3 seconds.
 File lengths (MBytes):  RWF=     22 Int=      0 D2E=      0 Chk=      2 Scr=      2
 Normal termination of Gaussian 16 at Wed Apr 16 05:09:55 2025.
