Title Card Required                                                     
FOpt      UM062X                                                      6-311+G(d,p)        
Number of atoms                            I                4
Info1-9                                    I   N=           9
          13          13           0           0           0         110
           2          18        -502
Full Title                                 C   N=           2
Title Card Required     
Route                                      C   N=           4
#p opt UM062X/6-311+G** nosymm int=superfine    
Charge                                     I                0
Multiplicity                               I                1
Number of electrons                        I               26
Number of alpha electrons                  I               13
Number of beta electrons                   I               13
Number of basis functions                  I               64
Number of independent functions            I               64
Number of point charges in /Mol/           I                0
Number of translation vectors              I                0
Atomic numbers                             I   N=           4
           8          16           1           1
Nuclear charges                            R   N=           4
  8.00000000E+00  1.60000000E+01  1.00000000E+00  1.00000000E+00
Current cartesian coordinates              R   N=          12
 -2.24256567E+00 -5.42384897E-04 -5.46281331E-04  1.86194302E+00 -6.91098521E-04
 -6.87335619E-04 -4.07853817E+00  6.55865040E-04  6.57728762E-04  4.45916082E+00
  5.77618379E-04  5.75888188E-04
Number of symbols in /Mol/                 I                0
Force Field                                I                0
Atom Types                                 C   N=           4
                                                
Int Atom Types                             I   N=           4
           0           0           0           0
MM charges                                 R   N=           4
  0.00000000E+00  0.00000000E+00  0.00000000E+00  0.00000000E+00
Integer atomic weights                     I   N=           4
          16          32           1           1
Real atomic weights                        R   N=           4
  1.59949146E+01  3.19720718E+01  1.00782504E+00  1.00782504E+00
Atom fragment info                         I   N=           4
           0           0           0           0
Atom residue num                           I   N=           4
           0           0           0           0
Nuclear spins                              I   N=           4
           0           0           1           1
Nuclear ZEff                               R   N=           4
 -5.60000000E+00 -1.36000000E+01 -1.00000000E+00 -1.00000000E+00
Nuclear ZNuc                               R   N=           4
  8.00000000E+00  1.60000000E+01  1.00000000E+00  1.00000000E+00
Nuclear QMom                               R   N=           4
  0.00000000E+00  0.00000000E+00  0.00000000E+00  0.00000000E+00
Nuclear GFac                               R   N=           4
  0.00000000E+00  0.00000000E+00  2.79284600E+00  2.79284600E+00
MicOpt                                     I   N=           4
          -1          -1          -1          -1
Number of residues                         I                0
Number of secondary structures             I                0
Redundant internal dimensions              I   N=           4
           7           3           4           0
Redundant internal coordinate indices      I   N=          28
           1           2           0           0           1           3
           0           0           2           4           0           0
           2           1           3          -4           1           2
           4          -4           2           1           3          -8
           1           2           4          -8
Redundant internal coordinates             R   N=           7
  4.10450870E+00  1.83597328E+00  2.59721841E+00  3.14097123E+00  3.14211340E+00
  3.14220907E+00  3.14106793E+00
ZRed-IntVec                                I   N=           7
           0           0           0           0           0           0
           0
ZRed-FPVec                                 R   N=           7
  0.00000000E+00  0.00000000E+00  0.00000000E+00  0.00000000E+00  0.00000000E+00
  0.00000000E+00  0.00000000E+00
ZRed-Constraint1                           R   N=           7
  2.32598078E+00  1.13503198E+00  1.13503198E+00  3.14159265E+00  3.14159265E+00
  3.14159265E+00  3.14159265E+00
ZRed-Constraint2                           R   N=           7
  0.00000000E+00  0.00000000E+00  0.00000000E+00  0.00000000E+00  0.00000000E+00
  0.00000000E+00  0.00000000E+00
Number of contracted shells                I               27
Number of primitive shells                 I               49
Pure/Cartesian d shells                    I                0
Pure/Cartesian f shells                    I                0
Highest angular momentum                   I                2
Largest degree of contraction              I                6
Shell types                                I   N=          27
           0          -1          -1          -1          -1          -2
           0           0           0           0           0           0
          -1           1           1           1           1           1
          -2           0           0           0           1           0
           0           0           1
Number of primitives per shell             I   N=          27
           6           3           1           1           1           1
           6           3           1           1           1           1
           1           4           2           1           1           1
           1           3           1           1           1           3
           1           1           1
Shell to atom map                          I   N=          27
           1           1           1           1           1           1
           2           2           2           2           2           2
           2           2           2           2           2           2
           2           3           3           3           3           4
           4           4           4
Primitive exponents                        R   N=          49
  8.58850000E+03  1.29723000E+03  2.99296000E+02  8.73771000E+01  2.56789000E+01
  3.74004000E+00  4.21175000E+01  9.62837000E+00  2.85332000E+00  9.05661000E-01
  2.55611000E-01  8.45000000E-02  1.29200000E+00  9.34134000E+04  1.39617000E+04
  3.16991000E+03  9.02456000E+02  2.97158000E+02  1.08702000E+02  1.08702000E+02
  4.31553000E+01  1.81079000E+01  5.56009000E+00  2.13183000E+00  4.20403000E-01
  1.36045000E-01  4.05000000E-02  4.95040000E+02  1.17221000E+02  3.77749000E+01
  1.40584000E+01  5.56574000E+00  2.26297000E+00  8.07994000E-01  2.77460000E-01
  7.71410000E-02  6.50000000E-01  3.38650000E+01  5.09479000E+00  1.15879000E+00
  3.25840000E-01  1.02741000E-01  7.50000000E-01  3.38650000E+01  5.09479000E+00
  1.15879000E+00  3.25840000E-01  1.02741000E-01  7.50000000E-01
Contraction coefficients                   R   N=          49
  1.89515008E-03  1.43859006E-02  7.07320031E-02  2.40001011E-01  5.94797026E-01
  2.80802012E-01  1.13889012E-01  9.20811101E-01 -3.27447036E-03  1.00000000E+00
  1.00000000E+00  1.00000000E+00  1.00000000E+00  7.42999957E-04  5.79299966E-03
  2.99539983E-02  1.19027993E-01  3.68431979E-01  5.77298966E-01  1.43186060E-01
  6.24465262E-01  2.83366119E-01  1.00000000E+00  1.00000000E+00  1.00000000E+00
  1.00000000E+00  1.00000000E+00  8.30900251E-03  6.40240194E-02  2.77614084E-01
  7.45076225E-01  6.13711672E-01  4.43817763E-01  1.00000000E+00  1.00000000E+00
  1.00000000E+00  1.00000000E+00  2.54938145E-02  1.90373109E-01  8.52161486E-01
  1.00000000E+00  1.00000000E+00  1.00000000E+00  2.54938145E-02  1.90373109E-01
  8.52161486E-01  1.00000000E+00  1.00000000E+00  1.00000000E+00
P(S=P) Contraction coefficients            R   N=          49
  0.00000000E+00  0.00000000E+00  0.00000000E+00  0.00000000E+00  0.00000000E+00
  0.00000000E+00  3.65113974E-02  2.37152983E-01  8.19701941E-01  1.00000000E+00
  1.00000000E+00  1.00000000E+00  0.00000000E+00  0.00000000E+00  0.00000000E+00
  0.00000000E+00  0.00000000E+00  0.00000000E+00  0.00000000E+00  0.00000000E+00
  0.00000000E+00  0.00000000E+00  0.00000000E+00  0.00000000E+00  0.00000000E+00
  0.00000000E+00  1.00000000E+00  0.00000000E+00  0.00000000E+00  0.00000000E+00
  0.00000000E+00  0.00000000E+00  0.00000000E+00  0.00000000E+00  0.00000000E+00
  0.00000000E+00  0.00000000E+00  0.00000000E+00  0.00000000E+00  0.00000000E+00
  0.00000000E+00  0.00000000E+00  0.00000000E+00  0.00000000E+00  0.00000000E+00
  0.00000000E+00  0.00000000E+00  0.00000000E+00  0.00000000E+00
Coordinates of each shell                  R   N=          81
 -2.24256567E+00 -5.42384897E-04 -5.46281331E-04 -2.24256567E+00 -5.42384897E-04
 -5.46281331E-04 -2.24256567E+00 -5.42384897E-04 -5.46281331E-04 -2.24256567E+00
 -5.42384897E-04 -5.46281331E-04 -2.24256567E+00 -5.42384897E-04 -5.46281331E-04
 -2.24256567E+00 -5.42384897E-04 -5.46281331E-04  1.86194302E+00 -6.91098521E-04
 -6.87335619E-04  1.86194302E+00 -6.91098521E-04 -6.87335619E-04  1.86194302E+00
 -6.91098521E-04 -6.87335619E-04  1.86194302E+00 -6.91098521E-04 -6.87335619E-04
  1.86194302E+00 -6.91098521E-04 -6.87335619E-04  1.86194302E+00 -6.91098521E-04
 -6.87335619E-04  1.86194302E+00 -6.91098521E-04 -6.87335619E-04  1.86194302E+00
 -6.91098521E-04 -6.87335619E-04  1.86194302E+00 -6.91098521E-04 -6.87335619E-04
  1.86194302E+00 -6.91098521E-04 -6.87335619E-04  1.86194302E+00 -6.91098521E-04
 -6.87335619E-04  1.86194302E+00 -6.91098521E-04 -6.87335619E-04  1.86194302E+00
 -6.91098521E-04 -6.87335619E-04 -4.07853817E+00  6.55865040E-04  6.57728762E-04
 -4.07853817E+00  6.55865040E-04  6.57728762E-04 -4.07853817E+00  6.55865040E-04
  6.57728762E-04 -4.07853817E+00  6.55865040E-04  6.57728762E-04  4.45916082E+00
  5.77618379E-04  5.75888188E-04  4.45916082E+00  5.77618379E-04  5.75888188E-04
  4.45916082E+00  5.77618379E-04  5.75888188E-04  4.45916082E+00  5.77618379E-04
  5.75888188E-04
Num ILSW                                   I              100
ILSW                                       I   N=         100
           1           0           0           1           2           0
           0           0           0           0        4336          -1
           7           0           0           0           2           0
           0           0           0           0           1           0
           1           1           0           0           0           0
           0           0      100000           0          -1           0
           0           0           0           0           0           0
           0           0           0           1           0           0
           0 -2000000000           1           0           0           0
           0           0           4          52           0           0
           0           0          55           0           0           0
           0           0           0           4           0           1
           0           0           0           0           0           0
           0           0           0           0           0           0
           0           0           0           0           0           0
           0           0           0           0           0           0
           0           0           0           0
Num RLSW                                   I               52
RLSW                                       R   N=          52
  1.00000000E+00  1.00000000E+00  1.00000000E+00  1.00000000E+00  5.40000000E-01
  0.00000000E+00  0.00000000E+00  1.00000000E+00  0.00000000E+00  0.00000000E+00
  0.00000000E+00  0.00000000E+00  1.00000000E+00  0.00000000E+00  0.00000000E+00
  0.00000000E+00  0.00000000E+00  1.00000000E+00  0.00000000E+00  0.00000000E+00
  0.00000000E+00  0.00000000E+00  1.00000000E+00  0.00000000E+00  0.00000000E+00
  0.00000000E+00  0.00000000E+00  1.00000000E+00  0.00000000E+00  0.00000000E+00
  0.00000000E+00  0.00000000E+00  1.00000000E+00  0.00000000E+00  0.00000000E+00
  0.00000000E+00  0.00000000E+00  0.00000000E+00  1.00000000E+00  1.00000000E+00
  0.00000000E+00  1.00000000E+00  0.00000000E+00  0.00000000E+00  0.00000000E+00
  0.00000000E+00  0.00000000E+00  0.00000000E+00  0.00000000E+00  0.00000000E+00
  0.00000000E+00  0.00000000E+00
MxBond                                     I                2
NBond                                      I   N=           4
           2           2           1           1
IBond                                      I   N=           8
           2           3           1           4           1           0
           2           0
RBond                                      R   N=           8
  3.00000000E+00  3.00000000E+00  3.00000000E+00  3.00000000E+00  3.00000000E+00
  0.00000000E+00  3.00000000E+00  0.00000000E+00
Virial Ratio                               R      2.001378516556910E+00
SCF Energy                                 R     -4.743846665495282E+02
Total Energy                               R     -4.743846665495282E+02
S**2                                       R     -2.131628207280301E-14
S**2 after annihilation                    R     -4.405364961712590E-13
RMS Force                                  R      4.469008730240035E-05
RMS Density                                R      1.464800627250632E-09
Job Status                                 I                1
Nuclear derivative order                   I                1
External E-field                           R   N=          35
  0.00000000E+00  0.00000000E+00  0.00000000E+00  0.00000000E+00  0.00000000E+00
  0.00000000E+00  0.00000000E+00  0.00000000E+00  0.00000000E+00  0.00000000E+00
  0.00000000E+00  0.00000000E+00  0.00000000E+00  0.00000000E+00  0.00000000E+00
  0.00000000E+00  0.00000000E+00  0.00000000E+00  0.00000000E+00  0.00000000E+00
  0.00000000E+00  0.00000000E+00  0.00000000E+00  0.00000000E+00  0.00000000E+00
  0.00000000E+00  0.00000000E+00  0.00000000E+00  0.00000000E+00  0.00000000E+00
  0.00000000E+00  0.00000000E+00  0.00000000E+00  0.00000000E+00  0.00000000E+00
IOpCl                                      I                1
IROHF                                      I                0
Alpha Orbital Energies                     R   N=          64
 -8.99716970E+01 -1.96456112E+01 -8.33170600E+00 -6.25328312E+00 -6.24991709E+00
 -6.24280190E+00 -1.07568221E+00 -8.23647961E-01 -5.74856442E-01 -4.09045784E-01
 -3.97583148E-01 -3.60144681E-01 -3.31311983E-01 -1.91726559E-01  1.79702954E-02
  5.34876410E-02  5.48380423E-02  6.02462337E-02  8.48105959E-02  1.65502387E-01
  2.05368646E-01  2.08994040E-01  2.38555860E-01  3.42158646E-01  3.52570263E-01
  3.55014634E-01  3.61226011E-01  3.90033126E-01  5.60890323E-01  7.20527674E-01
  7.35079345E-01  7.42531677E-01  7.92287594E-01  7.96366670E-01  9.26890948E-01
  1.09683094E+00  1.10226804E+00  1.32412224E+00  1.41194158E+00  1.41794751E+00
  1.45920825E+00  1.47008381E+00  1.52140388E+00  1.67102741E+00  1.67442446E+00
  1.77505883E+00  2.08735313E+00  2.11067617E+00  2.53785724E+00  2.60888405E+00
  2.89273935E+00  2.90094290E+00  3.17250317E+00  3.19123320E+00  3.90314215E+00
  5.04487258E+00  5.07596595E+00  5.59424764E+00  7.94170505E+00  1.74155517E+01
  1.74161102E+01  1.75492538E+01  4.99420524E+01  1.89214825E+02
Beta Orbital Energies                      R   N=          64
 -8.99716970E+01 -1.96456112E+01 -8.33170600E+00 -6.25328312E+00 -6.24991709E+00
 -6.24280190E+00 -1.07568221E+00 -8.23647961E-01 -5.74856442E-01 -4.09045784E-01
 -3.97583148E-01 -3.60144681E-01 -3.31311983E-01 -1.91726559E-01  1.79702954E-02
  5.34876410E-02  5.48380423E-02  6.02462337E-02  8.48105959E-02  1.65502387E-01
  2.05368646E-01  2.08994040E-01  2.38555860E-01  3.42158646E-01  3.52570263E-01
  3.55014634E-01  3.61226011E-01  3.90033126E-01  5.60890323E-01  7.20527674E-01
  7.35079345E-01  7.42531676E-01  7.92287594E-01  7.96366670E-01  9.26890948E-01
  1.09683094E+00  1.10226804E+00  1.32412224E+00  1.41194158E+00  1.41794751E+00
  1.45920825E+00  1.47008381E+00  1.52140388E+00  1.67102741E+00  1.67442446E+00
  1.77505883E+00  2.08735313E+00  2.11067617E+00  2.53785724E+00  2.60888405E+00
  2.89273935E+00  2.90094290E+00  3.17250317E+00  3.19123320E+00  3.90314215E+00
  5.04487258E+00  5.07596595E+00  5.59424764E+00  7.94170505E+00  1.74155517E+01
  1.74161102E+01  1.75492538E+01  4.99420524E+01  1.89214825E+02
Alpha MO coefficients                      R   N=        4096
  8.75349367E-07 -5.22067393E-06 -1.59821526E-05  6.42094366E-09  6.41017709E-09
  2.72039884E-05  4.89161625E-05 -2.56915925E-08 -2.56893799E-08 -1.22594768E-04
 -3.89920640E-05  7.31778161E-08  7.34561330E-08 -2.99589808E-04  1.28305239E-03
 -5.72089389E-07 -5.73334106E-07 -4.70721103E-06  2.33601000E-09 -1.48008529E-07
  8.15350558E-06  2.26566251E-09  4.10792108E-01  6.54410228E-01  1.53568293E-02
 -4.39402514E-03  1.77859630E-03 -1.41816925E-03  6.91830771E-06 -2.27773423E-04
  3.62651889E-10 -3.88237267E-10  8.31952557E-05  1.86030003E-07  1.85807629E-07
 -2.33090030E-05 -5.21408670E-08 -5.20866251E-08 -1.40276472E-05  3.35988927E-08
  3.36489898E-08  1.62984376E-04  2.96190485E-08  2.91486586E-08  7.85054100E-04
  1.95511567E-07  1.98040436E-07 -3.34751156E-05  5.46488494E-08  6.53502371E-06
  5.79639655E-05  5.51963330E-08  1.92602297E-05 -7.52762472E-05  1.33850344E-03
  1.97404100E-05 -5.89091501E-08 -5.93871757E-08  3.90408412E-05 -2.01289340E-04
 -1.35070449E-04  1.56053783E-04  8.68597721E-08  8.62431699E-08  5.52853294E-01
  4.69644770E-01 -1.20271550E-03  2.01831257E-06  2.02177807E-06  8.30386769E-03
  2.58846499E-04 -6.31796259E-07 -6.31593084E-07 -3.69515364E-03 -7.60198205E-04
  6.47054645E-07  6.47313669E-07  3.34778046E-03  2.52363873E-03 -1.08081120E-06
 -1.07893688E-06 -8.95771078E-05 -2.13072397E-07 -2.73271342E-05  1.55221703E-04
 -2.12247940E-07  2.10034798E-08 -5.64336949E-06  4.04960558E-05 -7.73298804E-05
  9.34272753E-05 -3.99815312E-04 -1.15599745E-03  3.81983939E-04  1.49343581E-07
  1.49218842E-07  6.59126638E-06 -2.33333528E-09 -2.32195315E-09 -3.05571759E-05
 -1.81876217E-08 -1.81997343E-08  1.80231157E-04  5.42717918E-08  5.44171458E-08
 -4.47258449E-04 -7.63343688E-08 -7.67078300E-08  2.49810347E-03  5.80147259E-07
  5.82237550E-07 -5.63399667E-05 -2.97242117E-08  6.06288318E-06  9.75682483E-05
 -3.00176431E-08  1.15149798E-04 -4.81569793E-04  1.47386710E-03 -4.72817167E-04
  3.13480229E-07  3.14395193E-07 -5.06777520E-05  3.17626053E-04 -1.72977438E-03
 -1.94684390E-05  4.91678595E-08  4.85260210E-08 -1.26739727E-05 -6.27658158E-05
 -1.29512883E-04  7.08989944E-08  7.07846786E-08  4.59497511E-04  5.67857760E-04
 -1.78333703E-07 -1.77957343E-07 -1.37121046E-03 -1.07864810E-03  1.10710420E-06
  1.11078342E-06 -4.22304760E-03  1.73381739E-02 -7.70511220E-06 -7.72206322E-06
 -5.02319781E-05 -1.95934097E-08  7.55212283E-06  8.69851116E-05 -1.97623645E-08
 -1.19773275E-01 -3.20554587E-01  5.16490418E-01  5.98241845E-01  4.48298582E-02
 -2.14390746E-02  5.01382922E-04 -3.08246019E-03 -9.84347812E-08 -1.08117475E-07
  2.13887956E-03  5.77576124E-06  5.76958274E-06  4.83617372E-03  1.31216036E-05
  1.31073191E-05  5.48131612E-04  2.33355768E-06  2.33260480E-06  1.51305929E-03
 -1.97396535E-07 -2.03075898E-07  1.05870029E-02  2.85842583E-06  2.89182527E-06
 -4.35957858E-04  3.96275773E-08  6.86844735E-04  7.53351168E-04  4.57524996E-08
  2.55413229E-04 -1.54154744E-03  1.81350082E-02  8.35561137E-05 -5.61456315E-07
 -5.66344089E-07  2.82641856E-04 -1.86017251E-03 -1.94712954E-03  1.53176736E-03
  9.45588054E-07  9.38852455E-07 -5.39795794E-10  5.55600586E-08 -9.39338543E-09
  1.07763899E-06  1.07626489E-06 -6.19525322E-07 -1.77180412E-07 -2.96555417E-05
 -2.96177941E-05 -1.11633271E-06  4.95195393E-06  6.45134800E-06  6.44309774E-06
 -2.52149840E-06  2.20851389E-07 -1.23513273E-05 -1.23356720E-05 -4.41580635E-08
  2.12194583E-05  1.48567902E-08  7.65034177E-08  2.12464717E-05  1.64050018E-06
  4.49518674E-06 -8.40204817E-06 -6.66234212E-06  1.11599440E-06 -3.47967231E-06
  7.25183995E-07  3.05518193E-06 -1.61569455E-03 -1.61363981E-03 -7.13946610E-04
  2.67995647E-01  2.67654834E-01 -1.33574366E-03  5.01642400E-01  5.01004458E-01
 -1.04165464E-04  3.89211462E-02  3.88716476E-02  1.52224817E-05 -5.28844721E-03
 -5.28172184E-03 -8.14338609E-06  3.07726480E-03  3.07335142E-03  1.80450104E-06
  4.85806728E-04  2.12579593E-06 -3.13029331E-06  4.86426815E-04 -1.47777016E-07
  3.80826114E-06  1.68647419E-06  9.07691623E-07  3.51620557E-06  3.51174188E-06
 -5.71837593E-07 -1.41992092E-07  1.81734360E-06 -1.04611924E-06  3.95478165E-05
  3.94977313E-05  1.19661542E-06 -2.69862373E-05  1.07830848E-05 -3.40834518E-09
 -3.62859882E-09  3.34611490E-04  1.08880433E-05 -5.94604239E-08 -5.82422349E-08
  2.16164851E-04 -2.28216393E-03  8.14613908E-07  8.13962535E-07  1.85041193E-03
  1.89494344E-03 -6.25101269E-07 -6.20214152E-07  2.42595367E-05 -1.82619910E-07
 -3.54522285E-06 -4.20097226E-05 -1.80650031E-07  8.40060769E-04  2.27910400E-03
 -4.07748780E-03 -3.95325704E-03  4.16986024E-04  7.41163019E-04 -4.53786751E-04
 -1.68916624E-03 -2.63279155E-06 -2.62719493E-06  3.79462816E-01  5.05954187E-04
  5.04901730E-04  7.08883567E-01  9.45634762E-04  9.43667530E-04  5.42074360E-02
  7.18936022E-05  7.17442791E-05 -8.12287498E-03 -9.65176371E-06 -9.63287823E-06
  6.54897399E-03  6.01467885E-06  6.00187906E-06 -4.04270169E-04  2.18073712E-06
  5.53727452E-05  7.00073561E-04  2.18327939E-06  1.21939806E-04 -1.93269557E-03
  9.85799932E-04 -4.27203638E-04  4.25353337E-07  4.27617366E-07  4.66996566E-04
  6.97255668E-04 -2.81825813E-03  4.52772349E-04  1.25611447E-07  1.24569417E-07
  2.12584508E-12 -5.06655975E-11  1.98591964E-11 -7.33005190E-06  7.33938207E-06
  4.28179638E-10  3.70364953E-12  1.89319257E-05 -1.89559939E-05  3.22190476E-09
 -6.72301475E-09 -1.46353448E-05  1.46539389E-05 -5.02987727E-09  5.16519639E-09
  1.42685474E-05 -1.42867605E-05  5.70255037E-09  2.17516172E-05 -3.32153234E-11
  3.46405182E-09 -2.17239558E-05  9.64492336E-10  2.64179252E-09 -4.92177251E-09
 -3.95661152E-09 -1.57971617E-10 -5.00459570E-10 -9.47261436E-10 -1.73770958E-09
  1.46760472E-03 -1.46947344E-03  2.90426400E-07 -2.68818581E-01  2.69160876E-01
  5.41020889E-07 -5.01155724E-01  5.01793863E-01  4.01247345E-08 -3.65062110E-02
  3.65526933E-02 -8.07435241E-09  4.86072978E-03 -4.86691914E-03  3.18617411E-09
 -2.80172142E-03  2.80528897E-03  1.66677146E-06  3.49227499E-04  2.26348250E-09
  9.62624089E-07 -3.48784830E-04  6.50172617E-10 -7.23418338E-09  7.65653285E-09
 -1.64726783E-09 -2.77554194E-06  2.77909465E-06 -2.57226579E-10  1.32540761E-09
  4.45791261E-10 -6.46169262E-10 -5.83790446E-05  5.84535868E-05 -1.17978340E-01
 -1.94258154E-01 -3.82983952E-02  3.49942836E-05  3.51554424E-05  5.64263890E-01
 -6.33578516E-02  6.05026492E-05  6.07558238E-05  4.34393775E-01  8.09597565E-04
  2.24469632E-05  2.25715725E-05 -2.20192465E-02 -6.32372257E-02  2.48641369E-05
  2.48615802E-05 -5.45625771E-03 -5.93661405E-06  4.07829488E-03  9.44013124E-03
 -5.87393015E-06  3.03292262E-03  8.60833209E-03 -1.79742048E-02 -3.24778362E-02
  5.54572590E-02  4.46906202E-02  2.06841493E-02 -6.10341778E-03 -8.39740518E-07
 -8.34330207E-07  4.12621867E-03 -1.91709061E-06 -1.90730620E-06  8.05570259E-03
 -3.65256441E-06 -3.63348401E-06 -1.04443829E-02  3.51902403E-06  3.49471088E-06
 -1.54067615E-02  1.51396569E-05  1.50951766E-05 -4.49492156E-02 -1.18590403E-05
 -1.19208615E-05 -3.03065545E-03 -4.86520975E-06  1.61468348E-03  5.24513805E-03
 -4.88539002E-06  1.04683491E-01  1.01426591E-01 -5.09757985E-02  2.62542516E-02
 -1.83378552E-05 -1.84188137E-05  2.96517000E-03  1.53222354E-04  2.73064522E-02
 -6.04823564E-05 -6.19112506E-07 -6.12740836E-07  8.99359853E-03  1.50097745E-02
  3.48289079E-02 -7.01787505E-06 -7.02618304E-06 -4.67718656E-02  5.19316562E-02
 -1.02676290E-05 -1.02804041E-05 -3.06240319E-02  4.01226132E-02 -2.09119600E-06
 -2.10312805E-06  2.57188076E-02 -7.03702322E-02  2.88251235E-05  2.89136391E-05
  5.03237328E-04  5.20183291E-06 -8.02834821E-06 -8.71612133E-04  5.17401215E-06
  3.32781657E-02  9.46064093E-02 -1.98980354E-01 -3.66681677E-01  6.65259692E-01
  4.28358125E-01 -2.41910104E-03  1.26649583E-02  6.83139952E-07  7.03385621E-07
 -1.54688196E-02 -1.26107925E-05 -1.25760159E-05 -3.08504218E-02 -2.54610136E-05
 -2.53912225E-05  4.16627075E-02  3.44285844E-05  3.43306502E-05  6.57480925E-02
  6.38896618E-05  6.37562703E-05 -2.88343987E-02 -4.43806345E-06 -4.55431901E-06
 -9.80851290E-03  5.86387611E-06  1.26770284E-02  1.69565562E-02  5.92836807E-06
 -2.95864170E-02 -1.78935165E-02 -8.06622564E-02 -4.56691761E-03  3.77113484E-06
  3.79582462E-06  9.20998121E-02  1.19702088E-01  1.86161800E-02 -2.05521413E-02
 -1.05134165E-05 -1.04645406E-05 -2.09890158E-02 -3.49580603E-02  2.02140800E-01
 -1.15232153E-04 -1.15469258E-04  1.02098019E-01  2.91945901E-01 -1.65654451E-04
 -1.65993235E-04  1.71241686E-01  2.22321788E-01 -1.04489986E-04 -1.04635266E-04
  1.81381471E-02 -3.04317287E-02  1.22550681E-05  1.22352058E-05  5.84923413E-03
  2.32436886E-05  7.19742810E-04 -1.01330036E-02  2.31601659E-05  1.37505785E-03
  3.94540342E-03 -8.67445551E-03 -1.49109223E-02  2.68188631E-02  5.18798366E-02
  1.65760849E-02  9.46997968E-03 -3.10018640E-06 -3.09302463E-06  5.12385400E-02
  1.53883658E-05  1.53905639E-05  9.98335372E-02  3.03029568E-05  3.03054365E-05
 -1.41265629E-01 -4.87748603E-05 -4.87709783E-05 -2.45192196E-01 -6.13261072E-05
 -6.13832431E-05 -8.16659079E-02 -2.06879837E-05 -2.07560562E-05  5.13036831E-03
 -3.89292103E-05  8.57665729E-04 -8.88823234E-03 -3.90954442E-05 -1.34725594E-01
 -1.69906331E-01 -9.24578729E-02 -2.15541552E-02  1.11137061E-05  1.12054817E-05
 -8.79629138E-02 -1.47965361E-01 -3.60585421E-02  1.77002011E-02  7.89657738E-06
  7.85144874E-06  3.30516369E-02  5.52758022E-02 -1.44271520E-01  2.47666693E-04
  2.57763223E-04 -1.65892687E-01 -2.02715381E-01  3.61643936E-04  3.76390147E-04
 -2.43348633E-01 -2.09090453E-01  3.29069483E-04  3.42616707E-04 -1.72487745E-01
 -4.59598030E-02  9.05241195E-05  9.30745779E-05 -6.57349488E-03 -2.45991375E-05
 -8.97554965E-04  1.13879141E-02 -2.42180744E-05  1.46542162E-02  4.19618463E-02
 -9.10423830E-02 -1.63710406E-01  3.01388744E-01  3.89823599E-01  5.69845129E-02
  1.51865629E-02  1.35392643E-05  1.30398078E-05  6.18753700E-02  4.72817084E-05
  4.55660769E-05  1.20377324E-01  9.15884418E-05  8.82814588E-05 -1.79825145E-01
 -1.37285842E-04 -1.32469392E-04 -3.09765768E-01 -2.39850100E-04 -2.30131799E-04
 -1.70493245E-01 -1.14779528E-04 -1.10825975E-04  3.77788828E-02 -8.06332273E-05
  8.32491649E-03 -6.54561282E-02 -8.05612800E-05  1.00296128E-01  1.27822673E-01
  1.01056313E-01  8.70862535E-03  1.12431044E-05  1.22810825E-05 -1.39356665E-01
 -2.90781600E-01 -1.24586603E-01  2.14445655E-02  7.12857445E-06  7.31549906E-06
 -8.45685998E-07 -1.41448699E-06  4.37937346E-06 -1.92326719E-01  1.92571727E-01
  4.23848252E-06  6.17217898E-06 -2.80903972E-01  2.81261820E-01  6.18553707E-06
  6.50485794E-06 -2.62888225E-01  2.63223122E-01  5.21939467E-06  2.48304549E-06
 -5.58294880E-02  5.59006104E-02  1.83394301E-05 -6.56953582E-03  3.25891978E-10
  1.01234463E-05  6.56117801E-03 -4.08674728E-07 -1.17098928E-06  2.54728812E-06
  4.54891793E-06 -8.28813540E-06 -1.14981245E-05 -1.91488909E-06 -5.37885083E-07
  9.14882372E-03 -9.16048042E-03 -1.65522775E-06  2.78595236E-02 -2.78950090E-02
 -3.21865334E-06  5.36178677E-02 -5.36861620E-02  4.82346432E-06 -7.79035825E-02
  7.80028079E-02  8.33299125E-06 -1.60825687E-01  1.61030536E-01  5.83250431E-06
 -6.92536114E-02  6.93418281E-02  1.58222292E-05 -4.29105877E-03 -1.97434724E-07
  1.16799600E-05  4.28559448E-03 -2.54922243E-06 -3.22874082E-06 -1.94174124E-06
 -1.12804590E-07 -2.10390362E-02  2.10658388E-02  3.80382199E-06  8.08784005E-06
  3.03934752E-06 -5.63794203E-07 -4.36098116E-03  4.36653491E-03  1.01751126E-06
  2.13272913E-06  2.39111613E-04  1.59712215E-01  1.59509051E-01 -1.68664907E-05
  3.52102909E-04  2.38603039E-01  2.38299521E-01  2.00694903E-05  3.83975914E-04
  2.32266711E-01  2.31971250E-01  1.85048809E-04  1.42841105E-04  6.23631309E-02
  6.22838090E-02  1.12350516E-05 -4.73249822E-03  2.06910918E-05 -1.94156957E-05
 -4.73852490E-03 -1.37530161E-05 -3.94679941E-05  8.65042573E-05  1.52524540E-04
 -2.89337956E-04 -3.60506006E-04 -5.63886260E-05  3.12732162E-06 -1.80364285E-02
 -1.80134720E-02  4.26929240E-06 -4.07287453E-02 -4.06768973E-02  7.95244868E-06
 -7.87274014E-02 -7.86271808E-02  3.10440314E-06  1.09145961E-01  1.09007008E-01
 -7.11638475E-05  2.45135378E-01  2.44823332E-01  1.02558734E-04  1.18069056E-01
  1.17918757E-01 -2.47419154E-05 -6.15842600E-03  2.38553578E-05  4.27443710E-05
 -6.16625295E-03 -3.10580283E-05 -3.74380318E-05 -3.31655088E-05  1.66771658E-05
  1.59540404E-02  1.59337465E-02  8.86748359E-05  2.08977256E-04  3.69786691E-05
 -1.92091692E-05  4.87313790E-03  4.86693167E-03 -9.86547071E-08 -1.67235117E-07
  4.57112025E-09  9.18637756E-02 -9.19807086E-02  5.43903974E-07  1.40371793E-09
  1.34001365E-01 -1.34171932E-01  5.59865121E-07 -1.56601426E-07  1.28165499E-01
 -1.28328634E-01  2.26519089E-07  1.91820984E-06  5.37004178E-02 -5.37687818E-02
 -8.22063958E-06  5.54460325E-03  9.81908452E-09 -4.76449965E-06 -5.53755213E-03
 -5.10653734E-09 -1.49887797E-08  3.58025740E-08  4.55684732E-08 -4.45918985E-08
 -4.66220381E-07 -3.57038076E-07 -2.35831123E-07  3.60038521E-02 -3.60497253E-02
 -1.11342303E-07  6.79894058E-02 -6.80760178E-02 -2.16331336E-07  1.30996005E-01
 -1.31162881E-01  3.32315446E-07 -1.94821458E-01  1.95069631E-01  5.96729977E-07
 -3.95905829E-01  3.96410190E-01  1.96127732E-06 -2.33034884E-01  2.33331772E-01