 Entering Gaussian System, Link 0=g16
 Initial command:
 /home/szhao/Apps/g16/l1.exe "/home/szhao/tmp/Gau-12008.inp" -scrdir="/home/szhao/tmp/"
 Default is to use a total of  16 processors:
                               16 via shared-memory
                                1 via Linda
 Entering Link 1 = /home/szhao/Apps/g16/l1.exe PID=     12010.
  
 Copyright (c) 1988,1990,1992,1993,1995,1998,2003,2009,2016,
            Gaussian, Inc.  All Rights Reserved.
  
 This is part of the Gaussian(R) 16 program.  It is based on
 the Gaussian(R) 09 system (copyright 2009, Gaussian, Inc.),
 the Gaussian(R) 03 system (copyright 2003, Gaussian, Inc.),
 the Gaussian(R) 98 system (copyright 1998, Gaussian, Inc.),
 the Gaussian(R) 94 system (copyright 1995, Gaussian, Inc.),
 the Gaussian 92(TM) system (copyright 1992, Gaussian, Inc.),
 the Gaussian 90(TM) system (copyright 1990, Gaussian, Inc.),
 the Gaussian 88(TM) system (copyright 1988, Gaussian, Inc.),
 the Gaussian 86(TM) system (copyright 1986, Carnegie Mellon
 University), and the Gaussian 82(TM) system (copyright 1983,
 Carnegie Mellon University). Gaussian is a federally registered
 trademark of Gaussian, Inc.
  
 This software contains proprietary and confidential information,
 including trade secrets, belonging to Gaussian, Inc.
  
 This software is provided under written license and may be
 used, copied, transmitted, or stored only in accord with that
 written license.
  
 The following legend is applicable only to US Government
 contracts under FAR:
  
                    RESTRICTED RIGHTS LEGEND
  
 Use, reproduction and disclosure by the US Government is
 subject to restrictions as set forth in subparagraphs (a)
 and (c) of the Commercial Computer Software - Restricted
 Rights clause in FAR 52.227-19.
  
 Gaussian, Inc.
 340 Quinnipiac St., Bldg. 40, Wallingford CT 06492
  
  
 ---------------------------------------------------------------
 Warning -- This program may not be used in any manner that
 competes with the business of Gaussian, Inc. or will provide
 assistance to any competitor of Gaussian, Inc.  The licensee
 of this program is prohibited from giving any competitor of
 Gaussian, Inc. access to this program.  By using this program,
 the user acknowledges that Gaussian, Inc. is engaged in the
 business of creating and licensing software in the field of
 computational chemistry and represents and warrants to the
 licensee that it is not a competitor of Gaussian, Inc. and that
 it will not use this program in any manner prohibited above.
 ---------------------------------------------------------------
  

 Cite this work as:
 Gaussian 16, Revision A.03,
 M. J. Frisch, G. W. Trucks, H. B. Schlegel, G. E. Scuseria, 
 M. A. Robb, J. R. Cheeseman, G. Scalmani, V. Barone, 
 G. A. Petersson, H. Nakatsuji, X. Li, M. Caricato, A. V. Marenich, 
 J. Bloino, B. G. Janesko, R. Gomperts, B. Mennucci, H. P. Hratchian, 
 J. V. Ortiz, A. F. Izmaylov, J. L. Sonnenberg, D. Williams-Young, 
 F. Ding, F. Lipparini, F. Egidi, J. Goings, B. Peng, A. Petrone, 
 T. Henderson, D. Ranasinghe, V. G. Zakrzewski, J. Gao, N. Rega, 
 G. Zheng, W. Liang, M. Hada, M. Ehara, K. Toyota, R. Fukuda, 
 J. Hasegawa, M. Ishida, T. Nakajima, Y. Honda, O. Kitao, H. Nakai, 
 T. Vreven, K. Throssell, J. A. Montgomery, Jr., J. E. Peralta, 
 F. Ogliaro, M. J. Bearpark, J. J. Heyd, E. N. Brothers, K. N. Kudin, 
 V. N. Staroverov, T. A. Keith, R. Kobayashi, J. Normand, 
 K. Raghavachari, A. P. Rendell, J. C. Burant, S. S. Iyengar, 
 J. Tomasi, M. Cossi, J. M. Millam, M. Klene, C. Adamo, R. Cammi, 
 J. W. Ochterski, R. L. Martin, K. Morokuma, O. Farkas, 
 J. B. Foresman, and D. J. Fox, Gaussian, Inc., Wallingford CT, 2016.
 
 ******************************************
 Gaussian 16:  ES64L-G16RevA.03 25-Dec-2016
                15-May-2025 
 ******************************************
 %chk=opt.chk
 %mem=4GB
 %nprocshared=8
 Will use up to    8 processors via shared memory.
 --------------------------------------------
 #p opt UM062X/6-311+G** nosymm int=superfine
 --------------------------------------------
 1/18=20,19=15,26=5,38=1/1,3;
 2/9=110,12=2,15=1,17=6,18=5,40=1/2;
 3/5=4,6=6,7=111,11=2,25=1,30=1,71=1,74=-55,75=-7,116=2/1,2,3;
 4//1;
 5/5=2,38=5/2;
 6/7=2,8=2,9=2,10=2,28=1/1;
 7/30=1/1,2,3,16;
 1/18=20,19=15,26=5/3(2);
 2/9=110,15=1/2;
 99//99;
 2/9=110,15=1/2;
 3/5=4,6=6,7=111,11=2,25=1,30=1,71=1,74=-55,75=-7,116=2/1,2,3;
 4/5=5,16=3,69=1/1;
 5/5=2,38=5/2;
 7/30=1/1,2,3,16;
 1/18=20,19=15,26=5/3(-5);
 2/9=110,15=1/2;
 6/7=2,8=2,9=2,10=2,19=2,28=1/1;
 99/9=1/99;
 Leave Link    1 at Thu May 15 12:56:11 2025, MaxMem=   536870912 cpu:               0.4 elap:               0.0
 (Enter /home/szhao/Apps/g16/l101.exe)
 -------------------
 Title Card Required
 -------------------
 Symbolic Z-matrix:
 Charge =  0 Multiplicity = 1
 O                    -1   -1.18939   0.        0. 
 S                    -1    1.18939   0.        0. 
 H                    0    -1.49108  -0.91347   0. 
 H                    0     1.36576   0.08294   1.33262 
 
 Add virtual bond connecting atoms S2         and O1         Dist= 4.50D+00.
 ITRead=  2  2  0  0
 MicOpt= -2 -2 -1 -1
 NAtoms=      4 NQM=        2 NQMF=       2 NMMI=      0 NMMIF=      0
                NMic=       0 NMicF=      0.
                    Isotopes and Nuclear Properties:
 (Nuclear quadrupole moments (NQMom) in fm**2, nuclear magnetic moments (NMagM)
  in nuclear magnetons)

  Atom         1           2           3           4
 IAtWgt=          16          32           1           1
 AtmWgt=  15.9949146  31.9720718   1.0078250   1.0078250
 NucSpn=           0           0           1           1
 AtZEff=  -0.0000000  -0.0000000  -0.0000000  -0.0000000
 NQMom=    0.0000000   0.0000000   0.0000000   0.0000000
 NMagM=    0.0000000   0.0000000   2.7928460   2.7928460
 AtZNuc=   8.0000000  16.0000000   1.0000000   1.0000000
 Leave Link  101 at Thu May 15 12:56:12 2025, MaxMem=   536870912 cpu:               2.2 elap:               0.3
 (Enter /home/szhao/Apps/g16/l103.exe)

 GradGradGradGradGradGradGradGradGradGradGradGradGradGradGradGradGradGrad
 Berny optimization.
 Initialization pass.
                           ----------------------------
                           !    Initial Parameters    !
                           ! (Angstroms and Degrees)  !
 --------------------------                            --------------------------
 ! Name  Definition              Value          Derivative Info.                !
 --------------------------------------------------------------------------------
 ! X1    R(1,-1)                -1.1894         Frozen                          !
 ! Y1    R(1,-2)                 0.0            Frozen                          !
 ! Z1    R(1,-3)                 0.0            Frozen                          !
 ! X2    R(2,-1)                 1.1894         Frozen                          !
 ! Y2    R(2,-2)                 0.0            Frozen                          !
 ! Z2    R(2,-3)                 0.0            Frozen                          !
 ! R1    R(1,3)                  0.962          estimate D2E/DX2                !
 ! R2    R(2,4)                  1.3468         estimate D2E/DX2                !
 ! A1    A(2,1,3)              108.2769         estimate D2E/DX2                !
 ! A2    A(1,2,4)               97.5247         estimate D2E/DX2                !
 ! D1    D(3,1,2,4)            -93.5613         estimate D2E/DX2                !
 --------------------------------------------------------------------------------
 Trust Radius=3.00D-01 FncErr=1.00D-07 GrdErr=1.00D-07 EigMax=2.50D+02 EigMin=1.00D-04
 Number of steps in this run=     21 maximum allowed number of steps=    100.
 GradGradGradGradGradGradGradGradGradGradGradGradGradGradGradGradGradGrad

 Leave Link  103 at Thu May 15 12:56:12 2025, MaxMem=   536870912 cpu:               0.1 elap:               0.0
 (Enter /home/szhao/Apps/g16/l202.exe)
                          Input orientation:                          
 ---------------------------------------------------------------------
 Center     Atomic      Atomic             Coordinates (Angstroms)
 Number     Number       Type             X           Y           Z
 ---------------------------------------------------------------------
      1          8           0       -1.189392    0.000000    0.000000
      2         16           0        1.189392    0.000000    0.000000
      3          1           0       -1.491084   -0.913468    0.000000
      4          1           0        1.365760    0.082939    1.332622
 ---------------------------------------------------------------------
                    Distance matrix (angstroms):
                    1          2          3          4
     1  O    0.000000
     2  S    2.378783   0.000000
     3  H    0.961999   2.831850   0.000000
     4  H    2.882977   1.346798   3.306095   0.000000
 Symmetry turned off by external request.
 Stoichiometry    H2OS
 Framework group  C1[X(H2OS)]
 Deg. of freedom     6
 Full point group                 C1      NOp   1
 Rotational constants (GHZ):         201.4423720           7.6921976           7.5811809
 Leave Link  202 at Thu May 15 12:56:12 2025, MaxMem=   536870912 cpu:               0.0 elap:               0.0
 (Enter /home/szhao/Apps/g16/l301.exe)
 Standard basis: 6-311+G(d,p) (5D, 7F)
 Ernie: Thresh=  0.10000D-02 Tol=  0.10000D-05 Strict=F.
    64 basis functions,   102 primitive gaussians,    66 cartesian basis functions
    13 alpha electrons       13 beta electrons
       nuclear repulsion energy        43.7801346495 Hartrees.
 IExCor= 4336 DFT=T Ex+Corr=M062X ExCW=0 ScaHFX=  0.540000
 ScaDFX=  1.000000  1.000000  1.000000  1.000000 ScalE2=  1.000000  1.000000
 IRadAn=      7 IRanWt=     -1 IRanGd=            0 ICorTp=0 IEmpDi=  4
 NAtoms=    4 NActive=    4 NUniq=    4 SFac= 1.00D+00 NAtFMM=   60 NAOKFM=F Big=F
 Integral buffers will be    131072 words long.
 Raffenetti 2 integral format.
 Two-electron integral symmetry is turned off.
 Leave Link  301 at Thu May 15 12:56:12 2025, MaxMem=   536870912 cpu:               0.3 elap:               0.0
 (Enter /home/szhao/Apps/g16/l302.exe)
 NPDir=0 NMtPBC=     1 NCelOv=     1 NCel=       1 NClECP=     1 NCelD=      1
         NCelK=      1 NCelE2=     1 NClLst=     1 CellRange=     0.0.
 One-electron integrals computed using PRISM.
 NBasis=    64 RedAO= T EigKep=  5.24D-03  NBF=    64
 NBsUse=    64 1.00D-06 EigRej= -1.00D+00 NBFU=    64
 Precomputing XC quadrature grid using
 IXCGrd= 4 IRadAn=           7 IRanWt=          -1 IRanGd=           0 AccXCQ= 0.00D+00.
 Generated NRdTot=       0 NPtTot=           0 NUsed=           0 NTot=          32
 NSgBfM=    66    66    66    66    66 MxSgAt=     4 MxSgA2=     4.
 Leave Link  302 at Thu May 15 12:56:12 2025, MaxMem=   536870912 cpu:               0.9 elap:               0.1
 (Enter /home/szhao/Apps/g16/l303.exe)
 DipDrv:  MaxL=1.
 Leave Link  303 at Thu May 15 12:56:12 2025, MaxMem=   536870912 cpu:               0.4 elap:               0.1
 (Enter /home/szhao/Apps/g16/l401.exe)
 ExpMin= 4.05D-02 ExpMax= 9.34D+04 ExpMxC= 3.17D+03 IAcc=3 IRadAn=         7 AccDes= 0.00D+00
 Harris functional with IExCor= 1009 and IRadAn=       7 diagonalized for initial guess.
 HarFok:  IExCor= 1009 AccDes= 0.00D+00 IRadAn=         7 IDoV= 1 UseB2=F ITyADJ=14
 ICtDFT=  3500011 ScaDFX=  1.000000  1.000000  1.000000  1.000000
 FoFCou: FMM=F IPFlag=           0 FMFlag=      100000 FMFlg1=           0
         NFxFlg=           0 DoJE=T BraDBF=F KetDBF=T FulRan=T
         wScrn=  0.000000 ICntrl=       500 IOpCl=  0 I1Cent=   200000004 NGrid=           0
         NMat0=    1 NMatS0=      1 NMatT0=    0 NMatD0=    1 NMtDS0=    0 NMtDT0=    0
 Symmetry not used in FoFCou.
 Harris En= -474.308529931931    
 JPrj=0 DoOrth=F DoCkMO=F.
 Initial guess <Sx>= 0.0000 <Sy>= 0.0000 <Sz>= 0.0000 <S**2>=-0.0000 S=-0.0000
 Leave Link  401 at Thu May 15 12:56:12 2025, MaxMem=   536870912 cpu:               1.7 elap:               0.2
 (Enter /home/szhao/Apps/g16/l502.exe)
 Keep R1 and R2 ints in memory in canonical form, NReq=11470672.
 FoFCou: FMM=F IPFlag=           0 FMFlag=           0 FMFlg1=           0
         NFxFlg=           0 DoJE=F BraDBF=F KetDBF=F FulRan=T
         wScrn=  0.000000 ICntrl=       600 IOpCl=  0 I1Cent=           0 NGrid=           0
         NMat0=    1 NMatS0=   2080 NMatT0=    0 NMatD0=    1 NMtDS0=    0 NMtDT0=    0
 Symmetry not used in FoFCou.
 Two-electron integral symmetry not used.
 UHF open shell SCF:
 Using DIIS extrapolation, IDIIS=  1040.
 NGot=   536870912 LenX=   532532582 LenY=   532527785
 Requested convergence on RMS density matrix=1.00D-08 within 128 cycles.
 Requested convergence on MAX density matrix=1.00D-06.
 Requested convergence on             energy=1.00D-06.
 No special actions if energy rises.

 Cycle   1  Pass 1  IDiag  1:
 E= -474.298469276979    
 DIIS: error= 4.22D-02 at cycle   1 NSaved=   1.
 NSaved= 1 IEnMin= 1 EnMin= -474.298469276979     IErMin= 1 ErrMin= 4.22D-02
 ErrMax= 4.22D-02  0.00D+00 EMaxC= 1.00D-01 BMatC= 9.12D-01 BMatP= 9.12D-01
 IDIUse=3 WtCom= 5.78D-01 WtEn= 4.22D-01
 Coeff-Com:  0.100D+01
 Coeff-En:   0.100D+01
 Coeff:      0.100D+01
 Gap=     0.272 Goal=   None    Shift=    0.000
 Gap=     0.272 Goal=   None    Shift=    0.000
 GapD=    0.272 DampG=1.000 DampE=0.500 DampFc=0.5000 IDamp=-1.
 Damping current iteration by 5.00D-01
 RMSDP=1.31D-02 MaxDP=2.92D-01              OVMax= 6.45D-01

 Cycle   2  Pass 1  IDiag  1:
 E= -474.259907767552     Delta-E=        0.038561509427 Rises=F Damp=T
 DIIS: error= 2.36D-02 at cycle   2 NSaved=   2.
 NSaved= 2 IEnMin= 1 EnMin= -474.298469276979     IErMin= 2 ErrMin= 2.36D-02
 ErrMax= 2.36D-02  0.00D+00 EMaxC= 1.00D-01 BMatC= 3.12D-01 BMatP= 9.12D-01
 IDIUse=3 WtCom= 7.64D-01 WtEn= 2.36D-01
 Coeff-Com:  0.342D+00 0.658D+00
 Coeff-En:   0.559D+00 0.441D+00
 Coeff:      0.393D+00 0.607D+00
 Gap=     0.183 Goal=   None    Shift=    0.000
 Gap=     0.183 Goal=   None    Shift=    0.000
 RMSDP=4.29D-03 MaxDP=7.53D-02 DE= 3.86D-02 OVMax= 4.64D-01

 Cycle   3  Pass 1  IDiag  1:
 E= -474.472910356146     Delta-E=       -0.213002588595 Rises=F Damp=F
 DIIS: error= 5.05D-03 at cycle   3 NSaved=   3.
 NSaved= 3 IEnMin= 3 EnMin= -474.472910356146     IErMin= 3 ErrMin= 5.05D-03
 ErrMax= 5.05D-03  0.00D+00 EMaxC= 1.00D-01 BMatC= 6.91D-03 BMatP= 3.12D-01
 IDIUse=3 WtCom= 9.49D-01 WtEn= 5.05D-02
 Coeff-Com:  0.313D-02 0.890D-01 0.908D+00
 Coeff-En:   0.000D+00 0.000D+00 0.100D+01
 Coeff:      0.298D-02 0.845D-01 0.912D+00
 Gap=     0.208 Goal=   None    Shift=    0.000
 Gap=     0.208 Goal=   None    Shift=    0.000
 RMSDP=9.82D-04 MaxDP=2.56D-02 DE=-2.13D-01 OVMax= 6.04D-02

 Cycle   4  Pass 1  IDiag  1:
 E= -474.474802644145     Delta-E=       -0.001892287999 Rises=F Damp=F
 DIIS: error= 3.10D-03 at cycle   4 NSaved=   4.
 NSaved= 4 IEnMin= 4 EnMin= -474.474802644145     IErMin= 4 ErrMin= 3.10D-03
 ErrMax= 3.10D-03  0.00D+00 EMaxC= 1.00D-01 BMatC= 4.87D-03 BMatP= 6.91D-03
 IDIUse=3 WtCom= 9.69D-01 WtEn= 3.10D-02
 Coeff-Com:  0.199D-01-0.593D-01 0.189D+00 0.851D+00
 Coeff-En:   0.000D+00 0.000D+00 0.244D+00 0.756D+00
 Coeff:      0.193D-01-0.574D-01 0.190D+00 0.848D+00
 Gap=     0.207 Goal=   None    Shift=    0.000
 Gap=     0.207 Goal=   None    Shift=    0.000
 RMSDP=3.60D-04 MaxDP=6.86D-03 DE=-1.89D-03 OVMax= 9.96D-03

 Cycle   5  Pass 1  IDiag  1:
 E= -474.475954256826     Delta-E=       -0.001151612681 Rises=F Damp=F
 DIIS: error= 1.00D-03 at cycle   5 NSaved=   5.
 NSaved= 5 IEnMin= 5 EnMin= -474.475954256826     IErMin= 5 ErrMin= 1.00D-03
 ErrMax= 1.00D-03  0.00D+00 EMaxC= 1.00D-01 BMatC= 4.23D-04 BMatP= 4.87D-03
 IDIUse=3 WtCom= 9.90D-01 WtEn= 1.00D-02
 Coeff-Com:  0.846D-02-0.228D-01 0.431D-01 0.384D-01 0.933D+00
 Coeff-En:   0.000D+00 0.000D+00 0.000D+00 0.000D+00 0.100D+01
 Coeff:      0.837D-02-0.226D-01 0.427D-01 0.380D-01 0.933D+00
 Gap=     0.205 Goal=   None    Shift=    0.000
 Gap=     0.205 Goal=   None    Shift=    0.000
 RMSDP=8.56D-05 MaxDP=9.26D-04 DE=-1.15D-03 OVMax= 2.41D-03

 Cycle   6  Pass 1  IDiag  1:
 E= -474.476034059475     Delta-E=       -0.000079802649 Rises=F Damp=F
 DIIS: error= 3.77D-04 at cycle   6 NSaved=   6.
 NSaved= 6 IEnMin= 6 EnMin= -474.476034059475     IErMin= 6 ErrMin= 3.77D-04
 ErrMax= 3.77D-04  0.00D+00 EMaxC= 1.00D-01 BMatC= 7.07D-05 BMatP= 4.23D-04
 IDIUse=3 WtCom= 9.96D-01 WtEn= 3.77D-03
 Coeff-Com:  0.313D-02-0.298D-02 0.476D-02-0.108D+00 0.252D+00 0.852D+00
 Coeff-En:   0.000D+00 0.000D+00 0.000D+00 0.000D+00 0.000D+00 0.100D+01
 Coeff:      0.312D-02-0.297D-02 0.474D-02-0.108D+00 0.251D+00 0.852D+00
 Gap=     0.204 Goal=   None    Shift=    0.000
 Gap=     0.204 Goal=   None    Shift=    0.000
 RMSDP=5.09D-05 MaxDP=9.69D-04 DE=-7.98D-05 OVMax= 1.52D-03

 Cycle   7  Pass 1  IDiag  1:
 E= -474.476052704260     Delta-E=       -0.000018644785 Rises=F Damp=F
 DIIS: error= 4.12D-05 at cycle   7 NSaved=   7.
 NSaved= 7 IEnMin= 7 EnMin= -474.476052704260     IErMin= 7 ErrMin= 4.12D-05
 ErrMax= 4.12D-05  0.00D+00 EMaxC= 1.00D-01 BMatC= 7.95D-07 BMatP= 7.07D-05
 IDIUse=1 WtCom= 1.00D+00 WtEn= 0.00D+00
 Coeff-Com: -0.185D-03 0.402D-03 0.259D-03-0.681D-02-0.268D-01-0.209D-01
 Coeff-Com:  0.105D+01
 Coeff:     -0.185D-03 0.402D-03 0.259D-03-0.681D-02-0.268D-01-0.209D-01
 Coeff:      0.105D+01
 Gap=     0.204 Goal=   None    Shift=    0.000
 Gap=     0.204 Goal=   None    Shift=    0.000
 RMSDP=1.02D-05 MaxDP=1.10D-04 DE=-1.86D-05 OVMax= 3.57D-04

 Cycle   8  Pass 1  IDiag  1:
 E= -474.476053069335     Delta-E=       -0.000000365075 Rises=F Damp=F
 DIIS: error= 7.05D-06 at cycle   8 NSaved=   8.
 NSaved= 8 IEnMin= 8 EnMin= -474.476053069335     IErMin= 8 ErrMin= 7.05D-06
 ErrMax= 7.05D-06  0.00D+00 EMaxC= 1.00D-01 BMatC= 3.16D-08 BMatP= 7.95D-07
 IDIUse=1 WtCom= 1.00D+00 WtEn= 0.00D+00
 Coeff-Com: -0.135D-03 0.133D-03-0.601D-04 0.571D-02-0.128D-01-0.504D-01
 Coeff-Com:  0.752D-01 0.982D+00
 Coeff:     -0.135D-03 0.133D-03-0.601D-04 0.571D-02-0.128D-01-0.504D-01
 Coeff:      0.752D-01 0.982D+00
 Gap=     0.204 Goal=   None    Shift=    0.000
 Gap=     0.204 Goal=   None    Shift=    0.000
 RMSDP=4.16D-06 MaxDP=5.96D-05 DE=-3.65D-07 OVMax= 2.09D-04

 Cycle   9  Pass 1  IDiag  1:
 E= -474.476053119091     Delta-E=       -0.000000049756 Rises=F Damp=F
 DIIS: error= 3.41D-06 at cycle   9 NSaved=   9.
 NSaved= 9 IEnMin= 9 EnMin= -474.476053119091     IErMin= 9 ErrMin= 3.41D-06
 ErrMax= 3.41D-06  0.00D+00 EMaxC= 1.00D-01 BMatC= 8.36D-09 BMatP= 3.16D-08
 IDIUse=1 WtCom= 1.00D+00 WtEn= 0.00D+00
 Coeff-Com:  0.114D-04 0.178D-04-0.183D-03-0.479D-03 0.276D-02 0.120D-01
 Coeff-Com: -0.182D+00-0.704D-02 0.117D+01
 Coeff:      0.114D-04 0.178D-04-0.183D-03-0.479D-03 0.276D-02 0.120D-01
 Coeff:     -0.182D+00-0.704D-02 0.117D+01
 Gap=     0.204 Goal=   None    Shift=    0.000
 Gap=     0.204 Goal=   None    Shift=    0.000
 RMSDP=3.24D-06 MaxDP=5.08D-05 DE=-4.98D-08 OVMax= 1.75D-04

 Cycle  10  Pass 1  IDiag  1:
 E= -474.476053138995     Delta-E=       -0.000000019904 Rises=F Damp=F
 DIIS: error= 2.70D-06 at cycle  10 NSaved=  10.
 NSaved=10 IEnMin=10 EnMin= -474.476053138995     IErMin=10 ErrMin= 2.70D-06
 ErrMax= 2.70D-06  0.00D+00 EMaxC= 1.00D-01 BMatC= 2.15D-09 BMatP= 8.36D-09
 IDIUse=1 WtCom= 1.00D+00 WtEn= 0.00D+00
 Coeff-Com:  0.240D-04-0.556D-04 0.950D-04-0.763D-03 0.330D-02 0.673D-02
 Coeff-Com:  0.418D-01-0.230D+00-0.349D+00 0.153D+01
 Coeff:      0.240D-04-0.556D-04 0.950D-04-0.763D-03 0.330D-02 0.673D-02
 Coeff:      0.418D-01-0.230D+00-0.349D+00 0.153D+01
 Gap=     0.204 Goal=   None    Shift=    0.000
 Gap=     0.204 Goal=   None    Shift=    0.000
 RMSDP=2.25D-06 MaxDP=3.57D-05 DE=-1.99D-08 OVMax= 1.26D-04

 Cycle  11  Pass 1  IDiag  1:
 E= -474.476053144737     Delta-E=       -0.000000005742 Rises=F Damp=F
 DIIS: error= 8.48D-07 at cycle  11 NSaved=  11.
 NSaved=11 IEnMin=11 EnMin= -474.476053144737     IErMin=11 ErrMin= 8.48D-07
 ErrMax= 8.48D-07  0.00D+00 EMaxC= 1.00D-01 BMatC= 4.43D-10 BMatP= 2.15D-09
 IDIUse=1 WtCom= 1.00D+00 WtEn= 0.00D+00
 Coeff-Com:  0.444D-06-0.496D-05 0.500D-04 0.218D-03-0.118D-02-0.420D-02
 Coeff-Com:  0.249D-01 0.210D-01-0.775D-01-0.265D+00 0.130D+01
 Coeff:      0.444D-06-0.496D-05 0.500D-04 0.218D-03-0.118D-02-0.420D-02
 Coeff:      0.249D-01 0.210D-01-0.775D-01-0.265D+00 0.130D+01
 Gap=     0.204 Goal=   None    Shift=    0.000
 Gap=     0.204 Goal=   None    Shift=    0.000
 RMSDP=6.54D-07 MaxDP=9.27D-06 DE=-5.74D-09 OVMax= 3.21D-05

 Cycle  12  Pass 1  IDiag  1:
 E= -474.476053145251     Delta-E=       -0.000000000514 Rises=F Damp=F
 DIIS: error= 2.51D-07 at cycle  12 NSaved=  12.
 NSaved=12 IEnMin=12 EnMin= -474.476053145251     IErMin=12 ErrMin= 2.51D-07
 ErrMax= 2.51D-07  0.00D+00 EMaxC= 1.00D-01 BMatC= 2.83D-11 BMatP= 4.43D-10
 IDIUse=1 WtCom= 1.00D+00 WtEn= 0.00D+00
 Coeff-Com: -0.724D-06 0.292D-05 0.522D-05 0.793D-04-0.474D-03-0.667D-03
 Coeff-Com: -0.296D-02 0.179D-01 0.370D-01-0.164D+00 0.420D-01 0.107D+01
 Coeff:     -0.724D-06 0.292D-05 0.522D-05 0.793D-04-0.474D-03-0.667D-03
 Coeff:     -0.296D-02 0.179D-01 0.370D-01-0.164D+00 0.420D-01 0.107D+01
 Gap=     0.204 Goal=   None    Shift=    0.000
 Gap=     0.204 Goal=   None    Shift=    0.000
 RMSDP=1.33D-07 MaxDP=1.51D-06 DE=-5.14D-10 OVMax= 6.91D-06

 Cycle  13  Pass 1  IDiag  1:
 E= -474.476053145277     Delta-E=       -0.000000000027 Rises=F Damp=F
 DIIS: error= 7.28D-08 at cycle  13 NSaved=  13.
 NSaved=13 IEnMin=13 EnMin= -474.476053145277     IErMin=13 ErrMin= 7.28D-08
 ErrMax= 7.28D-08  0.00D+00 EMaxC= 1.00D-01 BMatC= 1.68D-12 BMatP= 2.83D-11
 IDIUse=1 WtCom= 1.00D+00 WtEn= 0.00D+00
 Coeff-Com: -0.201D-06 0.472D-06-0.650D-05-0.322D-04 0.147D-03 0.466D-03
 Coeff-Com: -0.824D-03-0.602D-02 0.169D-03 0.523D-01-0.115D+00-0.130D+00
 Coeff-Com:  0.120D+01
 Coeff:     -0.201D-06 0.472D-06-0.650D-05-0.322D-04 0.147D-03 0.466D-03
 Coeff:     -0.824D-03-0.602D-02 0.169D-03 0.523D-01-0.115D+00-0.130D+00
 Coeff:      0.120D+01
 Gap=     0.204 Goal=   None    Shift=    0.000
 Gap=     0.204 Goal=   None    Shift=    0.000
 RMSDP=3.42D-08 MaxDP=4.05D-07 DE=-2.67D-11 OVMax= 1.44D-06

 Cycle  14  Pass 1  IDiag  1:
 E= -474.476053145280     Delta-E=       -0.000000000002 Rises=F Damp=F
 DIIS: error= 4.08D-08 at cycle  14 NSaved=  14.
 NSaved=14 IEnMin=14 EnMin= -474.476053145280     IErMin=14 ErrMin= 4.08D-08
 ErrMax= 4.08D-08  0.00D+00 EMaxC= 1.00D-01 BMatC= 5.42D-13 BMatP= 1.68D-12
 IDIUse=1 WtCom= 1.00D+00 WtEn= 0.00D+00
 Coeff-Com: -0.690D-08-0.237D-06-0.522D-06-0.550D-05 0.581D-04 0.422D-04
 Coeff-Com:  0.538D-03-0.220D-02-0.633D-02 0.197D-01 0.820D-02-0.137D+00
 Coeff-Com: -0.395D+00 0.151D+01
 Coeff:     -0.690D-08-0.237D-06-0.522D-06-0.550D-05 0.581D-04 0.422D-04
 Coeff:      0.538D-03-0.220D-02-0.633D-02 0.197D-01 0.820D-02-0.137D+00
 Coeff:     -0.395D+00 0.151D+01
 Gap=     0.204 Goal=   None    Shift=    0.000
 Gap=     0.204 Goal=   None    Shift=    0.000
 RMSDP=2.77D-08 MaxDP=3.42D-07 DE=-2.39D-12 OVMax= 1.11D-06

 Cycle  15  Pass 1  IDiag  1:
 E= -474.476053145281     Delta-E=       -0.000000000001 Rises=F Damp=F
 DIIS: error= 1.17D-08 at cycle  15 NSaved=  15.
 NSaved=15 IEnMin=15 EnMin= -474.476053145281     IErMin=15 ErrMin= 1.17D-08
 ErrMax= 1.17D-08  0.00D+00 EMaxC= 1.00D-01 BMatC= 5.12D-14 BMatP= 5.42D-13
 IDIUse=1 WtCom= 1.00D+00 WtEn= 0.00D+00
 Coeff-Com: -0.177D-07 0.781D-07 0.986D-06 0.491D-05-0.350D-04-0.799D-04
 Coeff-Com:  0.601D-04 0.146D-02 0.314D-03-0.117D-01 0.186D-01 0.508D-01
 Coeff-Com: -0.276D+00-0.713D-01 0.129D+01
 Coeff:     -0.177D-07 0.781D-07 0.986D-06 0.491D-05-0.350D-04-0.799D-04
 Coeff:      0.601D-04 0.146D-02 0.314D-03-0.117D-01 0.186D-01 0.508D-01
 Coeff:     -0.276D+00-0.713D-01 0.129D+01
 Gap=     0.204 Goal=   None    Shift=    0.000
 Gap=     0.204 Goal=   None    Shift=    0.000
 RMSDP=1.26D-08 MaxDP=1.59D-07 DE=-1.36D-12 OVMax= 5.31D-07

 Cycle  16  Pass 1  IDiag  1:
 E= -474.476053145281     Delta-E=        0.000000000000 Rises=F Damp=F
 DIIS: error= 1.48D-09 at cycle  16 NSaved=  16.
 NSaved=16 IEnMin=15 EnMin= -474.476053145281     IErMin=16 ErrMin= 1.48D-09
 ErrMax= 1.48D-09  0.00D+00 EMaxC= 1.00D-01 BMatC= 1.28D-15 BMatP= 5.12D-14
 IDIUse=1 WtCom= 1.00D+00 WtEn= 0.00D+00
 Large coefficients: NSaved= 16 BigCof=    0.00 CofMax=   10.00 Det=-4.53D-15
 Inversion failed.  Reducing to 15 matrices.
 Coeff-Com:  0.565D-08 0.828D-07 0.422D-06-0.273D-05-0.432D-05-0.316D-04
 Coeff-Com:  0.173D-03 0.303D-03-0.131D-02 0.437D-03 0.102D-01-0.564D-02
 Coeff-Com: -0.607D-01 0.625D-01 0.994D+00
 Coeff:      0.565D-08 0.828D-07 0.422D-06-0.273D-05-0.432D-05-0.316D-04
 Coeff:      0.173D-03 0.303D-03-0.131D-02 0.437D-03 0.102D-01-0.564D-02
 Coeff:     -0.607D-01 0.625D-01 0.994D+00
 Gap=     0.204 Goal=   None    Shift=    0.000
 Gap=     0.204 Goal=   None    Shift=    0.000
 RMSDP=1.26D-09 MaxDP=2.01D-08 DE= 0.00D+00 OVMax= 6.86D-08

 SCF Done:  E(UM062X) =  -474.476053145     A.U. after   16 cycles
            NFock= 16  Conv=0.13D-08     -V/T= 2.0021
 <Sx>= 0.0000 <Sy>= 0.0000 <Sz>= 0.0000 <S**2>=-0.0000 S=-0.0000
 <L.S>=  0.00000000000    
 KE= 4.734959355829D+02 PE=-1.214942414913D+03 EE= 2.231902915352D+02
 Annihilation of the first spin contaminant:
 S**2 before annihilation     0.0000,   after    -0.0000
 Leave Link  502 at Thu May 15 12:56:17 2025, MaxMem=   536870912 cpu:              39.0 elap:               5.0
 (Enter /home/szhao/Apps/g16/l601.exe)
 Copying SCF densities to generalized density rwf, IOpCl= 1 IROHF=0.

 **********************************************************************

            Population analysis using the SCF density.

 **********************************************************************

 Alpha  occ. eigenvalues --  -89.97240 -19.66777  -8.33238  -6.25454  -6.25085
 Alpha  occ. eigenvalues --   -6.24533  -1.08922  -0.83029  -0.53351  -0.48936
 Alpha  occ. eigenvalues --   -0.39977  -0.39221  -0.34580
 Alpha virt. eigenvalues --   -0.14165   0.01582   0.04425   0.04884   0.05892
 Alpha virt. eigenvalues --    0.07544   0.14704   0.19890   0.20113   0.22650
 Alpha virt. eigenvalues --    0.27023   0.31767   0.33986   0.35345   0.40387
 Alpha virt. eigenvalues --    0.55472   0.61931   0.71986   0.72479   0.79462
 Alpha virt. eigenvalues --    0.80957   0.97657   1.05286   1.08804   1.14867
 Alpha virt. eigenvalues --    1.38716   1.40149   1.42232   1.46733   1.49267
 Alpha virt. eigenvalues --    1.65619   1.67053   1.80043   2.07751   2.10175
 Alpha virt. eigenvalues --    2.50238   2.54904   2.89812   2.92602   3.17892
 Alpha virt. eigenvalues --    3.19782   3.85938   5.06170   5.08043   5.55914
 Alpha virt. eigenvalues --    7.85334  17.41481  17.45498  17.46719  49.89670
 Alpha virt. eigenvalues --  189.11758
  Beta  occ. eigenvalues --  -89.97240 -19.66777  -8.33238  -6.25454  -6.25085
  Beta  occ. eigenvalues --   -6.24533  -1.08922  -0.83029  -0.53351  -0.48936
  Beta  occ. eigenvalues --   -0.39977  -0.39221  -0.34580
  Beta virt. eigenvalues --   -0.14165   0.01582   0.04425   0.04884   0.05892
  Beta virt. eigenvalues --    0.07544   0.14704   0.19890   0.20113   0.22650
  Beta virt. eigenvalues --    0.27023   0.31767   0.33986   0.35345   0.40387
  Beta virt. eigenvalues --    0.55472   0.61931   0.71986   0.72479   0.79462
  Beta virt. eigenvalues --    0.80957   0.97657   1.05286   1.08804   1.14867
  Beta virt. eigenvalues --    1.38716   1.40149   1.42232   1.46733   1.49267
  Beta virt. eigenvalues --    1.65619   1.67053   1.80043   2.07751   2.10175
  Beta virt. eigenvalues --    2.50238   2.54904   2.89812   2.92602   3.17892
  Beta virt. eigenvalues --    3.19782   3.85938   5.06170   5.08043   5.55914
  Beta virt. eigenvalues --    7.85334  17.41481  17.45498  17.46719  49.89670
  Beta virt. eigenvalues --  189.11758
          Condensed to atoms (all electrons):
               1          2          3          4
     1  O    8.098837   0.107073   0.262331  -0.006187
     2  S    0.107073  15.531709   0.000818   0.256204
     3  H    0.262331   0.000818   0.475192  -0.000810
     4  H   -0.006187   0.256204  -0.000810   0.655403
          Atomic-Atomic Spin Densities.
               1          2          3          4
     1  O    0.000000   0.000000  -0.000000  -0.000000
     2  S    0.000000  -0.000000  -0.000000  -0.000000
     3  H   -0.000000  -0.000000   0.000000   0.000000
     4  H   -0.000000  -0.000000   0.000000   0.000000
 Mulliken charges and spin densities:
               1          2
     1  O   -0.462054   0.000000
     2  S    0.104195  -0.000000
     3  H    0.262469  -0.000000
     4  H    0.095390   0.000000
 Sum of Mulliken charges =  -0.00000   0.00000
 Mulliken charges and spin densities with hydrogens summed into heavy atoms:
               1          2
     1  O   -0.199585   0.000000
     2  S    0.199585  -0.000000
 Electronic spatial extent (au):  <R**2>=            186.5287
 Charge=              0.0000 electrons
 Dipole moment (field-independent basis, Debye):
    X=              1.5773    Y=             -1.5132    Z=              1.1306  Tot=              2.4609
 Quadrupole moment (field-independent basis, Debye-Ang):
   XX=            -16.8167   YY=            -20.2105   ZZ=            -18.5741
   XY=              3.0834   XZ=              1.8616   YZ=              0.2624
 Traceless Quadrupole moment (field-independent basis, Debye-Ang):
   XX=              1.7170   YY=             -1.6767   ZZ=             -0.0404
   XY=              3.0834   XZ=              1.8616   YZ=              0.2624
 Octapole moment (field-independent basis, Debye-Ang**2):
  XXX=            -20.9647  YYY=             -0.1190  ZZZ=             -0.6238  XYY=            -13.0593
  XXY=             -3.2493  XXZ=              1.8639  XZZ=             -4.7920  YZZ=              0.5327
  YYZ=             -0.7843  XYZ=              0.3243
 Hexadecapole moment (field-independent basis, Debye-Ang**3):
 XXXX=           -171.4971 YYYY=            -28.7199 ZZZZ=            -26.1446 XXXY=              6.1469
 XXXZ=              1.2324 YYYX=              1.0171 YYYZ=              0.0282 ZZZX=             -0.2819
 ZZZY=              0.2592 XXYY=            -36.4762 XXZZ=            -34.6501 YYZZ=            -10.0469
 XXYZ=              0.4279 YYXZ=             -0.9441 ZZXY=             -0.2827
 N-N= 4.378013464954D+01 E-N=-1.214942414907D+03  KE= 4.734959355829D+02
                          Isotropic Fermi Contact Couplings
        Atom                 a.u.       MegaHertz       Gauss      10(-4) cm-1
     1  O(17)             -0.00000       0.00000       0.00000       0.00000
     2  S(33)              0.00000       0.00000       0.00000       0.00000
     3  H(1)              -0.00000      -0.00000      -0.00000      -0.00000
     4  H(1)               0.00000       0.00000       0.00000       0.00000
 --------------------------------------------------------
       Center         ----  Spin Dipole Couplings  ----
                      3XX-RR        3YY-RR        3ZZ-RR
 --------------------------------------------------------
     1   Atom        0.000000      0.000000      0.000000
     2   Atom        0.000000      0.000000      0.000000
     3   Atom        0.000000      0.000000      0.000000
     4   Atom        0.000000      0.000000      0.000000
 --------------------------------------------------------
                        XY            XZ            YZ
 --------------------------------------------------------
     1   Atom        0.000000      0.000000      0.000000
     2   Atom        0.000000      0.000000      0.000000
     3   Atom        0.000000      0.000000      0.000000
     4   Atom        0.000000      0.000000      0.000000
 --------------------------------------------------------


 ---------------------------------------------------------------------------------
              Anisotropic Spin Dipole Couplings in Principal Axis System
 ---------------------------------------------------------------------------------

       Atom             a.u.   MegaHertz   Gauss  10(-4) cm-1        Axes

              Baa     0.0000    -0.000    -0.000    -0.000  1.0000  0.0000  0.0000
     1 O(17)  Bbb     0.0000    -0.000    -0.000    -0.000 -0.0000  1.0000  0.0000
              Bcc     0.0000    -0.000    -0.000    -0.000  0.0000  0.0000  1.0000
 
              Baa     0.0000     0.000     0.000     0.000  1.0000  0.0000  0.0000
     2 S(33)  Bbb     0.0000     0.000     0.000     0.000 -0.0000  1.0000  0.0000
              Bcc     0.0000     0.000     0.000     0.000  0.0000  0.0000  1.0000
 
              Baa     0.0000     0.000     0.000     0.000  1.0000  0.0000  0.0000
     3 H(1)   Bbb     0.0000     0.000     0.000     0.000 -0.0000  1.0000  0.0000
              Bcc     0.0000     0.000     0.000     0.000  0.0000  0.0000  1.0000
 
              Baa     0.0000     0.000     0.000     0.000  1.0000  0.0000  0.0000
     4 H(1)   Bbb     0.0000     0.000     0.000     0.000 -0.0000  1.0000  0.0000
              Bcc     0.0000     0.000     0.000     0.000  0.0000  0.0000  1.0000
 

 ---------------------------------------------------------------------------------

 No NMR shielding tensors so no spin-rotation constants.
 Leave Link  601 at Thu May 15 12:56:17 2025, MaxMem=   536870912 cpu:               0.8 elap:               0.1
 (Enter /home/szhao/Apps/g16/l701.exe)
 ... and contract with generalized density number  0.
 Compute integral first derivatives.
 Leave Link  701 at Thu May 15 12:56:17 2025, MaxMem=   536870912 cpu:               0.6 elap:               0.1
 (Enter /home/szhao/Apps/g16/l702.exe)
 L702 exits ... SP integral derivatives will be done elsewhere.
 Leave Link  702 at Thu May 15 12:56:17 2025, MaxMem=   536870912 cpu:               0.3 elap:               0.0
 (Enter /home/szhao/Apps/g16/l703.exe)
 Integral derivatives from FoFJK, PRISM(SPDF).
 Compute integral first derivatives, UseDBF=F ICtDFT=           0.
 Calling FoFJK, ICntrl=      2127 FMM=F ISym2X=0 I1Cent= 0 IOpClX= 1 NMat=1 NMatS=1 NMatT=0.
 FoFJK:  IHMeth= 1 ICntrl=    2127 DoSepK=F KAlg= 0 I1Cent=           0 FoldK=F
 IRaf=         0 NMat=       1 IRICut=       1 DoRegI=T DoRafI=F ISym2E= 0 IDoP0=0 IntGTp=1.
 FoFCou: FMM=F IPFlag=           0 FMFlag=      100000 FMFlg1=         800
         NFxFlg=           0 DoJE=F BraDBF=F KetDBF=F FulRan=T
         wScrn=  0.000000 ICntrl=      2127 IOpCl=  1 I1Cent=           0 NGrid=           0
         NMat0=    1 NMatS0=      1 NMatT0=    0 NMatD0=    1 NMtDS0=    0 NMtDT0=    0
 Symmetry not used in FoFCou.
 Leave Link  703 at Thu May 15 12:56:18 2025, MaxMem=   536870912 cpu:               4.3 elap:               0.5
 (Enter /home/szhao/Apps/g16/l716.exe)
 Dipole        = 6.20556343D-01-5.95343236D-01 4.44809606D-01
 -------------------------------------------------------------------
 Center     Atomic                   Forces (Hartrees/Bohr)
 Number     Number              X              Y              Z
 -------------------------------------------------------------------
      1        8          -0.000000000   -0.000000000   -0.000000000
      2       16          -0.000000000   -0.000000000   -0.000000000
      3        1           0.010037211   -0.010353670    0.000139014
      4        1          -0.006966426   -0.000014661    0.000789824
 -------------------------------------------------------------------
 Cartesian Forces:  Max     0.010353670 RMS     0.004628882
 Leave Link  716 at Thu May 15 12:56:18 2025, MaxMem=   536870912 cpu:               0.1 elap:               0.0
 (Enter /home/szhao/Apps/g16/l103.exe)

 GradGradGradGradGradGradGradGradGradGradGradGradGradGradGradGradGradGrad
 Berny optimization.
 FormGI is forming the generalized inverse of G from B-inverse, IUseBI=4.
 Internal  Forces:  Max     0.023229063 RMS     0.011144397
 Search for a local minimum.
 Step number   1 out of a maximum of   21
 All quantities printed in internal units (Hartrees-Bohrs-Radians)
 RMS Force = .13436D-01 SwitMx=.10000D-02 MixMth= 1
 Mixed Optimization -- RFO/linear search
 Second derivative matrix not updated -- first step.
 The second derivative matrix:
                          X1        Y1        Z1        X2        Y2
           X1           0.50000
           Y1           0.00000   0.50000
           Z1           0.00000   0.00000   0.50000
           X2           0.00000   0.00000   0.00000   0.50000
           Y2           0.00000   0.00000   0.00000   0.00000   0.50000
           Z2           0.00000   0.00000   0.00000   0.00000   0.00000
           R1           0.00000   0.00000   0.00000   0.00000   0.00000
           R2           0.00000   0.00000   0.00000   0.00000   0.00000
           A1           0.00000   0.00000   0.00000   0.00000   0.00000
           A2           0.00000   0.00000   0.00000   0.00000   0.00000
           D1           0.00000   0.00000   0.00000   0.00000   0.00000
                          Z2        R1        R2        A1        A2
           Z2           0.50000
           R1           0.00000   0.55046
           R2           0.00000   0.00000   0.25886
           A1           0.00000   0.00000   0.00000   0.16000
           A2           0.00000   0.00000   0.00000   0.00000   0.16000
           D1           0.00000   0.00000   0.00000   0.00000   0.00000
                          D1
           D1           0.00230
 ITU=  0
     Eigenvalues ---    0.00230   0.16000   0.16000   0.25886   0.55046
     Eigenvalues --- 1000.000001000.000001000.000001000.000001000.00000
     Eigenvalues --- 1000.00000
 RFO step:  Lambda=-5.27690245D-03 EMin= 2.30000000D-03
 Linear search not attempted -- first point.
 Iteration  1 RMS(Cart)=  0.11233292 RMS(Int)=  0.00694869
 Iteration  2 RMS(Cart)=  0.00735714 RMS(Int)=  0.00001182
 Iteration  3 RMS(Cart)=  0.00002122 RMS(Int)=  0.00000000
 Iteration  4 RMS(Cart)=  0.00000000 RMS(Int)=  0.00000000
 ITry= 1 IFail=0 DXMaxC= 2.74D-01 DCOld= 1.00D+10 DXMaxT= 3.00D-01 DXLimC= 3.00D+00 Rises=F
 Variable       Old X    -DE/DX   Delta X   Delta X   Delta X     New X
                                 (Linear)    (Quad)   (Total)
    X1       -2.24762   0.01004   0.00000   0.00000   0.00000  -2.24762
    Y1        0.00000  -0.01576   0.00000   0.00000   0.00000   0.00000
    Z1        0.00000  -0.00382   0.00000   0.00000   0.00000   0.00000
    X2        2.24762  -0.00697   0.00000   0.00000   0.00000   2.24762
    Y2        0.00000   0.00537   0.00000   0.00000   0.00000   0.00000
    Z2        0.00000   0.00474   0.00000   0.00000   0.00000   0.00000
    R1        1.81791   0.00668   0.00000   0.01203   0.01203   1.82994
    R2        2.54508  -0.00013   0.00000  -0.00050  -0.00050   2.54458
    A1        1.88979  -0.02323   0.00000  -0.14055  -0.14055   1.74924
    A2        1.70213  -0.01784   0.00000  -0.10794  -0.10794   1.59419
    D1       -1.63295   0.00021   0.00000   0.02834   0.02834  -1.60462
         Item               Value     Threshold  Converged?
 Maximum Force            0.023229     0.000450     NO 
 RMS     Force            0.013436     0.000300     NO 
 Maximum Displacement     0.273771     0.001800     NO 
 RMS     Displacement     0.113993     0.001200     NO 
 Predicted change in Energy=-2.723814D-03
 Lowest energy point so far.  Saving SCF results.
 GradGradGradGradGradGradGradGradGradGradGradGradGradGradGradGradGradGrad

 Leave Link  103 at Thu May 15 12:56:18 2025, MaxMem=   536870912 cpu:               0.3 elap:               0.1
 (Enter /home/szhao/Apps/g16/l202.exe)
                          Input orientation:                          
 ---------------------------------------------------------------------
 Center     Atomic      Atomic             Coordinates (Angstroms)
 Number     Number       Type             X           Y           Z
 ---------------------------------------------------------------------
      1          8           0       -1.189392    0.000000    0.000000
      2         16           0        1.189392    0.000000    0.000000
      3          1           0       -1.361276   -0.952873    0.014700
      4          1           0        1.220886    0.066268    1.344534
 ---------------------------------------------------------------------
                    Distance matrix (angstroms):
                    1          2          3          4
     1  O    0.000000
     2  S    2.378783   0.000000
     3  H    0.968363   2.722883   0.000000
     4  H    2.760725   1.346534   3.078095   0.000000
 Symmetry turned off by external request.
 Stoichiometry    H2OS
 Framework group  C1[X(H2OS)]
 Deg. of freedom     6
 Full point group                 C1      NOp   1
 Rotational constants (GHZ):         192.8246149           7.7718278           7.6635577
 Leave Link  202 at Thu May 15 12:56:18 2025, MaxMem=   536870912 cpu:               0.0 elap:               0.0
 (Enter /home/szhao/Apps/g16/l301.exe)
 Standard basis: 6-311+G(d,p) (5D, 7F)
 Ernie: Thresh=  0.10000D-02 Tol=  0.10000D-05 Strict=F.
    64 basis functions,   102 primitive gaussians,    66 cartesian basis functions
    13 alpha electrons       13 beta electrons
       nuclear repulsion energy        43.9489772756 Hartrees.
 IExCor= 4336 DFT=T Ex+Corr=M062X ExCW=0 ScaHFX=  0.540000
 ScaDFX=  1.000000  1.000000  1.000000  1.000000 ScalE2=  1.000000  1.000000
 IRadAn=      7 IRanWt=     -1 IRanGd=            0 ICorTp=0 IEmpDi=  4
 NAtoms=    4 NActive=    4 NUniq=    4 SFac= 1.00D+00 NAtFMM=   60 NAOKFM=F Big=F
 Integral buffers will be    131072 words long.
 Raffenetti 2 integral format.
 Two-electron integral symmetry is turned off.
 Leave Link  301 at Thu May 15 12:56:18 2025, MaxMem=   536870912 cpu:               0.3 elap:               0.0
 (Enter /home/szhao/Apps/g16/l302.exe)
 NPDir=0 NMtPBC=     1 NCelOv=     1 NCel=       1 NClECP=     1 NCelD=      1
         NCelK=      1 NCelE2=     1 NClLst=     1 CellRange=     0.0.
 One-electron integrals computed using PRISM.
 NBasis=    64 RedAO= T EigKep=  5.19D-03  NBF=    64
 NBsUse=    64 1.00D-06 EigRej= -1.00D+00 NBFU=    64
 Precomputing XC quadrature grid using
 IXCGrd= 4 IRadAn=           7 IRanWt=          -1 IRanGd=           0 AccXCQ= 0.00D+00.
 Generated NRdTot=       0 NPtTot=           0 NUsed=           0 NTot=          32
 NSgBfM=    66    66    66    66    66 MxSgAt=     4 MxSgA2=     4.
 Leave Link  302 at Thu May 15 12:56:18 2025, MaxMem=   536870912 cpu:               0.9 elap:               0.1
 (Enter /home/szhao/Apps/g16/l303.exe)
 DipDrv:  MaxL=1.
 Leave Link  303 at Thu May 15 12:56:18 2025, MaxMem=   536870912 cpu:               0.2 elap:               0.0
 (Enter /home/szhao/Apps/g16/l401.exe)
 Initial guess from the checkpoint file:  "opt.chk"
 B after Tr=    -0.000941   -0.007526   -0.001191
         Rot=    0.999993   -0.001188    0.002392   -0.002700 Ang=  -0.44 deg.
 Guess basis will be translated and rotated to current coordinates.
 JPrj=2 DoOrth=T DoCkMO=T.
 Initial guess <Sx>= 0.0000 <Sy>= 0.0000 <Sz>= 0.0000 <S**2>=-0.0000 S=-0.0000
 Generating alternative initial guess.
 ExpMin= 4.05D-02 ExpMax= 9.34D+04 ExpMxC= 3.17D+03 IAcc=3 IRadAn=         5 AccDes= 0.00D+00
 Harris functional with IExCor= 1009 and IRadAn=       5 diagonalized for initial guess.
 HarFok:  IExCor= 1009 AccDes= 0.00D+00 IRadAn=         5 IDoV= 1 UseB2=F ITyADJ=14
 ICtDFT=  3500011 ScaDFX=  1.000000  1.000000  1.000000  1.000000
 FoFCou: FMM=F IPFlag=           0 FMFlag=      100000 FMFlg1=           0
         NFxFlg=           0 DoJE=T BraDBF=F KetDBF=T FulRan=T
         wScrn=  0.000000 ICntrl=       500 IOpCl=  0 I1Cent=   200000004 NGrid=           0
         NMat0=    1 NMatS0=      1 NMatT0=    0 NMatD0=    1 NMtDS0=    0 NMtDT0=    0
 Symmetry not used in FoFCou.
 Harris En= -474.310073650028    
 Leave Link  401 at Thu May 15 12:56:18 2025, MaxMem=   536870912 cpu:               1.3 elap:               0.2
 (Enter /home/szhao/Apps/g16/l502.exe)
 Keep R1 and R2 ints in memory in canonical form, NReq=11470672.
 FoFCou: FMM=F IPFlag=           0 FMFlag=           0 FMFlg1=           0
         NFxFlg=           0 DoJE=F BraDBF=F KetDBF=F FulRan=T
         wScrn=  0.000000 ICntrl=       600 IOpCl=  0 I1Cent=           0 NGrid=           0
         NMat0=    1 NMatS0=   2080 NMatT0=    0 NMatD0=    1 NMtDS0=    0 NMtDT0=    0
 Symmetry not used in FoFCou.
 Two-electron integral symmetry not used.
 UHF open shell SCF:
 Using DIIS extrapolation, IDIIS=  1040.
 NGot=   536870912 LenX=   532532582 LenY=   532527785
 Requested convergence on RMS density matrix=1.00D-08 within 128 cycles.
 Requested convergence on MAX density matrix=1.00D-06.
 Requested convergence on             energy=1.00D-06.
 No special actions if energy rises.

 Cycle   1  Pass 1  IDiag  1:
 E= -474.476306902510    
 DIIS: error= 4.80D-03 at cycle   1 NSaved=   1.
 NSaved= 1 IEnMin= 1 EnMin= -474.476306902510     IErMin= 1 ErrMin= 4.80D-03
 ErrMax= 4.80D-03  0.00D+00 EMaxC= 1.00D-01 BMatC= 7.82D-03 BMatP= 7.82D-03
 IDIUse=3 WtCom= 9.52D-01 WtEn= 4.80D-02
 Coeff-Com:  0.100D+01
 Coeff-En:   0.100D+01
 Coeff:      0.100D+01
 Gap=     0.525 Goal=   None    Shift=    0.000
 Gap=     0.525 Goal=   None    Shift=    0.000
 GapD=    0.525 DampG=2.000 DampE=1.000 DampFc=2.0000 IDamp=-1.
 RMSDP=8.29D-04 MaxDP=7.24D-03              OVMax= 2.29D-02

 Cycle   2  Pass 1  IDiag  1:
 E= -474.479428641602     Delta-E=       -0.003121739092 Rises=F Damp=F
 DIIS: error= 1.26D-03 at cycle   2 NSaved=   2.
 NSaved= 2 IEnMin= 2 EnMin= -474.479428641602     IErMin= 2 ErrMin= 1.26D-03
 ErrMax= 1.26D-03  0.00D+00 EMaxC= 1.00D-01 BMatC= 5.09D-04 BMatP= 7.82D-03
 IDIUse=3 WtCom= 9.87D-01 WtEn= 1.26D-02
 Coeff-Com: -0.871D-01 0.109D+01
 Coeff-En:   0.000D+00 0.100D+01
 Coeff:     -0.860D-01 0.109D+01
 Gap=     0.203 Goal=   None    Shift=    0.000
 Gap=     0.203 Goal=   None    Shift=    0.000
 RMSDP=3.28D-04 MaxDP=4.69D-03 DE=-3.12D-03 OVMax= 1.39D-02

 Cycle   3  Pass 1  IDiag  1:
 E= -474.479415202285     Delta-E=        0.000013439317 Rises=F Damp=F
 DIIS: error= 1.98D-03 at cycle   3 NSaved=   3.
 NSaved= 3 IEnMin= 2 EnMin= -474.479428641602     IErMin= 2 ErrMin= 1.26D-03
 ErrMax= 1.98D-03  0.00D+00 EMaxC= 1.00D-01 BMatC= 1.49D-03 BMatP= 5.09D-04
 IDIUse=3 WtCom= 1.83D-01 WtEn= 8.17D-01
 Coeff-Com: -0.109D+00 0.756D+00 0.353D+00
 Coeff-En:   0.000D+00 0.520D+00 0.480D+00
 Coeff:     -0.201D-01 0.563D+00 0.457D+00
 Gap=     0.208 Goal=   None    Shift=    0.000
 Gap=     0.208 Goal=   None    Shift=    0.000
 RMSDP=2.54D-04 MaxDP=6.19D-03 DE= 1.34D-05 OVMax= 1.47D-02

 Cycle   4  Pass 1  IDiag  1:
 E= -474.479644980509     Delta-E=       -0.000229778224 Rises=F Damp=F
 DIIS: error= 1.06D-03 at cycle   4 NSaved=   4.
 NSaved= 4 IEnMin= 4 EnMin= -474.479644980509     IErMin= 4 ErrMin= 1.06D-03
 ErrMax= 1.06D-03  0.00D+00 EMaxC= 1.00D-01 BMatC= 4.78D-04 BMatP= 5.09D-04
 IDIUse=3 WtCom= 9.89D-01 WtEn= 1.06D-02
 Coeff-Com:  0.122D-01-0.268D+00 0.382D+00 0.874D+00
 Coeff-En:   0.000D+00 0.000D+00 0.289D+00 0.711D+00
 Coeff:      0.121D-01-0.265D+00 0.381D+00 0.872D+00
 Gap=     0.206 Goal=   None    Shift=    0.000
 Gap=     0.206 Goal=   None    Shift=    0.000
 RMSDP=1.42D-04 MaxDP=2.34D-03 DE=-2.30D-04 OVMax= 6.72D-03

 Cycle   5  Pass 1  IDiag  1:
 E= -474.479775090101     Delta-E=       -0.000130109592 Rises=F Damp=F
 DIIS: error= 1.02D-04 at cycle   5 NSaved=   5.
 NSaved= 5 IEnMin= 5 EnMin= -474.479775090101     IErMin= 5 ErrMin= 1.02D-04
 ErrMax= 1.02D-04  0.00D+00 EMaxC= 1.00D-01 BMatC= 4.91D-06 BMatP= 4.78D-04
 IDIUse=3 WtCom= 9.99D-01 WtEn= 1.02D-03
 Coeff-Com:  0.151D-01-0.143D+00 0.241D-02 0.162D+00 0.963D+00
 Coeff-En:   0.000D+00 0.000D+00 0.000D+00 0.000D+00 0.100D+01
 Coeff:      0.151D-01-0.142D+00 0.241D-02 0.162D+00 0.963D+00
 Gap=     0.206 Goal=   None    Shift=    0.000
 Gap=     0.206 Goal=   None    Shift=    0.000
 RMSDP=4.67D-05 MaxDP=6.29D-04 DE=-1.30D-04 OVMax= 2.24D-03

 Cycle   6  Pass 1  IDiag  1:
 E= -474.479781054188     Delta-E=       -0.000005964087 Rises=F Damp=F
 DIIS: error= 3.12D-05 at cycle   6 NSaved=   6.
 NSaved= 6 IEnMin= 6 EnMin= -474.479781054188     IErMin= 6 ErrMin= 3.12D-05
 ErrMax= 3.12D-05  0.00D+00 EMaxC= 1.00D-01 BMatC= 6.73D-07 BMatP= 4.91D-06
 IDIUse=1 WtCom= 1.00D+00 WtEn= 0.00D+00
 Coeff-Com: -0.210D-02 0.498D-01-0.697D-01-0.154D+00-0.168D-01 0.119D+01
 Coeff:     -0.210D-02 0.498D-01-0.697D-01-0.154D+00-0.168D-01 0.119D+01
 Gap=     0.206 Goal=   None    Shift=    0.000
 Gap=     0.206 Goal=   None    Shift=    0.000
 RMSDP=3.05D-05 MaxDP=4.50D-04 DE=-5.96D-06 OVMax= 1.60D-03

 Cycle   7  Pass 1  IDiag  1:
 E= -474.479782847870     Delta-E=       -0.000001793682 Rises=F Damp=F
 DIIS: error= 1.67D-05 at cycle   7 NSaved=   7.
 NSaved= 7 IEnMin= 7 EnMin= -474.479782847870     IErMin= 7 ErrMin= 1.67D-05
 ErrMax= 1.67D-05  0.00D+00 EMaxC= 1.00D-01 BMatC= 1.50D-07 BMatP= 6.73D-07
 IDIUse=1 WtCom= 1.00D+00 WtEn= 0.00D+00
 Coeff-Com: -0.344D-02 0.361D-01-0.638D-02-0.469D-01-0.217D+00 0.968D-01
 Coeff-Com:  0.114D+01
 Coeff:     -0.344D-02 0.361D-01-0.638D-02-0.469D-01-0.217D+00 0.968D-01
 Coeff:      0.114D+01
 Gap=     0.206 Goal=   None    Shift=    0.000
 Gap=     0.206 Goal=   None    Shift=    0.000
 RMSDP=1.63D-05 MaxDP=2.39D-04 DE=-1.79D-06 OVMax= 8.35D-04

 Cycle   8  Pass 1  IDiag  1:
 E= -474.479783267800     Delta-E=       -0.000000419930 Rises=F Damp=F
 DIIS: error= 7.44D-06 at cycle   8 NSaved=   8.
 NSaved= 8 IEnMin= 8 EnMin= -474.479783267800     IErMin= 8 ErrMin= 7.44D-06
 ErrMax= 7.44D-06  0.00D+00 EMaxC= 1.00D-01 BMatC= 1.91D-08 BMatP= 1.50D-07
 IDIUse=1 WtCom= 1.00D+00 WtEn= 0.00D+00
 Coeff-Com:  0.921D-03-0.138D-01 0.105D-01 0.277D-01 0.450D-01-0.229D+00
 Coeff-Com: -0.256D+00 0.141D+01
 Coeff:      0.921D-03-0.138D-01 0.105D-01 0.277D-01 0.450D-01-0.229D+00
 Coeff:     -0.256D+00 0.141D+01
 Gap=     0.206 Goal=   None    Shift=    0.000
 Gap=     0.206 Goal=   None    Shift=    0.000
 RMSDP=8.06D-06 MaxDP=1.11D-04 DE=-4.20D-07 OVMax= 3.87D-04

 Cycle   9  Pass 1  IDiag  1:
 E= -474.479783330193     Delta-E=       -0.000000062393 Rises=F Damp=F
 DIIS: error= 2.05D-06 at cycle   9 NSaved=   9.
 NSaved= 9 IEnMin= 9 EnMin= -474.479783330193     IErMin= 9 ErrMin= 2.05D-06
 ErrMax= 2.05D-06  0.00D+00 EMaxC= 1.00D-01 BMatC= 1.22D-09 BMatP= 1.91D-08
 IDIUse=1 WtCom= 1.00D+00 WtEn= 0.00D+00
 Coeff-Com:  0.208D-03-0.216D-02 0.520D-03 0.259D-02 0.200D-01-0.123D-01
 Coeff-Com: -0.617D-01-0.136D-01 0.107D+01
 Coeff:      0.208D-03-0.216D-02 0.520D-03 0.259D-02 0.200D-01-0.123D-01
 Coeff:     -0.617D-01-0.136D-01 0.107D+01
 Gap=     0.206 Goal=   None    Shift=    0.000
 Gap=     0.206 Goal=   None    Shift=    0.000
 RMSDP=7.27D-07 MaxDP=1.00D-05 DE=-6.24D-08 OVMax= 4.08D-05

 Cycle  10  Pass 1  IDiag  1:
 E= -474.479783331777     Delta-E=       -0.000000001584 Rises=F Damp=F
 DIIS: error= 9.06D-07 at cycle  10 NSaved=  10.
 NSaved=10 IEnMin=10 EnMin= -474.479783331777     IErMin=10 ErrMin= 9.06D-07
 ErrMax= 9.06D-07  0.00D+00 EMaxC= 1.00D-01 BMatC= 1.86D-10 BMatP= 1.22D-09
 IDIUse=1 WtCom= 1.00D+00 WtEn= 0.00D+00
 Coeff-Com: -0.141D-03 0.199D-02-0.139D-02-0.411D-02-0.824D-02 0.296D-01
 Coeff-Com:  0.314D-01-0.145D+00-0.213D+00 0.131D+01
 Coeff:     -0.141D-03 0.199D-02-0.139D-02-0.411D-02-0.824D-02 0.296D-01
 Coeff:      0.314D-01-0.145D+00-0.213D+00 0.131D+01
 Gap=     0.206 Goal=   None    Shift=    0.000
 Gap=     0.206 Goal=   None    Shift=    0.000
 RMSDP=4.39D-07 MaxDP=5.72D-06 DE=-1.58D-09 OVMax= 2.39D-05

 Cycle  11  Pass 1  IDiag  1:
 E= -474.479783332227     Delta-E=       -0.000000000451 Rises=F Damp=F
 DIIS: error= 3.03D-07 at cycle  11 NSaved=  11.
 NSaved=11 IEnMin=11 EnMin= -474.479783332227     IErMin=11 ErrMin= 3.03D-07
 ErrMax= 3.03D-07  0.00D+00 EMaxC= 1.00D-01 BMatC= 3.43D-11 BMatP= 1.86D-10
 IDIUse=1 WtCom= 1.00D+00 WtEn= 0.00D+00
 Coeff-Com:  0.609D-06-0.123D-03 0.226D-03 0.541D-03-0.107D-02-0.516D-02
 Coeff-Com: -0.178D-02 0.519D-01-0.166D+00-0.290D+00 0.141D+01
 Coeff:      0.609D-06-0.123D-03 0.226D-03 0.541D-03-0.107D-02-0.516D-02
 Coeff:     -0.178D-02 0.519D-01-0.166D+00-0.290D+00 0.141D+01
 Gap=     0.206 Goal=   None    Shift=    0.000
 Gap=     0.206 Goal=   None    Shift=    0.000
 RMSDP=2.76D-07 MaxDP=3.87D-06 DE=-4.51D-10 OVMax= 1.33D-05

 Cycle  12  Pass 1  IDiag  1:
 E= -474.479783332341     Delta-E=       -0.000000000114 Rises=F Damp=F
 DIIS: error= 9.02D-08 at cycle  12 NSaved=  12.
 NSaved=12 IEnMin=12 EnMin= -474.479783332341     IErMin=12 ErrMin= 9.02D-08
 ErrMax= 9.02D-08  0.00D+00 EMaxC= 1.00D-01 BMatC= 4.53D-12 BMatP= 3.43D-11
 IDIUse=1 WtCom= 1.00D+00 WtEn= 0.00D+00
 Coeff-Com:  0.211D-04-0.300D-03 0.189D-03 0.593D-03 0.133D-02-0.524D-02
 Coeff-Com: -0.379D-02 0.265D-01 0.161D-01-0.242D+00 0.761D-01 0.113D+01
 Coeff:      0.211D-04-0.300D-03 0.189D-03 0.593D-03 0.133D-02-0.524D-02
 Coeff:     -0.379D-02 0.265D-01 0.161D-01-0.242D+00 0.761D-01 0.113D+01
 Gap=     0.206 Goal=   None    Shift=    0.000
 Gap=     0.206 Goal=   None    Shift=    0.000
 RMSDP=1.09D-07 MaxDP=1.64D-06 DE=-1.14D-10 OVMax= 5.53D-06

 Cycle  13  Pass 1  IDiag  1:
 E= -474.479783332354     Delta-E=       -0.000000000013 Rises=F Damp=F
 DIIS: error= 4.66D-08 at cycle  13 NSaved=  13.
 NSaved=13 IEnMin=13 EnMin= -474.479783332354     IErMin=13 ErrMin= 4.66D-08
 ErrMax= 4.66D-08  0.00D+00 EMaxC= 1.00D-01 BMatC= 6.01D-13 BMatP= 4.53D-12
 IDIUse=1 WtCom= 1.00D+00 WtEn= 0.00D+00
 Coeff-Com:  0.304D-06 0.220D-05-0.986D-05-0.126D-05 0.159D-03 0.360D-03
 Coeff-Com: -0.183D-03-0.526D-02 0.179D-01 0.406D-01-0.165D+00 0.220D-01
 Coeff-Com:  0.109D+01
 Coeff:      0.304D-06 0.220D-05-0.986D-05-0.126D-05 0.159D-03 0.360D-03
 Coeff:     -0.183D-03-0.526D-02 0.179D-01 0.406D-01-0.165D+00 0.220D-01
 Coeff:      0.109D+01
 Gap=     0.206 Goal=   None    Shift=    0.000
 Gap=     0.206 Goal=   None    Shift=    0.000
 RMSDP=1.87D-08 MaxDP=2.43D-07 DE=-1.30D-11 OVMax= 8.66D-07

 Cycle  14  Pass 1  IDiag  1:
 E= -474.479783332355     Delta-E=       -0.000000000001 Rises=F Damp=F
 DIIS: error= 6.03D-09 at cycle  14 NSaved=  14.
 NSaved=14 IEnMin=14 EnMin= -474.479783332355     IErMin=14 ErrMin= 6.03D-09
 ErrMax= 6.03D-09  0.00D+00 EMaxC= 1.00D-01 BMatC= 2.11D-14 BMatP= 6.01D-13
 IDIUse=1 WtCom= 1.00D+00 WtEn= 0.00D+00
 Coeff-Com: -0.148D-05 0.211D-04-0.142D-04-0.440D-04-0.111D-03 0.432D-03
 Coeff-Com:  0.322D-03-0.220D-02-0.166D-03 0.189D-01-0.257D-01-0.588D-01
 Coeff-Com:  0.688D-01 0.998D+00
 Coeff:     -0.148D-05 0.211D-04-0.142D-04-0.440D-04-0.111D-03 0.432D-03
 Coeff:      0.322D-03-0.220D-02-0.166D-03 0.189D-01-0.257D-01-0.588D-01
 Coeff:      0.688D-01 0.998D+00
 Gap=     0.206 Goal=   None    Shift=    0.000
 Gap=     0.206 Goal=   None    Shift=    0.000
 RMSDP=4.57D-09 MaxDP=6.47D-08 DE=-5.68D-13 OVMax= 2.21D-07

 SCF Done:  E(UM062X) =  -474.479783332     A.U. after   14 cycles
            NFock= 14  Conv=0.46D-08     -V/T= 2.0021
 <Sx>= 0.0000 <Sy>= 0.0000 <Sz>= 0.0000 <S**2>=-0.0000 S=-0.0000
 <L.S>=  0.00000000000    
 KE= 4.734879959616D+02 PE=-1.215259208423D+03 EE= 2.233424518532D+02
 Annihilation of the first spin contaminant:
 S**2 before annihilation    -0.0000,   after     0.0000
 Leave Link  502 at Thu May 15 12:56:23 2025, MaxMem=   536870912 cpu:              33.5 elap:               4.3
 (Enter /home/szhao/Apps/g16/l701.exe)
 ... and contract with generalized density number  0.
 Compute integral first derivatives.
 Leave Link  701 at Thu May 15 12:56:23 2025, MaxMem=   536870912 cpu:               0.6 elap:               0.1
 (Enter /home/szhao/Apps/g16/l702.exe)
 L702 exits ... SP integral derivatives will be done elsewhere.
 Leave Link  702 at Thu May 15 12:56:23 2025, MaxMem=   536870912 cpu:               0.3 elap:               0.0
 (Enter /home/szhao/Apps/g16/l703.exe)
 Integral derivatives from FoFJK, PRISM(SPDF).
 Compute integral first derivatives, UseDBF=F ICtDFT=           0.
 Calling FoFJK, ICntrl=      2127 FMM=F ISym2X=0 I1Cent= 0 IOpClX= 1 NMat=1 NMatS=1 NMatT=0.
 FoFJK:  IHMeth= 1 ICntrl=    2127 DoSepK=F KAlg= 0 I1Cent=           0 FoldK=F
 IRaf=         0 NMat=       1 IRICut=       1 DoRegI=T DoRafI=F ISym2E= 0 IDoP0=0 IntGTp=1.
 FoFCou: FMM=F IPFlag=           0 FMFlag=      100000 FMFlg1=         800
         NFxFlg=           0 DoJE=F BraDBF=F KetDBF=F FulRan=T
         wScrn=  0.000000 ICntrl=      2127 IOpCl=  1 I1Cent=           0 NGrid=           0
         NMat0=    1 NMatS0=      1 NMatT0=    0 NMatD0=    1 NMtDS0=    0 NMtDT0=    0
 Symmetry not used in FoFCou.
 Leave Link  703 at Thu May 15 12:56:24 2025, MaxMem=   536870912 cpu:               4.9 elap:               0.6
 (Enter /home/szhao/Apps/g16/l716.exe)
 Dipole        = 6.46035651D-01-6.21935804D-01 4.54916194D-01
 -------------------------------------------------------------------
 Center     Atomic                   Forces (Hartrees/Bohr)
 Number     Number              X              Y              Z
 -------------------------------------------------------------------
      1        8          -0.000000000   -0.000000000   -0.000000000
      2       16          -0.000000000   -0.000000000   -0.000000000
      3        1           0.005627057   -0.001069818   -0.000590133
      4        1          -0.002619151    0.000402866   -0.000565489
 -------------------------------------------------------------------
 Cartesian Forces:  Max     0.005627057 RMS     0.001837085
 Leave Link  716 at Thu May 15 12:56:24 2025, MaxMem=   536870912 cpu:               0.2 elap:               0.0
 (Enter /home/szhao/Apps/g16/l103.exe)

 GradGradGradGradGradGradGradGradGradGradGradGradGradGradGradGradGradGrad
 Berny optimization.
 Using GEDIIS/GDIIS optimizer.
 FormGI is forming the generalized inverse of G from B-inverse, IUseBI=4.
 Internal  Forces:  Max     0.010478165 RMS     0.004461794
 Search for a local minimum.
 Step number   2 out of a maximum of   21
 All quantities printed in internal units (Hartrees-Bohrs-Radians)
 RMS Force = .55735D-02 SwitMx=.10000D-02 MixMth= 1
 Mixed Optimization -- RFO/linear search
 Update second derivatives using D2CorX and points    1    2
 DE= -3.73D-03 DEPred=-2.72D-03 R= 1.37D+00
 TightC=F SS=  1.41D+00  RLast= 1.80D-01 DXNew= 5.0454D-01 5.3960D-01
 Trust test= 1.37D+00 RLast= 1.80D-01 DXMaxT set to 5.05D-01
 The second derivative matrix:
                          X1        Y1        Z1        X2        Y2
           X1           0.50624
           Y1          -0.01737   0.54837
           Z1          -0.00247   0.00689   0.50098
           X2          -0.00615   0.01712   0.00244   0.50606
           Y2           0.00362  -0.01008  -0.00144  -0.00357   0.50210
           Z2           0.00540  -0.01505  -0.00214  -0.00533   0.00314
           R1           0.00939  -0.02614  -0.00372  -0.00925   0.00545
           R2           0.00067  -0.00187  -0.00027  -0.00066   0.00039
           A1          -0.01803   0.05022   0.00715   0.01777  -0.01047
           A2          -0.01585   0.04414   0.00629   0.01563  -0.00920
           D1           0.00185  -0.00515  -0.00073  -0.00182   0.00107
                          Z2        R1        R2        A1        A2
           Z2           0.50468
           R1           0.00813   0.55601
           R2           0.00058   0.00118   0.25893
           A1          -0.01562   0.00201  -0.00251   0.11310
           A2          -0.01374  -0.00147  -0.00214  -0.03023   0.14188
           D1           0.00160   0.00270   0.00020  -0.00506  -0.00448
                          D1
           D1           0.00285
 ITU=  1  0
 Use linear search instead of GDIIS.
     Eigenvalues ---    0.00234   0.09443   0.16096   0.25899   0.55604
     Eigenvalues --- 1000.000001000.000001000.000001000.000001000.00000
     Eigenvalues --- 1000.00000
 RFO step:  Lambda=-1.24115860D-03 EMin= 2.34108989D-03
 Quartic linear search produced a step of  0.66489.
 Iteration  1 RMS(Cart)=  0.13894710 RMS(Int)=  0.10823114
 Iteration  2 RMS(Cart)=  0.09508065 RMS(Int)=  0.04723109
 Iteration  3 RMS(Cart)=  0.07254535 RMS(Int)=  0.00280121
 Iteration  4 RMS(Cart)=  0.00295240 RMS(Int)=  0.00000055
 Iteration  5 RMS(Cart)=  0.00000072 RMS(Int)=  0.00000000
 ITry= 1 IFail=0 DXMaxC= 6.66D-01 DCOld= 1.00D+10 DXMaxT= 5.05D-01 DXLimC= 3.00D+00 Rises=F
 Variable       Old X    -DE/DX   Delta X   Delta X   Delta X     New X
                                 (Linear)    (Quad)   (Total)
    X1       -2.24762   0.00563   0.00000   0.00000   0.00000  -2.24762
    Y1        0.00000  -0.00348   0.00000   0.00000   0.00000   0.00000
    Z1        0.00000  -0.00207   0.00000   0.00000   0.00000   0.00000
    X2        2.24762  -0.00262   0.00000   0.00000   0.00000   2.24762
    Y2        0.00000   0.00281   0.00000   0.00000   0.00000   0.00000
    Z2        0.00000   0.00092   0.00000   0.00000   0.00000   0.00000
    R1        1.82994   0.00004   0.00800  -0.00501   0.00299   1.83293
    R2        2.54458  -0.00061  -0.00033  -0.00367  -0.00400   2.54058
    A1        1.74924  -0.01048  -0.09345  -0.04479  -0.13823   1.61101
    A2        1.59419  -0.00663  -0.07177  -0.01974  -0.09151   1.50268
    D1       -1.60462  -0.00109   0.01884  -0.57169  -0.55285  -2.15747
         Item               Value     Threshold  Converged?
 Maximum Force            0.010478     0.000450     NO 
 RMS     Force            0.005573     0.000300     NO 
 Maximum Displacement     0.665536     0.001800     NO 
 RMS     Displacement     0.277048     0.001200     NO 
 Predicted change in Energy=-1.549998D-03
 Lowest energy point so far.  Saving SCF results.
 GradGradGradGradGradGradGradGradGradGradGradGradGradGradGradGradGradGrad

 Leave Link  103 at Thu May 15 12:56:24 2025, MaxMem=   536870912 cpu:               0.0 elap:               0.0
 (Enter /home/szhao/Apps/g16/l202.exe)
                          Input orientation:                          
 ---------------------------------------------------------------------
 Center     Atomic      Atomic             Coordinates (Angstroms)
 Number     Number       Type             X           Y           Z
 ---------------------------------------------------------------------
      1          8           0       -1.189392    0.000000    0.000000
      2         16           0        1.189392    0.000000    0.000000
      3          1           0       -1.228384   -0.934203   -0.257941
      4          1           0        1.097887    0.418454    1.274356
 ---------------------------------------------------------------------
                    Distance matrix (angstroms):
                    1          2          3          4
     1  O    0.000000
     2  S    2.378783   0.000000
     3  H    0.969943   2.604786   0.000000
     4  H    2.651553   1.344418   3.096636   0.000000
 Symmetry turned off by external request.
 Stoichiometry    H2OS
 Framework group  C1[X(H2OS)]
 Deg. of freedom     6
 Full point group                 C1      NOp   1
 Rotational constants (GHZ):         190.6743661           7.8897121           7.6928404
 Leave Link  202 at Thu May 15 12:56:24 2025, MaxMem=   536870912 cpu:               0.0 elap:               0.0
 (Enter /home/szhao/Apps/g16/l301.exe)
 Standard basis: 6-311+G(d,p) (5D, 7F)
 Ernie: Thresh=  0.10000D-02 Tol=  0.10000D-05 Strict=F.
    64 basis functions,   102 primitive gaussians,    66 cartesian basis functions
    13 alpha electrons       13 beta electrons
       nuclear repulsion energy        44.1548406547 Hartrees.
 IExCor= 4336 DFT=T Ex+Corr=M062X ExCW=0 ScaHFX=  0.540000
 ScaDFX=  1.000000  1.000000  1.000000  1.000000 ScalE2=  1.000000  1.000000
 IRadAn=      7 IRanWt=     -1 IRanGd=            0 ICorTp=0 IEmpDi=  4
 NAtoms=    4 NActive=    4 NUniq=    4 SFac= 1.00D+00 NAtFMM=   60 NAOKFM=F Big=F
 Integral buffers will be    131072 words long.
 Raffenetti 2 integral format.
 Two-electron integral symmetry is turned off.
 Leave Link  301 at Thu May 15 12:56:24 2025, MaxMem=   536870912 cpu:               0.3 elap:               0.0
 (Enter /home/szhao/Apps/g16/l302.exe)
 NPDir=0 NMtPBC=     1 NCelOv=     1 NCel=       1 NClECP=     1 NCelD=      1
         NCelK=      1 NCelE2=     1 NClLst=     1 CellRange=     0.0.
 One-electron integrals computed using PRISM.
 NBasis=    64 RedAO= T EigKep=  5.56D-03  NBF=    64
 NBsUse=    64 1.00D-06 EigRej= -1.00D+00 NBFU=    64
 Precomputing XC quadrature grid using
 IXCGrd= 4 IRadAn=           7 IRanWt=          -1 IRanGd=           0 AccXCQ= 0.00D+00.
 Generated NRdTot=       0 NPtTot=           0 NUsed=           0 NTot=          32
 NSgBfM=    66    66    66    66    66 MxSgAt=     4 MxSgA2=     4.
 Leave Link  302 at Thu May 15 12:56:24 2025, MaxMem=   536870912 cpu:               1.0 elap:               0.1
 (Enter /home/szhao/Apps/g16/l303.exe)
 DipDrv:  MaxL=1.
 Leave Link  303 at Thu May 15 12:56:24 2025, MaxMem=   536870912 cpu:               0.2 elap:               0.0
 (Enter /home/szhao/Apps/g16/l401.exe)
 Initial guess from the checkpoint file:  "opt.chk"
 B after Tr=     0.002515    0.011398   -0.044308
         Rot=    0.998868    0.046237    0.010382   -0.004046 Ang=   5.45 deg.
 Guess basis will be translated and rotated to current coordinates.
 JPrj=2 DoOrth=T DoCkMO=T.
 Initial guess <Sx>= 0.0000 <Sy>= 0.0000 <Sz>= 0.0000 <S**2>=-0.0000 S=-0.0000
 Generating alternative initial guess.
 ExpMin= 4.05D-02 ExpMax= 9.34D+04 ExpMxC= 3.17D+03 IAcc=3 IRadAn=         5 AccDes= 0.00D+00
 Harris functional with IExCor= 1009 and IRadAn=       5 diagonalized for initial guess.
 HarFok:  IExCor= 1009 AccDes= 0.00D+00 IRadAn=         5 IDoV= 1 UseB2=F ITyADJ=14
 ICtDFT=  3500011 ScaDFX=  1.000000  1.000000  1.000000  1.000000
 FoFCou: FMM=F IPFlag=           0 FMFlag=      100000 FMFlg1=           0
         NFxFlg=           0 DoJE=T BraDBF=F KetDBF=T FulRan=T
         wScrn=  0.000000 ICntrl=       500 IOpCl=  0 I1Cent=   200000004 NGrid=           0
         NMat0=    1 NMatS0=      1 NMatT0=    0 NMatD0=    1 NMtDS0=    0 NMtDT0=    0
 Symmetry not used in FoFCou.
 Harris En= -474.309936928677    
 Leave Link  401 at Thu May 15 12:56:24 2025, MaxMem=   536870912 cpu:               1.5 elap:               0.2
 (Enter /home/szhao/Apps/g16/l502.exe)
 Keep R1 and R2 ints in memory in canonical form, NReq=11470672.
 FoFCou: FMM=F IPFlag=           0 FMFlag=           0 FMFlg1=           0
         NFxFlg=           0 DoJE=F BraDBF=F KetDBF=F FulRan=T
         wScrn=  0.000000 ICntrl=       600 IOpCl=  0 I1Cent=           0 NGrid=           0
         NMat0=    1 NMatS0=   2080 NMatT0=    0 NMatD0=    1 NMtDS0=    0 NMtDT0=    0
 Symmetry not used in FoFCou.
 Two-electron integral symmetry not used.
 UHF open shell SCF:
 Using DIIS extrapolation, IDIIS=  1040.
 NGot=   536870912 LenX=   532532582 LenY=   532527785
 Requested convergence on RMS density matrix=1.00D-08 within 128 cycles.
 Requested convergence on MAX density matrix=1.00D-06.
 Requested convergence on             energy=1.00D-06.
 No special actions if energy rises.

 Cycle   1  Pass 1  IDiag  1:
 E= -474.452973472911    
 DIIS: error= 1.49D-02 at cycle   1 NSaved=   1.
 NSaved= 1 IEnMin= 1 EnMin= -474.452973472911     IErMin= 1 ErrMin= 1.49D-02
 ErrMax= 1.49D-02  0.00D+00 EMaxC= 1.00D-01 BMatC= 7.82D-02 BMatP= 7.82D-02
 IDIUse=3 WtCom= 8.51D-01 WtEn= 1.49D-01
 Coeff-Com:  0.100D+01
 Coeff-En:   0.100D+01
 Coeff:      0.100D+01
 Recover alternate guess density for next cycle.
 RMSDP=5.20D-03 MaxDP=8.92D-02              OVMax= 0.00D+00

 Cycle   2  Pass 1  IDiag  1:
 E= -474.309656774708     Delta-E=        0.143316698203 Rises=F Damp=F
 Switch densities from cycles 1 and 2 for lowest energy.
 DIIS: error= 4.48D-02 at cycle   2 NSaved=   2.
 NSaved= 2 IEnMin= 1 EnMin= -474.452973472911     IErMin= 1 ErrMin= 1.49D-02
 ErrMax= 4.48D-02  0.00D+00 EMaxC= 1.00D+00 BMatC= 8.86D-01 BMatP= 7.82D-02
 IDIUse=1 WtCom= 1.00D+00 WtEn= 0.00D+00
 Coeff-Com:  0.946D+00 0.544D-01
 Coeff:      0.946D+00 0.544D-01
 Gap=     0.194 Goal=   None    Shift=    0.000
 Gap=     0.194 Goal=   None    Shift=    0.000
 RMSDP=2.71D-03 MaxDP=3.50D-02 DE= 1.43D-01 OVMax= 3.06D-01

 Cycle   3  Pass 1  IDiag  1:
 E= -474.474137438598     Delta-E=       -0.164480663890 Rises=F Damp=F
 DIIS: error= 8.40D-03 at cycle   3 NSaved=   3.
 NSaved= 3 IEnMin= 3 EnMin= -474.474137438598     IErMin= 3 ErrMin= 8.40D-03
 ErrMax= 8.40D-03  0.00D+00 EMaxC= 1.00D+00 BMatC= 2.79D-02 BMatP= 7.82D-02
 IDIUse=1 WtCom= 1.00D+00 WtEn= 0.00D+00
 Coeff-Com: -0.312D-01 0.142D+00 0.889D+00
 Coeff:     -0.312D-01 0.142D+00 0.889D+00
 Gap=     0.202 Goal=   None    Shift=    0.000
 Gap=     0.202 Goal=   None    Shift=    0.000
 RMSDP=1.06D-03 MaxDP=2.08D-02 DE=-1.64D-01 OVMax= 4.78D-02

 Cycle   4  Pass 1  IDiag  1:
 E= -474.480133259986     Delta-E=       -0.005995821388 Rises=F Damp=F
 DIIS: error= 2.97D-03 at cycle   4 NSaved=   4.
 NSaved= 4 IEnMin= 4 EnMin= -474.480133259986     IErMin= 4 ErrMin= 2.97D-03
 ErrMax= 2.97D-03  0.00D+00 EMaxC= 1.00D+00 BMatC= 2.44D-03 BMatP= 2.79D-02
 IDIUse=1 WtCom= 1.00D+00 WtEn= 0.00D+00
 Coeff-Com: -0.435D-01 0.692D-02 0.250D+00 0.787D+00
 Coeff:     -0.435D-01 0.692D-02 0.250D+00 0.787D+00
 Gap=     0.205 Goal=   None    Shift=    0.000
 Gap=     0.205 Goal=   None    Shift=    0.000
 RMSDP=3.03D-04 MaxDP=7.07D-03 DE=-6.00D-03 OVMax= 1.50D-02

 Cycle   5  Pass 1  IDiag  1:
 E= -474.480724558430     Delta-E=       -0.000591298444 Rises=F Damp=F
 DIIS: error= 5.47D-04 at cycle   5 NSaved=   5.
 NSaved= 5 IEnMin= 5 EnMin= -474.480724558430     IErMin= 5 ErrMin= 5.47D-04
 ErrMax= 5.47D-04  0.00D+00 EMaxC= 1.00D+00 BMatC= 1.21D-04 BMatP= 2.44D-03
 IDIUse=1 WtCom= 1.00D+00 WtEn= 0.00D+00
 Coeff-Com:  0.694D-03-0.351D-02-0.544D-01 0.804D-01 0.977D+00
 Coeff:      0.694D-03-0.351D-02-0.544D-01 0.804D-01 0.977D+00
 Gap=     0.204 Goal=   None    Shift=    0.000
 Gap=     0.204 Goal=   None    Shift=    0.000
 RMSDP=1.13D-04 MaxDP=1.21D-03 DE=-5.91D-04 OVMax= 3.72D-03

 Cycle   6  Pass 1  IDiag  1:
 E= -474.480768373886     Delta-E=       -0.000043815456 Rises=F Damp=F
 DIIS: error= 9.11D-05 at cycle   6 NSaved=   6.
 NSaved= 6 IEnMin= 6 EnMin= -474.480768373886     IErMin= 6 ErrMin= 9.11D-05
 ErrMax= 9.11D-05  0.00D+00 EMaxC= 1.00D+00 BMatC= 3.66D-06 BMatP= 1.21D-04
 IDIUse=1 WtCom= 1.00D+00 WtEn= 0.00D+00
 Coeff-Com:  0.245D-02-0.105D-02-0.184D-01-0.443D-01 0.376D-01 0.102D+01
 Coeff:      0.245D-02-0.105D-02-0.184D-01-0.443D-01 0.376D-01 0.102D+01
 Gap=     0.204 Goal=   None    Shift=    0.000
 Gap=     0.204 Goal=   None    Shift=    0.000
 RMSDP=4.10D-05 MaxDP=4.17D-04 DE=-4.38D-05 OVMax= 2.14D-03

 Cycle   7  Pass 1  IDiag  1:
 E= -474.480773659322     Delta-E=       -0.000005285436 Rises=F Damp=F
 DIIS: error= 6.66D-05 at cycle   7 NSaved=   7.
 NSaved= 7 IEnMin= 7 EnMin= -474.480773659322     IErMin= 7 ErrMin= 6.66D-05
 ErrMax= 6.66D-05  0.00D+00 EMaxC= 1.00D+00 BMatC= 8.09D-07 BMatP= 3.66D-06
 IDIUse=1 WtCom= 1.00D+00 WtEn= 0.00D+00
 Coeff-Com: -0.467D-04 0.530D-03 0.373D-02-0.118D-01-0.918D-01-0.645D-01
 Coeff-Com:  0.116D+01
 Coeff:     -0.467D-04 0.530D-03 0.373D-02-0.118D-01-0.918D-01-0.645D-01
 Coeff:      0.116D+01
 Gap=     0.204 Goal=   None    Shift=    0.000
 Gap=     0.204 Goal=   None    Shift=    0.000
 RMSDP=2.61D-05 MaxDP=3.45D-04 DE=-5.29D-06 OVMax= 1.34D-03

 Cycle   8  Pass 1  IDiag  1:
 E= -474.480775693202     Delta-E=       -0.000002033880 Rises=F Damp=F
 DIIS: error= 2.75D-05 at cycle   8 NSaved=   8.
 NSaved= 8 IEnMin= 8 EnMin= -474.480775693202     IErMin= 8 ErrMin= 2.75D-05
 ErrMax= 2.75D-05  0.00D+00 EMaxC= 1.00D+00 BMatC= 2.66D-07 BMatP= 8.09D-07
 IDIUse=1 WtCom= 1.00D+00 WtEn= 0.00D+00
 Coeff-Com: -0.547D-03-0.926D-04 0.326D-02 0.157D-01 0.308D-01-0.264D+00
 Coeff-Com: -0.320D+00 0.153D+01
 Coeff:     -0.547D-03-0.926D-04 0.326D-02 0.157D-01 0.308D-01-0.264D+00
 Coeff:     -0.320D+00 0.153D+01
 Gap=     0.204 Goal=   None    Shift=    0.000
 Gap=     0.204 Goal=   None    Shift=    0.000
 RMSDP=2.19D-05 MaxDP=3.15D-04 DE=-2.03D-06 OVMax= 1.26D-03

 Cycle   9  Pass 1  IDiag  1:
 E= -474.480776554697     Delta-E=       -0.000000861495 Rises=F Damp=F
 DIIS: error= 1.14D-05 at cycle   9 NSaved=   9.
 NSaved= 9 IEnMin= 9 EnMin= -474.480776554697     IErMin= 9 ErrMin= 1.14D-05
 ErrMax= 1.14D-05  0.00D+00 EMaxC= 1.00D+00 BMatC= 5.20D-08 BMatP= 2.66D-07
 IDIUse=1 WtCom= 1.00D+00 WtEn= 0.00D+00
 Coeff-Com:  0.406D-04-0.889D-04-0.131D-02 0.296D-02 0.230D-01-0.505D-02
 Coeff-Com: -0.325D+00 0.176D+00 0.113D+01
 Coeff:      0.406D-04-0.889D-04-0.131D-02 0.296D-02 0.230D-01-0.505D-02
 Coeff:     -0.325D+00 0.176D+00 0.113D+01
 Gap=     0.204 Goal=   None    Shift=    0.000
 Gap=     0.204 Goal=   None    Shift=    0.000
 RMSDP=9.77D-06 MaxDP=1.35D-04 DE=-8.61D-07 OVMax= 4.72D-04

 Cycle  10  Pass 1  IDiag  1:
 E= -474.480776674872     Delta-E=       -0.000000120174 Rises=F Damp=F
 DIIS: error= 2.03D-06 at cycle  10 NSaved=  10.
 NSaved=10 IEnMin=10 EnMin= -474.480776674872     IErMin=10 ErrMin= 2.03D-06
 ErrMax= 2.03D-06  0.00D+00 EMaxC= 1.00D+00 BMatC= 4.02D-09 BMatP= 5.20D-08
 IDIUse=1 WtCom= 1.00D+00 WtEn= 0.00D+00
 Coeff-Com:  0.136D-04-0.881D-05-0.154D-03-0.583D-03-0.631D-03 0.186D-01
 Coeff-Com:  0.645D-02-0.145D+00 0.125D+00 0.997D+00
 Coeff:      0.136D-04-0.881D-05-0.154D-03-0.583D-03-0.631D-03 0.186D-01
 Coeff:      0.645D-02-0.145D+00 0.125D+00 0.997D+00
 Gap=     0.204 Goal=   None    Shift=    0.000
 Gap=     0.204 Goal=   None    Shift=    0.000
 RMSDP=2.08D-06 MaxDP=2.30D-05 DE=-1.20D-07 OVMax= 1.01D-04

 Cycle  11  Pass 1  IDiag  1:
 E= -474.480776680432     Delta-E=       -0.000000005560 Rises=F Damp=F
 DIIS: error= 7.85D-07 at cycle  11 NSaved=  11.
 NSaved=11 IEnMin=11 EnMin= -474.480776680432     IErMin=11 ErrMin= 7.85D-07
 ErrMax= 7.85D-07  0.00D+00 EMaxC= 1.00D+00 BMatC= 3.66D-10 BMatP= 4.02D-09
 IDIUse=1 WtCom= 1.00D+00 WtEn= 0.00D+00
 Coeff-Com:  0.178D-05 0.105D-04 0.369D-04-0.383D-03-0.151D-02 0.313D-02
 Coeff-Com:  0.314D-01-0.350D-01-0.867D-01 0.121D+00 0.968D+00
 Coeff:      0.178D-05 0.105D-04 0.369D-04-0.383D-03-0.151D-02 0.313D-02
 Coeff:      0.314D-01-0.350D-01-0.867D-01 0.121D+00 0.968D+00
 Gap=     0.204 Goal=   None    Shift=    0.000
 Gap=     0.204 Goal=   None    Shift=    0.000
 RMSDP=4.84D-07 MaxDP=7.96D-06 DE=-5.56D-09 OVMax= 2.86D-05

 Cycle  12  Pass 1  IDiag  1:
 E= -474.480776680999     Delta-E=       -0.000000000567 Rises=F Damp=F
 DIIS: error= 3.45D-07 at cycle  12 NSaved=  12.
 NSaved=12 IEnMin=12 EnMin= -474.480776680999     IErMin=12 ErrMin= 3.45D-07
 ErrMax= 3.45D-07  0.00D+00 EMaxC= 1.00D+00 BMatC= 6.79D-11 BMatP= 3.66D-10
 IDIUse=1 WtCom= 1.00D+00 WtEn= 0.00D+00
 Coeff-Com: -0.160D-05-0.360D-06 0.253D-04 0.137D-03-0.112D-04-0.400D-02
 Coeff-Com: -0.832D-03 0.229D-01-0.183D-01-0.131D+00-0.132D+00 0.126D+01
 Coeff:     -0.160D-05-0.360D-06 0.253D-04 0.137D-03-0.112D-04-0.400D-02
 Coeff:     -0.832D-03 0.229D-01-0.183D-01-0.131D+00-0.132D+00 0.126D+01
 Gap=     0.204 Goal=   None    Shift=    0.000
 Gap=     0.204 Goal=   None    Shift=    0.000
 RMSDP=3.50D-07 MaxDP=5.99D-06 DE=-5.67D-10 OVMax= 2.17D-05

 Cycle  13  Pass 1  IDiag  1:
 E= -474.480776681192     Delta-E=       -0.000000000193 Rises=F Damp=F
 DIIS: error= 1.22D-07 at cycle  13 NSaved=  13.
 NSaved=13 IEnMin=13 EnMin= -474.480776681192     IErMin=13 ErrMin= 1.22D-07
 ErrMax= 1.22D-07  0.00D+00 EMaxC= 1.00D+00 BMatC= 1.12D-11 BMatP= 6.79D-11
 IDIUse=1 WtCom= 1.00D+00 WtEn= 0.00D+00
 Coeff-Com: -0.592D-06-0.145D-05-0.558D-05 0.619D-04 0.284D-03-0.547D-03
 Coeff-Com: -0.423D-02 0.340D-02 0.137D-01-0.346D-02-0.181D+00-0.817D-01
 Coeff-Com:  0.125D+01
 Coeff:     -0.592D-06-0.145D-05-0.558D-05 0.619D-04 0.284D-03-0.547D-03
 Coeff:     -0.423D-02 0.340D-02 0.137D-01-0.346D-02-0.181D+00-0.817D-01
 Coeff:      0.125D+01
 Gap=     0.204 Goal=   None    Shift=    0.000
 Gap=     0.204 Goal=   None    Shift=    0.000
 RMSDP=1.83D-07 MaxDP=3.08D-06 DE=-1.93D-10 OVMax= 1.12D-05

 Cycle  14  Pass 1  IDiag  1:
 E= -474.480776681229     Delta-E=       -0.000000000037 Rises=F Damp=F
 DIIS: error= 8.94D-08 at cycle  14 NSaved=  14.
 NSaved=14 IEnMin=14 EnMin= -474.480776681229     IErMin=14 ErrMin= 8.94D-08
 ErrMax= 8.94D-08  0.00D+00 EMaxC= 1.00D+00 BMatC= 2.17D-12 BMatP= 1.12D-11
 IDIUse=1 WtCom= 1.00D+00 WtEn= 0.00D+00
 Coeff-Com: -0.429D-06 0.207D-06 0.223D-05-0.213D-04-0.130D-04 0.295D-03
 Coeff-Com:  0.103D-02-0.377D-02 0.142D-02 0.196D-01 0.345D-01-0.215D+00
 Coeff-Com: -0.143D-02 0.116D+01
 Coeff:     -0.429D-06 0.207D-06 0.223D-05-0.213D-04-0.130D-04 0.295D-03
 Coeff:      0.103D-02-0.377D-02 0.142D-02 0.196D-01 0.345D-01-0.215D+00
 Coeff:     -0.143D-02 0.116D+01
 Gap=     0.204 Goal=   None    Shift=    0.000
 Gap=     0.204 Goal=   None    Shift=    0.000
 RMSDP=5.85D-08 MaxDP=9.44D-07 DE=-3.74D-11 OVMax= 3.46D-06

 Cycle  15  Pass 1  IDiag  1:
 E= -474.480776681234     Delta-E=       -0.000000000004 Rises=F Damp=F
 DIIS: error= 2.23D-08 at cycle  15 NSaved=  15.
 NSaved=15 IEnMin=15 EnMin= -474.480776681234     IErMin=15 ErrMin= 2.23D-08
 ErrMax= 2.23D-08  0.00D+00 EMaxC= 1.00D+00 BMatC= 1.53D-13 BMatP= 2.17D-12
 IDIUse=1 WtCom= 1.00D+00 WtEn= 0.00D+00
 Coeff-Com:  0.138D-06 0.659D-07-0.687D-06-0.592D-05-0.351D-05 0.275D-04
 Coeff-Com:  0.389D-03-0.275D-03-0.128D-02-0.716D-03 0.187D-01 0.177D-01
 Coeff-Com: -0.111D+00-0.158D+00 0.123D+01
 Coeff:      0.138D-06 0.659D-07-0.687D-06-0.592D-05-0.351D-05 0.275D-04
 Coeff:      0.389D-03-0.275D-03-0.128D-02-0.716D-03 0.187D-01 0.177D-01
 Coeff:     -0.111D+00-0.158D+00 0.123D+01
 Gap=     0.204 Goal=   None    Shift=    0.000
 Gap=     0.204 Goal=   None    Shift=    0.000
 RMSDP=1.31D-08 MaxDP=1.77D-07 DE=-4.43D-12 OVMax= 6.53D-07

 Cycle  16  Pass 1  IDiag  1:
 E= -474.480776681233     Delta-E=        0.000000000001 Rises=F Damp=F
 DIIS: error= 3.28D-09 at cycle  16 NSaved=  16.
 NSaved=16 IEnMin=15 EnMin= -474.480776681234     IErMin=16 ErrMin= 3.28D-09
 ErrMax= 3.28D-09  0.00D+00 EMaxC= 1.00D+00 BMatC= 7.27D-15 BMatP= 1.53D-13
 IDIUse=1 WtCom= 1.00D+00 WtEn= 0.00D+00
 Coeff-Com:  0.470D-07-0.772D-08-0.320D-06 0.780D-06-0.103D-05-0.207D-04
 Coeff-Com:  0.838D-05 0.202D-03-0.335D-03-0.128D-02 0.450D-03 0.161D-01
 Coeff-Com: -0.120D-01-0.101D+00 0.189D+00 0.909D+00
 Coeff:      0.470D-07-0.772D-08-0.320D-06 0.780D-06-0.103D-05-0.207D-04
 Coeff:      0.838D-05 0.202D-03-0.335D-03-0.128D-02 0.450D-03 0.161D-01
 Coeff:     -0.120D-01-0.101D+00 0.189D+00 0.909D+00
 Gap=     0.204 Goal=   None    Shift=    0.000
 Gap=     0.204 Goal=   None    Shift=    0.000
 RMSDP=1.09D-09 MaxDP=9.71D-09 DE= 1.36D-12 OVMax= 4.75D-08

 SCF Done:  E(UM062X) =  -474.480776681     A.U. after   16 cycles
            NFock= 16  Conv=0.11D-08     -V/T= 2.0021
 <Sx>= 0.0000 <Sy>= 0.0000 <Sz>= 0.0000 <S**2>= 0.0000 S= 0.0000
 <L.S>=  0.00000000000    
 KE= 4.734958349943D+02 PE=-1.215667400086D+03 EE= 2.235359477561D+02
 Annihilation of the first spin contaminant:
 S**2 before annihilation     0.0000,   after    -0.0000
 Leave Link  502 at Thu May 15 12:56:29 2025, MaxMem=   536870912 cpu:              36.0 elap:               4.6
 (Enter /home/szhao/Apps/g16/l701.exe)
 ... and contract with generalized density number  0.
 Compute integral first derivatives.
 Leave Link  701 at Thu May 15 12:56:29 2025, MaxMem=   536870912 cpu:               0.6 elap:               0.1
 (Enter /home/szhao/Apps/g16/l702.exe)
 L702 exits ... SP integral derivatives will be done elsewhere.
 Leave Link  702 at Thu May 15 12:56:29 2025, MaxMem=   536870912 cpu:               0.2 elap:               0.0
 (Enter /home/szhao/Apps/g16/l703.exe)
 Integral derivatives from FoFJK, PRISM(SPDF).
 Compute integral first derivatives, UseDBF=F ICtDFT=           0.
 Calling FoFJK, ICntrl=      2127 FMM=F ISym2X=0 I1Cent= 0 IOpClX= 1 NMat=1 NMatS=1 NMatT=0.
 FoFJK:  IHMeth= 1 ICntrl=    2127 DoSepK=F KAlg= 0 I1Cent=           0 FoldK=F
 IRaf=         0 NMat=       1 IRICut=       1 DoRegI=T DoRafI=F ISym2E= 0 IDoP0=0 IntGTp=1.
 FoFCou: FMM=F IPFlag=           0 FMFlag=      100000 FMFlg1=         800
         NFxFlg=           0 DoJE=F BraDBF=F KetDBF=F FulRan=T
         wScrn=  0.000000 ICntrl=      2127 IOpCl=  1 I1Cent=           0 NGrid=           0
[...]
 Coeff-Com: -0.269D+00 0.380D-01 0.123D+01
 Coeff:      0.163D-03-0.182D-02 0.300D-02 0.887D-02 0.176D-01-0.276D-01
 Coeff:     -0.269D+00 0.380D-01 0.123D+01
 Gap=     0.206 Goal=   None    Shift=    0.000
 Gap=     0.206 Goal=   None    Shift=    0.000
 RMSDP=2.91D-08 MaxDP=4.95D-07 DE=-3.98D-12 OVMax= 1.69D-06

 Cycle  10  Pass 1  IDiag  1:
 E= -474.480872878308     Delta-E=       -0.000000000002 Rises=F Damp=F
 DIIS: error= 3.65D-09 at cycle  10 NSaved=  10.
 NSaved=10 IEnMin=10 EnMin= -474.480872878308     IErMin=10 ErrMin= 3.65D-09
 ErrMax= 3.65D-09  0.00D+00 EMaxC= 1.00D-01 BMatC= 6.44D-15 BMatP= 2.97D-13
 IDIUse=1 WtCom= 1.00D+00 WtEn= 0.00D+00
 Coeff-Com: -0.549D-05 0.923D-04-0.327D-03-0.902D-03-0.135D-02 0.934D-02
 Coeff-Com:  0.300D-01-0.711D-01-0.963D-01 0.113D+01
 Coeff:     -0.549D-05 0.923D-04-0.327D-03-0.902D-03-0.135D-02 0.934D-02
 Coeff:      0.300D-01-0.711D-01-0.963D-01 0.113D+01
 Gap=     0.206 Goal=   None    Shift=    0.000
 Gap=     0.206 Goal=   None    Shift=    0.000
 RMSDP=3.56D-09 MaxDP=5.59D-08 DE=-1.82D-12 OVMax= 2.00D-07

 SCF Done:  E(UM062X) =  -474.480872878     A.U. after   10 cycles
            NFock= 10  Conv=0.36D-08     -V/T= 2.0021
 <Sx>= 0.0000 <Sy>= 0.0000 <Sz>= 0.0000 <S**2>=-0.0000 S=-0.0000
 <L.S>=  0.00000000000    
 KE= 4.734967522231D+02 PE=-1.215610560392D+03 EE= 2.235065938020D+02
 Annihilation of the first spin contaminant:
 S**2 before annihilation    -0.0000,   after    -0.0000
 Leave Link  502 at Thu May 15 12:56:43 2025, MaxMem=   536870912 cpu:              23.9 elap:               3.1
 (Enter /home/szhao/Apps/g16/l701.exe)
 ... and contract with generalized density number  0.
 Compute integral first derivatives.
 Leave Link  701 at Thu May 15 12:56:43 2025, MaxMem=   536870912 cpu:               0.8 elap:               0.1
 (Enter /home/szhao/Apps/g16/l702.exe)
 L702 exits ... SP integral derivatives will be done elsewhere.
 Leave Link  702 at Thu May 15 12:56:43 2025, MaxMem=   536870912 cpu:               0.2 elap:               0.0
 (Enter /home/szhao/Apps/g16/l703.exe)
 Integral derivatives from FoFJK, PRISM(SPDF).
 Compute integral first derivatives, UseDBF=F ICtDFT=           0.
 Calling FoFJK, ICntrl=      2127 FMM=F ISym2X=0 I1Cent= 0 IOpClX= 1 NMat=1 NMatS=1 NMatT=0.
 FoFJK:  IHMeth= 1 ICntrl=    2127 DoSepK=F KAlg= 0 I1Cent=           0 FoldK=F
 IRaf=         0 NMat=       1 IRICut=       1 DoRegI=T DoRafI=F ISym2E= 0 IDoP0=0 IntGTp=1.
 FoFCou: FMM=F IPFlag=           0 FMFlag=      100000 FMFlg1=         800
         NFxFlg=           0 DoJE=F BraDBF=F KetDBF=F FulRan=T
         wScrn=  0.000000 ICntrl=      2127 IOpCl=  1 I1Cent=           0 NGrid=           0
         NMat0=    1 NMatS0=      1 NMatT0=    0 NMatD0=    1 NMtDS0=    0 NMtDT0=    0
 Symmetry not used in FoFCou.
 Leave Link  703 at Thu May 15 12:56:44 2025, MaxMem=   536870912 cpu:               4.5 elap:               0.6
 (Enter /home/szhao/Apps/g16/l716.exe)
 Dipole        = 6.69767726D-01-5.33997885D-01 3.23138669D-01
 -------------------------------------------------------------------
 Center     Atomic                   Forces (Hartrees/Bohr)
 Number     Number              X              Y              Z
 -------------------------------------------------------------------
      1        8          -0.000000000   -0.000000000   -0.000000000
      2       16          -0.000000000   -0.000000000   -0.000000000
      3        1           0.000012797   -0.000012684    0.000002892
      4        1           0.000013254    0.000007633    0.000000686
 -------------------------------------------------------------------
 Cartesian Forces:  Max     0.000013254 RMS     0.000006876
 Leave Link  716 at Thu May 15 12:56:44 2025, MaxMem=   536870912 cpu:               0.2 elap:               0.0
 (Enter /home/szhao/Apps/g16/l103.exe)

 GradGradGradGradGradGradGradGradGradGradGradGradGradGradGradGradGradGrad
 Berny optimization.
 Using GEDIIS/GDIIS optimizer.
 FormGI is forming the generalized inverse of G from B-inverse, IUseBI=4.
 Internal  Forces:  Max     0.000033969 RMS     0.000015159
 Search for a local minimum.
 Step number   6 out of a maximum of   21
 All quantities printed in internal units (Hartrees-Bohrs-Radians)
 RMS Force = .19482D-04 SwitMx=.10000D-02 MixMth= 2
 Mixed Optimization -- En-DIIS/RFO-DIIS
 Swapping is turned off.
 Update second derivatives using D2CorX and points    1    2    3    4    5
                                                      6
 DE= -1.44D-07 DEPred=-1.18D-07 R= 1.22D+00
 Trust test= 1.22D+00 RLast= 5.86D-03 DXMaxT set to 8.49D-01
 The second derivative matrix:
                          X1        Y1        Z1        X2        Y2
           X1           0.52309
           Y1          -0.03198   0.57077
           Z1          -0.01082   0.02059   0.50645
           X2          -0.00888   0.00719   0.00276   0.50508
           Y2           0.01313  -0.02295  -0.00731  -0.00389   0.50843
           Z2           0.01401  -0.02285  -0.00688  -0.00516   0.00828
           R1           0.00929  -0.08558  -0.01202  -0.00437   0.01261
           R2           0.00150  -0.01724  -0.00342   0.00219   0.00275
           A1          -0.03774   0.05557   0.01835   0.01151  -0.02216
           A2          -0.03181   0.02674   0.01113   0.01936  -0.01469
           D1          -0.00063   0.00906   0.00267  -0.00221  -0.00230
                          Z2        R1        R2        A1        A2
           Z2           0.51021
           R1           0.02729   0.55103
           R2           0.00795  -0.00021   0.25892
           A1          -0.02691   0.00655   0.00175   0.10184
           A2          -0.01214  -0.01635  -0.00463  -0.00892   0.14233
           D1           0.00018  -0.00048  -0.00085  -0.00072  -0.00096
                          D1
           D1           0.00483
 ITU=  0  1  1  1  1  0
     Eigenvalues ---    0.00482   0.09995   0.14327   0.25913   0.55179
     Eigenvalues --- 1000.000001000.000001000.000001000.000001000.00000
     Eigenvalues --- 1000.00000
 En-DIIS/RFO-DIIS/Sim-DIIS IScMMF=       -3 using points:     6    5    4
 RFO step:  Lambda=-1.02347143D-08.
 NNeg= 0 NGDIIS= 3 SimSw=  2.50D-01 Rises=F DC= -1.44D-07 SmlDif=  1.00D-05
 NRisDI= 0 DoIntr=F SqrtH=F CThrHd= 10.0 CDAdj=  3.0
 RMS Error=  0.9842487310D-04 NUsed= 3 OKEnD=F EnDIS=F
 InvSVX:  RCond= 1.02D-07 Info=           0 Equed=N FErr=  1.97D-14 BErr=  6.45D-17
 DidBck=F Rises=F RFO-DIIS coefs:    1.25353   -0.20438   -0.04915
 Iteration  1 RMS(Cart)=  0.00023809 RMS(Int)=  0.00000003
 Iteration  2 RMS(Cart)=  0.00000003 RMS(Int)=  0.00000000
 ITry= 1 IFail=0 DXMaxC= 6.53D-04 DCOld= 1.00D+10 DXMaxT= 8.49D-01 DXLimC= 3.00D+00 Rises=F
 Variable       Old X    -DE/DX   Delta X   Delta X   Delta X     New X
                                 (Linear)    (Quad)   (Total)
    X1       -2.24762   0.00001   0.00000   0.00000   0.00000  -2.24762
    Y1        0.00000  -0.00002   0.00000   0.00000   0.00000   0.00000
    Z1        0.00000   0.00000   0.00000   0.00000   0.00000   0.00000
    X2        2.24762   0.00001  -0.00000   0.00000   0.00000   2.24762
    Y2        0.00000   0.00000   0.00000   0.00000   0.00000   0.00000
    Z2        0.00000  -0.00000   0.00000   0.00000   0.00000   0.00000
    R1        1.82990   0.00001   0.00003  -0.00000   0.00003   1.82993
    R2        2.54055   0.00000   0.00003  -0.00002   0.00001   2.54057
    A1        1.63646  -0.00002  -0.00020  -0.00004  -0.00024   1.63622
    A2        1.51748   0.00003   0.00001   0.00025   0.00026   1.51774
    D1       -1.98438  -0.00000   0.00000   0.00001   0.00001  -1.98437
         Item               Value     Threshold  Converged?
 Maximum Force            0.000034     0.000450     YES
 RMS     Force            0.000019     0.000300     YES
 Maximum Displacement     0.000653     0.001800     YES
 RMS     Displacement     0.000238     0.001200     YES
 Predicted change in Energy=-6.777828D-09
 Optimization completed.
    -- Stationary point found.
                           ----------------------------
                           !   Optimized Parameters   !
                           ! (Angstroms and Degrees)  !
 --------------------------                            --------------------------
 ! Name  Definition              Value          Derivative Info.                !
 --------------------------------------------------------------------------------
 ! X1    R(1,-1)                -1.1894         -DE/DX =    0.0                 !
 ! Y1    R(1,-2)                 0.0            -DE/DX =    0.0                 !
 ! Z1    R(1,-3)                 0.0            -DE/DX =    0.0                 !
 ! X2    R(2,-1)                 1.1894         -DE/DX =    0.0                 !
 ! Y2    R(2,-2)                 0.0            -DE/DX =    0.0                 !
 ! Z2    R(2,-3)                 0.0            -DE/DX =    0.0                 !
 ! R1    R(1,3)                  0.9683         -DE/DX =    0.0                 !
 ! R2    R(2,4)                  1.3444         -DE/DX =    0.0                 !
 ! A1    A(2,1,3)               93.7625         -DE/DX =    0.0                 !
 ! A2    A(1,2,4)               86.9453         -DE/DX =    0.0                 !
 ! D1    D(3,1,2,4)           -113.6966         -DE/DX =    0.0                 !
 --------------------------------------------------------------------------------
 Lowest energy point so far.  Saving SCF results.
 Largest change from initial coordinates is atom    4       0.351 Angstoms.
 GradGradGradGradGradGradGradGradGradGradGradGradGradGradGradGradGradGrad

 Leave Link  103 at Thu May 15 12:56:44 2025, MaxMem=   536870912 cpu:               0.0 elap:               0.0
 (Enter /home/szhao/Apps/g16/l202.exe)
                          Input orientation:                          
 ---------------------------------------------------------------------
 Center     Atomic      Atomic             Coordinates (Angstroms)
 Number     Number       Type             X           Y           Z
 ---------------------------------------------------------------------
      1          8           0       -1.189392    0.000000    0.000000
      2         16           0        1.189392    0.000000    0.000000
      3          1           0       -1.252934   -0.953089   -0.158956
      4          1           0        1.117749    0.329958    1.301313
 ---------------------------------------------------------------------
                    Distance matrix (angstroms):
                    1          2          3          4
     1  O    0.000000
     2  S    2.378783   0.000000
     3  H    0.968340   2.626519   0.000000
     4  H    2.669304   1.344404   3.065735   0.000000
 Symmetry turned off by external request.
 Stoichiometry    H2OS
 Framework group  C1[X(H2OS)]
 Deg. of freedom     6
 Full point group                 C1      NOp   1
 Rotational constants (GHZ):         191.0480389           7.8586382           7.6987444
 Leave Link  202 at Thu May 15 12:56:44 2025, MaxMem=   536870912 cpu:               0.0 elap:               0.0
 (Enter /home/szhao/Apps/g16/l601.exe)
 Copying SCF densities to generalized density rwf, IOpCl= 1 IROHF=0.

 **********************************************************************

            Population analysis using the SCF density.

 **********************************************************************

 Alpha  occ. eigenvalues --  -89.97141 -19.67329  -8.33168  -6.25386  -6.25019
 Alpha  occ. eigenvalues --   -6.24476  -1.09239  -0.82960  -0.53115  -0.49182
 Alpha  occ. eigenvalues --   -0.40657  -0.39774  -0.34615
 Alpha virt. eigenvalues --   -0.14062   0.01547   0.04119   0.04828   0.05744
 Alpha virt. eigenvalues --    0.07598   0.15284   0.19507   0.20003   0.21646
 Alpha virt. eigenvalues --    0.27122   0.31504   0.33971   0.35201   0.40482
 Alpha virt. eigenvalues --    0.54952   0.61588   0.71843   0.72818   0.79496
 Alpha virt. eigenvalues --    0.80136   0.97642   1.04934   1.09184   1.15434
 Alpha virt. eigenvalues --    1.37382   1.39783   1.41104   1.47348   1.50491
 Alpha virt. eigenvalues --    1.65289   1.66874   1.79331   2.07241   2.10220
 Alpha virt. eigenvalues --    2.48844   2.56487   2.89311   2.93382   3.17522
 Alpha virt. eigenvalues --    3.18864   3.85594   5.05538   5.08216   5.53301
 Alpha virt. eigenvalues --    7.85536  17.41453  17.46038  17.46612  49.89005
 Alpha virt. eigenvalues --  189.11959
  Beta  occ. eigenvalues --  -89.97141 -19.67329  -8.33168  -6.25386  -6.25019
  Beta  occ. eigenvalues --   -6.24476  -1.09239  -0.82960  -0.53115  -0.49182
  Beta  occ. eigenvalues --   -0.40657  -0.39774  -0.34615
  Beta virt. eigenvalues --   -0.14062   0.01547   0.04119   0.04828   0.05744
  Beta virt. eigenvalues --    0.07598   0.15284   0.19507   0.20003   0.21646
  Beta virt. eigenvalues --    0.27122   0.31504   0.33971   0.35201   0.40482
  Beta virt. eigenvalues --    0.54952   0.61588   0.71843   0.72818   0.79496
  Beta virt. eigenvalues --    0.80136   0.97642   1.04934   1.09184   1.15434
  Beta virt. eigenvalues --    1.37382   1.39783   1.41104   1.47348   1.50491
  Beta virt. eigenvalues --    1.65289   1.66874   1.79331   2.07241   2.10220
  Beta virt. eigenvalues --    2.48844   2.56487   2.89311   2.93382   3.17522
  Beta virt. eigenvalues --    3.18864   3.85594   5.05538   5.08216   5.53301
  Beta virt. eigenvalues --    7.85536  17.41453  17.46038  17.46612  49.89005
  Beta virt. eigenvalues --  189.11959
          Condensed to atoms (all electrons):
               1          2          3          4
     1  O    8.079806   0.112086   0.255614  -0.011733
     2  S    0.112086  15.539121   0.002166   0.270263
     3  H    0.255614   0.002166   0.491434  -0.000623
     4  H   -0.011733   0.270263  -0.000623   0.634092
          Atomic-Atomic Spin Densities.
               1          2          3          4
     1  O    0.000000  -0.000000  -0.000000   0.000000
     2  S   -0.000000   0.000000   0.000000  -0.000000
     3  H   -0.000000   0.000000   0.000000  -0.000000
     4  H    0.000000  -0.000000  -0.000000   0.000000
 Mulliken charges and spin densities:
               1          2
     1  O   -0.435774   0.000000
     2  S    0.076364  -0.000000
     3  H    0.251408  -0.000000
     4  H    0.108001  -0.000000
 Sum of Mulliken charges =  -0.00000  -0.00000
 Mulliken charges and spin densities with hydrogens summed into heavy atoms:
               1          2
     1  O   -0.184365   0.000000
     2  S    0.184365  -0.000000
 Electronic spatial extent (au):  <R**2>=            183.3294
 Charge=             -0.0000 electrons
 Dipole moment (field-independent basis, Debye):
    X=              1.7024    Y=             -1.3573    Z=              0.8213  Tot=              2.3270
 Quadrupole moment (field-independent basis, Debye-Ang):
   XX=            -18.4389   YY=            -19.8082   ZZ=            -18.5779
   XY=              2.8269   XZ=              1.8995   YZ=              1.3970
 Traceless Quadrupole moment (field-independent basis, Debye-Ang):
   XX=              0.5027   YY=             -0.8665   ZZ=              0.3637
   XY=              2.8269   XZ=              1.8995   YZ=              1.3970
 Octapole moment (field-independent basis, Debye-Ang**2):
  XXX=            -19.5190  YYY=             -0.6872  ZZZ=             -0.3706  XYY=            -12.6062
  XXY=             -2.2365  XXZ=              0.8666  XZZ=             -5.3719  YZZ=              0.6974
  YYZ=             -0.8861  XYZ=              0.6521
 Hexadecapole moment (field-independent basis, Debye-Ang**3):
 XXXX=           -174.1828 YYYY=            -28.5360 ZZZZ=            -26.0564 XXXY=              2.9280
 XXXZ=              0.9799 YYYX=              0.5145 YYYZ=              0.2797 ZZZX=             -0.5692
 ZZZY=              0.8294 XXYY=            -36.3228 XXZZ=            -34.9421 YYZZ=             -9.7626
 XXYZ=              1.9595 YYXZ=             -0.3647 ZZXY=             -0.0396
 N-N= 4.412634148847D+01 E-N=-1.215610560468D+03  KE= 4.734967522231D+02
                          Isotropic Fermi Contact Couplings
        Atom                 a.u.       MegaHertz       Gauss      10(-4) cm-1
     1  O(17)             -0.00000       0.00000       0.00000       0.00000
     2  S(33)              0.00000       0.00000       0.00000       0.00000
     3  H(1)               0.00000       0.00000       0.00000       0.00000
     4  H(1)              -0.00000      -0.00000      -0.00000      -0.00000
 --------------------------------------------------------
       Center         ----  Spin Dipole Couplings  ----
                      3XX-RR        3YY-RR        3ZZ-RR
 --------------------------------------------------------
     1   Atom        0.000000      0.000000      0.000000
     2   Atom        0.000000      0.000000      0.000000
     3   Atom        0.000000      0.000000      0.000000
     4   Atom        0.000000      0.000000      0.000000
 --------------------------------------------------------
                        XY            XZ            YZ
 --------------------------------------------------------
     1   Atom        0.000000      0.000000      0.000000
     2   Atom        0.000000      0.000000      0.000000
     3   Atom        0.000000      0.000000      0.000000
     4   Atom        0.000000      0.000000      0.000000
 --------------------------------------------------------


 ---------------------------------------------------------------------------------
              Anisotropic Spin Dipole Couplings in Principal Axis System
 ---------------------------------------------------------------------------------

       Atom             a.u.   MegaHertz   Gauss  10(-4) cm-1        Axes

              Baa     0.0000    -0.000    -0.000    -0.000  1.0000  0.0000  0.0000
     1 O(17)  Bbb     0.0000    -0.000    -0.000    -0.000 -0.0000  1.0000  0.0000
              Bcc     0.0000    -0.000    -0.000    -0.000  0.0000  0.0000  1.0000
 
              Baa     0.0000     0.000     0.000     0.000  1.0000  0.0000  0.0000
     2 S(33)  Bbb     0.0000     0.000     0.000     0.000 -0.0000  1.0000  0.0000
              Bcc     0.0000     0.000     0.000     0.000  0.0000  0.0000  1.0000
 
              Baa     0.0000     0.000     0.000     0.000  1.0000  0.0000  0.0000
     3 H(1)   Bbb     0.0000     0.000     0.000     0.000 -0.0000  1.0000  0.0000
              Bcc     0.0000     0.000     0.000     0.000  0.0000  0.0000  1.0000
 
              Baa     0.0000     0.000     0.000     0.000  1.0000  0.0000  0.0000
     4 H(1)   Bbb     0.0000     0.000     0.000     0.000 -0.0000  1.0000  0.0000
              Bcc     0.0000     0.000     0.000     0.000  0.0000  0.0000  1.0000
 

 ---------------------------------------------------------------------------------

 No NMR shielding tensors so no spin-rotation constants.
 Leave Link  601 at Thu May 15 12:56:44 2025, MaxMem=   536870912 cpu:               1.1 elap:               0.1
 (Enter /home/szhao/Apps/g16/l9999.exe)
 1\1\GINC-NODE01\FOpt\UM062X\6-311+G(d,p)\H2O1S1\SZHAO\15-May-2025\0\\#
 p opt UM062X/6-311+G** nosymm int=superfine\\Title Card Required\\0,1\
 O,-1.18939168,0.,0.\S,1.18939168,0.,0.\H,-1.2529341504,-0.9530888035,-
 0.1589560192\H,1.1177486805,0.3299581176,1.3013132716\\Version=ES64L-G
 16RevA.03\HF=-474.4808729\S2=0.\S2-1=0.\S2A=0.\RMSD=3.556e-09\RMSF=6.8
 76e-06\Dipole=0.6697677,-0.5339979,0.3231387\Quadrupole=0.373774,-0.64
 42034,0.2704293,2.1017284,1.4122383,1.038634\PG=C01 [X(H2O1S1)]\\@


 KNOWLEDGE IS CHIMERA - FOR BEYOND IT LIES OTHER KNOWLEDGE,
 AND THE INCOMPLETENESS OF WHAT IS KNOWN RENDERS THE KNOWING FALSE.
     -- THE THOMAS COVENANT CHRONICLES
 Job cpu time:       0 days  0 hours  4 minutes  9.9 seconds.
 Elapsed time:       0 days  0 hours  0 minutes 32.1 seconds.
 File lengths (MBytes):  RWF=     10 Int=      0 D2E=      0 Chk=      2 Scr=      1
 Normal termination of Gaussian 16 at Thu May 15 12:56:44 2025.
