Title Card Required                                                     
FOpt      UM062X                                                      6-311+G(d,p)        
Number of atoms                            I                4
Info1-9                                    I   N=           9
          13          13           0           0           0         110
           2          18        -502
Full Title                                 C   N=           2
Title Card Required     
Route                                      C   N=           5
#p opt UM062X/6-311+G** nosymm int=superfine SCF=NoVarAcc   
Charge                                     I                0
Multiplicity                               I                1
Number of electrons                        I               14
Number of alpha electrons                  I                7
Number of beta electrons                   I                7
Number of basis functions                  I               56
Number of independent functions            I               56
Number of point charges in /Mol/           I                0
Number of translation vectors              I                0
Atomic numbers                             I   N=           4
           6           6           1           1
Nuclear charges                            R   N=           4
  6.00000000E+00  6.00000000E+00  1.00000000E+00  1.00000000E+00
Current cartesian coordinates              R   N=          12
 -8.37644726E+00  0.00000000E+00  0.00000000E+00  8.37644726E+00  0.00000000E+00
  0.00000000E+00 -1.04936141E+01 -1.41767365E-05  1.41766865E-05  1.04936140E+01
  9.87617467E-06 -9.87610090E-06
Number of symbols in /Mol/                 I                0
Force Field                                I                0
Atom Types                                 C   N=           4
                                                
Int Atom Types                             I   N=           4
           0           0           0           0
MM charges                                 R   N=           4
  0.00000000E+00  0.00000000E+00  0.00000000E+00  0.00000000E+00
Integer atomic weights                     I   N=           4
          12          12           1           1
Real atomic weights                        R   N=           4
  1.20000000E+01  1.20000000E+01  1.00782504E+00  1.00782504E+00
Atom fragment info                         I   N=           4
           0           0           0           0
Atom residue num                           I   N=           4
           0           0           0           0
Nuclear spins                              I   N=           4
           0           0           1           1
Nuclear ZEff                               R   N=           4
 -3.60000000E+00 -3.60000000E+00 -1.00000000E+00 -1.00000000E+00
Nuclear ZNuc                               R   N=           4
  6.00000000E+00  6.00000000E+00  1.00000000E+00  1.00000000E+00
Nuclear QMom                               R   N=           4
  0.00000000E+00  0.00000000E+00  0.00000000E+00  0.00000000E+00
Nuclear GFac                               R   N=           4
  0.00000000E+00  0.00000000E+00  2.79284600E+00  2.79284600E+00
MicOpt                                     I   N=           4
          -2          -2          -1          -1
Number of residues                         I                0
Number of secondary structures             I                0
Redundant internal dimensions              I   N=           4
          12           8           4           0
Redundant internal coordinate indices      I   N=          48
           1          -1           0           0           1          -2
           0           0           1          -3           0           0
           2          -1           0           0           2          -2
           0           0           2          -3           0           0
           1           3           0           0           2           4
           0           0           2           1           3          -4
           1           2           4          -4           2           1
           3          -8           1           2           4          -8
Redundant internal coordinates             R   N=          12
 -8.37644726E+00  0.00000000E+00  0.00000000E+00  8.37644726E+00  0.00000000E+00
  0.00000000E+00  2.11716685E+00  2.11716678E+00  3.14158596E+00  3.14158799E+00
  3.14158596E+00  3.14158799E+00
ZRed-IntVec                                I   N=          12
          -1          -1          -1          -1          -1          -1
           0           0           0           0           0           0
ZRed-FPVec                                 R   N=          12
  0.00000000E+00  0.00000000E+00  0.00000000E+00  0.00000000E+00  0.00000000E+00
  0.00000000E+00  0.00000000E+00  0.00000000E+00  0.00000000E+00  0.00000000E+00
  0.00000000E+00  0.00000000E+00
ZRed-Constraint1                           R   N=          12
 -8.37644726E+00  0.00000000E+00  0.00000000E+00  8.37644726E+00  0.00000000E+00
  0.00000000E+00  2.12190166E+00  2.12189977E+00  3.14158731E+00  3.14158909E+00
  3.14158731E+00  3.14158909E+00
ZRed-Constraint2                           R   N=          12
 -8.37644726E+00  0.00000000E+00  0.00000000E+00  8.37644726E+00  0.00000000E+00
  0.00000000E+00  0.00000000E+00  0.00000000E+00  0.00000000E+00  0.00000000E+00
  0.00000000E+00  0.00000000E+00
Number of contracted shells                I               20
Number of primitive shells                 I               38
Pure/Cartesian d shells                    I                0
Pure/Cartesian f shells                    I                0
Highest angular momentum                   I                2
Largest degree of contraction              I                6
Shell types                                I   N=          20
           0          -1          -1          -1          -1          -2
           0          -1          -1          -1          -1          -2
           0           0           0           1           0           0
           0           1
Number of primitives per shell             I   N=          20
           6           3           1           1           1           1
           6           3           1           1           1           1
           3           1           1           1           3           1
           1           1
Shell to atom map                          I   N=          20
           1           1           1           1           1           1
           2           2           2           2           2           2
           3           3           3           3           4           4
           4           4
Primitive exponents                        R   N=          38
  4.56324000E+03  6.82024000E+02  1.54973000E+02  4.44553000E+01  1.30290000E+01
  1.82773000E+00  2.09642000E+01  4.80331000E+00  1.45933000E+00  4.83456000E-01
  1.45585000E-01  4.38000000E-02  6.26000000E-01  4.56324000E+03  6.82024000E+02
  1.54973000E+02  4.44553000E+01  1.30290000E+01  1.82773000E+00  2.09642000E+01
  4.80331000E+00  1.45933000E+00  4.83456000E-01  1.45585000E-01  4.38000000E-02
  6.26000000E-01  3.38650000E+01  5.09479000E+00  1.15879000E+00  3.25840000E-01
  1.02741000E-01  7.50000000E-01  3.38650000E+01  5.09479000E+00  1.15879000E+00
  3.25840000E-01  1.02741000E-01  7.50000000E-01
Contraction coefficients                   R   N=          38
  1.96665025E-03  1.52306019E-02  7.61269097E-02  2.60801033E-01  6.16462078E-01
  2.21006028E-01  1.14660081E-01  9.19999648E-01 -3.03068213E-03  1.00000000E+00
  1.00000000E+00  1.00000000E+00  1.00000000E+00  1.96665025E-03  1.52306019E-02
  7.61269097E-02  2.60801033E-01  6.16462078E-01  2.21006028E-01  1.14660081E-01
  9.19999648E-01 -3.03068213E-03  1.00000000E+00  1.00000000E+00  1.00000000E+00
  1.00000000E+00  2.54938145E-02  1.90373109E-01  8.52161486E-01  1.00000000E+00
  1.00000000E+00  1.00000000E+00  2.54938145E-02  1.90373109E-01  8.52161486E-01
  1.00000000E+00  1.00000000E+00  1.00000000E+00
P(S=P) Contraction coefficients            R   N=          38
  0.00000000E+00  0.00000000E+00  0.00000000E+00  0.00000000E+00  0.00000000E+00
  0.00000000E+00  4.02486927E-02  2.37593957E-01  8.15853851E-01  1.00000000E+00
  1.00000000E+00  1.00000000E+00  0.00000000E+00  0.00000000E+00  0.00000000E+00
  0.00000000E+00  0.00000000E+00  0.00000000E+00  0.00000000E+00  4.02486927E-02
  2.37593957E-01  8.15853851E-01  1.00000000E+00  1.00000000E+00  1.00000000E+00
  0.00000000E+00  0.00000000E+00  0.00000000E+00  0.00000000E+00  0.00000000E+00
  0.00000000E+00  0.00000000E+00  0.00000000E+00  0.00000000E+00  0.00000000E+00
  0.00000000E+00  0.00000000E+00  0.00000000E+00
Coordinates of each shell                  R   N=          60
 -8.37644726E+00  0.00000000E+00  0.00000000E+00 -8.37644726E+00  0.00000000E+00
  0.00000000E+00 -8.37644726E+00  0.00000000E+00  0.00000000E+00 -8.37644726E+00
  0.00000000E+00  0.00000000E+00 -8.37644726E+00  0.00000000E+00  0.00000000E+00
 -8.37644726E+00  0.00000000E+00  0.00000000E+00  8.37644726E+00  0.00000000E+00
  0.00000000E+00  8.37644726E+00  0.00000000E+00  0.00000000E+00  8.37644726E+00
  0.00000000E+00  0.00000000E+00  8.37644726E+00  0.00000000E+00  0.00000000E+00
  8.37644726E+00  0.00000000E+00  0.00000000E+00  8.37644726E+00  0.00000000E+00
  0.00000000E+00 -1.04936141E+01 -1.41767365E-05  1.41766865E-05 -1.04936141E+01
 -1.41767365E-05  1.41766865E-05 -1.04936141E+01 -1.41767365E-05  1.41766865E-05
 -1.04936141E+01 -1.41767365E-05  1.41766865E-05  1.04936140E+01  9.87617467E-06
 -9.87610090E-06  1.04936140E+01  9.87617467E-06 -9.87610090E-06  1.04936140E+01
  9.87617467E-06 -9.87610090E-06  1.04936140E+01  9.87617467E-06 -9.87610090E-06
Num ILSW                                   I              100
ILSW                                       I   N=         100
           1           0           0           1           2           0
           0           0           0           0        4336          -1
           7           0           0           0           2           0
           0           0           0           0           1           0
           1           1           0           0           0           0
           0           0      100000           0          -1           0
           0           0           0           0           0           0
           0           0           0           1           0           0
           0 -2000000000           1           0           0           0
           0           0           4          52           0           0
           0           0          55           0           0           0
           0           0           0           4           0           1
           0           0           0           0           0           0
           0           0           0           0           0           0
           0           0           0           0           0           0
           0           0           0           0           0           0
           0           0           0           0
Num RLSW                                   I               52
RLSW                                       R   N=          52
  1.00000000E+00  1.00000000E+00  1.00000000E+00  1.00000000E+00  5.40000000E-01
  0.00000000E+00  0.00000000E+00  1.00000000E+00  0.00000000E+00  0.00000000E+00
  0.00000000E+00  0.00000000E+00  1.00000000E+00  0.00000000E+00  0.00000000E+00
  0.00000000E+00  0.00000000E+00  1.00000000E+00  0.00000000E+00  0.00000000E+00
  0.00000000E+00  0.00000000E+00  1.00000000E+00  0.00000000E+00  0.00000000E+00
  0.00000000E+00  0.00000000E+00  1.00000000E+00  0.00000000E+00  0.00000000E+00
  0.00000000E+00  0.00000000E+00  1.00000000E+00  0.00000000E+00  0.00000000E+00
  0.00000000E+00  0.00000000E+00  0.00000000E+00  1.00000000E+00  1.00000000E+00
  0.00000000E+00  1.00000000E+00  0.00000000E+00  0.00000000E+00  0.00000000E+00
  0.00000000E+00  0.00000000E+00  0.00000000E+00  0.00000000E+00  0.00000000E+00
  0.00000000E+00  0.00000000E+00
MxBond                                     I                2
NBond                                      I   N=           4
           2           2           1           1
IBond                                      I   N=           8
           2           3           1           4           1           0
           2           0
RBond                                      R   N=           8
  1.00000000E-01  1.00000000E+00  1.00000000E-01  1.00000000E+00  1.00000000E+00
  0.00000000E+00  1.00000000E+00  0.00000000E+00
Virial Ratio                               R      2.003168377050159E+00
SCF Energy                                 R     -7.681956985656019E+01
Total Energy                               R     -7.681956985656019E+01
S**2                                       R      6.572520305780927E-14
S**2 after annihilation                    R      4.973799150320860E-14
RMS Force                                  R      2.996890105236593E-05
RMS Density                                R      1.887338562879300E-09
Job Status                                 I                1
Nuclear derivative order                   I                1
External E-field                           R   N=          35
  0.00000000E+00  0.00000000E+00  0.00000000E+00  0.00000000E+00  0.00000000E+00
  0.00000000E+00  0.00000000E+00  0.00000000E+00  0.00000000E+00  0.00000000E+00
  0.00000000E+00  0.00000000E+00  0.00000000E+00  0.00000000E+00  0.00000000E+00
  0.00000000E+00  0.00000000E+00  0.00000000E+00  0.00000000E+00  0.00000000E+00
  0.00000000E+00  0.00000000E+00  0.00000000E+00  0.00000000E+00  0.00000000E+00
  0.00000000E+00  0.00000000E+00  0.00000000E+00  0.00000000E+00  0.00000000E+00
  0.00000000E+00  0.00000000E+00  0.00000000E+00  0.00000000E+00  0.00000000E+00
IOpCl                                      I                1
IROHF                                      I                0
Alpha Orbital Energies                     R   N=          56
 -1.06662043E+01 -1.06662040E+01 -7.24096554E-01 -7.24029962E-01 -3.85779257E-01
 -3.85735134E-01 -1.96382336E-01 -1.64555576E-01 -9.60885384E-02 -9.60634658E-02
  3.37722024E-02  3.38304802E-02  7.51263552E-02  8.13076782E-02  8.28240607E-02
  8.95709914E-02  9.11276531E-02  9.31124527E-02  1.73729473E-01  1.75216945E-01
  4.51740432E-01  4.58868530E-01  5.72397296E-01  5.73601371E-01  5.77852660E-01
  5.79102323E-01  6.12850863E-01  6.14219599E-01  6.80836202E-01  6.91515745E-01
  1.12694358E+00  1.12694987E+00  1.13717266E+00  1.13726711E+00  1.33450922E+00
  1.33455417E+00  1.34688700E+00  1.34693375E+00  1.58011372E+00  1.58262953E+00
  1.84907398E+00  1.84911623E+00  1.85998580E+00  1.86003748E+00  2.38440809E+00
  2.38525779E+00  2.48726380E+00  2.49013993E+00  2.70475858E+00  2.70551946E+00
  2.70876841E+00  2.70953025E+00  3.16855459E+00  3.17357221E+00  2.35091807E+01
  2.35118281E+01
Beta Orbital Energies                      R   N=          56
 -1.06662043E+01 -1.06662040E+01 -7.24096554E-01 -7.24029962E-01 -3.85779257E-01
 -3.85735134E-01 -1.96382336E-01 -1.64555576E-01 -9.60885384E-02 -9.60634658E-02
  3.37722024E-02  3.38304802E-02  7.51263552E-02  8.13076782E-02  8.28240607E-02
  8.95709914E-02  9.11276531E-02  9.31124527E-02  1.73729473E-01  1.75216945E-01
  4.51740432E-01  4.58868530E-01  5.72397296E-01  5.73601371E-01  5.77852660E-01
  5.79102323E-01  6.12850863E-01  6.14219599E-01  6.80836202E-01  6.91515745E-01
  1.12694358E+00  1.12694987E+00  1.13717266E+00  1.13726711E+00  1.33450922E+00
  1.33455417E+00  1.34688700E+00  1.34693375E+00  1.58011372E+00  1.58262953E+00
  1.84907398E+00  1.84911623E+00  1.85998580E+00  1.86003748E+00  2.38440809E+00
  2.38525779E+00  2.48726380E+00  2.49013993E+00  2.70475858E+00  2.70551946E+00
  2.70876841E+00  2.70953025E+00  3.16855459E+00  3.17357221E+00  2.35091807E+01
  2.35118281E+01
Alpha MO coefficients                      R   N=        3136
  4.01072228E-01  3.30421521E-01 -1.28409365E-03 -8.58657980E-09  8.58656717E-09
  6.71344298E-03 -9.79445156E-04 -6.50993625E-09  6.50990627E-09 -2.79324704E-03
 -3.01560607E-05 -3.34950386E-10  3.34949782E-10  3.03980514E-04  4.34044345E-04
  3.06323317E-09 -3.06322389E-09 -3.82269321E-04 -8.58977701E-09 -4.25674704E-05
  6.62089681E-04  8.58967311E-09  3.96550052E-01  3.26695976E-01  1.26957426E-03
  5.91728885E-09 -5.91725349E-09  6.63754306E-03  9.68523014E-04  4.47925810E-09
 -4.47921938E-09 -2.76121124E-03  2.94755485E-05  2.37850215E-10 -2.37846648E-10
  3.00682728E-04 -4.28359688E-04 -2.11554660E-09  2.11553213E-09 -3.77944984E-04
 -5.91662039E-09 -4.20840461E-05  6.54599939E-04  5.91657348E-09  2.31958956E-04
 -1.95195863E-03  1.56235713E-03 -1.37599118E-03 -9.20397021E-09  9.20393751E-09
  2.29249036E-04 -1.92952340E-03  1.54380252E-03  1.36049083E-03  6.33922107E-09
 -6.33917345E-09 -3.96550242E-01 -3.26693465E-01  1.27322824E-03  8.47517286E-09
 -8.47516239E-09 -6.65580312E-03  9.57733222E-04  6.50178980E-09 -6.50176595E-09
  2.80948991E-03  5.98451098E-05  2.35163994E-10 -2.35166441E-10 -2.89107039E-04
 -4.98890290E-04 -3.15696096E-09  3.15694957E-09  3.79216436E-04  8.51588010E-09
  4.23928966E-05 -6.56802013E-04 -8.51577776E-09  4.01072416E-01  3.30419038E-01
  1.28770645E-03  5.97297542E-09 -5.97294348E-09  6.73149775E-03  9.68777706E-04
  4.58162758E-09 -4.58159431E-09 -2.84098122E-03  6.01831908E-05  1.61458450E-10
 -1.61461675E-10  2.92535094E-04 -5.03779796E-04 -2.21711485E-09  2.21709782E-09
 -3.83526610E-04 -6.00010740E-09 -4.28728298E-05  6.64267225E-04  6.00006051E-09
 -2.37675695E-04  1.96760476E-03 -1.62755256E-03  1.35924345E-03  9.10232959E-09
 -9.10229770E-09  2.40290487E-04 -1.98961157E-03  1.64516342E-03  1.37475839E-03
  6.41342373E-09 -6.41337585E-09 -7.66120014E-02 -1.23993338E-01 -5.44930489E-02
 -3.64186956E-07  3.64185514E-07  3.52818702E-01 -8.20958053E-02 -5.48426763E-07
  5.48424679E-07  2.45635008E-01 -3.30465776E-02 -2.19118704E-07  2.19117530E-07
 -6.37574394E-04 -7.85497450E-04 -5.64165874E-09  5.64153871E-09 -5.17448398E-03
 -9.86780662E-08 -3.19318496E-03  8.96095287E-03  9.86683852E-08 -7.66246175E-02
 -1.24013757E-01  5.45020294E-02  2.53643088E-07 -2.53640883E-07  3.52876800E-01
  8.21093360E-02  3.81951769E-07 -3.81948500E-07  2.45675461E-01  3.30520071E-02
  1.52302827E-07 -1.52301095E-07 -6.37692630E-04  7.85659017E-04  3.90642393E-09
 -3.90621948E-09 -5.17533686E-03 -6.87535000E-08 -3.19371356E-03  8.96242984E-03
  6.87471508E-08  1.02486016E-01  1.30452858E-01  1.57922777E-02  1.58209425E-02
  1.05959198E-07 -1.05958850E-07  1.02502900E-01  1.30474365E-01  1.57948560E-02
 -1.58235488E-02 -7.38418439E-08  7.38413247E-08 -7.66218529E-02 -1.24008104E-01
 -5.45174812E-02 -3.64378042E-07  3.64377150E-07  3.52857001E-01 -8.21513528E-02
 -5.48573696E-07  5.48572455E-07  2.45718501E-01 -3.29714839E-02 -2.19224432E-07
  2.19224187E-07 -7.17819951E-04 -9.81125624E-04 -5.89947835E-09  5.89959248E-09
 -5.17740904E-03 -9.86212626E-08 -3.21259697E-03  8.96600999E-03  9.86115371E-08
  7.66092352E-02  1.23987682E-01 -5.45085104E-02 -2.53693508E-07  2.53692110E-07
 -3.52798891E-01 -8.21378360E-02 -3.81923191E-07  3.81921161E-07 -2.45678040E-01
 -3.29660419E-02 -1.52341599E-07  1.52341233E-07  7.17714989E-04 -9.80996270E-04
 -4.06436097E-09  4.06452402E-09  5.17655721E-03  6.86914026E-08  3.21207069E-03
 -8.96453484E-03 -6.86850155E-08  1.02508752E-01  1.30594391E-01  1.56640364E-02
  1.58271432E-02  1.06014190E-07 -1.06013816E-07 -1.02491879E-01 -1.30572909E-01
 -1.56614346E-02  1.58245379E-02  7.38563095E-08 -7.38557442E-08 -4.29164867E-02
 -7.08878549E-02  1.53537752E-01  1.02719259E-06 -1.02718980E-06  2.08633293E-01
  2.21231663E-01  1.48025612E-06 -1.48025211E-06  2.98377784E-01  1.45510393E-01
  9.74039551E-07 -9.74037464E-07  4.25471784E-02  9.15962431E-03  6.30928100E-08
 -6.30929269E-08  1.23823466E-02  3.05466691E-07 -2.85968813E-03 -2.14482113E-02
 -3.05476534E-07 -4.29185140E-02 -7.08912037E-02 -1.53545000E-01 -7.15647032E-07
  7.15642709E-07  2.08643151E-01 -2.21242107E-01 -1.03129613E-06  1.03128996E-06
  2.98391875E-01 -1.45517256E-01 -6.78904322E-07  6.78900897E-07  4.25491785E-02
 -9.16006874E-03 -4.42734855E-08  4.42735780E-08  1.23829309E-02  2.12712187E-07
 -2.85982382E-03 -2.14492234E-02 -2.12719749E-07 -9.49165051E-02 -1.75914203E-01
 -1.16668822E-01 -7.22562919E-03 -4.85509635E-08  4.85507333E-08 -9.49209828E-02
 -1.75922506E-01 -1.16674312E-01  7.22596979E-03  3.38637652E-08 -3.38634348E-08
 -4.29369898E-02 -7.09242000E-02  1.53540923E-01  1.02730902E-06 -1.02730515E-06
  2.08782008E-01  2.21258514E-01  1.48025369E-06 -1.48024804E-06  2.98312774E-01
  1.45470483E-01  9.74738603E-07 -9.74734694E-07  4.23359087E-02  9.43164609E-03
  6.38080392E-08 -6.38076739E-08  1.23766434E-02  3.05460800E-07 -2.87814362E-03
 -2.14383418E-02 -3.05470732E-07  4.29349647E-02  7.09208552E-02  1.53533677E-01
  7.15663391E-07 -7.15657480E-07 -2.08772164E-01  2.21248072E-01  1.03119392E-06
 -1.03118532E-06 -2.98298701E-01  1.45463612E-01  6.79350348E-07 -6.79344213E-07
 -4.23339022E-02  9.43121302E-03  4.47441050E-08 -4.47434754E-08 -1.23760591E-02
 -2.12688097E-07  2.87800848E-03  2.14373297E-02  2.12695765E-07 -9.48942527E-02
 -1.75982466E-01 -1.16329856E-01 -7.22024863E-03 -4.85387473E-08  4.85385921E-08
  9.48897712E-02  1.75974160E-01  1.16324348E-01 -7.21990738E-03 -3.38525697E-08
  3.38523571E-08  2.45011524E-13  4.06472247E-13  2.06777134E-10  1.32215245E-01
  1.32246639E-01 -1.47307888E-12  3.16789521E-10  2.02524424E-01  2.02572512E-01
 -6.35006461E-13  3.49827679E-10  2.24051949E-01  2.24105149E-01  3.44943787E-12
  1.04599652E-10  6.75910181E-02  6.76070676E-02  1.34392573E-07 -1.14561166E-02
 -1.86070411E-11  7.75555949E-08 -1.14533971E-02 -1.28984024E-13 -2.15958973E-13
  1.41690377E-10  1.32215289E-01  1.32246683E-01  8.51520493E-13  2.17016466E-10
  2.02524492E-01  2.02572580E-01 -1.39947377E-13  2.39845586E-10  2.24052023E-01
  2.24105222E-01 -1.77318823E-12  7.11180432E-11  6.75910362E-02  6.76070857E-02
 -9.34963882E-08  1.14561210E-02  1.31655921E-11 -5.39555089E-08  1.14534015E-02
 -4.45550019E-14 -1.19892736E-13 -2.27488613E-12  1.92652900E-11  1.23512766E-02
  1.23542094E-02  6.28146501E-14  6.42196267E-14  1.78369403E-12  1.31893264E-11
  1.23512811E-02  1.23542138E-02 -4.77240383E-13 -8.09196352E-13  2.07611755E-10
  1.32180409E-01  1.32211794E-01  2.74328337E-12  3.17714626E-10  2.02460382E-01
  2.02508455E-01  2.60385033E-12  3.52758472E-10  2.23967006E-01  2.24020185E-01
 -5.99148323E-12  1.05844861E-10  6.77917663E-02  6.78078628E-02  1.34014288E-07
 -1.18169993E-02 -1.85839717E-11  7.73361813E-08 -1.18141941E-02 -3.37985624E-13
 -5.72792545E-13 -1.42204330E-10 -1.32180367E-01 -1.32211752E-01  1.94301425E-12
 -2.17605133E-10 -2.02460317E-01 -2.02508390E-01  1.88268861E-12 -2.41726667E-10
 -2.23966933E-01 -2.24020113E-01 -4.20784659E-12 -7.22743909E-11 -6.77917396E-02
 -6.78078360E-02  9.32405215E-08 -1.18169961E-02 -1.31406983E-11  5.38070902E-08
 -1.18141909E-02 -1.24364291E-13 -1.59869665E-13  2.10157134E-12  1.96813424E-11
  1.25421743E-02  1.25451524E-02 -9.19018211E-14  1.37417001E-15  1.27158373E-12
 -1.34876505E-11 -1.25421706E-02 -1.25451487E-02  1.53414463E-09  2.47261791E-09
 -1.64156196E-06  1.22502299E-01 -1.22473219E-01 -6.68991796E-09 -2.59216195E-06
  1.93639304E-01 -1.93593337E-01 -2.15395880E-08 -2.88905444E-06  2.15043173E-01
 -2.14992125E-01  3.33740504E-08 -1.40138449E-06  1.06228318E-01 -1.06203101E-01
 -1.22080174E-07  1.05410119E-02  1.40283643E-07  2.11482565E-07 -1.05435148E-02
 -1.60137050E-09 -2.54979821E-09 -1.14444432E-06  1.22503728E-01 -1.22474647E-01
  6.32147896E-09 -1.80586128E-06  1.93641562E-01 -1.93595594E-01  2.55689051E-08
 -2.01732798E-06  2.15045683E-01 -2.14994633E-01 -3.41683039E-08 -9.64646610E-07
  1.06229550E-01 -1.06204333E-01  8.50887105E-08 -1.05411352E-02 -9.76174811E-08
 -1.47401677E-07  1.05436381E-02 -4.04741215E-11 -2.62914498E-09  2.10924726E-09
 -1.61431088E-07  1.20709683E-02 -1.20681029E-02 -3.93661909E-10  2.63536387E-09
 -6.19570398E-09 -1.12321716E-07  1.20711094E-02 -1.20682439E-02  9.29832555E-10
  1.64972957E-09 -1.64042288E-06  1.22553952E-01 -1.22524860E-01 -6.98301503E-09
 -2.59212383E-06  1.93665587E-01 -1.93619613E-01  2.02092837E-09 -2.88353622E-06
  2.15300202E-01 -2.15249093E-01  3.10560797E-08 -1.43625036E-06  1.05856983E-01
 -1.05831853E-01 -1.21828746E-07  1.05461320E-02  1.40252113E-07  2.11047038E-07
 -1.05486361E-02  7.34805415E-10  1.35094486E-09  1.14238735E-06 -1.22552525E-01
  1.22523432E-01 -6.47849155E-09  1.80577791E-06 -1.93663330E-01  1.93617357E-01
  6.49873657E-09  2.00705186E-06 -2.15297696E-01  2.15246588E-01  2.57738984E-08
  1.01199205E-06 -1.05855743E-01  1.05830614E-01 -8.47696373E-08  1.05460095E-02
  9.75238394E-08  1.46848956E-07 -1.05485136E-02 -1.73711836E-09  2.16260135E-09
 -2.96971453E-08 -1.61791806E-07  1.20708639E-02 -1.20679984E-02 -1.74245244E-09
  2.58508064E-09 -3.11579312E-08  1.12883391E-07 -1.20707236E-02  1.20678582E-02
  2.14859766E-02  3.50814570E-02  3.37837054E-02  2.28080114E-07 -2.28080057E-07
 -8.47010587E-02  7.92536500E-02  5.29915418E-07 -5.29914866E-07 -4.35452406E-01
  7.20858948E-02  4.96510768E-07 -4.96509785E-07  1.10222708E+00 -5.28120866E-01
 -3.55808981E-06  3.55807672E-06  8.45059372E-03  1.86100460E-07  1.52310228E-03
 -1.46361344E-02 -1.86096234E-07 -2.14858523E-02 -3.50812541E-02  3.37834930E-02
  1.58984190E-07 -1.58984330E-07  8.47005677E-02  7.92531780E-02  3.68318326E-07
 -3.68317467E-07  4.35449902E-01  7.20854096E-02  3.48667525E-07 -3.48667790E-07
 -1.10222065E+00 -5.28117588E-01 -2.48324374E-06  2.48322763E-06 -8.45054371E-03
 -1.29660464E-07 -1.52309344E-03  1.46360478E-02  1.29658000E-07 -1.77237623E-02
  1.16674887E-01 -4.11863784E-01 -8.25469270E-05 -7.02441647E-10  7.02347735E-10
  1.77236544E-02 -1.16674198E-01  4.11861313E-01 -8.25421907E-05 -5.66943284E-10
  5.66825488E-10  2.08595332E-02  3.41202359E-02  3.52968061E-02  2.08020995E-07
 -2.08022015E-07 -8.33106304E-02  7.95033830E-02  5.03597046E-07 -5.03597350E-07
 -4.17229530E-01  7.98886376E-02  4.22627721E-07 -4.22633024E-07  1.08646153E+00
 -5.56570080E-01 -3.52479126E-06  3.52478911E-06  8.60345104E-03  1.87011662E-07
  1.49727470E-03 -1.49009033E-02 -1.87007520E-07  2.08596601E-02  3.41204435E-02
 -3.52970031E-02 -1.39254198E-07  1.39254583E-07 -8.33111358E-02 -7.95038523E-02
 -3.45334192E-07  3.45333042E-07 -4.17232085E-01 -7.98890522E-02 -2.71295679E-07
  2.71300225E-07  1.08646807E+00  5.56573227E-01  2.41402230E-06 -2.41401584E-06
  8.60350209E-03  1.29790087E-07  1.49728377E-03 -1.49009918E-02 -1.29787768E-07
 -1.86404685E-02  1.16978620E-01 -4.23394201E-01 -4.25274977E-04 -3.29986817E-09
  3.29983602E-09 -1.86405761E-02  1.16979316E-01 -4.23396679E-01  4.25273248E-04
  2.35895375E-09 -2.35896048E-09  1.76776896E-02  2.80782422E-02 -4.42993422E-02
  3.40742406E-07 -3.40650888E-07 -5.96132400E-02 -1.65729495E-02  5.04447732E-07
 -5.04352529E-07 -4.31301786E-01 -2.35886630E-01  1.10613028E-06 -1.10575747E-06
  4.45973328E-01  7.89415278E-01 -1.59304209E-07  1.58595328E-07 -5.05771570E-03
 -7.28882160E-08  1.40406581E-03  8.76088729E-03  7.28852104E-08  1.76776890E-02
  2.80782413E-02  4.42993396E-02 -2.11800514E-07  2.11741719E-07 -5.96132380E-02
  1.65729465E-02 -3.25886272E-07  3.25824304E-07 -4.31301773E-01  2.35886619E-01
 -6.64836234E-07  6.64598771E-07  4.45973339E-01 -7.89415212E-01 -1.04509342E-07
  1.04951552E-07 -5.05771500E-03 -5.29013464E-08  1.40406578E-03  8.76088606E-03
  5.28998698E-08  2.32415024E-02 -1.71581725E-02  2.48860200E-01  6.48869961E-03
  4.09759227E-08 -4.09753780E-08  2.32415002E-02 -1.71581697E-02  2.48860160E-01
 -6.48869987E-03 -2.85722837E-08  2.85717451E-08  1.42523509E-07  2.27627061E-07
  5.49445642E-07 -7.06836144E-02  7.06668452E-02 -5.04004679E-07  7.53718662E-07
 -7.06434781E-02  7.06267172E-02 -3.36061462E-06  1.87673393E-06 -2.92679723E-01
  2.92610288E-01  3.60889212E-06 -1.43638798E-06  6.05902964E-01 -6.05759227E-01
  2.44364532E-08 -5.88967915E-03 -6.72074383E-08 -4.23385584E-08  5.89107679E-03
 -8.73523895E-08 -1.39481945E-07  4.08727376E-07 -7.06835924E-02  7.06668231E-02
  3.08188142E-07  5.33544234E-07 -7.06434555E-02  7.06266945E-02  2.05909649E-06
  1.44692970E-06 -2.92679633E-01  2.92610198E-01 -2.20992145E-06 -1.47945601E-06
  6.05902779E-01 -6.05759041E-01 -2.00381128E-08  5.88967765E-03  4.77279267E-08
  3.47170028E-08 -5.89107529E-03  1.92387106E-07 -1.21139632E-07  1.82926990E-06
  5.32009268E-08  2.33651868E-04 -2.33596557E-04 -1.19828927E-07  7.64257149E-08
 -1.11909254E-06  3.35157811E-08  2.33651518E-04 -2.33596207E-04  1.44767818E-07
  2.31528332E-07  5.15250362E-07 -7.08107820E-02  7.07939677E-02 -5.17751458E-07
  7.30089848E-07 -7.13391752E-02  7.13222359E-02 -3.36101216E-06  1.69528849E-06
 -2.91945612E-01  2.91876287E-01  3.73178625E-06 -1.11474111E-06  6.07425106E-01
 -6.07280866E-01  2.21552340E-08 -5.88918001E-03 -6.69246597E-08 -3.83872552E-08
  5.89057875E-03  1.08674629E-07  1.73788828E-07 -3.32803367E-07  7.08108032E-02
 -7.07939889E-02 -3.88439442E-07 -4.93762396E-07  7.13391959E-02 -7.13222565E-02
 -2.52235598E-06 -1.04775798E-06  2.91945701E-01 -2.91876376E-01  2.80109146E-06
  3.65738499E-07 -6.07425292E-01  6.07281052E-01  1.26570847E-08 -5.88918211E-03
 -4.59101265E-08 -2.19318472E-08  5.89058085E-03  1.98376423E-07 -1.18359102E-07
  1.70883884E-06  5.90113364E-08  2.24500014E-04 -2.24446647E-04  1.49620604E-07
 -9.12664979E-08  1.28246315E-06 -4.48148340E-08 -2.24499802E-04  2.24446434E-04
 -4.89060507E-11 -7.87855985E-11  4.69217408E-11 -6.39873845E-02 -6.40025668E-02
  1.85713441E-10 -1.17286826E-11 -6.10591563E-02 -6.10736427E-02  1.08718141E-09
  3.18553830E-10 -2.67867866E-01 -2.67931425E-01 -1.28805203E-09 -1.35775103E-09
  6.08101055E-01  6.08245350E-01 -6.09921111E-08  5.28022326E-03  4.58371428E-12