 Entering Gaussian System, Link 0=g16
 Initial command:
 /home/szhao/Apps/g16/l1.exe "/home/szhao/tmp/Gau-27453.inp" -scrdir="/home/szhao/tmp/"
 Default is to use a total of  16 processors:
                               16 via shared-memory
                                1 via Linda
 Entering Link 1 = /home/szhao/Apps/g16/l1.exe PID=     27454.
  
 Copyright (c) 1988,1990,1992,1993,1995,1998,2003,2009,2016,
            Gaussian, Inc.  All Rights Reserved.
  
 This is part of the Gaussian(R) 16 program.  It is based on
 the Gaussian(R) 09 system (copyright 2009, Gaussian, Inc.),
 the Gaussian(R) 03 system (copyright 2003, Gaussian, Inc.),
 the Gaussian(R) 98 system (copyright 1998, Gaussian, Inc.),
 the Gaussian(R) 94 system (copyright 1995, Gaussian, Inc.),
 the Gaussian 92(TM) system (copyright 1992, Gaussian, Inc.),
 the Gaussian 90(TM) system (copyright 1990, Gaussian, Inc.),
 the Gaussian 88(TM) system (copyright 1988, Gaussian, Inc.),
 the Gaussian 86(TM) system (copyright 1986, Carnegie Mellon
 University), and the Gaussian 82(TM) system (copyright 1983,
 Carnegie Mellon University). Gaussian is a federally registered
 trademark of Gaussian, Inc.
  
 This software contains proprietary and confidential information,
 including trade secrets, belonging to Gaussian, Inc.
  
 This software is provided under written license and may be
 used, copied, transmitted, or stored only in accord with that
 written license.
  
 The following legend is applicable only to US Government
 contracts under FAR:
  
                    RESTRICTED RIGHTS LEGEND
  
 Use, reproduction and disclosure by the US Government is
 subject to restrictions as set forth in subparagraphs (a)
 and (c) of the Commercial Computer Software - Restricted
 Rights clause in FAR 52.227-19.
  
 Gaussian, Inc.
 340 Quinnipiac St., Bldg. 40, Wallingford CT 06492
  
  
 ---------------------------------------------------------------
 Warning -- This program may not be used in any manner that
 competes with the business of Gaussian, Inc. or will provide
 assistance to any competitor of Gaussian, Inc.  The licensee
 of this program is prohibited from giving any competitor of
 Gaussian, Inc. access to this program.  By using this program,
 the user acknowledges that Gaussian, Inc. is engaged in the
 business of creating and licensing software in the field of
 computational chemistry and represents and warrants to the
 licensee that it is not a competitor of Gaussian, Inc. and that
 it will not use this program in any manner prohibited above.
 ---------------------------------------------------------------
  

 Cite this work as:
 Gaussian 16, Revision A.03,
 M. J. Frisch, G. W. Trucks, H. B. Schlegel, G. E. Scuseria, 
 M. A. Robb, J. R. Cheeseman, G. Scalmani, V. Barone, 
 G. A. Petersson, H. Nakatsuji, X. Li, M. Caricato, A. V. Marenich, 
 J. Bloino, B. G. Janesko, R. Gomperts, B. Mennucci, H. P. Hratchian, 
 J. V. Ortiz, A. F. Izmaylov, J. L. Sonnenberg, D. Williams-Young, 
 F. Ding, F. Lipparini, F. Egidi, J. Goings, B. Peng, A. Petrone, 
 T. Henderson, D. Ranasinghe, V. G. Zakrzewski, J. Gao, N. Rega, 
 G. Zheng, W. Liang, M. Hada, M. Ehara, K. Toyota, R. Fukuda, 
 J. Hasegawa, M. Ishida, T. Nakajima, Y. Honda, O. Kitao, H. Nakai, 
 T. Vreven, K. Throssell, J. A. Montgomery, Jr., J. E. Peralta, 
 F. Ogliaro, M. J. Bearpark, J. J. Heyd, E. N. Brothers, K. N. Kudin, 
 V. N. Staroverov, T. A. Keith, R. Kobayashi, J. Normand, 
 K. Raghavachari, A. P. Rendell, J. C. Burant, S. S. Iyengar, 
 J. Tomasi, M. Cossi, J. M. Millam, M. Klene, C. Adamo, R. Cammi, 
 J. W. Ochterski, R. L. Martin, K. Morokuma, O. Farkas, 
 J. B. Foresman, and D. J. Fox, Gaussian, Inc., Wallingford CT, 2016.
 
 ******************************************
 Gaussian 16:  ES64L-G16RevA.03 25-Dec-2016
                21-Apr-2025 
 ******************************************
 %chk=opt.chk
 %mem=4GB
 %nprocshared=8
 Will use up to    8 processors via shared memory.
 --------------------------------------------
 #p opt UM062X/6-311+G** nosymm int=superfine
 --------------------------------------------
 1/18=20,19=15,26=5,38=1/1,3;
 2/9=110,12=2,15=1,17=6,18=5,40=1/2;
 3/5=4,6=6,7=111,11=2,25=1,30=1,71=1,74=-55,75=-7,116=2/1,2,3;
 4//1;
 5/5=2,38=5/2;
 6/7=2,8=2,9=2,10=2,28=1/1;
 7/30=1/1,2,3,16;
 1/18=20,19=15,26=5/3(2);
 2/9=110,15=1/2;
 99//99;
 2/9=110,15=1/2;
 3/5=4,6=6,7=111,11=2,25=1,30=1,71=1,74=-55,75=-7,116=2/1,2,3;
 4/5=5,16=3,69=1/1;
 5/5=2,38=5/2;
 7/30=1/1,2,3,16;
 1/18=20,19=15,26=5/3(-5);
 2/9=110,15=1/2;
 6/7=2,8=2,9=2,10=2,19=2,28=1/1;
 99/9=1/99;
 Leave Link    1 at Mon Apr 21 19:16:32 2025, MaxMem=   536870912 cpu:               1.4 elap:               0.2
 (Enter /home/szhao/Apps/g16/l101.exe)
 -------------------
 Title Card Required
 -------------------
 Symbolic Z-matrix:
 Charge =  0 Multiplicity = 1
 C                    -1   -1.88045   0.        0. 
 P                    -1    1.88045   0.        0. 
 H                    0    -2.5013   -0.88884   0. 
 H                    0     2.06087  -1.41088   0.00126 
 H                    0    -2.41344   0.94545   0.00009 
 
 Add virtual bond connecting atoms P2         and C1         Dist= 7.11D+00.
 ITRead=  2  2  0  0  0
 MicOpt= -2 -2 -1 -1 -1
 NAtoms=      5 NQM=        3 NQMF=       2 NMMI=      0 NMMIF=      0
                NMic=       0 NMicF=      0.
                    Isotopes and Nuclear Properties:
 (Nuclear quadrupole moments (NQMom) in fm**2, nuclear magnetic moments (NMagM)
  in nuclear magnetons)

  Atom         1           2           3           4           5
 IAtWgt=          12          31           1           1           1
 AtmWgt=  12.0000000  30.9737634   1.0078250   1.0078250   1.0078250
 NucSpn=           0           1           1           1           1
 AtZEff=  -0.0000000  -0.0000000  -0.0000000  -0.0000000  -0.0000000
 NQMom=    0.0000000   0.0000000   0.0000000   0.0000000   0.0000000
 NMagM=    0.0000000   1.1316000   2.7928460   2.7928460   2.7928460
 AtZNuc=   6.0000000  15.0000000   1.0000000   1.0000000   1.0000000
 Leave Link  101 at Mon Apr 21 19:16:32 2025, MaxMem=   536870912 cpu:               3.0 elap:               0.4
 (Enter /home/szhao/Apps/g16/l103.exe)

 GradGradGradGradGradGradGradGradGradGradGradGradGradGradGradGradGradGrad
 Berny optimization.
 Initialization pass.
                           ----------------------------
                           !    Initial Parameters    !
                           ! (Angstroms and Degrees)  !
 --------------------------                            --------------------------
 ! Name  Definition              Value          Derivative Info.                !
 --------------------------------------------------------------------------------
 ! X1    R(1,-1)                -1.8805         Frozen                          !
 ! Y1    R(1,-2)                 0.0            Frozen                          !
 ! Z1    R(1,-3)                 0.0            Frozen                          !
 ! X2    R(2,-1)                 1.8805         Frozen                          !
 ! Y2    R(2,-2)                 0.0            Frozen                          !
 ! Z2    R(2,-3)                 0.0            Frozen                          !
 ! R1    R(1,3)                  1.0842         estimate D2E/DX2                !
 ! R2    R(1,5)                  1.0853         estimate D2E/DX2                !
 ! R3    R(2,4)                  1.4224         estimate D2E/DX2                !
 ! A1    A(2,1,3)              124.9341         estimate D2E/DX2                !
 ! A2    A(2,1,5)              119.4114         estimate D2E/DX2                !
 ! A3    A(3,1,5)              115.6545         estimate D2E/DX2                !
 ! A4    A(1,2,4)               97.2872         estimate D2E/DX2                !
 ! D1    D(3,1,2,4)             -0.0512         estimate D2E/DX2                !
 ! D2    D(5,1,2,4)            179.9435         estimate D2E/DX2                !
 --------------------------------------------------------------------------------
 Trust Radius=3.00D-01 FncErr=1.00D-07 GrdErr=1.00D-07 EigMax=2.50D+02 EigMin=1.00D-04
 Number of steps in this run=     25 maximum allowed number of steps=    100.
 GradGradGradGradGradGradGradGradGradGradGradGradGradGradGradGradGradGrad

 Leave Link  103 at Mon Apr 21 19:16:33 2025, MaxMem=   536870912 cpu:               0.2 elap:               0.1
 (Enter /home/szhao/Apps/g16/l202.exe)
                          Input orientation:                          
 ---------------------------------------------------------------------
 Center     Atomic      Atomic             Coordinates (Angstroms)
 Number     Number       Type             X           Y           Z
 ---------------------------------------------------------------------
      1          6           0       -1.880452    0.000000    0.000000
      2         15           0        1.880452    0.000000    0.000000
      3          1           0       -2.501304   -0.888844    0.000000
      4          1           0        2.060870   -1.410879    0.001261
      5          1           0       -2.413438    0.945455    0.000087
 ---------------------------------------------------------------------
                    Distance matrix (angstroms):
                    1          2          3          4          5
     1  C    0.000000
     2  P    3.760905   0.000000
     3  H    1.084205   4.470999   0.000000
     4  H    4.186240   1.422369   4.591945   0.000000
     5  H    1.085338   4.396746   1.836402   5.056851   0.000000
 Symmetry turned off by external request.
 Stoichiometry    CH3P
 Framework group  C1[X(CH3P)]
 Deg. of freedom     9
 Full point group                 C1      NOp   1
 Rotational constants (GHZ):         139.0689641           3.4841492           3.3989930
 Leave Link  202 at Mon Apr 21 19:16:33 2025, MaxMem=   536870912 cpu:               0.3 elap:               0.1
 (Enter /home/szhao/Apps/g16/l301.exe)
 Standard basis: 6-311+G(d,p) (5D, 7F)
 Ernie: Thresh=  0.10000D-02 Tol=  0.10000D-05 Strict=F.
    70 basis functions,   110 primitive gaussians,    72 cartesian basis functions
    12 alpha electrons       12 beta electrons
       nuclear repulsion energy        28.9451184423 Hartrees.
 IExCor= 4336 DFT=T Ex+Corr=M062X ExCW=0 ScaHFX=  0.540000
 ScaDFX=  1.000000  1.000000  1.000000  1.000000 ScalE2=  1.000000  1.000000
 IRadAn=      7 IRanWt=     -1 IRanGd=            0 ICorTp=0 IEmpDi=  4
 NAtoms=    5 NActive=    5 NUniq=    5 SFac= 1.00D+00 NAtFMM=   60 NAOKFM=F Big=F
 Integral buffers will be    131072 words long.
 Raffenetti 2 integral format.
 Two-electron integral symmetry is turned off.
 Leave Link  301 at Mon Apr 21 19:16:33 2025, MaxMem=   536870912 cpu:               0.5 elap:               0.1
 (Enter /home/szhao/Apps/g16/l302.exe)
 NPDir=0 NMtPBC=     1 NCelOv=     1 NCel=       1 NClECP=     1 NCelD=      1
         NCelK=      1 NCelE2=     1 NClLst=     1 CellRange=     0.0.
 One-electron integrals computed using PRISM.
 NBasis=    70 RedAO= T EigKep=  1.39D-02  NBF=    70
 NBsUse=    70 1.00D-06 EigRej= -1.00D+00 NBFU=    70
 Precomputing XC quadrature grid using
 IXCGrd= 4 IRadAn=           7 IRanWt=          -1 IRanGd=           0 AccXCQ= 0.00D+00.
 Generated NRdTot=       0 NPtTot=           0 NUsed=           0 NTot=          32
 NSgBfM=    71    71    71    71    71 MxSgAt=     5 MxSgA2=     5.
 Leave Link  302 at Mon Apr 21 19:16:33 2025, MaxMem=   536870912 cpu:               1.5 elap:               0.2
 (Enter /home/szhao/Apps/g16/l303.exe)
 DipDrv:  MaxL=1.
 Leave Link  303 at Mon Apr 21 19:16:34 2025, MaxMem=   536870912 cpu:               0.7 elap:               0.1
 (Enter /home/szhao/Apps/g16/l401.exe)
 ExpMin= 3.48D-02 ExpMax= 7.75D+04 ExpMxC= 2.65D+03 IAcc=3 IRadAn=         7 AccDes= 0.00D+00
 Harris functional with IExCor= 1009 and IRadAn=       7 diagonalized for initial guess.
 HarFok:  IExCor= 1009 AccDes= 0.00D+00 IRadAn=         7 IDoV= 1 UseB2=F ITyADJ=14
 ICtDFT=  3500011 ScaDFX=  1.000000  1.000000  1.000000  1.000000
 FoFCou: FMM=F IPFlag=           0 FMFlag=      100000 FMFlg1=           0
         NFxFlg=           0 DoJE=T BraDBF=F KetDBF=T FulRan=T
         wScrn=  0.000000 ICntrl=       500 IOpCl=  0 I1Cent=   200000004 NGrid=           0
         NMat0=    1 NMatS0=      1 NMatT0=    0 NMatD0=    1 NMtDS0=    0 NMtDT0=    0
 Symmetry not used in FoFCou.
 Harris En= -380.833555828845    
 JPrj=0 DoOrth=F DoCkMO=F.
 Initial guess <Sx>= 0.0000 <Sy>= 0.0000 <Sz>= 0.0000 <S**2>=-0.0000 S=-0.0000
 Leave Link  401 at Mon Apr 21 19:16:34 2025, MaxMem=   536870912 cpu:               2.8 elap:               0.4
 (Enter /home/szhao/Apps/g16/l502.exe)
 Keep R1 and R2 ints in memory in canonical form, NReq=13385587.
 FoFCou: FMM=F IPFlag=           0 FMFlag=           0 FMFlg1=           0
         NFxFlg=           0 DoJE=F BraDBF=F KetDBF=F FulRan=T
         wScrn=  0.000000 ICntrl=       600 IOpCl=  0 I1Cent=           0 NGrid=           0
         NMat0=    1 NMatS0=   2485 NMatT0=    0 NMatD0=    1 NMtDS0=    0 NMtDT0=    0
 Symmetry not used in FoFCou.
 Two-electron integral symmetry not used.
 UHF open shell SCF:
 Using DIIS extrapolation, IDIIS=  1040.
 NGot=   536870912 LenX=   530681581 LenY=   530675956
 Requested convergence on RMS density matrix=1.00D-08 within 128 cycles.
 Requested convergence on MAX density matrix=1.00D-06.
 Requested convergence on             energy=1.00D-06.
 No special actions if energy rises.

 Cycle   1  Pass 1  IDiag  1:
 E= -379.742615910066    
 DIIS: error= 1.01D-01 at cycle   1 NSaved=   1.
 NSaved= 1 IEnMin= 1 EnMin= -379.742615910066     IErMin= 1 ErrMin= 1.01D-01
 ErrMax= 1.01D-01  0.00D+00 EMaxC= 1.00D-01 BMatC= 1.91D+00 BMatP= 1.91D+00
 IDIUse=3 WtCom= 0.00D+00 WtEn= 1.00D+00
 Coeff-Com:  0.100D+01
 Coeff-En:   0.100D+01
 Coeff:      0.100D+01
 Gap=    -0.981 Goal=   None    Shift=    0.000
 Gap=    -0.981 Goal=   None    Shift=    0.000
 GapD=   -0.981 DampG=0.250 DampE=0.250 DampFc=0.2500 IDamp=-1.
 Damping current iteration by 2.50D-01
 RMSDP=5.71D-02 MaxDP=1.11D+00              OVMax= 9.96D-01

 Cycle   2  Pass 1  IDiag  1:
 E= -379.999112395704     Delta-E=       -0.256496485638 Rises=F Damp=T
 DIIS: error= 2.13D-02 at cycle   2 NSaved=   2.
 NSaved= 2 IEnMin= 2 EnMin= -379.999112395704     IErMin= 2 ErrMin= 2.13D-02
 ErrMax= 2.13D-02  0.00D+00 EMaxC= 1.00D-01 BMatC= 1.53D-01 BMatP= 1.91D+00
 IDIUse=3 WtCom= 7.87D-01 WtEn= 2.13D-01
 Coeff-Com: -0.157D+00 0.116D+01
 Coeff-En:   0.373D+00 0.627D+00
 Coeff:     -0.445D-01 0.104D+01
 Gap=    -0.725 Goal=   None    Shift=    0.000
 Gap=    -0.725 Goal=   None    Shift=    0.000
 RMSDP=1.46D-02 MaxDP=2.74D-01 DE=-2.56D-01 OVMax= 1.00D+00

 Cycle   3  Pass 1  IDiag  1:
 E= -380.092778779980     Delta-E=       -0.093666384276 Rises=F Damp=F
 DIIS: error= 5.08D-02 at cycle   3 NSaved=   3.
 NSaved= 3 IEnMin= 3 EnMin= -380.092778779980     IErMin= 2 ErrMin= 2.13D-02
 ErrMax= 5.08D-02  0.00D+00 EMaxC= 1.00D-01 BMatC= 7.02D-01 BMatP= 1.53D-01
 IDIUse=2 WtCom= 0.00D+00 WtEn= 1.00D+00
 Coeff-En:   0.000D+00 0.436D+00 0.564D+00
 Coeff:      0.000D+00 0.436D+00 0.564D+00
 Gap=    -0.403 Goal=   None    Shift=    0.000
 Gap=    -0.403 Goal=   None    Shift=    0.000
 RMSDP=1.69D-02 MaxDP=4.41D-01 DE=-9.37D-02 OVMax= 9.91D-01

 Cycle   4  Pass 1  IDiag  1:
 E= -379.254016859211     Delta-E=        0.838761920769 Rises=F Damp=F
 DIIS: error= 1.35D-01 at cycle   4 NSaved=   4.
 NSaved= 4 IEnMin= 3 EnMin= -380.092778779980     IErMin= 2 ErrMin= 2.13D-02
 ErrMax= 1.35D-01  0.00D+00 EMaxC= 1.00D-01 BMatC= 2.23D+00 BMatP= 1.53D-01
 IDIUse=2 WtCom= 0.00D+00 WtEn= 1.00D+00
 Coeff-En:   0.000D+00 0.000D+00 0.610D+00 0.390D+00
 Coeff:      0.000D+00 0.000D+00 0.610D+00 0.390D+00
 Gap=     0.470 Goal=   None    Shift=    0.000
 Gap=     0.470 Goal=   None    Shift=    0.000
 RMSDP=9.84D-03 MaxDP=2.74D-01 DE= 8.39D-01 OVMax= 6.52D-01

 Cycle   5  Pass 1  IDiag  1:
 E= -380.638222667242     Delta-E=       -1.384205808031 Rises=F Damp=F
 DIIS: error= 6.67D-02 at cycle   5 NSaved=   5.
 NSaved= 5 IEnMin= 5 EnMin= -380.638222667242     IErMin= 2 ErrMin= 2.13D-02
 ErrMax= 6.67D-02  0.00D+00 EMaxC= 1.00D-01 BMatC= 4.69D-01 BMatP= 1.53D-01
 IDIUse=2 WtCom= 0.00D+00 WtEn= 1.00D+00
 EnCoef did   100 forward-backward iterations
 Coeff-En:   0.797D-01 0.000D+00 0.236D+00 0.000D+00 0.684D+00
 Coeff:      0.797D-01 0.000D+00 0.236D+00 0.000D+00 0.684D+00
 Gap=     0.031 Goal=   None    Shift=    0.000
 Gap=     0.031 Goal=   None    Shift=    0.000
 RMSDP=6.24D-03 MaxDP=1.25D-01 DE=-1.38D+00 OVMax= 4.27D-01

 Cycle   6  Pass 1  IDiag  1:
 E= -380.885103439110     Delta-E=       -0.246880771867 Rises=F Damp=F
 DIIS: error= 2.88D-02 at cycle   6 NSaved=   6.
 NSaved= 6 IEnMin= 6 EnMin= -380.885103439110     IErMin= 2 ErrMin= 2.13D-02
 ErrMax= 2.88D-02  0.00D+00 EMaxC= 1.00D-01 BMatC= 5.31D-02 BMatP= 1.53D-01
 IDIUse=3 WtCom= 7.12D-01 WtEn= 2.88D-01
 Coeff-Com: -0.226D+00 0.398D+00 0.270D+00-0.304D-01 0.161D+00 0.428D+00
 Coeff-En:   0.000D+00 0.000D+00 0.000D+00 0.000D+00 0.102D+00 0.898D+00
 Coeff:     -0.161D+00 0.283D+00 0.192D+00-0.216D-01 0.144D+00 0.563D+00
 Gap=     0.086 Goal=   None    Shift=    0.000
 Gap=     0.086 Goal=   None    Shift=    0.000
 RMSDP=2.82D-03 MaxDP=7.40D-02 DE=-2.47D-01 OVMax= 2.31D-01

 Cycle   7  Pass 1  IDiag  1:
 E= -380.908090694698     Delta-E=       -0.022987255588 Rises=F Damp=F
 DIIS: error= 1.25D-02 at cycle   7 NSaved=   7.
 NSaved= 7 IEnMin= 7 EnMin= -380.908090694698     IErMin= 7 ErrMin= 1.25D-02
 ErrMax= 1.25D-02  0.00D+00 EMaxC= 1.00D-01 BMatC= 3.07D-02 BMatP= 5.31D-02
 IDIUse=3 WtCom= 8.75D-01 WtEn= 1.25D-01
 Coeff-Com: -0.313D-01 0.147D+00 0.399D-01-0.195D-01-0.748D-01 0.194D+00
 Coeff-Com:  0.745D+00
 Coeff-En:   0.000D+00 0.000D+00 0.000D+00 0.000D+00 0.000D+00 0.186D+00
 Coeff-En:   0.814D+00
 Coeff:     -0.274D-01 0.129D+00 0.349D-01-0.171D-01-0.655D-01 0.193D+00
 Coeff:      0.753D+00
 Gap=     0.109 Goal=   None    Shift=    0.000
 Gap=     0.109 Goal=   None    Shift=    0.000
 RMSDP=1.48D-03 MaxDP=1.89D-02 DE=-2.30D-02 OVMax= 9.98D-02

 Cycle   8  Pass 1  IDiag  1:
 E= -380.925436295037     Delta-E=       -0.017345600339 Rises=F Damp=F
 DIIS: error= 5.79D-03 at cycle   8 NSaved=   8.
 NSaved= 8 IEnMin= 8 EnMin= -380.925436295037     IErMin= 8 ErrMin= 5.79D-03
 ErrMax= 5.79D-03  0.00D+00 EMaxC= 1.00D-01 BMatC= 6.73D-03 BMatP= 3.07D-02
 IDIUse=3 WtCom= 9.42D-01 WtEn= 5.79D-02
 Coeff-Com: -0.518D-02 0.249D-01 0.310D-01-0.214D-02-0.190D-01-0.685D-01
 Coeff-Com: -0.608D+00 0.165D+01
 Coeff-En:   0.000D+00 0.000D+00 0.000D+00 0.000D+00 0.000D+00 0.000D+00
 Coeff-En:   0.000D+00 0.100D+01
 Coeff:     -0.488D-02 0.234D-01 0.292D-01-0.202D-02-0.179D-01-0.645D-01
 Coeff:     -0.573D+00 0.161D+01
 Gap=     0.128 Goal=   None    Shift=    0.000
 Gap=     0.128 Goal=   None    Shift=    0.000
 RMSDP=1.57D-03 MaxDP=2.58D-02 DE=-1.73D-02 OVMax= 9.76D-02

 Cycle   9  Pass 1  IDiag  1:
 E= -380.932735204746     Delta-E=       -0.007298909710 Rises=F Damp=F
 DIIS: error= 1.48D-03 at cycle   9 NSaved=   9.
 NSaved= 9 IEnMin= 9 EnMin= -380.932735204746     IErMin= 9 ErrMin= 1.48D-03
 ErrMax= 1.48D-03  0.00D+00 EMaxC= 1.00D-01 BMatC= 7.51D-04 BMatP= 6.73D-03
 IDIUse=3 WtCom= 9.85D-01 WtEn= 1.48D-02
 Coeff-Com: -0.526D-02 0.576D-02 0.210D-01-0.445D-02 0.123D-01-0.484D-01
 Coeff-Com: -0.282D+00 0.308D+00 0.994D+00
 Coeff-En:   0.000D+00 0.000D+00 0.000D+00 0.000D+00 0.000D+00 0.000D+00
 Coeff-En:   0.000D+00 0.000D+00 0.100D+01
 Coeff:     -0.518D-02 0.567D-02 0.207D-01-0.439D-02 0.121D-01-0.477D-01
 Coeff:     -0.278D+00 0.303D+00 0.994D+00
 Gap=     0.134 Goal=   None    Shift=    0.000
 Gap=     0.134 Goal=   None    Shift=    0.000
 RMSDP=5.45D-04 MaxDP=9.41D-03 DE=-7.30D-03 OVMax= 3.53D-02

 Cycle  10  Pass 1  IDiag  1:
 E= -380.933417222013     Delta-E=       -0.000682017266 Rises=F Damp=F
 DIIS: error= 7.04D-04 at cycle  10 NSaved=  10.
 NSaved=10 IEnMin=10 EnMin= -380.933417222013     IErMin=10 ErrMin= 7.04D-04
 ErrMax= 7.04D-04  0.00D+00 EMaxC= 1.00D-01 BMatC= 9.28D-05 BMatP= 7.51D-04
 IDIUse=3 WtCom= 9.93D-01 WtEn= 7.04D-03
 Coeff-Com:  0.662D-03-0.223D-02-0.704D-03-0.119D-02 0.500D-02 0.240D-01
 Coeff-Com:  0.564D-01-0.189D+00-0.127D+00 0.123D+01
 Coeff-En:   0.000D+00 0.000D+00 0.000D+00 0.000D+00 0.000D+00 0.000D+00
 Coeff-En:   0.000D+00 0.000D+00 0.000D+00 0.100D+01
 Coeff:      0.657D-03-0.221D-02-0.699D-03-0.119D-02 0.497D-02 0.238D-01
 Coeff:      0.560D-01-0.188D+00-0.126D+00 0.123D+01
 Gap=     0.133 Goal=   None    Shift=    0.000
 Gap=     0.133 Goal=   None    Shift=    0.000
 RMSDP=1.38D-04 MaxDP=1.89D-03 DE=-6.82D-04 OVMax= 7.00D-03

 Cycle  11  Pass 1  IDiag  1:
 E= -380.933468885144     Delta-E=       -0.000051663131 Rises=F Damp=F
 DIIS: error= 1.06D-04 at cycle  11 NSaved=  11.
 NSaved=11 IEnMin=11 EnMin= -380.933468885144     IErMin=11 ErrMin= 1.06D-04
 ErrMax= 1.06D-04  0.00D+00 EMaxC= 1.00D-01 BMatC= 2.10D-06 BMatP= 9.28D-05
 IDIUse=3 WtCom= 9.99D-01 WtEn= 1.06D-03
 Coeff-Com:  0.127D-03-0.161D-03 0.163D-03-0.295D-04-0.323D-04 0.518D-02
 Coeff-Com:  0.132D-01-0.198D-01-0.577D-01 0.128D+00 0.931D+00
 Coeff-En:   0.000D+00 0.000D+00 0.000D+00 0.000D+00 0.000D+00 0.000D+00
 Coeff-En:   0.000D+00 0.000D+00 0.000D+00 0.000D+00 0.100D+01
 Coeff:      0.127D-03-0.160D-03 0.163D-03-0.295D-04-0.322D-04 0.517D-02
 Coeff:      0.132D-01-0.198D-01-0.576D-01 0.127D+00 0.932D+00
 Gap=     0.133 Goal=   None    Shift=    0.000
 Gap=     0.133 Goal=   None    Shift=    0.000
 RMSDP=2.23D-05 MaxDP=4.40D-04 DE=-5.17D-05 OVMax= 1.69D-03

 Cycle  12  Pass 1  IDiag  1:
 E= -380.933470783901     Delta-E=       -0.000001898758 Rises=F Damp=F
 DIIS: error= 5.29D-05 at cycle  12 NSaved=  12.
 NSaved=12 IEnMin=12 EnMin= -380.933470783901     IErMin=12 ErrMin= 5.29D-05
 ErrMax= 5.29D-05  0.00D+00 EMaxC= 1.00D-01 BMatC= 4.66D-07 BMatP= 2.10D-06
 IDIUse=1 WtCom= 1.00D+00 WtEn= 0.00D+00
 Coeff-Com: -0.113D-03 0.394D-05 0.221D-03-0.289D-04 0.181D-03 0.119D-02
 Coeff-Com:  0.418D-03-0.449D-02-0.566D-02 0.139D-02-0.143D+00 0.115D+01
 Coeff:     -0.113D-03 0.394D-05 0.221D-03-0.289D-04 0.181D-03 0.119D-02
 Coeff:      0.418D-03-0.449D-02-0.566D-02 0.139D-02-0.143D+00 0.115D+01
 Gap=     0.133 Goal=   None    Shift=    0.000
 Gap=     0.133 Goal=   None    Shift=    0.000
 RMSDP=1.14D-05 MaxDP=1.79D-04 DE=-1.90D-06 OVMax= 7.27D-04

 Cycle  13  Pass 1  IDiag  1:
 E= -380.933471317209     Delta-E=       -0.000000533308 Rises=F Damp=F
 DIIS: error= 2.22D-05 at cycle  13 NSaved=  13.
 NSaved=13 IEnMin=13 EnMin= -380.933471317209     IErMin=13 ErrMin= 2.22D-05
 ErrMax= 2.22D-05  0.00D+00 EMaxC= 1.00D-01 BMatC= 4.11D-08 BMatP= 4.66D-07
 IDIUse=1 WtCom= 1.00D+00 WtEn= 0.00D+00
 Coeff-Com: -0.401D-04-0.321D-05 0.885D-05 0.303D-04 0.471D-04 0.364D-03
 Coeff-Com: -0.132D-02 0.503D-03 0.165D-02 0.118D-02-0.137D+00 0.183D+00
 Coeff-Com:  0.952D+00
 Coeff:     -0.401D-04-0.321D-05 0.885D-05 0.303D-04 0.471D-04 0.364D-03
 Coeff:     -0.132D-02 0.503D-03 0.165D-02 0.118D-02-0.137D+00 0.183D+00
 Coeff:      0.952D+00
 Gap=     0.133 Goal=   None    Shift=    0.000
 Gap=     0.133 Goal=   None    Shift=    0.000
 RMSDP=5.58D-06 MaxDP=1.25D-04 DE=-5.33D-07 OVMax= 4.84D-04

 Cycle  14  Pass 1  IDiag  1:
 E= -380.933471401936     Delta-E=       -0.000000084727 Rises=F Damp=F
 DIIS: error= 6.33D-06 at cycle  14 NSaved=  14.
 NSaved=14 IEnMin=14 EnMin= -380.933471401936     IErMin=14 ErrMin= 6.33D-06
 ErrMax= 6.33D-06  0.00D+00 EMaxC= 1.00D-01 BMatC= 6.44D-09 BMatP= 4.11D-08
 IDIUse=1 WtCom= 1.00D+00 WtEn= 0.00D+00
 Coeff-Com: -0.202D-04 0.313D-04 0.294D-04 0.148D-04-0.386D-04-0.977D-04
 Coeff-Com: -0.445D-03 0.171D-02 0.212D-03 0.558D-02 0.191D-01-0.905D-01
 Coeff-Com: -0.138D+00 0.120D+01
 Coeff:     -0.202D-04 0.313D-04 0.294D-04 0.148D-04-0.386D-04-0.977D-04
 Coeff:     -0.445D-03 0.171D-02 0.212D-03 0.558D-02 0.191D-01-0.905D-01
 Coeff:     -0.138D+00 0.120D+01
 Gap=     0.133 Goal=   None    Shift=    0.000
 Gap=     0.133 Goal=   None    Shift=    0.000
 RMSDP=2.85D-06 MaxDP=6.51D-05 DE=-8.47D-08 OVMax= 2.47D-04

 Cycle  15  Pass 1  IDiag  1:
 E= -380.933471412509     Delta-E=       -0.000000010574 Rises=F Damp=F
 DIIS: error= 1.14D-06 at cycle  15 NSaved=  15.
 NSaved=15 IEnMin=15 EnMin= -380.933471412509     IErMin=15 ErrMin= 1.14D-06
 ErrMax= 1.14D-06  0.00D+00 EMaxC= 1.00D-01 BMatC= 2.28D-10 BMatP= 6.44D-09
 IDIUse=1 WtCom= 1.00D+00 WtEn= 0.00D+00
 Coeff-Com:  0.802D-06-0.139D-05 0.643D-06-0.105D-05 0.104D-04-0.391D-04
 Coeff-Com: -0.657D-05-0.125D-03-0.724D-03-0.302D-03 0.867D-03 0.166D-01
 Coeff-Com: -0.491D-01-0.229D+00 0.126D+01
 Coeff:      0.802D-06-0.139D-05 0.643D-06-0.105D-05 0.104D-04-0.391D-04
 Coeff:     -0.657D-05-0.125D-03-0.724D-03-0.302D-03 0.867D-03 0.166D-01
 Coeff:     -0.491D-01-0.229D+00 0.126D+01
 Gap=     0.133 Goal=   None    Shift=    0.000
 Gap=     0.133 Goal=   None    Shift=    0.000
 RMSDP=3.92D-07 MaxDP=4.13D-06 DE=-1.06D-08 OVMax= 2.30D-05

 Cycle  16  Pass 1  IDiag  1:
 E= -380.933471412728     Delta-E=       -0.000000000218 Rises=F Damp=F
 DIIS: error= 3.80D-07 at cycle  16 NSaved=  16.
 NSaved=16 IEnMin=16 EnMin= -380.933471412728     IErMin=16 ErrMin= 3.80D-07
 ErrMax= 3.80D-07  0.00D+00 EMaxC= 1.00D-01 BMatC= 2.86D-11 BMatP= 2.28D-10
 IDIUse=1 WtCom= 1.00D+00 WtEn= 0.00D+00
 Coeff-Com:  0.587D-06 0.486D-06-0.865D-06-0.485D-06 0.221D-06-0.758D-05
 Coeff-Com: -0.640D-05 0.656D-04 0.117D-04-0.502D-03 0.139D-03 0.596D-02
 Coeff-Com: -0.535D-02-0.158D-01-0.315D-01 0.105D+01
 Coeff:      0.587D-06 0.486D-06-0.865D-06-0.485D-06 0.221D-06-0.758D-05
 Coeff:     -0.640D-05 0.656D-04 0.117D-04-0.502D-03 0.139D-03 0.596D-02
 Coeff:     -0.535D-02-0.158D-01-0.315D-01 0.105D+01
 Gap=     0.133 Goal=   None    Shift=    0.000
 Gap=     0.133 Goal=   None    Shift=    0.000
 RMSDP=9.32D-08 MaxDP=1.11D-06 DE=-2.18D-10 OVMax= 5.93D-06

 Cycle  17  Pass 1  IDiag  1:
 E= -380.933471412761     Delta-E=       -0.000000000033 Rises=F Damp=F
 DIIS: error= 1.50D-07 at cycle  17 NSaved=  17.
 NSaved=17 IEnMin=17 EnMin= -380.933471412761     IErMin=17 ErrMin= 1.50D-07
 ErrMax= 1.50D-07  0.00D+00 EMaxC= 1.00D-01 BMatC= 1.64D-12 BMatP= 2.86D-11
 IDIUse=1 WtCom= 1.00D+00 WtEn= 0.00D+00
 Coeff-Com:  0.256D-06 0.168D-06-0.473D-06-0.145D-07-0.740D-06-0.925D-06
 Coeff-Com:  0.404D-05 0.477D-05 0.336D-04 0.552D-04 0.347D-03-0.294D-02
 Coeff-Com: -0.736D-03 0.319D-01-0.902D-01-0.205D+00 0.127D+01
 Coeff:      0.256D-06 0.168D-06-0.473D-06-0.145D-07-0.740D-06-0.925D-06
 Coeff:      0.404D-05 0.477D-05 0.336D-04 0.552D-04 0.347D-03-0.294D-02
 Coeff:     -0.736D-03 0.319D-01-0.902D-01-0.205D+00 0.127D+01
 Gap=     0.133 Goal=   None    Shift=    0.000
 Gap=     0.133 Goal=   None    Shift=    0.000
 RMSDP=5.13D-08 MaxDP=1.09D-06 DE=-3.31D-11 OVMax= 4.35D-06

 Cycle  18  Pass 1  IDiag  1:
 E= -380.933471412767     Delta-E=       -0.000000000006 Rises=F Damp=F
 DIIS: error= 3.34D-08 at cycle  18 NSaved=  18.
 NSaved=18 IEnMin=18 EnMin= -380.933471412767     IErMin=18 ErrMin= 3.34D-08
 ErrMax= 3.34D-08  0.00D+00 EMaxC= 1.00D-01 BMatC= 9.23D-14 BMatP= 1.64D-12
 IDIUse=1 WtCom= 1.00D+00 WtEn= 0.00D+00
 Coeff-Com:  0.114D-06-0.156D-06-0.151D-06-0.384D-07 0.106D-07-0.150D-06
 Coeff-Com:  0.298D-05-0.933D-05-0.844D-05 0.247D-04 0.370D-04-0.250D-03
 Coeff-Com: -0.294D-03 0.380D-03 0.724D-02-0.660D-01 0.252D-02 0.106D+01
 Coeff:      0.114D-06-0.156D-06-0.151D-06-0.384D-07 0.106D-07-0.150D-06
 Coeff:      0.298D-05-0.933D-05-0.844D-05 0.247D-04 0.370D-04-0.250D-03
 Coeff:     -0.294D-03 0.380D-03 0.724D-02-0.660D-01 0.252D-02 0.106D+01
 Gap=     0.133 Goal=   None    Shift=    0.000
 Gap=     0.133 Goal=   None    Shift=    0.000
 RMSDP=1.52D-08 MaxDP=3.07D-07 DE=-5.85D-12 OVMax= 1.29D-06

 Cycle  19  Pass 1  IDiag  1:
 E= -380.933471412767     Delta-E=       -0.000000000000 Rises=F Damp=F
 DIIS: error= 1.13D-08 at cycle  19 NSaved=  19.
 NSaved=19 IEnMin=19 EnMin= -380.933471412767     IErMin=19 ErrMin= 1.13D-08
 ErrMax= 1.13D-08  0.00D+00 EMaxC= 1.00D-01 BMatC= 2.77D-14 BMatP= 9.23D-14
 IDIUse=1 WtCom= 1.00D+00 WtEn= 0.00D+00
 Coeff-Com:  0.202D-09-0.137D-07 0.359D-08 0.167D-07-0.377D-07-0.142D-08
 Coeff-Com: -0.288D-06 0.122D-05-0.150D-05-0.599D-05 0.286D-05 0.173D-03
 Coeff-Com: -0.617D-04-0.189D-02 0.716D-02 0.129D-01-0.914D-01-0.745D-01
 Coeff-Com:  0.115D+01
 Coeff:      0.202D-09-0.137D-07 0.359D-08 0.167D-07-0.377D-07-0.142D-08
 Coeff:     -0.288D-06 0.122D-05-0.150D-05-0.599D-05 0.286D-05 0.173D-03
 Coeff:     -0.617D-04-0.189D-02 0.716D-02 0.129D-01-0.914D-01-0.745D-01
 Coeff:      0.115D+01
 Gap=     0.133 Goal=   None    Shift=    0.000
 Gap=     0.133 Goal=   None    Shift=    0.000
 RMSDP=7.60D-09 MaxDP=1.86D-07 DE=-2.27D-13 OVMax= 5.83D-07

 SCF Done:  E(UM062X) =  -380.933471413     A.U. after   19 cycles
            NFock= 19  Conv=0.76D-08     -V/T= 2.0016
 <Sx>= 0.0000 <Sy>= 0.0000 <Sz>= 0.0000 <S**2>=-0.0000 S=-0.0000
 <L.S>=  0.00000000000    
 KE= 3.803326473340D+02 PE=-9.620160741897D+02 EE= 1.718048370006D+02
 Annihilation of the first spin contaminant:
 S**2 before annihilation    -0.0000,   after    -0.0000
 Leave Link  502 at Mon Apr 21 19:16:45 2025, MaxMem=   536870912 cpu:              84.2 elap:              11.0
 (Enter /home/szhao/Apps/g16/l601.exe)
 Copying SCF densities to generalized density rwf, IOpCl= 1 IROHF=0.

 **********************************************************************

            Population analysis using the SCF density.

 **********************************************************************

 Alpha  occ. eigenvalues --  -78.03992 -10.62630  -6.86225  -4.98219  -4.97470
 Alpha  occ. eigenvalues --   -4.97013  -0.77466  -0.65078  -0.52339  -0.37785
 Alpha  occ. eigenvalues --   -0.31919  -0.23882
 Alpha virt. eigenvalues --   -0.10533  -0.09961   0.01598   0.03902   0.04558
 Alpha virt. eigenvalues --    0.06224   0.06817   0.07605   0.08781   0.10672
 Alpha virt. eigenvalues --    0.13658   0.18010   0.18898   0.31312   0.33935
 Alpha virt. eigenvalues --    0.34410   0.42029   0.44396   0.45019   0.53446
 Alpha virt. eigenvalues --    0.57789   0.63410   0.64952   0.68932   0.70447
 Alpha virt. eigenvalues --    0.73504   0.74494   0.75581   0.93868   1.06599
 Alpha virt. eigenvalues --    1.17573   1.21154   1.45436   1.47780   1.47856
 Alpha virt. eigenvalues --    1.52513   1.58043   1.60858   1.61310   1.69030
 Alpha virt. eigenvalues --    1.80586   1.92469   2.04243   2.07740   2.37255
 Alpha virt. eigenvalues --    2.49075   2.50522   2.58969   2.60852   2.73696
 Alpha virt. eigenvalues --    2.99850   3.69675   6.88491  13.99491  14.00972
 Alpha virt. eigenvalues --   14.04344  23.79006 163.13565
  Beta  occ. eigenvalues --  -78.03992 -10.62630  -6.86225  -4.98219  -4.97470
  Beta  occ. eigenvalues --   -4.97013  -0.77466  -0.65078  -0.52339  -0.37785
  Beta  occ. eigenvalues --   -0.31919  -0.23882
  Beta virt. eigenvalues --   -0.10533  -0.09961   0.01598   0.03902   0.04558
  Beta virt. eigenvalues --    0.06224   0.06817   0.07605   0.08781   0.10672
  Beta virt. eigenvalues --    0.13658   0.18010   0.18898   0.31312   0.33935
  Beta virt. eigenvalues --    0.34410   0.42029   0.44396   0.45019   0.53446
  Beta virt. eigenvalues --    0.57789   0.63410   0.64952   0.68932   0.70447
  Beta virt. eigenvalues --    0.73504   0.74494   0.75581   0.93868   1.06599
  Beta virt. eigenvalues --    1.17573   1.21154   1.45436   1.47780   1.47856
  Beta virt. eigenvalues --    1.52513   1.58043   1.60858   1.61310   1.69030
  Beta virt. eigenvalues --    1.80586   1.92469   2.04243   2.07740   2.37255
  Beta virt. eigenvalues --    2.49075   2.50522   2.58969   2.60852   2.73696
  Beta virt. eigenvalues --    2.99850   3.69675   6.88491  13.99491  14.00972
  Beta virt. eigenvalues --   14.04344  23.79006 163.13565
          Condensed to atoms (all electrons):
               1          2          3          4          5
     1  C    5.658836  -0.007103   0.324039   0.002319   0.331530
     2  P   -0.007103  14.753273   0.002093   0.216108   0.002131
     3  H    0.324039   0.002093   0.544370  -0.000092  -0.027808
     4  H    0.002319   0.216108  -0.000092   0.821339   0.000000
     5  H    0.331530   0.002131  -0.027808   0.000000   0.535747
          Atomic-Atomic Spin Densities.
               1          2          3          4          5
     1  C   -0.000000   0.000000   0.000000  -0.000000  -0.000000
     2  P    0.000000  -0.000000  -0.000000   0.000000   0.000000
     3  H    0.000000  -0.000000   0.000000   0.000000   0.000000
     4  H   -0.000000   0.000000   0.000000  -0.000000   0.000000
     5  H   -0.000000   0.000000   0.000000   0.000000  -0.000000
 Mulliken charges and spin densities:
               1          2
     1  C   -0.309622  -0.000000
     2  P    0.033498  -0.000000
     3  H    0.157398   0.000000
     4  H   -0.039673  -0.000000
     5  H    0.158399  -0.000000
 Sum of Mulliken charges =  -0.00000  -0.00000
 Mulliken charges and spin densities with hydrogens summed into heavy atoms:
               1          2
     1  C    0.006175  -0.000000
     2  P   -0.006175  -0.000000
 Electronic spatial extent (au):  <R**2>=            380.8604
 Charge=             -0.0000 electrons
 Dipole moment (field-independent basis, Debye):
    X=             -2.6917    Y=             -0.5248    Z=              0.0007  Tot=              2.7423
 Quadrupole moment (field-independent basis, Debye-Ang):
   XX=            -13.0819   YY=            -21.0302   ZZ=            -25.4032
   XY=             -1.0965   XZ=              0.0012   YZ=             -0.0040
 Traceless Quadrupole moment (field-independent basis, Debye-Ang):
   XX=              6.7565   YY=             -1.1917   ZZ=             -5.5648
   XY=             -1.0965   XZ=              0.0012   YZ=             -0.0040
 Octapole moment (field-independent basis, Debye-Ang**2):
  XXX=            -36.8017  YYY=              3.3120  ZZZ=             -0.0025  XYY=            -15.8249
  XXY=             -0.7142  XXZ=              0.0017  XZZ=            -23.7059  YZZ=              0.8802
  YYZ=             -0.0012  XYZ=             -0.0074
 Hexadecapole moment (field-independent basis, Debye-Ang**3):
 XXXX=           -427.9518 YYYY=            -47.7527 ZZZZ=            -47.2541 XXXY=              5.1123
 XXXZ=              0.0029 YYYX=              6.5645 YYYZ=             -0.0036 ZZZX=             -0.0043
 ZZZY=             -0.0028 XXYY=            -85.4970 XXZZ=           -103.4574 YYZZ=            -16.3715
 XXYZ=             -0.0146 YYXZ=             -0.0024 ZZXY=              1.9763
 N-N= 2.894511844233D+01 E-N=-9.620160744983D+02  KE= 3.803326473340D+02
                          Isotropic Fermi Contact Couplings
        Atom                 a.u.       MegaHertz       Gauss      10(-4) cm-1
     1  C(13)              0.00000       0.00000       0.00000       0.00000
     2  P(31)             -0.00000      -0.00000      -0.00000      -0.00000
     3  H(1)              -0.00000      -0.00000      -0.00000      -0.00000
     4  H(1)              -0.00000      -0.00000      -0.00000      -0.00000
     5  H(1)               0.00000       0.00000       0.00000       0.00000
 --------------------------------------------------------
       Center         ----  Spin Dipole Couplings  ----
                      3XX-RR        3YY-RR        3ZZ-RR
 --------------------------------------------------------
     1   Atom       -0.000000      0.000000     -0.000000
     2   Atom       -0.000000      0.000000     -0.000000
     3   Atom        0.000000     -0.000000     -0.000000
     4   Atom        0.000000     -0.000000      0.000000
     5   Atom        0.000000      0.000000     -0.000000
 --------------------------------------------------------
                        XY            XZ            YZ
 --------------------------------------------------------
     1   Atom       -0.000000     -0.000000      0.000000
     2   Atom       -0.000000     -0.000000     -0.000000
     3   Atom        0.000000     -0.000000      0.000000
     4   Atom       -0.000000     -0.000000     -0.000000
     5   Atom       -0.000000     -0.000000     -0.000000
 --------------------------------------------------------


 ---------------------------------------------------------------------------------
              Anisotropic Spin Dipole Couplings in Principal Axis System
 ---------------------------------------------------------------------------------

       Atom             a.u.   MegaHertz   Gauss  10(-4) cm-1        Axes

              Baa    -0.0000    -0.000    -0.000    -0.000  0.7066 -0.0341  0.7068
     1 C(13)  Bbb     0.0000     0.000     0.000     0.000  0.0501  0.9987 -0.0020
              Bcc     0.0000     0.000     0.000     0.000 -0.7058  0.0368  0.7074
 
              Baa    -0.0000    -0.000    -0.000    -0.000  0.7009  0.0743  0.7094
     2 P(31)  Bbb     0.0000     0.000     0.000     0.000 -0.1077  0.9942  0.0022
              Bcc     0.0000     0.000     0.000     0.000  0.7051  0.0780 -0.7048
 
              Baa    -0.0000    -0.000    -0.000    -0.000  0.6848 -0.1580  0.7114
     3 H(1)   Bbb     0.0000     0.000     0.000     0.000  0.1831  0.9822  0.0419
              Bcc     0.0000     0.000     0.000     0.000  0.7053 -0.1015 -0.7016
 
              Baa    -0.0000    -0.000    -0.000    -0.000  0.7017  0.0864  0.7072
     4 H(1)   Bbb    -0.0000    -0.000    -0.000    -0.000 -0.1215  0.9926 -0.0007
              Bcc     0.0000     0.000     0.000     0.000 -0.7020 -0.0854  0.7070
 
              Baa    -0.0000    -0.000    -0.000    -0.000  0.7030  0.0777  0.7069
     5 H(1)   Bbb     0.0000     0.000     0.000     0.000 -0.0936  0.9955 -0.0163
              Bcc     0.0000     0.000     0.000     0.000 -0.7050 -0.0547  0.7071
 

 ---------------------------------------------------------------------------------

 No NMR shielding tensors so no spin-rotation constants.
 Leave Link  601 at Mon Apr 21 19:16:46 2025, MaxMem=   536870912 cpu:               1.6 elap:               0.2
 (Enter /home/szhao/Apps/g16/l701.exe)
 ... and contract with generalized density number  0.
 Compute integral first derivatives.
 Leave Link  701 at Mon Apr 21 19:16:46 2025, MaxMem=   536870912 cpu:               1.3 elap:               0.2
 (Enter /home/szhao/Apps/g16/l702.exe)
 L702 exits ... SP integral derivatives will be done elsewhere.
 Leave Link  702 at Mon Apr 21 19:16:46 2025, MaxMem=   536870912 cpu:               0.8 elap:               0.1
 (Enter /home/szhao/Apps/g16/l703.exe)
 Integral derivatives from FoFJK, PRISM(SPDF).
 Compute integral first derivatives, UseDBF=F ICtDFT=           0.
 Calling FoFJK, ICntrl=      2127 FMM=F ISym2X=0 I1Cent= 0 IOpClX= 1 NMat=1 NMatS=1 NMatT=0.
 FoFJK:  IHMeth= 1 ICntrl=    2127 DoSepK=F KAlg= 0 I1Cent=           0 FoldK=F
 IRaf=         0 NMat=       1 IRICut=       1 DoRegI=T DoRafI=F ISym2E= 0 IDoP0=0 IntGTp=1.
 FoFCou: FMM=F IPFlag=           0 FMFlag=      100000 FMFlg1=         800
         NFxFlg=           0 DoJE=F BraDBF=F KetDBF=F FulRan=T
         wScrn=  0.000000 ICntrl=      2127 IOpCl=  1 I1Cent=           0 NGrid=           0
         NMat0=    1 NMatS0=      1 NMatT0=    0 NMatD0=    1 NMtDS0=    0 NMtDT0=    0
 Symmetry not used in FoFCou.
 Leave Link  703 at Mon Apr 21 19:16:48 2025, MaxMem=   536870912 cpu:               9.4 elap:               1.3
 (Enter /home/szhao/Apps/g16/l716.exe)
 Dipole        =-1.05897873D+00-2.06483789D-01 2.66271125D-04
 -------------------------------------------------------------------
 Center     Atomic                   Forces (Hartrees/Bohr)
 Number     Number              X              Y              Z
 -------------------------------------------------------------------
      1        6          -0.000000000   -0.000000000   -0.000000000
      2       15          -0.000000000   -0.000000000   -0.000000000
      3        1          -0.015694329    0.000092774    0.000000386
      4        1          -0.001863250   -0.000484191   -0.000003475
      5        1          -0.014572852    0.000842542   -0.000000181
 -------------------------------------------------------------------
 Cartesian Forces:  Max     0.015694329 RMS     0.005556405
 Leave Link  716 at Mon Apr 21 19:16:48 2025, MaxMem=   536870912 cpu:               0.6 elap:               0.1
 (Enter /home/szhao/Apps/g16/l103.exe)

 GradGradGradGradGradGradGradGradGradGradGradGradGradGradGradGradGradGrad
 Berny optimization.
 FormGI is forming the generalized inverse of G from B-inverse, IUseBI=4.
 Internal  Forces:  Max     0.030267181 RMS     0.010127611
 Search for a local minimum.
 Step number   1 out of a maximum of   25
 All quantities printed in internal units (Hartrees-Bohrs-Radians)
 RMS Force = .82573D-02 SwitMx=.10000D-02 MixMth= 1
 Mixed Optimization -- RFO/linear search
 Second derivative matrix not updated -- first step.
 The second derivative matrix:
                          X1        Y1        Z1        X2        Y2
           X1           0.50000
           Y1           0.00000   0.50000
           Z1           0.00000   0.00000   0.50000
           X2           0.00000   0.00000   0.00000   0.50000
           Y2           0.00000   0.00000   0.00000   0.00000   0.50000
           Z2           0.00000   0.00000   0.00000   0.00000   0.00000
           R1           0.00000   0.00000   0.00000   0.00000   0.00000
           R2           0.00000   0.00000   0.00000   0.00000   0.00000
           R3           0.00000   0.00000   0.00000   0.00000   0.00000
           A1           0.00000   0.00000   0.00000   0.00000   0.00000
           A2           0.00000   0.00000   0.00000   0.00000   0.00000
           A3           0.00000   0.00000   0.00000   0.00000   0.00000
           A4           0.00000   0.00000   0.00000   0.00000   0.00000
           D1           0.00000   0.00000   0.00000   0.00000   0.00000
           D2           0.00000   0.00000   0.00000   0.00000   0.00000
                          Z2        R1        R2        R3        A1
           Z2           0.50000
           R1           0.00000   0.35491
           R2           0.00000   0.00000   0.35357
           R3           0.00000   0.00000   0.00000   0.20793
           A1           0.00000   0.00000   0.00000   0.00000   0.16000
           A2           0.00000   0.00000   0.00000   0.00000   0.00000
           A3           0.00000   0.00000   0.00000   0.00000   0.00000
           A4           0.00000   0.00000   0.00000   0.00000   0.00000
           D1           0.00000   0.00000   0.00000   0.00000   0.00000
           D2           0.00000   0.00000   0.00000   0.00000   0.00000
                          A2        A3        A4        D1        D2
           A2           0.16000
           A3           0.00000   0.16000
           A4           0.00000   0.00000   0.16000
           D1           0.00000   0.00000   0.00000   0.00230
           D2           0.00000   0.00000   0.00000   0.00000   0.00230
 ITU=  0
     Eigenvalues ---    0.00230   0.00230   0.16000   0.16000   0.16000
     Eigenvalues ---    0.20793   0.35357   0.354911000.000001000.00000
     Eigenvalues --- 1000.000001000.000001000.000001000.000001000.00000
 RFO step:  Lambda=-3.28661542D-03 EMin= 2.30000000D-03
 Linear search not attempted -- first point.
 Iteration  1 RMS(Cart)=  0.04600056 RMS(Int)=  0.00117378
 Iteration  2 RMS(Cart)=  0.00120618 RMS(Int)=  0.00000060
 Iteration  3 RMS(Cart)=  0.00000072 RMS(Int)=  0.00000001
 ITry= 1 IFail=0 DXMaxC= 1.09D-01 DCOld= 1.00D+10 DXMaxT= 3.00D-01 DXLimC= 3.00D+00 Rises=F
 Variable       Old X    -DE/DX   Delta X   Delta X   Delta X     New X
                                 (Linear)    (Quad)   (Total)
    X1       -3.55354  -0.03027   0.00000   0.00000   0.00000  -3.55354
    Y1        0.00000   0.00184   0.00000   0.00000   0.00000   0.00000
    Z1        0.00000  -0.00000   0.00000   0.00000   0.00000   0.00000
    X2        3.55354  -0.00186   0.00000   0.00000   0.00000   3.55354
    Y2        0.00000  -0.00139   0.00000   0.00000   0.00000   0.00000
    Z2        0.00000  -0.00000   0.00000   0.00000   0.00000   0.00000
    R1        2.04885   0.00891   0.00000   0.02488   0.02488   2.07373
    R2        2.05099   0.00789   0.00000   0.02211   0.02211   2.07310
    R3        2.68789   0.00024   0.00000   0.00115   0.00115   2.68904
    A1        2.18051   0.00925   0.00000   0.05665   0.05665   2.23716
    A2        2.08412   0.00797   0.00000   0.04880   0.04880   2.13292
    A3        2.01855  -0.01722   0.00000  -0.10545  -0.10545   1.91310
    A4        1.69798  -0.00513   0.00000  -0.03143  -0.03143   1.66655
    D1       -0.00089   0.00000   0.00000   0.00025   0.00025  -0.00064
    D2        3.14061   0.00000   0.00000   0.00071   0.00071   3.14132
         Item               Value     Threshold  Converged?
 Maximum Force            0.017219     0.000450     NO 
 RMS     Force            0.008257     0.000300     NO 
 Maximum Displacement     0.108604     0.001800     NO 
 RMS     Displacement     0.046195     0.001200     NO 
 Predicted change in Energy=-1.674218D-03
 Lowest energy point so far.  Saving SCF results.
 GradGradGradGradGradGradGradGradGradGradGradGradGradGradGradGradGradGrad

 Leave Link  103 at Mon Apr 21 19:16:48 2025, MaxMem=   536870912 cpu:               0.6 elap:               0.1
 (Enter /home/szhao/Apps/g16/l202.exe)
                          Input orientation:                          
 ---------------------------------------------------------------------
 Center     Atomic      Atomic             Coordinates (Angstroms)
 Number     Number       Type             X           Y           Z
 ---------------------------------------------------------------------
      1          6           0       -1.880452    0.000000    0.000000
      2         15           0        1.880452    0.000000    0.000000
      3          1           0       -2.558775   -0.862611    0.000015
      4          1           0        2.016497   -1.416461    0.000936
      5          1           0       -2.465160    0.928229   -0.000360
 ---------------------------------------------------------------------
                    Distance matrix (angstroms):
                    1          2          3          4          5
     1  C    0.000000
     2  P    3.760905   0.000000
     3  H    1.097369   4.522260   0.000000
     4  H    4.146393   1.422980   4.608673   0.000000
     5  H    1.097038   4.443643   1.793285   5.057947   0.000000
 Symmetry turned off by external request.
 Stoichiometry    CH3P
 Framework group  C1[X(CH3P)]
 Deg. of freedom     9
 Full point group                 C1      NOp   1
 Rotational constants (GHZ):         141.4815776           3.4701653           3.3870890
 Leave Link  202 at Mon Apr 21 19:16:48 2025, MaxMem=   536870912 cpu:               0.3 elap:               0.1
 (Enter /home/szhao/Apps/g16/l301.exe)
 Standard basis: 6-311+G(d,p) (5D, 7F)
 Ernie: Thresh=  0.10000D-02 Tol=  0.10000D-05 Strict=F.
    70 basis functions,   110 primitive gaussians,    72 cartesian basis functions
    12 alpha electrons       12 beta electrons
       nuclear repulsion energy        28.8509880976 Hartrees.
 IExCor= 4336 DFT=T Ex+Corr=M062X ExCW=0 ScaHFX=  0.540000
 ScaDFX=  1.000000  1.000000  1.000000  1.000000 ScalE2=  1.000000  1.000000
 IRadAn=      7 IRanWt=     -1 IRanGd=            0 ICorTp=0 IEmpDi=  4
 NAtoms=    5 NActive=    5 NUniq=    5 SFac= 1.00D+00 NAtFMM=   60 NAOKFM=F Big=F
 Integral buffers will be    131072 words long.
 Raffenetti 2 integral format.
 Two-electron integral symmetry is turned off.
 Leave Link  301 at Mon Apr 21 19:16:48 2025, MaxMem=   536870912 cpu:               0.6 elap:               0.1
 (Enter /home/szhao/Apps/g16/l302.exe)
 NPDir=0 NMtPBC=     1 NCelOv=     1 NCel=       1 NClECP=     1 NCelD=      1
         NCelK=      1 NCelE2=     1 NClLst=     1 CellRange=     0.0.
 One-electron integrals computed using PRISM.
 NBasis=    70 RedAO= T EigKep=  1.42D-02  NBF=    70
 NBsUse=    70 1.00D-06 EigRej= -1.00D+00 NBFU=    70
 Precomputing XC quadrature grid using
 IXCGrd= 4 IRadAn=           7 IRanWt=          -1 IRanGd=           0 AccXCQ= 0.00D+00.
 Generated NRdTot=       0 NPtTot=           0 NUsed=           0 NTot=          32
 NSgBfM=    71    71    71    71    71 MxSgAt=     5 MxSgA2=     5.
 Leave Link  302 at Mon Apr 21 19:16:49 2025, MaxMem=   536870912 cpu:               2.5 elap:               0.4
 (Enter /home/szhao/Apps/g16/l303.exe)
 DipDrv:  MaxL=1.
 Leave Link  303 at Mon Apr 21 19:16:49 2025, MaxMem=   536870912 cpu:               0.4 elap:               0.1
 (Enter /home/szhao/Apps/g16/l401.exe)
 Initial guess from the checkpoint file:  "opt.chk"
 B after Tr=    -0.011975    0.001474   -0.000071
         Rot=    1.000000   -0.000001    0.000005    0.000544 Ang=  -0.06 deg.
 Guess basis will be translated and rotated to current coordinates.
 JPrj=2 DoOrth=T DoCkMO=T.
 Initial guess <Sx>= 0.0000 <Sy>= 0.0000 <Sz>= 0.0000 <S**2>=-0.0000 S=-0.0000
 Generating alternative initial guess.
 ExpMin= 3.48D-02 ExpMax= 7.75D+04 ExpMxC= 2.65D+03 IAcc=3 IRadAn=         5 AccDes= 0.00D+00
 Harris functional with IExCor= 1009 and IRadAn=       5 diagonalized for initial guess.
 HarFok:  IExCor= 1009 AccDes= 0.00D+00 IRadAn=         5 IDoV= 1 UseB2=F ITyADJ=14
 ICtDFT=  3500011 ScaDFX=  1.000000  1.000000  1.000000  1.000000
 FoFCou: FMM=F IPFlag=           0 FMFlag=      100000 FMFlg1=           0
         NFxFlg=           0 DoJE=T BraDBF=F KetDBF=T FulRan=T
         wScrn=  0.000000 ICntrl=       500 IOpCl=  0 I1Cent=   200000004 NGrid=           0
         NMat0=    1 NMatS0=      1 NMatT0=    0 NMatD0=    1 NMtDS0=    0 NMtDT0=    0
 Symmetry not used in FoFCou.
 Harris En= -380.832000367982    
 Leave Link  401 at Mon Apr 21 19:16:50 2025, MaxMem=   536870912 cpu:               2.5 elap:               0.3
 (Enter /home/szhao/Apps/g16/l502.exe)
 Keep R1 and R2 ints in memory in canonical form, NReq=13385587.
 FoFCou: FMM=F IPFlag=           0 FMFlag=           0 FMFlg1=           0
         NFxFlg=           0 DoJE=F BraDBF=F KetDBF=F FulRan=T
         wScrn=  0.000000 ICntrl=       600 IOpCl=  0 I1Cent=           0 NGrid=           0
         NMat0=    1 NMatS0=   2485 NMatT0=    0 NMatD0=    1 NMtDS0=    0 NMtDT0=    0
 Symmetry not used in FoFCou.
 Two-electron integral symmetry not used.
 UHF open shell SCF:
 Using DIIS extrapolation, IDIIS=  1040.
 NGot=   536870912 LenX=   530681581 LenY=   530675956
 Requested convergence on RMS density matrix=1.00D-08 within 128 cycles.
 Requested convergence on MAX density matrix=1.00D-06.
 Requested convergence on             energy=1.00D-06.
 No special actions if energy rises.

 Cycle   1  Pass 1  IDiag  1:
 E= -380.935430356037    
 DIIS: error= 2.22D-03 at cycle   1 NSaved=   1.
 NSaved= 1 IEnMin= 1 EnMin= -380.935430356037     IErMin= 1 ErrMin= 2.22D-03
 ErrMax= 2.22D-03  0.00D+00 EMaxC= 1.00D-01 BMatC= 1.28D-03 BMatP= 1.28D-03
 IDIUse=3 WtCom= 9.78D-01 WtEn= 2.22D-02
 Coeff-Com:  0.100D+01
 Coeff-En:   0.100D+01
 Coeff:      0.100D+01
 Gap=     0.383 Goal=   None    Shift=    0.000
 Gap=     0.383 Goal=   None    Shift=    0.000
 GapD=    0.383 DampG=1.000 DampE=1.000 DampFc=1.0000 IDamp=-1.
 RMSDP=3.38D-04 MaxDP=8.26D-03              OVMax= 1.09D-02

 Cycle   2  Pass 1  IDiag  1:
 E= -380.935944520405     Delta-E=       -0.000514164367 Rises=F Damp=F
 DIIS: error= 3.37D-04 at cycle   2 NSaved=   2.
 NSaved= 2 IEnMin= 2 EnMin= -380.935944520405     IErMin= 2 ErrMin= 3.37D-04
 ErrMax= 3.37D-04  0.00D+00 EMaxC= 1.00D-01 BMatC= 4.12D-05 BMatP= 1.28D-03
 IDIUse=3 WtCom= 9.97D-01 WtEn= 3.37D-03
 Coeff-Com: -0.116D+00 0.112D+01
 Coeff-En:   0.000D+00 0.100D+01
 Coeff:     -0.116D+00 0.112D+01
 Gap=     0.133 Goal=   None    Shift=    0.000
 Gap=     0.133 Goal=   None    Shift=    0.000
 RMSDP=1.18D-04 MaxDP=2.23D-03 DE=-5.14D-04 OVMax= 4.34D-03

 Cycle   3  Pass 1  IDiag  1:
 E= -380.935979981495     Delta-E=       -0.000035461091 Rises=F Damp=F
 DIIS: error= 2.82D-04 at cycle   3 NSaved=   3.
 NSaved= 3 IEnMin= 3 EnMin= -380.935979981495     IErMin= 3 ErrMin= 2.82D-04
 ErrMax= 2.82D-04  0.00D+00 EMaxC= 1.00D-01 BMatC= 7.51D-06 BMatP= 4.12D-05
 IDIUse=3 WtCom= 9.97D-01 WtEn= 2.82D-03
 Coeff-Com: -0.483D-01 0.276D+00 0.772D+00
 Coeff-En:   0.000D+00 0.000D+00 0.100D+01
 Coeff:     -0.481D-01 0.276D+00 0.773D+00
 Gap=     0.133 Goal=   None    Shift=    0.000
 Gap=     0.133 Goal=   None    Shift=    0.000
 RMSDP=3.39D-05 MaxDP=9.46D-04 DE=-3.55D-05 OVMax= 1.38D-03

 Cycle   4  Pass 1  IDiag  1:
 E= -380.935984068560     Delta-E=       -0.000004087065 Rises=F Damp=F
 DIIS: error= 5.93D-05 at cycle   4 NSaved=   4.
 NSaved= 4 IEnMin= 4 EnMin= -380.935984068560     IErMin= 4 ErrMin= 5.93D-05
 ErrMax= 5.93D-05  0.00D+00 EMaxC= 1.00D-01 BMatC= 1.07D-06 BMatP= 7.51D-06
 IDIUse=1 WtCom= 1.00D+00 WtEn= 0.00D+00
 Coeff-Com:  0.149D-01-0.172D+00 0.117D+00 0.104D+01
 Coeff:      0.149D-01-0.172D+00 0.117D+00 0.104D+01
 Gap=     0.133 Goal=   None    Shift=    0.000
 Gap=     0.133 Goal=   None    Shift=    0.000
 RMSDP=1.91D-05 MaxDP=2.80D-04 DE=-4.09D-06 OVMax= 1.20D-03

 Cycle   5  Pass 1  IDiag  1:
 E= -380.935985219665     Delta-E=       -0.000001151104 Rises=F Damp=F
 DIIS: error= 1.50D-05 at cycle   5 NSaved=   5.
 NSaved= 5 IEnMin= 5 EnMin= -380.935985219665     IErMin= 5 ErrMin= 1.50D-05
 ErrMax= 1.50D-05  0.00D+00 EMaxC= 1.00D-01 BMatC= 5.21D-08 BMatP= 1.07D-06
 IDIUse=1 WtCom= 1.00D+00 WtEn= 0.00D+00
 Coeff-Com:  0.272D-03 0.138D-01-0.578D-01-0.238D+00 0.128D+01
 Coeff:      0.272D-03 0.138D-01-0.578D-01-0.238D+00 0.128D+01
 Gap=     0.133 Goal=   None    Shift=    0.000
 Gap=     0.133 Goal=   None    Shift=    0.000
 RMSDP=5.78D-06 MaxDP=1.00D-04 DE=-1.15D-06 OVMax= 4.32D-04

 Cycle   6  Pass 1  IDiag  1:
 E= -380.935985318051     Delta-E=       -0.000000098387 Rises=F Damp=F
 DIIS: error= 3.69D-06 at cycle   6 NSaved=   6.
 NSaved= 6 IEnMin= 6 EnMin= -380.935985318051     IErMin= 6 ErrMin= 3.69D-06
 ErrMax= 3.69D-06  0.00D+00 EMaxC= 1.00D-01 BMatC= 6.71D-09 BMatP= 5.21D-08
 IDIUse=1 WtCom= 1.00D+00 WtEn= 0.00D+00
 Coeff-Com: -0.130D-02 0.204D-01-0.236D-01-0.166D+00 0.335D+00 0.836D+00
 Coeff:     -0.130D-02 0.204D-01-0.236D-01-0.166D+00 0.335D+00 0.836D+00
 Gap=     0.133 Goal=   None    Shift=    0.000
 Gap=     0.133 Goal=   None    Shift=    0.000
 RMSDP=1.44D-06 MaxDP=2.15D-05 DE=-9.84D-08 OVMax= 8.74D-05

 Cycle   7  Pass 1  IDiag  1:
 E= -380.935985322843     Delta-E=       -0.000000004792 Rises=F Damp=F
 DIIS: error= 6.09D-07 at cycle   7 NSaved=   7.
 NSaved= 7 IEnMin= 7 EnMin= -380.935985322843     IErMin= 7 ErrMin= 6.09D-07
 ErrMax= 6.09D-07  0.00D+00 EMaxC= 1.00D-01 BMatC= 2.39D-10 BMatP= 6.71D-09
 IDIUse=1 WtCom= 1.00D+00 WtEn= 0.00D+00
 Coeff-Com: -0.290D-03 0.310D-02-0.281D-04-0.157D-01-0.255D-01 0.985D-01
 Coeff-Com:  0.940D+00
 Coeff:     -0.290D-03 0.310D-02-0.281D-04-0.157D-01-0.255D-01 0.985D-01
 Coeff:      0.940D+00
 Gap=     0.133 Goal=   None    Shift=    0.000
 Gap=     0.133 Goal=   None    Shift=    0.000
 RMSDP=3.91D-07 MaxDP=9.17D-06 DE=-4.79D-09 OVMax= 1.41D-05

 Cycle   8  Pass 1  IDiag  1:
 E= -380.935985323071     Delta-E=       -0.000000000228 Rises=F Damp=F
 DIIS: error= 2.71D-07 at cycle   8 NSaved=   8.
 NSaved= 8 IEnMin= 8 EnMin= -380.935985323071     IErMin= 8 ErrMin= 2.71D-07
 ErrMax= 2.71D-07  0.00D+00 EMaxC= 1.00D-01 BMatC= 1.50D-11 BMatP= 2.39D-10
 IDIUse=1 WtCom= 1.00D+00 WtEn= 0.00D+00
 Coeff-Com:  0.665D-04-0.964D-03 0.109D-02 0.721D-02-0.136D-01-0.275D-01
 Coeff-Com: -0.500D-01 0.108D+01
 Coeff:      0.665D-04-0.964D-03 0.109D-02 0.721D-02-0.136D-01-0.275D-01
 Coeff:     -0.500D-01 0.108D+01
 Gap=     0.133 Goal=   None    Shift=    0.000
 Gap=     0.133 Goal=   None    Shift=    0.000
 RMSDP=1.34D-07 MaxDP=2.38D-06 DE=-2.28D-10 OVMax= 7.49D-06

 Cycle   9  Pass 1  IDiag  1:
 E= -380.935985323120     Delta-E=       -0.000000000049 Rises=F Damp=F
 DIIS: error= 2.19D-07 at cycle   9 NSaved=   9.
 NSaved= 9 IEnMin= 9 EnMin= -380.935985323120     IErMin= 9 ErrMin= 2.19D-07
 ErrMax= 2.19D-07  0.00D+00 EMaxC= 1.00D-01 BMatC= 6.87D-12 BMatP= 1.50D-11
 IDIUse=1 WtCom= 1.00D+00 WtEn= 0.00D+00
 Coeff-Com: -0.479D-05 0.154D-03-0.365D-03-0.180D-02 0.686D-02 0.321D-02
 Coeff-Com: -0.493D-01-0.442D+00 0.148D+01
 Coeff:     -0.479D-05 0.154D-03-0.365D-03-0.180D-02 0.686D-02 0.321D-02
 Coeff:     -0.493D-01-0.442D+00 0.148D+01
 Gap=     0.133 Goal=   None    Shift=    0.000
 Gap=     0.133 Goal=   None    Shift=    0.000
 RMSDP=1.36D-07 MaxDP=3.20D-06 DE=-4.95D-11 OVMax= 9.93D-06

 Cycle  10  Pass 1  IDiag  1:
 E= -380.935985323164     Delta-E=       -0.000000000044 Rises=F Damp=F
 DIIS: error= 1.67D-07 at cycle  10 NSaved=  10.
 NSaved=10 IEnMin=10 EnMin= -380.935985323164     IErMin=10 ErrMin= 1.67D-07
 ErrMax= 1.67D-07  0.00D+00 EMaxC= 1.00D-01 BMatC= 4.19D-12 BMatP= 6.87D-12
 IDIUse=1 WtCom= 1.00D+00 WtEn= 0.00D+00
 Coeff-Com: -0.256D-04 0.345D-03-0.352D-03-0.230D-02 0.406D-02 0.969D-02
 Coeff-Com:  0.329D-01-0.303D+00-0.390D+00 0.165D+01
 Coeff:     -0.256D-04 0.345D-03-0.352D-03-0.230D-02 0.406D-02 0.969D-02
 Coeff:      0.329D-01-0.303D+00-0.390D+00 0.165D+01
 Gap=     0.133 Goal=   None    Shift=    0.000
 Gap=     0.133 Goal=   None    Shift=    0.000
 RMSDP=1.77D-07 MaxDP=4.33D-06 DE=-4.40D-11 OVMax= 1.33D-05

 Cycle  11  Pass 1  IDiag  1:
 E= -380.935985323208     Delta-E=       -0.000000000044 Rises=F Damp=F
 DIIS: error= 1.24D-07 at cycle  11 NSaved=  11.
 NSaved=11 IEnMin=11 EnMin= -380.935985323208     IErMin=11 ErrMin= 1.24D-07
 ErrMax= 1.24D-07  0.00D+00 EMaxC= 1.00D-01 BMatC= 2.69D-12 BMatP= 4.19D-12
 IDIUse=1 WtCom= 1.00D+00 WtEn= 0.00D+00
 Coeff-Com:  0.116D-04-0.201D-03 0.253D-03 0.170D-02-0.518D-02-0.492D-02
 Coeff-Com:  0.113D-01 0.328D+00-0.553D+00-0.696D+00 0.192D+01
 Coeff:      0.116D-04-0.201D-03 0.253D-03 0.170D-02-0.518D-02-0.492D-02
 Coeff:      0.113D-01 0.328D+00-0.553D+00-0.696D+00 0.192D+01
 Gap=     0.133 Goal=   None    Shift=    0.000
 Gap=     0.133 Goal=   None    Shift=    0.000
 RMSDP=2.14D-07 MaxDP=5.37D-06 DE=-4.38D-11 OVMax= 1.65D-05

 Cycle  12  Pass 1  IDiag  1:
 E= -380.935985323250     Delta-E=       -0.000000000042 Rises=F Damp=F
 DIIS: error= 1.12D-07 at cycle  12 NSaved=  12.
 NSaved=12 IEnMin=12 EnMin= -380.935985323250     IErMin=12 ErrMin= 1.12D-07
 ErrMax= 1.12D-07  0.00D+00 EMaxC= 1.00D-01 BMatC= 1.80D-12 BMatP= 2.69D-12
 IDIUse=1 WtCom= 1.00D+00 WtEn= 0.00D+00
 Coeff-Com:  0.615D-05-0.214D-04 0.637D-05-0.335D-03 0.414D-02-0.204D-02
 Coeff-Com: -0.386D-01-0.197D+00 0.108D+01-0.429D+00-0.266D+01 0.324D+01
 Coeff:      0.615D-05-0.214D-04 0.637D-05-0.335D-03 0.414D-02-0.204D-02
 Coeff:     -0.386D-01-0.197D+00 0.108D+01-0.429D+00-0.266D+01 0.324D+01
 Gap=     0.133 Goal=   None    Shift=    0.000
 Gap=     0.133 Goal=   None    Shift=    0.000
 RMSDP=3.58D-07 MaxDP=9.05D-06 DE=-4.23D-11 OVMax= 2.78D-05

 Cycle  13  Pass 1  IDiag  1:
 E= -380.935985323301     Delta-E=       -0.000000000050 Rises=F Damp=F
 DIIS: error= 7.08D-08 at cycle  13 NSaved=  13.
 NSaved=13 IEnMin=13 EnMin= -380.935985323301     IErMin=13 ErrMin= 7.08D-08
 ErrMax= 7.08D-08  0.00D+00 EMaxC= 1.00D-01 BMatC= 7.70D-13 BMatP= 1.80D-12
 IDIUse=1 WtCom= 1.00D+00 WtEn= 0.00D+00
 Coeff-Com: -0.113D-04 0.195D-03-0.249D-03-0.173D-02 0.455D-02 0.482D-02
 Coeff-Com: -0.166D-01-0.333D+00 0.545D+00 0.716D+00-0.190D+01 0.940D-01
 Coeff-Com:  0.189D+01
 Coeff:     -0.113D-04 0.195D-03-0.249D-03-0.173D-02 0.455D-02 0.482D-02
 Coeff:     -0.166D-01-0.333D+00 0.545D+00 0.716D+00-0.190D+01 0.940D-01
 Coeff:      0.189D+01
 Gap=     0.133 Goal=   None    Shift=    0.000
 Gap=     0.133 Goal=   None    Shift=    0.000
 RMSDP=3.87D-07 MaxDP=9.81D-06 DE=-5.04D-11 OVMax= 3.00D-05

 Cycle  14  Pass 1  IDiag  1:
 E= -380.935985323327     Delta-E=       -0.000000000027 Rises=F Damp=F
 DIIS: error= 2.08D-08 at cycle  14 NSaved=  14.
 NSaved=14 IEnMin=14 EnMin= -380.935985323327     IErMin=14 ErrMin= 2.08D-08
 ErrMax= 2.08D-08  0.00D+00 EMaxC= 1.00D-01 BMatC= 9.02D-14 BMatP= 7.70D-13
 IDIUse=1 WtCom= 1.00D+00 WtEn= 0.00D+00
 Coeff-Com: -0.202D-05 0.143D-04-0.155D-04 0.799D-05-0.608D-03 0.128D-02
 Coeff-Com:  0.732D-02 0.486D-01-0.240D+00 0.978D-01 0.588D+00-0.824D+00
 Coeff-Com:  0.873D-01 0.123D+01
 Coeff:     -0.202D-05 0.143D-04-0.155D-04 0.799D-05-0.608D-03 0.128D-02
 Coeff:      0.732D-02 0.486D-01-0.240D+00 0.978D-01 0.588D+00-0.824D+00
 Coeff:      0.873D-01 0.123D+01
 Gap=     0.133 Goal=   None    Shift=    0.000
 Gap=     0.133 Goal=   None    Shift=    0.000
 RMSDP=1.32D-07 MaxDP=3.33D-06 DE=-2.66D-11 OVMax= 1.02D-05

 Cycle  15  Pass 1  IDiag  1:
 E= -380.935985323330     Delta-E=       -0.000000000002 Rises=F Damp=F
 DIIS: error= 1.19D-08 at cycle  15 NSaved=  15.
 NSaved=15 IEnMin=15 EnMin= -380.935985323330     IErMin=15 ErrMin= 1.19D-08
 ErrMax= 1.19D-08  0.00D+00 EMaxC= 1.00D-01 BMatC= 5.85D-15 BMatP= 9.02D-14
 IDIUse=1 WtCom= 1.00D+00 WtEn= 0.00D+00
 Coeff-Com:  0.969D-06-0.125D-04 0.129D-04 0.896D-04-0.162D-03-0.589D-03
 Coeff-Com:  0.935D-04 0.788D-02 0.139D-01-0.638D-01 0.190D-01 0.151D+00
 Coeff-Com: -0.169D+00-0.210D+00 0.125D+01
 Coeff:      0.969D-06-0.125D-04 0.129D-04 0.896D-04-0.162D-03-0.589D-03
 Coeff:      0.935D-04 0.788D-02 0.139D-01-0.638D-01 0.190D-01 0.151D+00
 Coeff:     -0.169D+00-0.210D+00 0.125D+01
 Gap=     0.133 Goal=   None    Shift=    0.000
 Gap=     0.133 Goal=   None    Shift=    0.000
 RMSDP=1.29D-08 MaxDP=3.17D-07 DE=-2.16D-12 OVMax= 1.01D-06

 Cycle  16  Pass 1  IDiag  1:
 E= -380.935985323329     Delta-E=        0.000000000000 Rises=F Damp=F
 DIIS: error= 3.65D-09 at cycle  16 NSaved=  16.
 NSaved=16 IEnMin=15 EnMin= -380.935985323330     IErMin=16 ErrMin= 3.65D-09
 ErrMax= 3.65D-09  0.00D+00 EMaxC= 1.00D-01 BMatC= 8.24D-16 BMatP= 5.85D-15
 IDIUse=1 WtCom= 1.00D+00 WtEn= 0.00D+00
 Large coefficients: NSaved= 16 BigCof=    0.00 CofMax=   10.00 Det=-1.74D-15
 Inversion failed.  Reducing to 15 matrices.
 Coeff-Com:  0.101D-05 0.963D-06-0.144D-04 0.904D-04 0.305D-04-0.131D-02
 Coeff-Com: -0.910D-02 0.355D-01-0.903D-02-0.891D-01 0.115D+00-0.206D-02
 Coeff-Com: -0.184D+00-0.632D-01 0.121D+01
 Coeff:      0.101D-05 0.963D-06-0.144D-04 0.904D-04 0.305D-04-0.131D-02
 Coeff:     -0.910D-02 0.355D-01-0.903D-02-0.891D-01 0.115D+00-0.206D-02
 Coeff:     -0.184D+00-0.632D-01 0.121D+01
 Gap=     0.133 Goal=   None    Shift=    0.000
 Gap=     0.133 Goal=   None    Shift=    0.000
 RMSDP=2.36D-09 MaxDP=4.89D-08 DE= 1.14D-13 OVMax= 1.98D-07

 SCF Done:  E(UM062X) =  -380.935985323     A.U. after   16 cycles
            NFock= 16  Conv=0.24D-08     -V/T= 2.0016
 <Sx>= 0.0000 <Sy>= 0.0000 <Sz>= 0.0000 <S**2>=-0.0000 S=-0.0000
 <L.S>=  0.00000000000    
 KE= 3.803150779185D+02 PE=-9.618138864320D+02 EE= 1.717118350926D+02
 Annihilation of the first spin contaminant:
 S**2 before annihilation    -0.0000,   after     0.0000
 Leave Link  502 at Mon Apr 21 19:16:59 2025, MaxMem=   536870912 cpu:              70.0 elap:               9.1
 (Enter /home/szhao/Apps/g16/l701.exe)
 ... and contract with generalized density number  0.
 Compute integral first derivatives.
 Leave Link  701 at Mon Apr 21 19:16:59 2025, MaxMem=   536870912 cpu:               1.8 elap:               0.3
 (Enter /home/szhao/Apps/g16/l702.exe)
 L702 exits ... SP integral derivatives will be done elsewhere.
 Leave Link  702 at Mon Apr 21 19:16:59 2025, MaxMem=   536870912 cpu:               0.5 elap:               0.1
 (Enter /home/szhao/Apps/g16/l703.exe)
 Integral derivatives from FoFJK, PRISM(SPDF).
 Compute integral first derivatives, UseDBF=F ICtDFT=           0.
 Calling FoFJK, ICntrl=      2127 FMM=F ISym2X=0 I1Cent= 0 IOpClX= 1 NMat=1 NMatS=1 NMatT=0.
 FoFJK:  IHMeth= 1 ICntrl=    2127 DoSepK=F KAlg= 0 I1Cent=           0 FoldK=F
 IRaf=         0 NMat=       1 IRICut=       1 DoRegI=T DoRafI=F ISym2E= 0 IDoP0=0 IntGTp=1.
 FoFCou: FMM=F IPFlag=           0 FMFlag=      100000 FMFlg1=         800
         NFxFlg=           0 DoJE=F BraDBF=F KetDBF=F FulRan=T
         wScrn=  0.000000 ICntrl=      2127 IOpCl=  1 I1Cent=           0 NGrid=           0
         NMat0=    1 NMatS0=      1 NMatT0=    0 NMatD0=    1 NMtDS0=    0 NMtDT0=    0
 Symmetry not used in FoFCou.
 Leave Link  703 at Mon Apr 21 19:17:01 2025, MaxMem=   536870912 cpu:               7.7 elap:               1.0
 (Enter /home/szhao/Apps/g16/l716.exe)
 Dipole        =-1.04881983D+00-2.05562584D-01-4.15948100D-05
 -------------------------------------------------------------------
 Center     Atomic                   Forces (Hartrees/Bohr)
 Number     Number              X              Y              Z
 -------------------------------------------------------------------
      1        6          -0.000000000   -0.000000000   -0.000000000
      2       15          -0.000000000   -0.000000000   -0.000000000
      3        1          -0.007069195    0.002069573   -0.000001672
      4        1          -0.001661123   -0.000033842   -0.000003991
      5        1          -0.006813212   -0.001083231   -0.000001129
 -------------------------------------------------------------------
 Cartesian Forces:  Max     0.007069195 RMS     0.002640838
 Leave Link  716 at Mon Apr 21 19:17:01 2025, MaxMem=   536870912 cpu:               0.4 elap:               0.1
 (Enter /home/szhao/Apps/g16/l103.exe)

 GradGradGradGradGradGradGradGradGradGradGradGradGradGradGradGradGradGrad
 Berny optimization.
 Using GEDIIS/GDIIS optimizer.
 FormGI is forming the generalized inverse of G from B-inverse, IUseBI=4.
 Internal  Forces:  Max     0.013882407 RMS     0.004891772
 Search for a local minimum.
 Step number   2 out of a maximum of   25
 All quantities printed in internal units (Hartrees-Bohrs-Radians)
 RMS Force = .42127D-02 SwitMx=.10000D-02 MixMth= 1
 Mixed Optimization -- RFO/linear search
 Update second derivatives using D2CorX and points    1    2
 DE= -2.51D-03 DEPred=-1.67D-03 R= 1.50D+00
 TightC=F SS=  1.41D+00  RLast= 1.37D-01 DXNew= 5.0454D-01 4.1145D-01
 Trust test= 1.50D+00 RLast= 1.37D-01 DXMaxT set to 4.11D-01
 The second derivative matrix:
                          X1        Y1        Z1        X2        Y2
           X1           0.67060
           Y1          -0.00083   0.50000
           Z1          -0.00002   0.00000   0.50000
           X2           0.00210  -0.00001  -0.00000   0.50003
           Y2           0.00605  -0.00003  -0.00000   0.00007   0.50021
           Z2          -0.00001   0.00000   0.00000  -0.00000  -0.00000
           R1          -0.06422   0.00031   0.00001  -0.00079  -0.00228
           R2          -0.05389   0.00026   0.00001  -0.00066  -0.00191
           R3          -0.00384   0.00002   0.00000  -0.00005  -0.00014
           A1          -0.04355   0.00021   0.00001  -0.00054  -0.00155
           A2          -0.04091   0.00020   0.00001  -0.00050  -0.00145
           A3           0.08445  -0.00041  -0.00001   0.00104   0.00300
           A4           0.00706  -0.00003  -0.00000   0.00009   0.00025
           D1           0.00001  -0.00000  -0.00000   0.00000   0.00000
           D2          -0.00001   0.00000   0.00000  -0.00000  -0.00000
                          Z2        R1        R2        R3        A1
           Z2           0.50000
           R1           0.00000   0.35491
           R2           0.00000  -0.00112   0.35164
           R3           0.00000   0.00079   0.00063   0.20800
           A1           0.00000  -0.00842  -0.00822   0.00031   0.14564
           A2           0.00000  -0.00598  -0.00601   0.00034  -0.01151
           A3          -0.00000   0.01440   0.01423  -0.00065   0.02587
           A4          -0.00000   0.01111   0.00996   0.00022   0.01234
           D1          -0.00000  -0.00000  -0.00000  -0.00000  -0.00000
           D2           0.00000  -0.00000  -0.00000   0.00000  -0.00000
                          A2        A3        A4        D1        D2
           A2           0.15090
           A3           0.02060   0.11353
           A4           0.01049  -0.02282   0.15245
           D1          -0.00000   0.00001   0.00000   0.00230
           D2          -0.00000   0.00000   0.00000  -0.00000   0.00230
 ITU=  1  0
 Use linear search instead of GDIIS.
     Eigenvalues ---    0.00230   0.00230   0.07632   0.16000   0.16308
     Eigenvalues ---    0.20800   0.35308   0.356571000.000001000.00000
     Eigenvalues --- 1000.000001000.000001000.000001000.000001000.00000
 RFO step:  Lambda=-1.33906100D-04 EMin= 2.29999842D-03
 Quartic linear search produced a step of  0.98101.
 Iteration  1 RMS(Cart)=  0.05638241 RMS(Int)=  0.00157340
 Iteration  2 RMS(Cart)=  0.00158647 RMS(Int)=  0.00000048
 Iteration  3 RMS(Cart)=  0.00000058 RMS(Int)=  0.00000012
 ITry= 1 IFail=0 DXMaxC= 1.45D-01 DCOld= 1.00D+10 DXMaxT= 4.11D-01 DXLimC= 3.00D+00 Rises=F
 Variable       Old X    -DE/DX   Delta X   Delta X   Delta X     New X
                                 (Linear)    (Quad)   (Total)
    X1       -3.55354  -0.01388   0.00000   0.00000   0.00000  -3.55354
    Y1        0.00000   0.00176   0.00000   0.00000   0.00000   0.00000
    Z1        0.00000  -0.00000   0.00000   0.00000   0.00000   0.00000
    X2        3.55354  -0.00166   0.00000   0.00000   0.00000   3.55354
    Y2        0.00000  -0.00081   0.00000   0.00000   0.00000   0.00000
    Z2        0.00000  -0.00000   0.00000   0.00000   0.00000   0.00000
    R1        2.07373   0.00274   0.02440  -0.00886   0.01555   2.08927
    R2        2.07310   0.00271   0.02169  -0.00627   0.01542   2.08852
    R3        2.68904  -0.00013   0.00113  -0.00234  -0.00121   2.68783
    A1        2.23716   0.00507   0.05558   0.00532   0.06090   2.29806
    A2        2.13292   0.00404   0.04787   0.00055   0.04843   2.18135
    A3        1.91310  -0.00911  -0.10345  -0.00587  -0.10932   1.80377
    A4        1.66655  -0.00446  -0.03084  -0.02328  -0.05411   1.61244
    D1       -0.00064   0.00000   0.00025   0.00009   0.00033  -0.00031
    D2        3.14132   0.00000   0.00070  -0.00186  -0.00116   3.14016
         Item               Value     Threshold  Converged?
 Maximum Force            0.009108     0.000450     NO 
 RMS     Force            0.004213     0.000300     NO 
 Maximum Displacement     0.145201     0.001800     NO 
 RMS     Displacement     0.056484     0.001200     NO 
 Predicted change in Energy=-1.001884D-03
 Lowest energy point so far.  Saving SCF results.
 GradGradGradGradGradGradGradGradGradGradGradGradGradGradGradGradGradGrad

 Leave Link  103 at Mon Apr 21 19:17:01 2025, MaxMem=   536870912 cpu:               0.3 elap:               0.1
 (Enter /home/szhao/Apps/g16/l202.exe)
                          Input orientation:                          
 ---------------------------------------------------------------------
 Center     Atomic      Atomic             Coordinates (Angstroms)
 Number     Number       Type             X           Y           Z
 ---------------------------------------------------------------------
      1          6           0       -1.880452    0.000000    0.000000
      2         15           0        1.880452    0.000000    0.000000
      3          1           0       -2.615485   -0.825874    0.000456
      4          1           0        1.939660   -1.421107    0.001231
      5          1           0       -2.514084    0.905521    0.000514
 ---------------------------------------------------------------------
                    Distance matrix (angstroms):
                    1          2          3          4          5
     1  C    0.000000
     2  P    3.760905   0.000000
     3  H    1.105596   4.571162   0.000000
     4  H    4.075881   1.422341   4.593871   0.000000
     5  H    1.105196   4.486861   1.734362   5.024842   0.000000
 Symmetry turned off by external request.
 Stoichiometry    CH3P
 Framework group  C1[X(CH3P)]
 Deg. of freedom     9
 Full point group                 C1      NOp   1
 Rotational constants (GHZ):         145.0995447           3.4584428           3.3779300
 Leave Link  202 at Mon Apr 21 19:17:01 2025, MaxMem=   536870912 cpu:               0.1 elap:               0.0
 (Enter /home/szhao/Apps/g16/l301.exe)
 Standard basis: 6-311+G(d,p) (5D, 7F)
 Ernie: Thresh=  0.10000D-02 Tol=  0.10000D-05 Strict=F.
    70 basis functions,   110 primitive gaussians,    72 cartesian basis functions
    12 alpha electrons       12 beta electrons
       nuclear repulsion energy        28.7989521849 Hartrees.
 IExCor= 4336 DFT=T Ex+Corr=M062X ExCW=0 ScaHFX=  0.540000
 ScaDFX=  1.000000  1.000000  1.000000  1.000000 ScalE2=  1.000000  1.000000
 IRadAn=      7 IRanWt=     -1 IRanGd=            0 ICorTp=0 IEmpDi=  4
 NAtoms=    5 NActive=    5 NUniq=    5 SFac= 1.00D+00 NAtFMM=   60 NAOKFM=F Big=F
 Integral buffers will be    131072 words long.
 Raffenetti 2 integral format.
 Two-electron integral symmetry is turned off.
 Leave Link  301 at Mon Apr 21 19:17:01 2025, MaxMem=   536870912 cpu:               0.6 elap:               0.1
 (Enter /home/szhao/Apps/g16/l302.exe)
 NPDir=0 NMtPBC=     1 NCelOv=     1 NCel=       1 NClECP=     1 NCelD=      1
         NCelK=      1 NCelE2=     1 NClLst=     1 CellRange=     0.0.
 One-electron integrals computed using PRISM.
 NBasis=    70 RedAO= T EigKep=  1.45D-02  NBF=    70
 NBsUse=    70 1.00D-06 EigRej= -1.00D+00 NBFU=    70
 Precomputing XC quadrature grid using
 IXCGrd= 4 IRadAn=           7 IRanWt=          -1 IRanGd=           0 AccXCQ= 0.00D+00.
 Generated NRdTot=       0 NPtTot=           0 NUsed=           0 NTot=          32
 NSgBfM=    71    71    71    71    71 MxSgAt=     5 MxSgA2=     5.
 Leave Link  302 at Mon Apr 21 19:17:01 2025, MaxMem=   536870912 cpu:               2.2 elap:               0.3
 (Enter /home/szhao/Apps/g16/l303.exe)
 DipDrv:  MaxL=1.
 Leave Link  303 at Mon Apr 21 19:17:02 2025, MaxMem=   536870912 cpu:               0.6 elap:               0.1
 (Enter /home/szhao/Apps/g16/l401.exe)
 Initial guess from the checkpoint file:  "opt.chk"
 B after Tr=    -0.014175    0.002699    0.000174
         Rot=    1.000000   -0.000001   -0.000021    0.000895 Ang=  -0.10 deg.
 Guess basis will be translated and rotated to current coordinates.
 JPrj=2 DoOrth=T DoCkMO=T.
 Initial guess <Sx>= 0.0000 <Sy>= 0.0000 <Sz>= 0.0000 <S**2>= 0.0000 S= 0.0000
 Generating alternative initial guess.
 ExpMin= 3.48D-02 ExpMax= 7.75D+04 ExpMxC= 2.65D+03 IAcc=3 IRadAn=         5 AccDes= 0.00D+00
 Harris functional with IExCor= 1009 and IRadAn=       5 diagonalized for initial guess.
 HarFok:  IExCor= 1009 AccDes= 0.00D+00 IRadAn=         5 IDoV= 1 UseB2=F ITyADJ=14
 ICtDFT=  3500011 ScaDFX=  1.000000  1.000000  1.000000  1.000000
 FoFCou: FMM=F IPFlag=           0 FMFlag=      100000 FMFlg1=           0
         NFxFlg=           0 DoJE=T BraDBF=F KetDBF=T FulRan=T
         wScrn=  0.000000 ICntrl=       500 IOpCl=  0 I1Cent=   200000004 NGrid=           0
         NMat0=    1 NMatS0=      1 NMatT0=    0 NMatD0=    1 NMtDS0=    0 NMtDT0=    0
 Symmetry not used in FoFCou.
 Harris En= -380.829839910378    
 Leave Link  401 at Mon Apr 21 19:17:02 2025, MaxMem=   536870912 cpu:               2.7 elap:               0.4
 (Enter /home/szhao/Apps/g16/l502.exe)
 Keep R1 and R2 ints in memory in canonical form, NReq=13385587.
 FoFCou: FMM=F IPFlag=           0 FMFlag=           0 FMFlg1=           0
         NFxFlg=           0 DoJE=F BraDBF=F KetDBF=F FulRan=T
         wScrn=  0.000000 ICntrl=       600 IOpCl=  0 I1Cent=           0 NGrid=           0
         NMat0=    1 NMatS0=   2485 NMatT0=    0 NMatD0=    1 NMtDS0=    0 NMtDT0=    0
 Symmetry not used in FoFCou.
 Two-electron integral symmetry not used.
 UHF open shell SCF:
 Using DIIS extrapolation, IDIIS=  1040.
 NGot=   536870912 LenX=   530681581 LenY=   530675956
 Requested convergence on RMS density matrix=1.00D-08 within 128 cycles.
 Requested convergence on MAX density matrix=1.00D-06.
 Requested convergence on             energy=1.00D-06.
 No special actions if energy rises.

 Cycle   1  Pass 1  IDiag  1:
 E= -380.936212044863    
 DIIS: error= 2.11D-03 at cycle   1 NSaved=   1.
 NSaved= 1 IEnMin= 1 EnMin= -380.936212044863     IErMin= 1 ErrMin= 2.11D-03
 ErrMax= 2.11D-03  0.00D+00 EMaxC= 1.00D-01 BMatC= 1.34D-03 BMatP= 1.34D-03
 IDIUse=3 WtCom= 9.79D-01 WtEn= 2.11D-02
 Coeff-Com:  0.100D+01
 Coeff-En:   0.100D+01
 Coeff:      0.100D+01
 Gap=     0.386 Goal=   None    Shift=    0.000
 Gap=     0.386 Goal=   None    Shift=    0.000
 GapD=    0.386 DampG=1.000 DampE=1.000 DampFc=1.0000 IDamp=-1.
 RMSDP=3.79D-04 MaxDP=8.59D-03              OVMax= 1.48D-02

 Cycle   2  Pass 1  IDiag  1:
 E= -380.936866488488     Delta-E=       -0.000654443625 Rises=F Damp=F
 DIIS: error= 4.25D-04 at cycle   2 NSaved=   2.
 NSaved= 2 IEnMin= 2 EnMin= -380.936866488488     IErMin= 2 ErrMin= 4.25D-04
 ErrMax= 4.25D-04  0.00D+00 EMaxC= 1.00D-01 BMatC= 5.69D-05 BMatP= 1.34D-03
 IDIUse=3 WtCom= 9.96D-01 WtEn= 4.25D-03
 Coeff-Com: -0.142D+00 0.114D+01
 Coeff-En:   0.000D+00 0.100D+01
 Coeff:     -0.141D+00 0.114D+01
 Gap=     0.133 Goal=   None    Shift=    0.000
 Gap=     0.133 Goal=   None    Shift=    0.000
 RMSDP=1.36D-04 MaxDP=2.15D-03 DE=-6.54D-04 OVMax= 7.68D-03

 Cycle   3  Pass 1  IDiag  1:
 E= -380.936933362224     Delta-E=       -0.000066873736 Rises=F Damp=F
 DIIS: error= 2.05D-04 at cycle   3 NSaved=   3.
 NSaved= 3 IEnMin= 3 EnMin= -380.936933362224     IErMin= 3 ErrMin= 2.05D-04
 ErrMax= 2.05D-04  0.00D+00 EMaxC= 1.00D-01 BMatC= 7.50D-06 BMatP= 5.69D-05
 IDIUse=3 WtCom= 9.98D-01 WtEn= 2.05D-03
 Coeff-Com: -0.293D-01 0.596D-01 0.970D+00
 Coeff-En:   0.000D+00 0.000D+00 0.100D+01
 Coeff:     -0.293D-01 0.595D-01 0.970D+00
 Gap=     0.133 Goal=   None    Shift=    0.000
 Gap=     0.133 Goal=   None    Shift=    0.000
 RMSDP=4.71D-05 MaxDP=9.26D-04 DE=-6.69D-05 OVMax= 2.96D-03

 Cycle   4  Pass 1  IDiag  1:
 E= -380.936941680462     Delta-E=       -0.000008318238 Rises=F Damp=F
 DIIS: error= 1.14D-04 at cycle   4 NSaved=   4.
 NSaved= 4 IEnMin= 4 EnMin= -380.936941680462     IErMin= 4 ErrMin= 1.14D-04
 ErrMax= 1.14D-04  0.00D+00 EMaxC= 1.00D-01 BMatC= 2.47D-06 BMatP= 7.50D-06
 IDIUse=3 WtCom= 9.99D-01 WtEn= 1.14D-03
 Coeff-Com:  0.255D-01-0.254D+00 0.299D+00 0.929D+00
 Coeff-En:   0.000D+00 0.000D+00 0.000D+00 0.100D+01
 Coeff:      0.255D-01-0.254D+00 0.299D+00 0.929D+00
 Gap=     0.133 Goal=   None    Shift=    0.000
 Gap=     0.133 Goal=   None    Shift=    0.000
 RMSDP=2.45D-05 MaxDP=4.34D-04 DE=-8.32D-06 OVMax= 1.83D-03

 Cycle   5  Pass 1  IDiag  1:
 E= -380.936943979891     Delta-E=       -0.000002299428 Rises=F Damp=F
 DIIS: error= 1.76D-05 at cycle   5 NSaved=   5.
 NSaved= 5 IEnMin= 5 EnMin= -380.936943979891     IErMin= 5 ErrMin= 1.76D-05
 ErrMax= 1.76D-05  0.00D+00 EMaxC= 1.00D-01 BMatC= 7.13D-08 BMatP= 2.47D-06
 IDIUse=1 WtCom= 1.00D+00 WtEn= 0.00D+00
 Coeff-Com: -0.230D-02 0.407D-01-0.115D+00-0.243D+00 0.132D+01
 Coeff:     -0.230D-02 0.407D-01-0.115D+00-0.243D+00 0.132D+01
 Gap=     0.133 Goal=   None    Shift=    0.000
 Gap=     0.133 Goal=   None    Shift=    0.000
 RMSDP=7.85D-06 MaxDP=1.28D-04 DE=-2.30D-06 OVMax= 5.52D-04

 Cycle   6  Pass 1  IDiag  1:
 E= -380.936944109209     Delta-E=       -0.000000129318 Rises=F Damp=F
 DIIS: error= 4.17D-06 at cycle   6 NSaved=   6.
 NSaved= 6 IEnMin= 6 EnMin= -380.936944109209     IErMin= 6 ErrMin= 4.17D-06
 ErrMax= 4.17D-06  0.00D+00 EMaxC= 1.00D-01 BMatC= 6.56D-09 BMatP= 7.13D-08
 IDIUse=1 WtCom= 1.00D+00 WtEn= 0.00D+00
 Coeff-Com: -0.178D-02 0.235D-01-0.430D-01-0.112D+00 0.407D+00 0.726D+00
 Coeff:     -0.178D-02 0.235D-01-0.430D-01-0.112D+00 0.407D+00 0.726D+00
 Gap=     0.133 Goal=   None    Shift=    0.000
 Gap=     0.133 Goal=   None    Shift=    0.000
 RMSDP=9.76D-07 MaxDP=2.05D-05 DE=-1.29D-07 OVMax= 2.90D-05

 Cycle   7  Pass 1  IDiag  1:
 E= -380.936944111835     Delta-E=       -0.000000002626 Rises=F Damp=F
 DIIS: error= 8.21D-07 at cycle   7 NSaved=   7.
 NSaved= 7 IEnMin= 7 EnMin= -380.936944111835     IErMin= 7 ErrMin= 8.21D-07
 ErrMax= 8.21D-07  0.00D+00 EMaxC= 1.00D-01 BMatC= 2.47D-10 BMatP= 6.56D-09
[...]
 Berny optimization.
 Using GEDIIS/GDIIS optimizer.
 FormGI is forming the generalized inverse of G from B-inverse, IUseBI=4.
 Internal  Forces:  Max     0.000002739 RMS     0.000000889
 Search for a local minimum.
 Step number  19 out of a maximum of   25
 All quantities printed in internal units (Hartrees-Bohrs-Radians)
 RMS Force = .10283D-05 SwitMx=.10000D-02 MixMth= 2
 Mixed Optimization -- En-DIIS/RFO-DIIS
 Swapping is turned off.
 Update second derivatives using D2CorX and points    4    5    6    7    8
                                                      9   10   11   12   13
                                                     14   15   16   17   18
                                                     19
 DE=  3.04D-10 DEPred=-4.19D-09 R=-7.25D-02
 Trust test=-7.25D-02 RLast= 5.18D-03 DXMaxT set to 2.49D-01
 The second derivative matrix:
                          X1        Y1        Z1        X2        Y2
           X1           0.74924
           Y1          -0.00597   0.50271
           Z1           0.00501  -0.00100   0.51027
           X2          -0.00077  -0.00078  -0.00043   0.50198
           Y2          -0.00983  -0.00122  -0.00138   0.00066   0.50255
           Z2          -0.00065   0.00013  -0.00094  -0.00010   0.00030
           R1          -0.15675  -0.00110  -0.00308   0.00151   0.01229
           R2          -0.13779  -0.00012  -0.00260   0.00104   0.01126
           R3          -0.01337   0.00056  -0.00121  -0.00167  -0.00897
           A1          -0.03720   0.00468   0.00040  -0.00086  -0.00346
           A2          -0.02672   0.00044   0.00035  -0.00097  -0.00225
           A3           0.05628  -0.00614   0.00044   0.00057   0.00351
           A4           0.00259  -0.00194  -0.00018   0.00529   0.00078
           D1           0.00171  -0.00056   0.00599  -0.00010  -0.00104
           D2          -0.00235   0.00057  -0.00659   0.00047   0.00084
                          Z2        R1        R2        R3        A1
           Z2           0.50017
           R1           0.00073   0.31254
           R2           0.00066  -0.03862   0.31855
           R3          -0.00059   0.01129   0.01043   0.21052
           A1           0.00018   0.00778   0.00616   0.00053   0.06204
           A2           0.00013  -0.00247  -0.00247  -0.00052   0.05657
           A3           0.00045   0.02715   0.02621   0.00247   0.00764
           A4          -0.00044  -0.00219  -0.00118  -0.00167  -0.00041
           D1          -0.00066  -0.00105  -0.00094   0.00018   0.00134
           D2           0.00054   0.00159   0.00141   0.00047  -0.00145
                          A2        A3        A4        D1        D2
           A2           0.06174
           A3           0.00687   0.10687
           A4          -0.00074   0.00082   0.01459
           D1           0.00122   0.00056   0.00045   0.00369
           D2          -0.00146  -0.00056   0.00067  -0.00377   0.00432
 ITU= -1  0  0  0  0  0  1  1  0  1  1  1  1  0  1  1
     Eigenvalues ---    0.00018   0.00497   0.00775   0.01460   0.09668
     Eigenvalues ---    0.20729   0.28483   0.354291000.000001000.00000
     Eigenvalues --- 1000.000001000.000001000.000001000.000001000.00000
 En-DIIS/RFO-DIIS/Sim-DIIS IScMMF=       -3 using points:    19   18   17   16   15   14   13   12   11   10
 RFO step:  Lambda=-1.36852468D-10.
 NNeg= 0 NGDIIS=10 SimSw=  2.50D-03 Rises=F DC=  3.04D-10 SmlDif=  1.00D-05
 NRisDI= 0 DoIntr=F SqrtH=F CThrHd= 10.0 CDAdj=  3.0
 RMS Error=  0.8731719532D-04 NUsed=10 OKEnD=F EnDIS=F
 InvSVX:  RCond= 2.46D-22 Info=          12 Equed=N FErr=  0.00D+00 BErr=  0.00D+00
 DIIS inversion failure, remove point  10.
 InvSVX:  RCond= 6.22D-16 Info=           0 Equed=N FErr=  1.97D-04 BErr=  6.13D-17
 DIIS inversion failure, remove point   9.
 InvSVX:  RCond= 2.48D-12 Info=           0 Equed=N FErr=  3.42D-08 BErr=  3.35D-17
 DIIS inversion failure, remove point   8.
 InvSVX:  RCond= 3.21D-11 Info=           0 Equed=N FErr=  4.11D-09 BErr=  1.09D-16
 DIIS inversion failure, remove point   7.
 InvSVX:  RCond= 4.71D-11 Info=           0 Equed=N FErr=  2.58D-09 BErr=  9.37D-17
 DIIS inversion failure, remove point   6.
 InvSVX:  RCond= 1.95D-09 Info=           0 Equed=N FErr=  2.62D-11 BErr=  7.82D-17
 DIIS inversion failure, remove point   5.
 InvSVX:  RCond= 5.70D-09 Info=           0 Equed=N FErr=  2.60D-12 BErr=  4.91D-17
 DIIS inversion failure, remove point   4.
 InvSVX:  RCond= 4.67D-08 Info=           0 Equed=N FErr=  2.70D-14 BErr=  9.94D-17
 DIIS inversion failure, remove point   3.
 InvSVX:  RCond= 6.70D-06 Info=           0 Equed=N FErr=  9.85D-16 BErr=  1.67D-17
 RFO-DIIS uses    2 points instead of   10
 DidBck=F Rises=F RFO-DIIS coefs:    1.04919   -0.04919    0.00000    0.00000    0.00000
                  RFO-DIIS coefs:    0.00000    0.00000    0.00000    0.00000    0.00000
 Iteration  1 RMS(Cart)=  0.00015585 RMS(Int)=  0.00000001
 Iteration  2 RMS(Cart)=  0.00000001 RMS(Int)=  0.00000000
 ITry= 1 IFail=0 DXMaxC= 4.53D-04 DCOld= 1.00D+10 DXMaxT= 2.49D-01 DXLimC= 3.00D+00 Rises=F
 Variable       Old X    -DE/DX   Delta X   Delta X   Delta X     New X
                                 (Linear)    (Quad)   (Total)
    X1       -3.55354  -0.00000   0.00000   0.00000   0.00000  -3.55354
    Y1        0.00000   0.00000   0.00000   0.00000   0.00000   0.00000
    Z1        0.00000   0.00000   0.00000   0.00000   0.00000   0.00000
    X2        3.55354  -0.00000  -0.00000   0.00000   0.00000   3.55354
    Y2        0.00000   0.00000   0.00000   0.00000   0.00000   0.00000
    Z2        0.00000  -0.00000   0.00000   0.00000   0.00000   0.00000
    R1        2.08906   0.00000   0.00000   0.00000   0.00000   2.08906
    R2        2.08882   0.00000   0.00000   0.00000   0.00000   2.08882
    R3        2.68593  -0.00000  -0.00000  -0.00001  -0.00001   2.68592
    A1        2.26894  -0.00000   0.00001  -0.00003  -0.00003   2.26891
    A2        2.20145   0.00000  -0.00001   0.00003   0.00002   2.20147
    A3        1.81280  -0.00000   0.00000   0.00000   0.00000   1.81280
    A4        1.39085  -0.00000   0.00000  -0.00017  -0.00017   1.39068
    D1        0.00778   0.00000  -0.00020   0.00008  -0.00012   0.00766
    D2       -3.13472  -0.00000  -0.00016  -0.00010  -0.00026  -3.13499
         Item               Value     Threshold  Converged?
 Maximum Force            0.000003     0.000450     YES
 RMS     Force            0.000001     0.000300     YES
 Maximum Displacement     0.000453     0.001800     YES
 RMS     Displacement     0.000156     0.001200     YES
 Predicted change in Energy=-3.208694D-10
 Optimization completed.
    -- Stationary point found.
                           ----------------------------
                           !   Optimized Parameters   !
                           ! (Angstroms and Degrees)  !
 --------------------------                            --------------------------
 ! Name  Definition              Value          Derivative Info.                !
 --------------------------------------------------------------------------------
 ! X1    R(1,-1)                -1.8805         -DE/DX =    0.0                 !
 ! Y1    R(1,-2)                 0.0            -DE/DX =    0.0                 !
 ! Z1    R(1,-3)                 0.0            -DE/DX =    0.0                 !
 ! X2    R(2,-1)                 1.8805         -DE/DX =    0.0                 !
 ! Y2    R(2,-2)                 0.0            -DE/DX =    0.0                 !
 ! Z2    R(2,-3)                 0.0            -DE/DX =    0.0                 !
 ! R1    R(1,3)                  1.1055         -DE/DX =    0.0                 !
 ! R2    R(1,5)                  1.1054         -DE/DX =    0.0                 !
 ! R3    R(2,4)                  1.4213         -DE/DX =    0.0                 !
 ! A1    A(2,1,3)              130.0004         -DE/DX =    0.0                 !
 ! A2    A(2,1,5)              126.1338         -DE/DX =    0.0                 !
 ! A3    A(3,1,5)              103.8658         -DE/DX =    0.0                 !
 ! A4    A(1,2,4)               79.69           -DE/DX =    0.0                 !
 ! D1    D(3,1,2,4)              0.4456         -DE/DX =    0.0                 !
 ! D2    D(5,1,2,4)           -179.6063         -DE/DX =    0.0                 !
 --------------------------------------------------------------------------------
 Largest change from initial coordinates is atom    4       0.130 Angstoms.
 GradGradGradGradGradGradGradGradGradGradGradGradGradGradGradGradGradGrad

 Leave Link  103 at Mon Apr 21 19:20:49 2025, MaxMem=   536870912 cpu:               1.6 elap:               0.3
 (Enter /home/szhao/Apps/g16/l202.exe)
                          Input orientation:                          
 ---------------------------------------------------------------------
 Center     Atomic      Atomic             Coordinates (Angstroms)
 Number     Number       Type             X           Y           Z
 ---------------------------------------------------------------------
      1          6           0       -1.880452    0.000000    0.000000
      2         15           0        1.880452    0.000000    0.000000
      3          1           0       -2.591048   -0.846841    0.001572
      4          1           0        1.626072   -1.398359   -0.008279
      5          1           0       -2.532250    0.892731   -0.000848
 ---------------------------------------------------------------------
                    Distance matrix (angstroms):
                    1          2          3          4          5
     1  C    0.000000
     2  P    3.760905   0.000000
     3  H    1.105481   4.550984   0.000000
     4  H    3.775074   1.421332   4.253042   0.000000
     5  H    1.105355   4.502100   1.740567   4.747713   0.000000
 Symmetry turned off by external request.
 Stoichiometry    CH3P
 Framework group  C1[X(CH3P)]
 Deg. of freedom     9
 Full point group                 C1      NOp   1
 Rotational constants (GHZ):         146.8092342           3.4760482           3.3956504
 Leave Link  202 at Mon Apr 21 19:20:49 2025, MaxMem=   536870912 cpu:               0.2 elap:               0.1
 (Enter /home/szhao/Apps/g16/l601.exe)
 Copying SCF densities to generalized density rwf, IOpCl= 1 IROHF=0.

 **********************************************************************

            Population analysis using the SCF density.

 **********************************************************************

 Alpha  occ. eigenvalues --  -78.04171 -10.63087  -6.86407  -4.98409  -4.97649
 Alpha  occ. eigenvalues --   -4.97197  -0.77476  -0.65183  -0.49812  -0.37897
 Alpha  occ. eigenvalues --   -0.33498  -0.24037
 Alpha virt. eigenvalues --   -0.10740  -0.09958   0.01282   0.03953   0.04707
 Alpha virt. eigenvalues --    0.06188   0.06929   0.07478   0.08765   0.10965
 Alpha virt. eigenvalues --    0.13540   0.17142   0.18564   0.31259   0.33952
 Alpha virt. eigenvalues --    0.34318   0.41779   0.44064   0.46779   0.53743
 Alpha virt. eigenvalues --    0.57736   0.61166   0.65571   0.68499   0.70296
 Alpha virt. eigenvalues --    0.73304   0.74680   0.75619   0.94123   1.08385
 Alpha virt. eigenvalues --    1.10936   1.17951   1.47928   1.48044   1.53181
 Alpha virt. eigenvalues --    1.53604   1.58008   1.60696   1.60913   1.62701
 Alpha virt. eigenvalues --    1.85535   1.85894   2.04385   2.12382   2.36527
 Alpha virt. eigenvalues --    2.43898   2.48381   2.56028   2.59577   2.73527
 Alpha virt. eigenvalues --    3.07398   3.59794   6.88454  13.99307  14.00761
 Alpha virt. eigenvalues --   14.04191  23.75552 163.13555
  Beta  occ. eigenvalues --  -78.04171 -10.63087  -6.86407  -4.98409  -4.97649
  Beta  occ. eigenvalues --   -4.97197  -0.77476  -0.65183  -0.49812  -0.37897
  Beta  occ. eigenvalues --   -0.33498  -0.24037
  Beta virt. eigenvalues --   -0.10740  -0.09958   0.01282   0.03953   0.04707
  Beta virt. eigenvalues --    0.06188   0.06929   0.07478   0.08765   0.10965
  Beta virt. eigenvalues --    0.13540   0.17142   0.18564   0.31259   0.33952
  Beta virt. eigenvalues --    0.34318   0.41779   0.44064   0.46779   0.53743
  Beta virt. eigenvalues --    0.57736   0.61166   0.65571   0.68499   0.70296
  Beta virt. eigenvalues --    0.73304   0.74680   0.75619   0.94123   1.08385
  Beta virt. eigenvalues --    1.10936   1.17951   1.47928   1.48044   1.53181
  Beta virt. eigenvalues --    1.53604   1.58008   1.60696   1.60913   1.62701
  Beta virt. eigenvalues --    1.85535   1.85894   2.04385   2.12382   2.36527
  Beta virt. eigenvalues --    2.43898   2.48381   2.56028   2.59577   2.73527
  Beta virt. eigenvalues --    3.07398   3.59794   6.88454  13.99307  14.00761
  Beta virt. eigenvalues --   14.04191  23.75552 163.13555
          Condensed to atoms (all electrons):
               1          2          3          4          5
     1  C    5.676818  -0.008316   0.313015   0.001044   0.313886
     2  P   -0.008316  14.745100   0.002417   0.222096   0.002413
     3  H    0.313015   0.002417   0.573000  -0.000169  -0.034717
     4  H    0.001044   0.222096  -0.000169   0.809728   0.000031
     5  H    0.313886   0.002413  -0.034717   0.000031   0.571956
          Atomic-Atomic Spin Densities.
               1          2          3          4          5
     1  C   -0.000000  -0.000000   0.000000   0.000000  -0.000000
     2  P   -0.000000   0.000000   0.000000  -0.000000  -0.000000
     3  H    0.000000   0.000000  -0.000000  -0.000000  -0.000000
     4  H    0.000000  -0.000000  -0.000000   0.000000  -0.000000
     5  H   -0.000000  -0.000000  -0.000000  -0.000000   0.000000
 Mulliken charges and spin densities:
               1          2
     1  C   -0.296447  -0.000000
     2  P    0.036290   0.000000
     3  H    0.146455  -0.000000
     4  H   -0.032729   0.000000
     5  H    0.146431   0.000000
 Sum of Mulliken charges =  -0.00000  -0.00000
 Mulliken charges and spin densities with hydrogens summed into heavy atoms:
               1          2
     1  C   -0.003561  -0.000000
     2  P    0.003561   0.000000
 Electronic spatial extent (au):  <R**2>=            378.4045
 Charge=             -0.0000 electrons
 Dipole moment (field-independent basis, Debye):
    X=             -2.7750    Y=             -0.5909    Z=             -0.0028  Tot=              2.8372
 Quadrupole moment (field-independent basis, Debye-Ang):
   XX=            -13.1252   YY=            -21.3498   ZZ=            -25.4038
   XY=             -1.8900   XZ=             -0.0088   YZ=              0.0274
 Traceless Quadrupole moment (field-independent basis, Debye-Ang):
   XX=              6.8344   YY=             -1.3902   ZZ=             -5.4442
   XY=             -1.8900   XZ=             -0.0088   YZ=              0.0274
 Octapole moment (field-independent basis, Debye-Ang**2):
  XXX=            -40.1203  YYY=              3.0088  ZZZ=              0.0145  XYY=            -13.9373
  XXY=             -3.6861  XXZ=             -0.0121  XZZ=            -23.0419  YZZ=              0.8381
  YYZ=              0.0076  XYZ=              0.0501
 Hexadecapole moment (field-independent basis, Debye-Ang**3):
 XXXX=           -419.9331 YYYY=            -47.6049 ZZZZ=            -47.0417 XXXY=             -7.0906
 XXXZ=              0.0001 YYYX=              3.8135 YYYZ=              0.0292 ZZZX=              0.0258
 ZZZY=              0.0242 XXYY=            -85.7158 XXZZ=           -103.1495 YYZZ=            -16.2264
 XXYZ=              0.1017 YYXZ=              0.0134 ZZXY=              0.9990
 N-N= 2.888087195324D+01 E-N=-9.618563113428D+02  KE= 3.803058979591D+02
                          Isotropic Fermi Contact Couplings
        Atom                 a.u.       MegaHertz       Gauss      10(-4) cm-1
     1  C(13)             -0.00000      -0.00000      -0.00000      -0.00000
     2  P(31)              0.00000       0.00001       0.00000       0.00000
     3  H(1)              -0.00000      -0.00000      -0.00000      -0.00000
     4  H(1)              -0.00000      -0.00000      -0.00000      -0.00000
     5  H(1)               0.00000       0.00000       0.00000       0.00000
 --------------------------------------------------------
       Center         ----  Spin Dipole Couplings  ----
                      3XX-RR        3YY-RR        3ZZ-RR
 --------------------------------------------------------
     1   Atom        0.000000     -0.000000     -0.000000
     2   Atom        0.000000     -0.000000      0.000000
     3   Atom        0.000000     -0.000000      0.000000
     4   Atom       -0.000000     -0.000000      0.000000
     5   Atom        0.000000      0.000000     -0.000000
 --------------------------------------------------------
                        XY            XZ            YZ
 --------------------------------------------------------
     1   Atom        0.000000      0.000224     -0.000008
     2   Atom        0.000000     -0.000077      0.000015
     3   Atom        0.000000      0.000006     -0.000003
     4   Atom        0.000000     -0.000001      0.000000
     5   Atom        0.000000      0.000007      0.000002
 --------------------------------------------------------


 ---------------------------------------------------------------------------------
              Anisotropic Spin Dipole Couplings in Principal Axis System
 ---------------------------------------------------------------------------------

       Atom             a.u.   MegaHertz   Gauss  10(-4) cm-1        Axes

              Baa    -0.0002    -0.030    -0.011    -0.010 -0.7063  0.0251  0.7075
     1 C(13)  Bbb     0.0000     0.000     0.000     0.000  0.0341  0.9994 -0.0014
              Bcc     0.0002     0.030     0.011     0.010  0.7071 -0.0232  0.7067
 
              Baa    -0.0001    -0.017    -0.006    -0.006  0.6936 -0.1402  0.7065
     2 P(31)  Bbb    -0.0000    -0.000    -0.000    -0.000  0.1917  0.9814  0.0066
              Bcc     0.0001     0.017     0.006     0.006 -0.6944  0.1309  0.7076
 
              Baa    -0.0000    -0.004    -0.001    -0.001 -0.6478  0.2835  0.7071
     3 H(1)   Bbb    -0.0000    -0.000    -0.000    -0.000  0.3996  0.9167 -0.0015
              Bcc     0.0000     0.004     0.001     0.001  0.6486 -0.2816  0.7071
 
              Baa    -0.0000    -0.000    -0.000    -0.000  0.6579 -0.2639  0.7054
     4 H(1)   Bbb     0.0000     0.000     0.000     0.000  0.3697  0.9292  0.0029
              Bcc     0.0000     0.000     0.000     0.000 -0.6561  0.2589  0.7088
 
              Baa    -0.0000    -0.004    -0.001    -0.001 -0.6651 -0.2381  0.7078
     5 H(1)   Bbb    -0.0000    -0.000    -0.000    -0.000 -0.3381  0.9411 -0.0011
              Bcc     0.0000     0.004     0.001     0.001  0.6659  0.2401  0.7064
 

 ---------------------------------------------------------------------------------

 No NMR shielding tensors so no spin-rotation constants.
 Leave Link  601 at Mon Apr 21 19:20:50 2025, MaxMem=   536870912 cpu:               2.8 elap:               0.4
 (Enter /home/szhao/Apps/g16/l9999.exe)
 1\1\GINC-NODE06\FOpt\UM062X\6-311+G(d,p)\C1H3P1\SZHAO\21-Apr-2025\0\\#
 p opt UM062X/6-311+G** nosymm int=superfine\\Title Card Required\\0,1\
 C,-1.88045248,0.,0.\P,1.88045248,0.,0.\H,-2.5910476757,-0.8468407316,0
 .0015723649\H,1.6260716819,-1.3983585566,-0.0082794351\H,-2.532249557,
 0.89273088,-0.0008480309\\Version=ES64L-G16RevA.03\HF=-380.9373407\S2=
 0.\S2-1=0.\S2A=0.\RMSD=9.318e-09\RMSF=1.257e-06\Dipole=-1.0917742,-0.2
 324848,-0.0011031\Quadrupole=5.0812116,-1.033573,-4.0476386,-1.4051603
 ,-0.0065231,0.0203894\PG=C01 [X(C1H3P1)]\\@


 IN THE WOODS WE RETURN TO REASON AND FAITH.

                                 -- EMERSON
 Job cpu time:       0 days  0 hours 28 minutes 38.0 seconds.
 Elapsed time:       0 days  0 hours  3 minutes 52.8 seconds.
 File lengths (MBytes):  RWF=     22 Int=      0 D2E=      0 Chk=      2 Scr=      2
 Normal termination of Gaussian 16 at Mon Apr 21 19:20:50 2025.
