Title Card Required                                                     
Force     UM062X                                                      6-311+G(d,p)        
Number of atoms                            I                6
Info1-9                                    I   N=           9
          15          15           0           0           0         100
           5          18        -502
Full Title                                 C   N=           2
Title Card Required     
Route                                      C   N=           4
#p UM062X/6-311+G** force int=superfine         
Charge                                     I                1
Multiplicity                               I                2
Number of electrons                        I               15
Number of alpha electrons                  I                8
Number of beta electrons                   I                7
Number of basis functions                  I               68
Number of independent functions            I               68
Number of point charges in /Mol/           I                0
Number of translation vectors              I                0
Atomic numbers                             I   N=           6
           6           6           1           1           1           1
Nuclear charges                            R   N=           6
  6.00000000E+00  6.00000000E+00  1.00000000E+00  1.00000000E+00  1.00000000E+00
  1.00000000E+00
Current cartesian coordinates              R   N=          18
  9.04747002E-21  1.21560790E+00  0.00000000E+00 -1.48884112E-16 -1.21560790E+00
  0.00000000E+00  1.74487484E+00  2.30578713E+00  0.00000000E+00 -1.74461972E+00
  2.30594964E+00  0.00000000E+00 -1.74487484E+00 -2.30578713E+00  0.00000000E+00
  1.74461972E+00 -2.30594964E+00  0.00000000E+00
Number of symbols in /Mol/                 I                0
Force Field                                I                0
Atom Types                                 C   N=           6
                                                            
            
Int Atom Types                             I   N=           6
           0           0           0           0           0           0
MM charges                                 R   N=           6
  0.00000000E+00  0.00000000E+00  0.00000000E+00  0.00000000E+00  0.00000000E+00
  0.00000000E+00
Integer atomic weights                     I   N=           6
          12          12           1           1           1           1
Real atomic weights                        R   N=           6
  1.20000000E+01  1.20000000E+01  1.00782504E+00  1.00782504E+00  1.00782504E+00
  1.00782504E+00
Atom fragment info                         I   N=           6
           0           0           0           0           0           0
Atom residue num                           I   N=           6
           0           0           0           0           0           0
Nuclear spins                              I   N=           6
           0           0           1           1           1           1
Nuclear ZEff                               R   N=           6
 -3.60000000E+00 -3.60000000E+00 -1.00000000E+00 -1.00000000E+00 -1.00000000E+00
 -1.00000000E+00
Nuclear ZNuc                               R   N=           6
  6.00000000E+00  6.00000000E+00  1.00000000E+00  1.00000000E+00  1.00000000E+00
  1.00000000E+00
Nuclear QMom                               R   N=           6
  0.00000000E+00  0.00000000E+00  0.00000000E+00  0.00000000E+00  0.00000000E+00
  0.00000000E+00
Nuclear GFac                               R   N=           6
  0.00000000E+00  0.00000000E+00  2.79284600E+00  2.79284600E+00  2.79284600E+00
  2.79284600E+00
MicOpt                                     I   N=           6
          -1          -1          -1          -1          -1          -1
Number of residues                         I                0
Number of secondary structures             I                0
SymInf integers                            I   N=          26
           2           4           1           1           1          -1
          -1           1           1           1          -1          -1
          -1          -1           0           0           0           0
           0           0           0           0           0           0
           0           0
RotTr to input orientation                 R   N=          12
  1.10610098E-17 -1.00000000E+00 -2.78227502E-21 -1.00000000E+00 -1.10634907E-17
 -1.22464680E-16  1.22464680E-16  2.78227502E-21 -1.00000000E+00  2.77555756E-17
  0.00000000E+00  0.00000000E+00
Number of contracted shells                I               28
Number of primitive shells                 I               50
Pure/Cartesian d shells                    I                0
Pure/Cartesian f shells                    I                0
Highest angular momentum                   I                2
Largest degree of contraction              I                6
Shell types                                I   N=          28
           0          -1          -1          -1          -1          -2
           0          -1          -1          -1          -1          -2
           0           0           0           1           0           0
           0           1           0           0           0           1
           0           0           0           1
Number of primitives per shell             I   N=          28
           6           3           1           1           1           1
           6           3           1           1           1           1
           3           1           1           1           3           1
           1           1           3           1           1           1
           3           1           1           1
Shell to atom map                          I   N=          28
           1           1           1           1           1           1
           2           2           2           2           2           2
           3           3           3           3           4           4
           4           4           5           5           5           5
           6           6           6           6
Primitive exponents                        R   N=          50
  4.56324000E+03  6.82024000E+02  1.54973000E+02  4.44553000E+01  1.30290000E+01
  1.82773000E+00  2.09642000E+01  4.80331000E+00  1.45933000E+00  4.83456000E-01
  1.45585000E-01  4.38000000E-02  6.26000000E-01  4.56324000E+03  6.82024000E+02
  1.54973000E+02  4.44553000E+01  1.30290000E+01  1.82773000E+00  2.09642000E+01
  4.80331000E+00  1.45933000E+00  4.83456000E-01  1.45585000E-01  4.38000000E-02
  6.26000000E-01  3.38650000E+01  5.09479000E+00  1.15879000E+00  3.25840000E-01
  1.02741000E-01  7.50000000E-01  3.38650000E+01  5.09479000E+00  1.15879000E+00
  3.25840000E-01  1.02741000E-01  7.50000000E-01  3.38650000E+01  5.09479000E+00
  1.15879000E+00  3.25840000E-01  1.02741000E-01  7.50000000E-01  3.38650000E+01
  5.09479000E+00  1.15879000E+00  3.25840000E-01  1.02741000E-01  7.50000000E-01
Contraction coefficients                   R   N=          50
  1.96665025E-03  1.52306019E-02  7.61269097E-02  2.60801033E-01  6.16462078E-01
  2.21006028E-01  1.14660081E-01  9.19999648E-01 -3.03068213E-03  1.00000000E+00
  1.00000000E+00  1.00000000E+00  1.00000000E+00  1.96665025E-03  1.52306019E-02
  7.61269097E-02  2.60801033E-01  6.16462078E-01  2.21006028E-01  1.14660081E-01
  9.19999648E-01 -3.03068213E-03  1.00000000E+00  1.00000000E+00  1.00000000E+00
  1.00000000E+00  2.54938145E-02  1.90373109E-01  8.52161486E-01  1.00000000E+00
  1.00000000E+00  1.00000000E+00  2.54938145E-02  1.90373109E-01  8.52161486E-01
  1.00000000E+00  1.00000000E+00  1.00000000E+00  2.54938145E-02  1.90373109E-01
  8.52161486E-01  1.00000000E+00  1.00000000E+00  1.00000000E+00  2.54938145E-02
  1.90373109E-01  8.52161486E-01  1.00000000E+00  1.00000000E+00  1.00000000E+00
P(S=P) Contraction coefficients            R   N=          50
  0.00000000E+00  0.00000000E+00  0.00000000E+00  0.00000000E+00  0.00000000E+00
  0.00000000E+00  4.02486927E-02  2.37593957E-01  8.15853851E-01  1.00000000E+00
  1.00000000E+00  1.00000000E+00  0.00000000E+00  0.00000000E+00  0.00000000E+00
  0.00000000E+00  0.00000000E+00  0.00000000E+00  0.00000000E+00  4.02486927E-02
  2.37593957E-01  8.15853851E-01  1.00000000E+00  1.00000000E+00  1.00000000E+00
  0.00000000E+00  0.00000000E+00  0.00000000E+00  0.00000000E+00  0.00000000E+00
  0.00000000E+00  0.00000000E+00  0.00000000E+00  0.00000000E+00  0.00000000E+00
  0.00000000E+00  0.00000000E+00  0.00000000E+00  0.00000000E+00  0.00000000E+00
  0.00000000E+00  0.00000000E+00  0.00000000E+00  0.00000000E+00  0.00000000E+00
  0.00000000E+00  0.00000000E+00  0.00000000E+00  0.00000000E+00  0.00000000E+00
Coordinates of each shell                  R   N=          84
  6.03164668E-21  1.21560790E+00  0.00000000E+00  6.03164668E-21  1.21560790E+00
  0.00000000E+00  6.03164668E-21  1.21560790E+00  0.00000000E+00  6.03164668E-21
  1.21560790E+00  0.00000000E+00  6.03164668E-21  1.21560790E+00  0.00000000E+00
  6.03164668E-21  1.21560790E+00  0.00000000E+00 -1.48881096E-16 -1.21560790E+00
 -4.53770662E-57 -1.48881096E-16 -1.21560790E+00 -4.53770662E-57 -1.48881096E-16
 -1.21560790E+00 -4.53770662E-57 -1.48881096E-16 -1.21560790E+00 -4.53770662E-57
 -1.48881096E-16 -1.21560790E+00 -4.53770662E-57 -1.48881096E-16 -1.21560790E+00
 -4.53770662E-57  1.74487484E+00  2.30578713E+00 -3.28174482E-37  1.74487484E+00
  2.30578713E+00 -3.28174482E-37  1.74487484E+00  2.30578713E+00 -3.28174482E-37
  1.74487484E+00  2.30578713E+00 -3.28174482E-37 -1.74461972E+00  2.30594964E+00
  3.28126501E-37 -1.74461972E+00  2.30594964E+00  3.28126501E-37 -1.74461972E+00
  2.30594964E+00  3.28126501E-37 -1.74461972E+00  2.30594964E+00  3.28126501E-37
 -1.74487484E+00 -2.30578713E+00 -1.64087241E-36 -1.74487484E+00 -2.30578713E+00
 -1.64087241E-36 -1.74487484E+00 -2.30578713E+00 -1.64087241E-36 -1.74487484E+00
 -2.30578713E+00 -1.64087241E-36  1.74461972E+00 -2.30594964E+00  1.64063250E-36
  1.74461972E+00 -2.30594964E+00  1.64063250E-36  1.74461972E+00 -2.30594964E+00
  1.64063250E-36  1.74461972E+00 -2.30594964E+00  1.64063250E-36
Num ILSW                                   I              100
ILSW                                       I   N=         100
           1           0           0           0           2           0
           0           0           0           0        4336          -1
           7           0           0           0           2           0
           0           0           0           0           1           0
           1           0           0           0           0           0
           0           0      100000           0          -1           0
           0           0           0           0           0           0
           0           0           0           1           0           0
           0 -2000000000           1           0           0           0
           0           0           4          52           0           0
           0           0          55           0           0           0
           0           0           0           6           0           1
           0           0           0           0           0           0
           0           0           0           0           0           0
           0           0           0           0           0           0
           0           0           0           0           0           0
           0           0           0           0
Num RLSW                                   I               52
RLSW                                       R   N=          52
  1.00000000E+00  1.00000000E+00  1.00000000E+00  1.00000000E+00  5.40000000E-01
  0.00000000E+00  0.00000000E+00  1.00000000E+00  0.00000000E+00  0.00000000E+00
  0.00000000E+00  0.00000000E+00  1.00000000E+00  0.00000000E+00  0.00000000E+00
  0.00000000E+00  0.00000000E+00  1.00000000E+00  0.00000000E+00  0.00000000E+00
  0.00000000E+00  0.00000000E+00  1.00000000E+00  0.00000000E+00  0.00000000E+00
  0.00000000E+00  0.00000000E+00  1.00000000E+00  0.00000000E+00  0.00000000E+00
  0.00000000E+00  0.00000000E+00  1.00000000E+00  0.00000000E+00  0.00000000E+00
  0.00000000E+00  0.00000000E+00  0.00000000E+00  1.00000000E+00  1.00000000E+00
  0.00000000E+00  1.00000000E+00  0.00000000E+00  0.00000000E+00  0.00000000E+00
  0.00000000E+00  0.00000000E+00  0.00000000E+00  0.00000000E+00  0.00000000E+00
  0.00000000E+00  0.00000000E+00
MxBond                                     I                3
NBond                                      I   N=           6
           3           3           1           1           1           1
IBond                                      I   N=          18
           2           3           4           1           5           6
           1           0           0           1           0           0
           2           0           0           2           0           0
RBond                                      R   N=          18
  2.00000000E+00  1.00000000E+00  1.00000000E+00  2.00000000E+00  1.00000000E+00
  1.00000000E+00  1.00000000E+00  0.00000000E+00  0.00000000E+00  1.00000000E+00
  0.00000000E+00  0.00000000E+00  1.00000000E+00  0.00000000E+00  0.00000000E+00
  1.00000000E+00  0.00000000E+00  0.00000000E+00
Virial Ratio                               R      1.999393102050599E+00
SCF Energy                                 R     -7.816717877509711E+01
Total Energy                               R     -7.816717877509711E+01
S**2                                       R      7.526143049146032E-01
S**2 after annihilation                    R      7.500054842179997E-01
RMS Force                                  R      5.280334080110813E-02
RMS Density                                R      1.749015694959678E-09
Job Status                                 I                1
Nuclear derivative order                   I                1
External E-field                           R   N=          35
  0.00000000E+00  0.00000000E+00  0.00000000E+00  0.00000000E+00  0.00000000E+00
  0.00000000E+00  0.00000000E+00  0.00000000E+00  0.00000000E+00  0.00000000E+00
  0.00000000E+00  0.00000000E+00  0.00000000E+00  0.00000000E+00  0.00000000E+00
  0.00000000E+00  0.00000000E+00  0.00000000E+00  0.00000000E+00  0.00000000E+00
  0.00000000E+00  0.00000000E+00  0.00000000E+00  0.00000000E+00  0.00000000E+00
  0.00000000E+00  0.00000000E+00  0.00000000E+00  0.00000000E+00  0.00000000E+00
  0.00000000E+00  0.00000000E+00  0.00000000E+00  0.00000000E+00  0.00000000E+00
IOpCl                                      I                1
IROHF                                      I                0
Alpha Orbital Energies                     R   N=          68
 -1.08867307E+01 -1.08851690E+01 -1.22853716E+00 -9.70889188E-01 -8.64894391E-01
 -8.19879239E-01 -7.10777674E-01 -7.02594216E-01 -2.69838832E-01 -1.47901613E-01
 -1.32018382E-01 -1.24735495E-01 -1.01670247E-01 -7.93346287E-02 -6.68849657E-02
 -4.93030829E-02 -4.32125076E-02 -2.94477589E-02 -2.14214818E-03  2.83256659E-02
  1.14162475E-01  1.22696844E-01  2.11959068E-01  2.20765997E-01  2.64585304E-01
  2.99677591E-01  3.19028905E-01  3.83290193E-01  3.83881461E-01  4.61580817E-01
  4.86603023E-01  4.97414200E-01  5.70310713E-01  6.42171048E-01  7.24992905E-01
  8.31158479E-01  8.75048145E-01  1.09568075E+00  1.18247082E+00  1.20988934E+00
  1.34081636E+00  1.35534013E+00  1.38243807E+00  1.39051251E+00  1.51315403E+00
  1.51924949E+00  1.72538991E+00  1.79316733E+00  1.82834241E+00  1.88496451E+00
  1.90017349E+00  1.97531691E+00  2.08772810E+00  2.21167837E+00  2.29589095E+00
  2.32117123E+00  2.40716364E+00  2.44004158E+00  2.46042783E+00  2.54312044E+00
  2.59786974E+00  2.89786558E+00  3.22616522E+00  3.36040974E+00  3.57169802E+00
  3.77329347E+00  2.34492182E+01  2.41625144E+01
Beta Orbital Energies                      R   N=          68
 -1.08842832E+01 -1.08828736E+01 -1.18547214E+00 -9.52157553E-01 -8.51914542E-01
 -8.10782775E-01 -7.07914832E-01 -4.43378718E-01 -2.04745804E-01 -1.64877386E-01
 -1.31612029E-01 -1.24517608E-01 -1.07967917E-01 -8.86136916E-02 -6.74214056E-02
 -4.80122698E-02 -3.27404406E-02 -2.52501923E-02 -4.81123116E-03  2.95249181E-02
  1.18723205E-01  1.30993063E-01  2.04108276E-01  2.14890710E-01  2.77908581E-01
  2.81096244E-01  3.25310573E-01  3.80574489E-01  3.92962206E-01  4.71375561E-01
  5.00973188E-01  5.13173852E-01  5.38726564E-01  6.45922951E-01  7.60899894E-01
  8.66183834E-01  8.97068748E-01  1.13886597E+00  1.19704964E+00  1.21785943E+00
  1.37104109E+00  1.38036429E+00  1.39454503E+00  1.39723107E+00  1.53448405E+00
  1.53579161E+00  1.74652513E+00  1.80763707E+00  1.85942217E+00  1.90677452E+00
  1.91576107E+00  2.01830632E+00  2.11765329E+00  2.23780968E+00  2.30606997E+00
  2.32672526E+00  2.41359746E+00  2.47368607E+00  2.47878460E+00  2.56905594E+00
  2.64354013E+00  2.93352225E+00  3.25918508E+00  3.40566527E+00  3.61620705E+00
  3.82328338E+00  2.34598740E+01  2.41819318E+01
Alpha MO coefficients                      R   N=        4624
  3.98779523E-01  3.27936727E-01  3.90801219E-08 -9.55957642E-04  0.00000000E+00
  8.99534989E-03 -6.52733028E-07  1.84961415E-03  0.00000000E+00 -2.40052242E-03
 -5.18230353E-07  1.44240818E-04  0.00000000E+00 -6.32106670E-04  4.18809371E-07
 -7.59911377E-04  0.00000000E+00 -6.78547787E-04  0.00000000E+00  0.00000000E+00
  6.37734908E-04 -6.24746662E-07  3.98779523E-01  3.27936727E-01 -3.90801219E-08
  9.55957642E-04  0.00000000E+00  8.99534989E-03  6.52733028E-07 -1.84961415E-03
  0.00000000E+00 -2.40052242E-03  5.18230353E-07 -1.44240818E-04  0.00000000E+00
 -6.32106670E-04 -4.18809371E-07  7.59911377E-04  0.00000000E+00 -6.78547787E-04
  0.00000000E+00  0.00000000E+00  6.37734908E-04 -6.24746662E-07  1.82842780E-04
 -2.37055905E-03  1.63418089E-03  1.27335117E-03  6.83772054E-04  0.00000000E+00
  1.82668599E-04 -2.37239978E-03  1.63499773E-03 -1.27392991E-03  6.84331993E-04
  0.00000000E+00  1.82842780E-04 -2.37055905E-03  1.63418089E-03 -1.27335117E-03
 -6.83772054E-04  0.00000000E+00  1.82668599E-04 -2.37239978E-03  1.63499773E-03
  1.27392991E-03 -6.84331993E-04  0.00000000E+00  3.99005678E-01  3.27646139E-01
  3.57243197E-08  3.70057817E-04  0.00000000E+00  1.06835541E-02 -3.91778344E-07
 -5.38093324E-03  0.00000000E+00 -2.20956993E-03  4.96255660E-08  1.10386983E-03
  0.00000000E+00  2.96065206E-03  4.20116363E-08 -9.97508986E-04  0.00000000E+00
 -1.73236383E-03  0.00000000E+00  0.00000000E+00 -2.56416038E-03 -2.25949161E-07
 -3.99005678E-01 -3.27646139E-01  3.57243197E-08  3.70057817E-04  0.00000000E+00
 -1.06835541E-02 -3.91778344E-07 -5.38093324E-03  0.00000000E+00  2.20956993E-03
  4.96255660E-08  1.10386983E-03  0.00000000E+00 -2.96065206E-03  4.20116363E-08
 -9.97508986E-04  0.00000000E+00  1.73236383E-03  0.00000000E+00  0.00000000E+00
  2.56416038E-03  2.25949161E-07  4.52873591E-04 -8.28386779E-04  4.96856543E-04
  5.09281543E-04  1.30517536E-04  0.00000000E+00  4.52777335E-04 -8.29014674E-04
  4.97224034E-04 -5.09694254E-04  1.30676750E-04  0.00000000E+00 -4.52873591E-04
  8.28386779E-04 -4.96856543E-04  5.09281543E-04  1.30517536E-04  0.00000000E+00
 -4.52777335E-04  8.29014674E-04 -4.97224034E-04 -5.09694254E-04  1.30676750E-04
  0.00000000E+00 -8.84871684E-02 -1.42857567E-01 -1.68818505E-06 -7.00319237E-02
  0.00000000E+00  3.72858986E-01 -2.08103121E-06 -9.39389776E-02  0.00000000E+00
  1.78790378E-01 -2.43039220E-07 -2.23046579E-02  0.00000000E+00  2.58935817E-04
 -6.81174690E-07  1.15770570E-02  0.00000000E+00 -6.62567531E-03  0.00000000E+00
  0.00000000E+00 -1.40421658E-02 -1.33189260E-06 -8.84871684E-02 -1.42857567E-01
  1.68818505E-06  7.00319237E-02  0.00000000E+00  3.72858986E-01  2.08103121E-06
  9.39389776E-02  0.00000000E+00  1.78790378E-01  2.43039220E-07  2.23046579E-02
  0.00000000E+00  2.58935817E-04  6.81174690E-07 -1.15770570E-02  0.00000000E+00
 -6.62567531E-03  0.00000000E+00  0.00000000E+00 -1.40421658E-02 -1.33189260E-06
  4.32672834E-02  4.55337491E-02 -1.00322967E-02 -7.36346257E-03 -7.27030353E-03
  0.00000000E+00  4.32709531E-02  4.55361222E-02 -1.00341132E-02  7.36166359E-03
 -7.27132261E-03  0.00000000E+00  4.32672834E-02  4.55337491E-02 -1.00322967E-02
  7.36346257E-03  7.27030353E-03  0.00000000E+00  4.32709531E-02  4.55361222E-02
 -1.00341132E-02 -7.36166359E-03  7.27132261E-03  0.00000000E+00 -6.92415902E-02
 -1.14009152E-01 -1.63594476E-05  7.88236604E-02  0.00000000E+00  3.10982863E-01
 -2.13123537E-05  1.20749195E-01  0.00000000E+00  2.80303361E-01 -8.87081419E-06
  2.72767772E-02  0.00000000E+00 -1.05390148E-01 -2.91311853E-07  3.02573291E-02
  0.00000000E+00  1.28732615E-04  0.00000000E+00  0.00000000E+00  1.22948836E-02
 -8.27480047E-07  6.92415902E-02  1.14009152E-01 -1.63594476E-05  7.88236604E-02
  0.00000000E+00 -3.10982863E-01 -2.13123537E-05  1.20749195E-01  0.00000000E+00
 -2.80303361E-01 -8.87081419E-06  2.72767772E-02  0.00000000E+00  1.05390148E-01
 -2.91311853E-07  3.02573291E-02  0.00000000E+00 -1.28732615E-04  0.00000000E+00
  0.00000000E+00 -1.22948836E-02  8.27480047E-07  8.79528380E-02  1.04953755E-01
 -2.48556653E-03 -1.36013610E-02 -5.34655410E-03  0.00000000E+00  8.79818964E-02
  1.04984484E-01 -2.48827973E-03  1.36039629E-02 -5.35081938E-03  0.00000000E+00
 -8.79528380E-02 -1.04953755E-01  2.48556653E-03 -1.36013610E-02 -5.34655410E-03
  0.00000000E+00 -8.79818964E-02 -1.04984484E-01  2.48827973E-03  1.36039629E-02
 -5.35081938E-03  0.00000000E+00 -6.25162680E-06 -1.04830796E-05  1.63011404E-01
  3.87761430E-06  0.00000000E+00  2.92774560E-05  2.42703640E-01  1.15796073E-05
  0.00000000E+00  4.20791611E-05  1.35061166E-01 -2.12612276E-06  0.00000000E+00
  7.29662394E-06  4.46755641E-03 -1.58503302E-06  0.00000000E+00  3.44919015E-08
  0.00000000E+00  0.00000000E+00  3.63012552E-06 -1.01759805E-02  6.25162680E-06
  1.04830796E-05  1.63011404E-01  3.87761430E-06  0.00000000E+00 -2.92774560E-05
  2.42703640E-01  1.15796073E-05  0.00000000E+00 -4.20791611E-05  1.35061166E-01
 -2.12612276E-06  0.00000000E+00 -7.29662394E-06  4.46755641E-03 -1.58503302E-06
  0.00000000E+00 -3.44919015E-08  0.00000000E+00  0.00000000E+00 -3.63012552E-06
  1.01759805E-02  9.11837624E-02  1.13979289E-01 -6.21139892E-03 -9.64680903E-03
 -1.01645995E-02  0.00000000E+00 -9.11656715E-02 -1.13951847E-01  6.21351923E-03
 -9.64324720E-03  1.01656197E-02  0.00000000E+00 -9.11837624E-02 -1.13979289E-01
  6.21139892E-03 -9.64680903E-03 -1.01645995E-02  0.00000000E+00  9.11656715E-02
  1.13951847E-01 -6.21351923E-03 -9.64324720E-03  1.01656197E-02  0.00000000E+00
 -2.70918333E-03 -4.62814392E-03 -2.34896752E-05  1.98845157E-01  0.00000000E+00
  1.26053496E-02 -3.02651081E-05  2.82037609E-01  0.00000000E+00  8.34592994E-02
 -2.53623376E-05  1.24876359E-01  0.00000000E+00  2.89222121E-03 -7.51774916E-06
 -8.04496848E-03  0.00000000E+00  2.00392579E-03  0.00000000E+00  0.00000000E+00
  2.30484822E-02 -5.88699525E-06 -2.70918333E-03 -4.62814392E-03  2.34896752E-05
 -1.98845157E-01  0.00000000E+00  1.26053496E-02  3.02651081E-05 -2.82037609E-01
  0.00000000E+00  8.34592994E-02  2.53623376E-05 -1.24876359E-01  0.00000000E+00
  2.89222121E-03  7.51774916E-06  8.04496848E-03  0.00000000E+00  2.00392579E-03
  0.00000000E+00  0.00000000E+00  2.30484822E-02 -5.88699525E-06  7.96768277E-02
  1.06780888E-01  1.52267856E-02 -1.22340134E-02  1.51003010E-03  0.00000000E+00
  7.97236144E-02  1.06837469E-01  1.52209812E-02  1.22388926E-02  1.50460550E-03
  0.00000000E+00  7.96768277E-02  1.06780888E-01  1.52267856E-02  1.22340134E-02
 -1.51003010E-03  0.00000000E+00  7.97236144E-02  1.06837469E-01  1.52209812E-02
 -1.22388926E-02 -1.50460550E-03  0.00000000E+00  1.11224996E-06  1.75670263E-06
  1.53909786E-01  2.86872574E-05  0.00000000E+00 -6.30553937E-06  2.34981973E-01
  4.31169942E-05  0.00000000E+00  1.10161028E-05  1.99259824E-01  1.92073989E-05
  0.00000000E+00  2.27247988E-07  1.93790468E-02 -3.51545393E-06  0.00000000E+00
  1.32000190E-07  0.00000000E+00  0.00000000E+00  6.68388740E-06  3.49726213E-02
  1.11224996E-06  1.75670263E-06 -1.53909786E-01 -2.86872574E-05  0.00000000E+00
 -6.30553937E-06 -2.34981973E-01 -4.31169942E-05  0.00000000E+00  1.10161028E-05
 -1.99259824E-01 -1.92073989E-05  0.00000000E+00  2.27247988E-07 -1.93790468E-02
  3.51545393E-06  0.00000000E+00  1.32000190E-07  0.00000000E+00  0.00000000E+00
  6.68388740E-06  3.49726213E-02  1.15906533E-01  1.58981795E-01  2.39031747E-02
 -5.15697234E-03 -8.84894281E-03  0.00000000E+00 -1.15878295E-01 -1.58932210E-01
 -2.38845351E-02 -5.15003242E-03  8.85078693E-03  0.00000000E+00  1.15906533E-01
  1.58981795E-01  2.39031747E-02  5.15697234E-03  8.84894281E-03  0.00000000E+00
 -1.15878295E-01 -1.58932210E-01 -2.38845351E-02  5.15003242E-03 -8.85078693E-03
  0.00000000E+00  0.00000000E+00  0.00000000E+00  0.00000000E+00  0.00000000E+00
  1.90901435E-01  0.00000000E+00  0.00000000E+00  0.00000000E+00  3.18631454E-01
  0.00000000E+00  0.00000000E+00  0.00000000E+00  2.14396901E-01  0.00000000E+00
  0.00000000E+00  0.00000000E+00 -6.91598408E-03  0.00000000E+00 -2.06007906E-07
 -3.44029372E-02  0.00000000E+00  0.00000000E+00  0.00000000E+00  0.00000000E+00
  0.00000000E+00  0.00000000E+00  1.90901435E-01  0.00000000E+00  0.00000000E+00
  0.00000000E+00  3.18631454E-01  0.00000000E+00  0.00000000E+00  0.00000000E+00
  2.14396901E-01  0.00000000E+00  0.00000000E+00  0.00000000E+00 -6.91598408E-03
  0.00000000E+00  2.06007906E-07  3.44029372E-02  0.00000000E+00  0.00000000E+00
  0.00000000E+00  0.00000000E+00  0.00000000E+00  0.00000000E+00  0.00000000E+00
  9.24881791E-03  0.00000000E+00  0.00000000E+00  0.00000000E+00  0.00000000E+00
  0.00000000E+00  9.24969182E-03  0.00000000E+00  0.00000000E+00  0.00000000E+00
  0.00000000E+00  0.00000000E+00  9.24881791E-03  0.00000000E+00  0.00000000E+00
  0.00000000E+00  0.00000000E+00  0.00000000E+00  9.24969182E-03  0.00000000E+00
  0.00000000E+00  0.00000000E+00  0.00000000E+00  2.01286867E-01  0.00000000E+00
  0.00000000E+00  0.00000000E+00  3.40796048E-01  0.00000000E+00  0.00000000E+00
  0.00000000E+00  5.11210809E-01  0.00000000E+00  0.00000000E+00  0.00000000E+00
  1.96823237E-01  0.00000000E+00 -2.05459156E-07  2.81706295E-02  0.00000000E+00
  0.00000000E+00  0.00000000E+00  0.00000000E+00  0.00000000E+00  0.00000000E+00
 -2.01286867E-01  0.00000000E+00  0.00000000E+00  0.00000000E+00 -3.40796048E-01
  0.00000000E+00  0.00000000E+00  0.00000000E+00 -5.11210809E-01  0.00000000E+00
  0.00000000E+00  0.00000000E+00 -1.96823237E-01  0.00000000E+00 -2.05459156E-07
  2.81706295E-02  0.00000000E+00  0.00000000E+00  0.00000000E+00  0.00000000E+00
  0.00000000E+00  0.00000000E+00  0.00000000E+00  1.93427940E-02  0.00000000E+00
  0.00000000E+00  0.00000000E+00  0.00000000E+00  0.00000000E+00  1.93448366E-02
  0.00000000E+00  0.00000000E+00  0.00000000E+00  0.00000000E+00  0.00000000E+00
 -1.93427940E-02  0.00000000E+00  0.00000000E+00  0.00000000E+00  0.00000000E+00
  0.00000000E+00 -1.93448366E-02  2.90585258E-02  5.03822650E-02 -9.89862764E-06
 -4.84732937E-02  0.00000000E+00 -1.59966316E-01 -9.96241218E-06 -7.53676010E-02
  0.00000000E+00 -6.39102668E-01 -7.30053758E-05 -2.28593080E-01  0.00000000E+00
  8.49671637E-01 -8.49294340E-05  1.52621910E-01  0.00000000E+00  1.00674848E-02
  0.00000000E+00  0.00000000E+00  5.37289452E-03  2.41293878E-06  2.90585258E-02
  5.03822650E-02  9.89862764E-06  4.84732937E-02  0.00000000E+00 -1.59966316E-01
  9.96241218E-06  7.53676010E-02  0.00000000E+00 -6.39102668E-01  7.30053758E-05
  2.28593080E-01  0.00000000E+00  8.49671637E-01  8.49294340E-05 -1.52621910E-01
  0.00000000E+00  1.00674848E-02  0.00000000E+00  0.00000000E+00  5.37289452E-03
  2.41293878E-06 -4.58941683E-03  9.24723389E-02 -1.62866429E-02  8.75236391E-03
 -5.62909353E-04  0.00000000E+00 -4.59401907E-03  9.24707756E-02 -1.64152521E-02
 -8.74984139E-03 -5.63581763E-04  0.00000000E+00 -4.58941683E-03  9.24723389E-02
 -1.62866429E-02 -8.75236391E-03  5.62909353E-04  0.00000000E+00 -4.59401907E-03
  9.24707756E-02 -1.64152521E-02  8.74984139E-03  5.63581763E-04  0.00000000E+00
  7.80025524E-06  1.36046928E-05 -9.47686175E-02 -9.63374690E-06  0.00000000E+00
 -4.11004307E-05 -1.52496261E-01 -1.05767645E-05  0.00000000E+00 -1.40996771E-04
 -3.26091711E-01 -2.04573413E-05  0.00000000E+00 -4.21869244E-04  4.97842133E-01
  2.26316020E-04  0.00000000E+00 -1.46292036E-06  0.00000000E+00  0.00000000E+00
  6.08648257E-07  3.04729242E-02 -7.80025524E-06 -1.36046928E-05 -9.47686175E-02
 -9.63374690E-06  0.00000000E+00  4.11004307E-05 -1.52496261E-01 -1.05767645E-05
  0.00000000E+00  1.40996771E-04 -3.26091711E-01 -2.04573413E-05  0.00000000E+00
  4.21869244E-04  4.97842133E-01  2.26316020E-04  0.00000000E+00  1.46292036E-06
  0.00000000E+00  0.00000000E+00 -6.08648257E-07 -3.04729242E-02  1.87296634E-02
  1.33289930E-01  1.54534358E-01  1.15058745E-02  7.52215694E-03  0.00000000E+00
 -1.87165752E-02 -1.33229083E-01 -1.54474690E-01  1.15009156E-02 -7.51846826E-03
  0.00000000E+00 -1.87296634E-02 -1.33289930E-01 -1.54534358E-01  1.15058745E-02
  7.52215694E-03  0.00000000E+00  1.87165752E-02  1.33229083E-01  1.54474690E-01
  1.15009156E-02 -7.51846826E-03  0.00000000E+00 -3.15536273E-02 -5.51262834E-02
 -1.60263339E-05  2.41430984E-02  0.00000000E+00  1.72923036E-01 -2.87157279E-05
  2.84243479E-02  0.00000000E+00  5.98123752E-01 -5.00824435E-05  3.97390416E-02
  0.00000000E+00  5.43707217E+00  1.20471481E-04 -2.04313070E+00  0.00000000E+00
  6.33865407E-03  0.00000000E+00  0.00000000E+00  9.90280166E-03  3.70967117E-06
  3.15536273E-02  5.51262834E-02 -1.60263339E-05  2.41430984E-02  0.00000000E+00
 -1.72923036E-01 -2.87157279E-05  2.84243479E-02  0.00000000E+00 -5.98123752E-01
 -5.00824435E-05  3.97390416E-02  0.00000000E+00 -5.43707217E+00  1.20471481E-04
 -2.04313070E+00  0.00000000E+00 -6.33865407E-03  0.00000000E+00  0.00000000E+00