 Entering Gaussian System, Link 0=g16
 Initial command:
 /home/szhao/Apps/g16/l1.exe "/home/szhao/tmp/Gau-108971.inp" -scrdir="/home/szhao/tmp/"
 Default is to use a total of  16 processors:
                               16 via shared-memory
                                1 via Linda
 Entering Link 1 = /home/szhao/Apps/g16/l1.exe PID=    108972.
  
 Copyright (c) 1988,1990,1992,1993,1995,1998,2003,2009,2016,
            Gaussian, Inc.  All Rights Reserved.
  
 This is part of the Gaussian(R) 16 program.  It is based on
 the Gaussian(R) 09 system (copyright 2009, Gaussian, Inc.),
 the Gaussian(R) 03 system (copyright 2003, Gaussian, Inc.),
 the Gaussian(R) 98 system (copyright 1998, Gaussian, Inc.),
 the Gaussian(R) 94 system (copyright 1995, Gaussian, Inc.),
 the Gaussian 92(TM) system (copyright 1992, Gaussian, Inc.),
 the Gaussian 90(TM) system (copyright 1990, Gaussian, Inc.),
 the Gaussian 88(TM) system (copyright 1988, Gaussian, Inc.),
 the Gaussian 86(TM) system (copyright 1986, Carnegie Mellon
 University), and the Gaussian 82(TM) system (copyright 1983,
 Carnegie Mellon University). Gaussian is a federally registered
 trademark of Gaussian, Inc.
  
 This software contains proprietary and confidential information,
 including trade secrets, belonging to Gaussian, Inc.
  
 This software is provided under written license and may be
 used, copied, transmitted, or stored only in accord with that
 written license.
  
 The following legend is applicable only to US Government
 contracts under FAR:
  
                    RESTRICTED RIGHTS LEGEND
  
 Use, reproduction and disclosure by the US Government is
 subject to restrictions as set forth in subparagraphs (a)
 and (c) of the Commercial Computer Software - Restricted
 Rights clause in FAR 52.227-19.
  
 Gaussian, Inc.
 340 Quinnipiac St., Bldg. 40, Wallingford CT 06492
  
  
 ---------------------------------------------------------------
 Warning -- This program may not be used in any manner that
 competes with the business of Gaussian, Inc. or will provide
 assistance to any competitor of Gaussian, Inc.  The licensee
 of this program is prohibited from giving any competitor of
 Gaussian, Inc. access to this program.  By using this program,
 the user acknowledges that Gaussian, Inc. is engaged in the
 business of creating and licensing software in the field of
 computational chemistry and represents and warrants to the
 licensee that it is not a competitor of Gaussian, Inc. and that
 it will not use this program in any manner prohibited above.
 ---------------------------------------------------------------
  

 Cite this work as:
 Gaussian 16, Revision A.03,
 M. J. Frisch, G. W. Trucks, H. B. Schlegel, G. E. Scuseria, 
 M. A. Robb, J. R. Cheeseman, G. Scalmani, V. Barone, 
 G. A. Petersson, H. Nakatsuji, X. Li, M. Caricato, A. V. Marenich, 
 J. Bloino, B. G. Janesko, R. Gomperts, B. Mennucci, H. P. Hratchian, 
 J. V. Ortiz, A. F. Izmaylov, J. L. Sonnenberg, D. Williams-Young, 
 F. Ding, F. Lipparini, F. Egidi, J. Goings, B. Peng, A. Petrone, 
 T. Henderson, D. Ranasinghe, V. G. Zakrzewski, J. Gao, N. Rega, 
 G. Zheng, W. Liang, M. Hada, M. Ehara, K. Toyota, R. Fukuda, 
 J. Hasegawa, M. Ishida, T. Nakajima, Y. Honda, O. Kitao, H. Nakai, 
 T. Vreven, K. Throssell, J. A. Montgomery, Jr., J. E. Peralta, 
 F. Ogliaro, M. J. Bearpark, J. J. Heyd, E. N. Brothers, K. N. Kudin, 
 V. N. Staroverov, T. A. Keith, R. Kobayashi, J. Normand, 
 K. Raghavachari, A. P. Rendell, J. C. Burant, S. S. Iyengar, 
 J. Tomasi, M. Cossi, J. M. Millam, M. Klene, C. Adamo, R. Cammi, 
 J. W. Ochterski, R. L. Martin, K. Morokuma, O. Farkas, 
 J. B. Foresman, and D. J. Fox, Gaussian, Inc., Wallingford CT, 2016.
 
 ******************************************
 Gaussian 16:  ES64L-G16RevA.03 25-Dec-2016
                 3-Dec-2024 
 ******************************************
 %chk=opt.chk
 %mem=16GB
 %nprocshared=24
 Will use up to   24 processors via shared memory.
 ---------------------------------------------------------
 #p opt UM062X/6-311+G** nosymm int=superfine SCF=NoVarAcc
 ---------------------------------------------------------
 1/18=20,19=15,26=5,38=1/1,3;
 2/9=110,12=2,15=1,17=6,18=5,40=1/2;
 3/5=4,6=6,7=111,11=2,25=1,30=1,71=1,74=-55,75=-7,116=2/1,2,3;
 4//1;
 5/5=2,38=1/2;
 6/7=2,8=2,9=2,10=2,28=1/1;
 7/30=1/1,2,3,16;
 1/18=20,19=15,26=5/3(2);
 2/9=110,15=1/2;
 99//99;
 2/9=110,15=1/2;
 3/5=4,6=6,7=111,11=2,25=1,30=1,71=1,74=-55,75=-7,116=2/1,2,3;
 4/5=5,16=3,69=1/1;
 5/5=2,38=1/2;
 7/30=1/1,2,3,16;
 1/18=20,19=15,26=5/3(-5);
 2/9=110,15=1/2;
 6/7=2,8=2,9=2,10=2,19=2,28=1/1;
 99/9=1/99;
 Leave Link    1 at Tue Dec  3 13:36:31 2024, MaxMem=  2147483648 cpu:               1.1 elap:               0.1
 (Enter /home/szhao/Apps/g16/l101.exe)
 -------------------
 Title Card Required
 -------------------
 Symbolic Z-matrix:
 Charge =  1 Multiplicity = 2
 C                    -1   -2.23103   0.        0. 
 C                    -1    2.23103   0.        0. 
 H                    0    -2.66441  -0.99488   0. 
 H                    0    -2.6643    0.99481   0. 
 H                    0     2.66441   0.99488   0. 
 H                    0     2.6643   -0.99481   0. 
 
 Add virtual bond connecting atoms C2         and C1         Dist= 8.43D+00.
 ITRead=  2  2  0  0  0  0
 MicOpt= -2 -2 -1 -1 -1 -1
 NAtoms=      6 NQM=        4 NQMF=       2 NMMI=      0 NMMIF=      0
                NMic=       0 NMicF=      0.
                    Isotopes and Nuclear Properties:
 (Nuclear quadrupole moments (NQMom) in fm**2, nuclear magnetic moments (NMagM)
  in nuclear magnetons)

  Atom         1           2           3           4           5           6
 IAtWgt=          12          12           1           1           1           1
 AtmWgt=  12.0000000  12.0000000   1.0078250   1.0078250   1.0078250   1.0078250
 NucSpn=           0           0           1           1           1           1
 AtZEff=  -0.0000000  -0.0000000  -0.0000000  -0.0000000  -0.0000000  -0.0000000
 NQMom=    0.0000000   0.0000000   0.0000000   0.0000000   0.0000000   0.0000000
 NMagM=    0.0000000   0.0000000   2.7928460   2.7928460   2.7928460   2.7928460
 AtZNuc=   6.0000000   6.0000000   1.0000000   1.0000000   1.0000000   1.0000000
 Leave Link  101 at Tue Dec  3 13:36:32 2024, MaxMem=  2147483648 cpu:              13.5 elap:               0.6
 (Enter /home/szhao/Apps/g16/l103.exe)

 GradGradGradGradGradGradGradGradGradGradGradGradGradGradGradGradGradGrad
 Berny optimization.
 Initialization pass.
                           ----------------------------
                           !    Initial Parameters    !
                           ! (Angstroms and Degrees)  !
 --------------------------                            --------------------------
 ! Name  Definition              Value          Derivative Info.                !
 --------------------------------------------------------------------------------
 ! X1    R(1,-1)                -2.231          Frozen                          !
 ! Y1    R(1,-2)                 0.0            Frozen                          !
 ! Z1    R(1,-3)                 0.0            Frozen                          !
 ! X2    R(2,-1)                 2.231          Frozen                          !
 ! Y2    R(2,-2)                 0.0            Frozen                          !
 ! Z2    R(2,-3)                 0.0            Frozen                          !
 ! R1    R(1,3)                  1.0852         estimate D2E/DX2                !
 ! R2    R(1,4)                  1.0851         estimate D2E/DX2                !
 ! R3    R(2,5)                  1.0852         estimate D2E/DX2                !
 ! R4    R(2,6)                  1.0851         estimate D2E/DX2                !
 ! A1    A(2,1,3)              113.5387         estimate D2E/DX2                !
 ! A2    A(2,1,4)              113.5347         estimate D2E/DX2                !
 ! A3    A(3,1,4)              132.9266         estimate D2E/DX2                !
 ! A4    A(1,2,5)              113.5387         estimate D2E/DX2                !
 ! A5    A(1,2,6)              113.5347         estimate D2E/DX2                !
 ! A6    A(5,2,6)              132.9266         estimate D2E/DX2                !
 ! D1    D(3,1,2,5)            180.0            estimate D2E/DX2                !
 ! D2    D(3,1,2,6)              0.0            estimate D2E/DX2                !
 ! D3    D(4,1,2,5)              0.0            estimate D2E/DX2                !
 ! D4    D(4,1,2,6)            180.0            estimate D2E/DX2                !
 --------------------------------------------------------------------------------
 Trust Radius=3.00D-01 FncErr=1.00D-07 GrdErr=1.00D-07 EigMax=2.50D+02 EigMin=1.00D-04
 Number of steps in this run=     30 maximum allowed number of steps=    100.
 GradGradGradGradGradGradGradGradGradGradGradGradGradGradGradGradGradGrad

 Leave Link  103 at Tue Dec  3 13:36:32 2024, MaxMem=  2147483648 cpu:               0.4 elap:               0.0
 (Enter /home/szhao/Apps/g16/l202.exe)
                          Input orientation:                          
 ---------------------------------------------------------------------
 Center     Atomic      Atomic             Coordinates (Angstroms)
 Number     Number       Type             X           Y           Z
 ---------------------------------------------------------------------
      1          6           0       -2.231027    0.000000    0.000000
      2          6           0        2.231027    0.000000    0.000000
      3          1           0       -2.664411   -0.994876    0.000000
      4          1           0       -2.664300    0.994812    0.000000
      5          1           0        2.664411    0.994876    0.000000
      6          1           0        2.664300   -0.994812    0.000000
 ---------------------------------------------------------------------
                    Distance matrix (angstroms):
                    1          2          3          4          5
     1  C    0.000000
     2  C    4.462054   0.000000
     3  H    1.085173   4.995507   0.000000
     4  H    1.085070   4.995386   1.989688   0.000000
     5  H    4.995507   1.085173   5.688186   5.328711   0.000000
     6  H    4.995386   1.085070   5.328711   5.687933   1.989688
                    6
     6  H    0.000000
 Symmetry turned off by external request.
 Stoichiometry    C2H4(1+,2)
 Framework group  C2H[SGH(C2H4)]
 Deg. of freedom     5
 Full point group                 C2H     NOp   4
 Rotational constants (GHZ):         126.6665946           3.4129495           3.3234025
 Leave Link  202 at Tue Dec  3 13:36:32 2024, MaxMem=  2147483648 cpu:               0.1 elap:               0.0
 (Enter /home/szhao/Apps/g16/l301.exe)
 Standard basis: 6-311+G(d,p) (5D, 7F)
 Ernie: Thresh=  0.10000D-02 Tol=  0.10000D-05 Strict=F.
    68 basis functions,   104 primitive gaussians,    70 cartesian basis functions
     8 alpha electrons        7 beta electrons
       nuclear repulsion energy        19.4323789318 Hartrees.
 IExCor= 4336 DFT=T Ex+Corr=M062X ExCW=0 ScaHFX=  0.540000
 ScaDFX=  1.000000  1.000000  1.000000  1.000000 ScalE2=  1.000000  1.000000
 IRadAn=      7 IRanWt=     -1 IRanGd=            0 ICorTp=0 IEmpDi=  4
 NAtoms=    6 NActive=    6 NUniq=    6 SFac= 1.00D+00 NAtFMM=   60 NAOKFM=F Big=F
 Integral buffers will be    131072 words long.
 Raffenetti 2 integral format.
 Two-electron integral symmetry is turned off.
 Leave Link  301 at Tue Dec  3 13:36:32 2024, MaxMem=  2147483648 cpu:               1.2 elap:               0.1
 (Enter /home/szhao/Apps/g16/l302.exe)
 NPDir=0 NMtPBC=     1 NCelOv=     1 NCel=       1 NClECP=     1 NCelD=      1
         NCelK=      1 NCelE2=     1 NClLst=     1 CellRange=     0.0.
 One-electron integrals computed using PRISM.
 NBasis=    68 RedAO= T EigKep=  1.30D-02  NBF=    68
 NBsUse=    68 1.00D-06 EigRej= -1.00D+00 NBFU=    68
 Precomputing XC quadrature grid using
 IXCGrd= 4 IRadAn=           7 IRanWt=          -1 IRanGd=           0 AccXCQ= 0.00D+00.
 Generated NRdTot=       0 NPtTot=           0 NUsed=           0 NTot=          32
 NSgBfM=    70    70    70    70    70 MxSgAt=     6 MxSgA2=     6.
 Leave Link  302 at Tue Dec  3 13:36:33 2024, MaxMem=  2147483648 cpu:               3.6 elap:               0.2
 (Enter /home/szhao/Apps/g16/l303.exe)
 DipDrv:  MaxL=1.
 Leave Link  303 at Tue Dec  3 13:36:33 2024, MaxMem=  2147483648 cpu:               1.3 elap:               0.1
 (Enter /home/szhao/Apps/g16/l401.exe)
 ExpMin= 4.38D-02 ExpMax= 4.56D+03 ExpMxC= 6.82D+02 IAcc=3 IRadAn=         7 AccDes= 0.00D+00
 Harris functional with IExCor= 1009 and IRadAn=       7 diagonalized for initial guess.
 HarFok:  IExCor= 1009 AccDes= 0.00D+00 IRadAn=         7 IDoV= 1 UseB2=F ITyADJ=14
 ICtDFT=  3500011 ScaDFX=  1.000000  1.000000  1.000000  1.000000
 FoFCou: FMM=F IPFlag=           0 FMFlag=      100000 FMFlg1=           0
         NFxFlg=           0 DoJE=T BraDBF=F KetDBF=T FulRan=T
         wScrn=  0.000000 ICntrl=       500 IOpCl=  0 I1Cent=   200000004 NGrid=           0
         NMat0=    1 NMatS0=      1 NMatT0=    0 NMatD0=    1 NMtDS0=    0 NMtDT0=    0
 Symmetry not used in FoFCou.
 Harris En= -77.9099233326357    
 JPrj=0 DoOrth=F DoCkMO=F.
 Initial guess <Sx>= 0.0000 <Sy>= 0.0000 <Sz>= 0.5000 <S**2>= 0.7500 S= 0.5000
 Leave Link  401 at Tue Dec  3 13:36:33 2024, MaxMem=  2147483648 cpu:               5.5 elap:               0.3
 (Enter /home/szhao/Apps/g16/l502.exe)
 Keep R1 and R2 ints in memory in canonical form, NReq=27031774.
 FoFCou: FMM=F IPFlag=           0 FMFlag=           0 FMFlg1=           0
         NFxFlg=           0 DoJE=F BraDBF=F KetDBF=F FulRan=T
         wScrn=  0.000000 ICntrl=       600 IOpCl=  0 I1Cent=           0 NGrid=           0
         NMat0=    1 NMatS0=   2346 NMatT0=    0 NMatD0=    1 NMtDS0=    0 NMtDT0=    0
 Symmetry not used in FoFCou.
 Two-electron integral symmetry not used.
 UHF open shell SCF:
 Using DIIS extrapolation, IDIIS=  1040.
 NGot=  2147483648 LenX=  2141965410 LenY=  2141960069
 Requested convergence on RMS density matrix=1.00D-08 within 128 cycles.
 Requested convergence on MAX density matrix=1.00D-06.
 Requested convergence on             energy=1.00D-06.
 No special actions if energy rises.

 Cycle   1  Pass 1  IDiag  1:
 E= -77.8888462472261    
 DIIS: error= 1.63D-02 at cycle   1 NSaved=   1.
 NSaved= 1 IEnMin= 1 EnMin= -77.8888462472261     IErMin= 1 ErrMin= 1.63D-02
 ErrMax= 1.63D-02  0.00D+00 EMaxC= 1.00D-01 BMatC= 4.55D-02 BMatP= 4.55D-02
 IDIUse=3 WtCom= 8.37D-01 WtEn= 1.63D-01
 Coeff-Com:  0.100D+01
 Coeff-En:   0.100D+01
 Coeff:      0.100D+01
 Gap=     0.233 Goal=   None    Shift=    0.000
 Gap=     0.084 Goal=   None    Shift=    0.000
 GapD=    0.084 DampG=0.500 DampE=0.500 DampFc=0.2500 IDamp=-1.
 Damping current iteration by 2.50D-01
 RMSDP=1.13D-03 MaxDP=1.31D-02              OVMax= 5.19D-02

 Cycle   2  Pass 1  IDiag  1:
 E= -77.8903559681271     Delta-E=       -0.001509720901 Rises=F Damp=T
 DIIS: error= 1.22D-02 at cycle   2 NSaved=   2.
 NSaved= 2 IEnMin= 2 EnMin= -77.8903559681271     IErMin= 2 ErrMin= 1.22D-02
 ErrMax= 1.22D-02  0.00D+00 EMaxC= 1.00D-01 BMatC= 2.61D-02 BMatP= 4.55D-02
 IDIUse=3 WtCom= 8.78D-01 WtEn= 1.22D-01
 Coeff-Com: -0.308D+01 0.408D+01
 Coeff-En:   0.000D+00 0.100D+01
 Coeff:     -0.270D+01 0.370D+01
 Gap=     0.235 Goal=   None    Shift=    0.000
 Gap=     0.085 Goal=   None    Shift=    0.000
 RMSDP=1.02D-03 MaxDP=1.39D-02 DE=-1.51D-03 OVMax= 1.10D-02

 Cycle   3  Pass 1  IDiag  1:
 E= -77.8957509561077     Delta-E=       -0.005394987981 Rises=F Damp=F
 DIIS: error= 1.08D-03 at cycle   3 NSaved=   3.
 NSaved= 3 IEnMin= 3 EnMin= -77.8957509561077     IErMin= 3 ErrMin= 1.08D-03
 ErrMax= 1.08D-03  0.00D+00 EMaxC= 1.00D-01 BMatC= 6.97D-05 BMatP= 2.61D-02
 IDIUse=3 WtCom= 9.89D-01 WtEn= 1.08D-02
 Coeff-Com:  0.113D+01-0.152D+01 0.138D+01
 Coeff-En:   0.000D+00 0.000D+00 0.100D+01
 Coeff:      0.112D+01-0.150D+01 0.138D+01
 Gap=     0.236 Goal=   None    Shift=    0.000
 Gap=     0.086 Goal=   None    Shift=    0.000
 RMSDP=1.44D-04 MaxDP=2.65D-03 DE=-5.39D-03 OVMax= 8.82D-03

 Cycle   4  Pass 1  IDiag  1:
 E= -77.8958161625728     Delta-E=       -0.000065206465 Rises=F Damp=F
 DIIS: error= 2.08D-04 at cycle   4 NSaved=   4.
 NSaved= 4 IEnMin= 4 EnMin= -77.8958161625728     IErMin= 4 ErrMin= 2.08D-04
 ErrMax= 2.08D-04  0.00D+00 EMaxC= 1.00D-01 BMatC= 4.89D-06 BMatP= 6.97D-05
 IDIUse=3 WtCom= 9.98D-01 WtEn= 2.08D-03
 Coeff-Com:  0.290D+00-0.385D+00 0.658D-01 0.103D+01
 Coeff-En:   0.000D+00 0.000D+00 0.000D+00 0.100D+01
 Coeff:      0.290D+00-0.384D+00 0.656D-01 0.103D+01
 Gap=     0.237 Goal=   None    Shift=    0.000
 Gap=     0.086 Goal=   None    Shift=    0.000
 RMSDP=3.10D-05 MaxDP=7.79D-04 DE=-6.52D-05 OVMax= 1.21D-03

 Cycle   5  Pass 1  IDiag  1:
 E= -77.8958189007768     Delta-E=       -0.000002738204 Rises=F Damp=F
 DIIS: error= 7.92D-05 at cycle   5 NSaved=   5.
 NSaved= 5 IEnMin= 5 EnMin= -77.8958189007768     IErMin= 5 ErrMin= 7.92D-05
 ErrMax= 7.92D-05  0.00D+00 EMaxC= 1.00D-01 BMatC= 4.47D-07 BMatP= 4.89D-06
 IDIUse=1 WtCom= 1.00D+00 WtEn= 0.00D+00
 Coeff-Com:  0.392D-01-0.514D-01-0.259D-01 0.219D+00 0.819D+00
 Coeff:      0.392D-01-0.514D-01-0.259D-01 0.219D+00 0.819D+00
 Gap=     0.237 Goal=   None    Shift=    0.000
 Gap=     0.086 Goal=   None    Shift=    0.000
 RMSDP=4.94D-06 MaxDP=1.98D-04 DE=-2.74D-06 OVMax= 1.63D-04

 Cycle   6  Pass 1  IDiag  1:
 E= -77.8958190502160     Delta-E=       -0.000000149439 Rises=F Damp=F
 DIIS: error= 1.96D-05 at cycle   6 NSaved=   6.
 NSaved= 6 IEnMin= 6 EnMin= -77.8958190502160     IErMin= 6 ErrMin= 1.96D-05
 ErrMax= 1.96D-05  0.00D+00 EMaxC= 1.00D-01 BMatC= 3.50D-08 BMatP= 4.47D-07
 IDIUse=1 WtCom= 1.00D+00 WtEn= 0.00D+00
 Coeff-Com: -0.303D-01 0.402D-01-0.329D-02-0.120D+00-0.695D-01 0.118D+01
 Coeff:     -0.303D-01 0.402D-01-0.329D-02-0.120D+00-0.695D-01 0.118D+01
 Gap=     0.237 Goal=   None    Shift=    0.000
 Gap=     0.086 Goal=   None    Shift=    0.000
 RMSDP=2.23D-06 MaxDP=3.53D-05 DE=-1.49D-07 OVMax= 8.81D-05

 Cycle   7  Pass 1  IDiag  1:
 E= -77.8958190718173     Delta-E=       -0.000000021601 Rises=F Damp=F
 DIIS: error= 5.18D-06 at cycle   7 NSaved=   7.
 NSaved= 7 IEnMin= 7 EnMin= -77.8958190718173     IErMin= 7 ErrMin= 5.18D-06
 ErrMax= 5.18D-06  0.00D+00 EMaxC= 1.00D-01 BMatC= 1.68D-09 BMatP= 3.50D-08
 IDIUse=1 WtCom= 1.00D+00 WtEn= 0.00D+00
 Coeff-Com:  0.178D-02-0.239D-02 0.969D-03 0.634D-02-0.465D-01-0.108D+00
 Coeff-Com:  0.115D+01
 Coeff:      0.178D-02-0.239D-02 0.969D-03 0.634D-02-0.465D-01-0.108D+00
 Coeff:      0.115D+01
 Gap=     0.237 Goal=   None    Shift=    0.000
 Gap=     0.086 Goal=   None    Shift=    0.000
 RMSDP=4.99D-07 MaxDP=8.38D-06 DE=-2.16D-08 OVMax= 1.43D-05

 Cycle   8  Pass 1  IDiag  1:
 E= -77.8958190728789     Delta-E=       -0.000000001062 Rises=F Damp=F
 DIIS: error= 8.62D-07 at cycle   8 NSaved=   8.
 NSaved= 8 IEnMin= 8 EnMin= -77.8958190728789     IErMin= 8 ErrMin= 8.62D-07
 ErrMax= 8.62D-07  0.00D+00 EMaxC= 1.00D-01 BMatC= 7.61D-11 BMatP= 1.68D-09
 IDIUse=1 WtCom= 1.00D+00 WtEn= 0.00D+00
 Coeff-Com:  0.556D-03-0.732D-03-0.509D-03 0.508D-02 0.102D-01-0.592D-01
 Coeff-Com: -0.647D-01 0.111D+01
 Coeff:      0.556D-03-0.732D-03-0.509D-03 0.508D-02 0.102D-01-0.592D-01
 Coeff:     -0.647D-01 0.111D+01
 Gap=     0.237 Goal=   None    Shift=    0.000
 Gap=     0.086 Goal=   None    Shift=    0.000
 RMSDP=1.32D-07 MaxDP=1.78D-06 DE=-1.06D-09 OVMax= 5.67D-06

 Cycle   9  Pass 1  IDiag  1:
 E= -77.8958190729356     Delta-E=       -0.000000000057 Rises=F Damp=F
 DIIS: error= 1.75D-07 at cycle   9 NSaved=   9.
 NSaved= 9 IEnMin= 9 EnMin= -77.8958190729356     IErMin= 9 ErrMin= 1.75D-07
 ErrMax= 1.75D-07  0.00D+00 EMaxC= 1.00D-01 BMatC= 2.52D-12 BMatP= 7.61D-11
 IDIUse=1 WtCom= 1.00D+00 WtEn= 0.00D+00
 Coeff-Com: -0.116D-03 0.153D-03 0.145D-03-0.125D-02-0.194D-02 0.163D-01
 Coeff-Com: -0.104D-01-0.325D+00 0.132D+01
 Coeff:     -0.116D-03 0.153D-03 0.145D-03-0.125D-02-0.194D-02 0.163D-01
 Coeff:     -0.104D-01-0.325D+00 0.132D+01
 Gap=     0.237 Goal=   None    Shift=    0.000
 Gap=     0.086 Goal=   None    Shift=    0.000
 RMSDP=4.04D-08 MaxDP=4.52D-07 DE=-5.67D-11 OVMax= 1.83D-06

 Cycle  10  Pass 1  IDiag  1:
 E= -77.8958190729384     Delta-E=       -0.000000000003 Rises=F Damp=F
 DIIS: error= 1.81D-08 at cycle  10 NSaved=  10.
 NSaved=10 IEnMin=10 EnMin= -77.8958190729384     IErMin=10 ErrMin= 1.81D-08
 ErrMax= 1.81D-08  0.00D+00 EMaxC= 1.00D-01 BMatC= 2.74D-14 BMatP= 2.52D-12
 IDIUse=1 WtCom= 1.00D+00 WtEn= 0.00D+00
 Coeff-Com:  0.138D-04-0.181D-04-0.283D-04 0.192D-03 0.314D-03-0.226D-02
 Coeff-Com:  0.174D-02 0.468D-01-0.251D+00 0.120D+01
 Coeff:      0.138D-04-0.181D-04-0.283D-04 0.192D-03 0.314D-03-0.226D-02
 Coeff:      0.174D-02 0.468D-01-0.251D+00 0.120D+01
 Gap=     0.237 Goal=   None    Shift=    0.000
 Gap=     0.086 Goal=   None    Shift=    0.000
 RMSDP=4.01D-09 MaxDP=5.82D-08 DE=-2.87D-12 OVMax= 1.28D-07

 SCF Done:  E(UM062X) =  -77.8958190729     A.U. after   10 cycles
            NFock= 10  Conv=0.40D-08     -V/T= 2.0037
 <Sx>= 0.0000 <Sy>= 0.0000 <Sz>= 0.5000 <S**2>= 0.7639 S= 0.5069
 <L.S>=  0.00000000000    
 KE= 7.760998061054D+01 PE=-2.156822407966D+02 EE= 4.074406218135D+01
 Annihilation of the first spin contaminant:
 S**2 before annihilation     0.7639,   after     0.7500
 Leave Link  502 at Tue Dec  3 13:36:36 2024, MaxMem=  2147483648 cpu:              66.8 elap:               2.9
 (Enter /home/szhao/Apps/g16/l601.exe)
 Copying SCF densities to generalized density rwf, IOpCl= 1 IROHF=0.

 **********************************************************************

            Population analysis using the SCF density.

 **********************************************************************

 Alpha  occ. eigenvalues --  -10.87460 -10.87460  -0.99101  -0.99079  -0.76097
 Alpha  occ. eigenvalues --   -0.76085  -0.55456  -0.54790
 Alpha virt. eigenvalues --   -0.31117  -0.30944  -0.12351  -0.10375  -0.08990
 Alpha virt. eigenvalues --   -0.06812  -0.06425  -0.05941  -0.04003  -0.02749
 Alpha virt. eigenvalues --   -0.01743   0.01870   0.02231   0.07719   0.25948
 Alpha virt. eigenvalues --    0.26647   0.28708   0.29839   0.38870   0.39732
 Alpha virt. eigenvalues --    0.41175   0.41589   0.45052   0.50237   0.50737
 Alpha virt. eigenvalues --    0.50802   0.83769   0.83769   1.01507   1.02582
 Alpha virt. eigenvalues --    1.02937   1.03124   1.13502   1.13846   1.30408
 Alpha virt. eigenvalues --    1.30707   1.50524   1.50583   1.59069   1.60277
 Alpha virt. eigenvalues --    1.71374   1.71404   1.80051   1.80051   2.19541
 Alpha virt. eigenvalues --    2.21311   2.27728   2.28430   2.36169   2.36297
 Alpha virt. eigenvalues --    2.42773   2.43798   2.50032   2.50833   2.69191
 Alpha virt. eigenvalues --    2.70805   3.43238   3.44179  23.55678  23.55749
  Beta  occ. eigenvalues --  -10.86713 -10.86712  -0.96836  -0.96712  -0.75177
  Beta  occ. eigenvalues --   -0.75160  -0.43636
  Beta virt. eigenvalues --   -0.35022  -0.29403  -0.29179  -0.11940  -0.10524
  Beta virt. eigenvalues --   -0.08740  -0.06675  -0.06561  -0.04369  -0.04198
  Beta virt. eigenvalues --   -0.02539  -0.01117   0.02020   0.02855   0.08185
  Beta virt. eigenvalues --    0.25856   0.26484   0.28635   0.29533   0.39072
  Beta virt. eigenvalues --    0.39948   0.43629   0.43745   0.46662   0.51604
  Beta virt. eigenvalues --    0.52319   0.52638   0.85363   0.85364   1.04124
  Beta virt. eigenvalues --    1.05096   1.05223   1.05359   1.15051   1.15480
  Beta virt. eigenvalues --    1.31562   1.31822   1.51299   1.51366   1.60500
  Beta virt. eigenvalues --    1.61682   1.72495   1.72525   1.80881   1.80882
  Beta virt. eigenvalues --    2.21950   2.23456   2.29113   2.30171   2.37754
  Beta virt. eigenvalues --    2.37790   2.46787   2.47821   2.51417   2.52221
  Beta virt. eigenvalues --    2.73606   2.75178   3.46213   3.47105  23.56190
  Beta virt. eigenvalues --   23.56261
          Condensed to atoms (all electrons):
               1          2          3          4          5          6
     1  C    5.261524   0.023712   0.352397   0.352407  -0.000647  -0.000647
     2  C    0.023712   5.261524  -0.000647  -0.000647   0.352397   0.352407
     3  H    0.352397  -0.000647   0.418284  -0.014427   0.000003   0.000010
     4  H    0.352407  -0.000647  -0.014427   0.418288   0.000010   0.000003
     5  H   -0.000647   0.352397   0.000003   0.000010   0.418284  -0.014427
     6  H   -0.000647   0.352407   0.000010   0.000003  -0.014427   0.418288
          Atomic-Atomic Spin Densities.
               1          2          3          4          5          6
     1  C    0.532423  -0.026653  -0.002953  -0.002953   0.000869   0.000869
     2  C   -0.026653   0.532423   0.000869   0.000869  -0.002953  -0.002953
     3  H   -0.002953   0.000869  -0.000703   0.002003  -0.000005  -0.000011
     4  H   -0.002953   0.000869   0.002003  -0.000705  -0.000011  -0.000005
     5  H    0.000869  -0.002953  -0.000005  -0.000011  -0.000703   0.002003
     6  H    0.000869  -0.002953  -0.000011  -0.000005   0.002003  -0.000705
 Mulliken charges and spin densities:
               1          2
     1  C    0.011254   0.501601
     2  C    0.011254   0.501601
     3  H    0.244381  -0.000800
     4  H    0.244366  -0.000802
     5  H    0.244381  -0.000800
     6  H    0.244366  -0.000802
 Sum of Mulliken charges =   1.00000   1.00000
 Mulliken charges and spin densities with hydrogens summed into heavy atoms:
               1          2
     1  C    0.500000   0.500000
     2  C    0.500000   0.500000
 Electronic spatial extent (au):  <R**2>=            325.6147
 Charge=              1.0000 electrons
 Dipole moment (field-independent basis, Debye):
    X=              0.0000    Y=             -0.0000    Z=             -0.0000  Tot=              0.0000
 Quadrupole moment (field-independent basis, Debye-Ang):
   XX=             23.4919   YY=             -8.4396   ZZ=            -10.7179
   XY=              0.0006   XZ=             -0.0000   YZ=              0.0000
 Traceless Quadrupole moment (field-independent basis, Debye-Ang):
   XX=             22.0472   YY=             -9.8844   ZZ=            -12.1627
   XY=              0.0006   XZ=             -0.0000   YZ=              0.0000
 Octapole moment (field-independent basis, Debye-Ang**2):
  XXX=              0.0000  YYY=             -0.0000  ZZZ=              0.0000  XYY=             -0.0000
  XXY=             -0.0000  XXZ=             -0.0000  XZZ=              0.0000  YZZ=             -0.0000
  YYZ=              0.0000  XYZ=             -0.0000
 Hexadecapole moment (field-independent basis, Debye-Ang**3):
 XXXX=           -214.4846 YYYY=            -18.9930 ZZZZ=             -9.3520 XXXY=              0.0080
 XXXZ=             -0.0000 YYYX=              0.0005 YYYZ=             -0.0000 ZZZX=             -0.0000
 ZZZY=             -0.0000 XXYY=            -38.2974 XXZZ=            -59.1725 YYZZ=             -6.1098
 XXYZ=              0.0000 YYXZ=             -0.0000 ZZXY=             -0.0008
 N-N= 1.943237893181D+01 E-N=-2.156822408478D+02  KE= 7.760998061054D+01
                          Isotropic Fermi Contact Couplings
        Atom                 a.u.       MegaHertz       Gauss      10(-4) cm-1
     1  C(13)              0.25010     281.15540     100.32324      93.78335
     2  C(13)              0.25010     281.15540     100.32324      93.78335
     3  H(1)               0.00337      15.08224       5.38172       5.03089
     4  H(1)               0.00337      15.08088       5.38123       5.03044
     5  H(1)               0.00337      15.08224       5.38172       5.03089
     6  H(1)               0.00337      15.08088       5.38123       5.03044
 --------------------------------------------------------
       Center         ----  Spin Dipole Couplings  ----
                      3XX-RR        3YY-RR        3ZZ-RR
 --------------------------------------------------------
     1   Atom        0.700845     -0.330535     -0.370310
     2   Atom        0.700845     -0.330535     -0.370310
     3   Atom       -0.003340      0.040992     -0.037652
     4   Atom       -0.003340      0.041000     -0.037660
     5   Atom       -0.003340      0.040992     -0.037652
     6   Atom       -0.003340      0.041000     -0.037660
 --------------------------------------------------------
                        XY            XZ            YZ
 --------------------------------------------------------
     1   Atom       -0.000042      0.000000     -0.000000
     2   Atom       -0.000042     -0.000000      0.000000
     3   Atom        0.019068     -0.000000     -0.000000
     4   Atom       -0.019068     -0.000000      0.000000
     5   Atom        0.019068     -0.000000      0.000000
     6   Atom       -0.019068     -0.000000     -0.000000
 --------------------------------------------------------


 ---------------------------------------------------------------------------------
              Anisotropic Spin Dipole Couplings in Principal Axis System
 ---------------------------------------------------------------------------------

       Atom             a.u.   MegaHertz   Gauss  10(-4) cm-1        Axes

              Baa    -0.3703   -49.692   -17.731   -16.575 -0.0000  0.0000  1.0000
     1 C(13)  Bbb    -0.3305   -44.355   -15.827   -14.795  0.0000  1.0000 -0.0000
              Bcc     0.7008    94.047    33.558    31.371  1.0000 -0.0000  0.0000
 
              Baa    -0.3703   -49.692   -17.731   -16.575  0.0000 -0.0000  1.0000
     2 C(13)  Bbb    -0.3305   -44.355   -15.827   -14.795  0.0000  1.0000  0.0000
              Bcc     0.7008    94.047    33.558    31.371  1.0000 -0.0000 -0.0000
 
              Baa    -0.0377   -20.089    -7.168    -6.701 -0.0000  0.0000  1.0000
     3 H(1)   Bbb    -0.0104    -5.556    -1.983    -1.853  0.9376 -0.3478  0.0000
              Bcc     0.0481    25.645     9.151     8.554  0.3478  0.9376 -0.0000
 
              Baa    -0.0377   -20.094    -7.170    -6.702  0.0000 -0.0000  1.0000
     4 H(1)   Bbb    -0.0104    -5.555    -1.982    -1.853  0.9376  0.3477 -0.0000
              Bcc     0.0481    25.649     9.152     8.556 -0.3477  0.9376  0.0000
 
              Baa    -0.0377   -20.089    -7.168    -6.701  0.0000 -0.0000  1.0000
     5 H(1)   Bbb    -0.0104    -5.556    -1.983    -1.853  0.9376 -0.3478 -0.0000
              Bcc     0.0481    25.645     9.151     8.554  0.3478  0.9376 -0.0000
 
              Baa    -0.0377   -20.094    -7.170    -6.702  0.0000  0.0000  1.0000
     6 H(1)   Bbb    -0.0104    -5.555    -1.982    -1.853  0.9376  0.3477 -0.0000
              Bcc     0.0481    25.649     9.152     8.556 -0.3477  0.9376  0.0000
 

 ---------------------------------------------------------------------------------

 No NMR shielding tensors so no spin-rotation constants.
 Leave Link  601 at Tue Dec  3 13:36:36 2024, MaxMem=  2147483648 cpu:               4.0 elap:               0.2
 (Enter /home/szhao/Apps/g16/l701.exe)
 ... and contract with generalized density number  0.
 Compute integral first derivatives.
 Leave Link  701 at Tue Dec  3 13:36:37 2024, MaxMem=  2147483648 cpu:               2.5 elap:               0.1
 (Enter /home/szhao/Apps/g16/l702.exe)
 L702 exits ... SP integral derivatives will be done elsewhere.
 Leave Link  702 at Tue Dec  3 13:36:37 2024, MaxMem=  2147483648 cpu:               0.9 elap:               0.1
 (Enter /home/szhao/Apps/g16/l703.exe)
 Integral derivatives from FoFJK, PRISM(SPDF).
 Compute integral first derivatives, UseDBF=F ICtDFT=           0.
 Calling FoFJK, ICntrl=      2127 FMM=F ISym2X=0 I1Cent= 0 IOpClX= 1 NMat=1 NMatS=1 NMatT=0.
 FoFJK:  IHMeth= 1 ICntrl=    2127 DoSepK=F KAlg= 0 I1Cent=           0 FoldK=F
 IRaf=         0 NMat=       1 IRICut=       1 DoRegI=T DoRafI=F ISym2E= 0 IDoP0=0 IntGTp=1.
 FoFCou: FMM=F IPFlag=           0 FMFlag=      100000 FMFlg1=         800
         NFxFlg=           0 DoJE=F BraDBF=F KetDBF=F FulRan=T
         wScrn=  0.000000 ICntrl=      2127 IOpCl=  1 I1Cent=           0 NGrid=           0
         NMat0=    1 NMatS0=      1 NMatT0=    0 NMatD0=    1 NMtDS0=    0 NMtDT0=    0
 Symmetry not used in FoFCou.
 Leave Link  703 at Tue Dec  3 13:36:37 2024, MaxMem=  2147483648 cpu:              11.7 elap:               0.5
 (Enter /home/szhao/Apps/g16/l716.exe)
 Dipole        = 3.85904642D-10-2.97539771D-14-1.97730366D-15
 -------------------------------------------------------------------
 Center     Atomic                   Forces (Hartrees/Bohr)
 Number     Number              X              Y              Z
 -------------------------------------------------------------------
      1        6          -0.000000000   -0.000000000   -0.000000000
      2        6          -0.000000000   -0.000000000   -0.000000000
      3        1          -0.011921149    0.001738755   -0.000000000
      4        1          -0.011951573   -0.001671331    0.000000000
      5        1           0.011921149   -0.001738755    0.000000000
      6        1           0.011951573    0.001671331   -0.000000000
 -------------------------------------------------------------------
 Cartesian Forces:  Max     0.011951573 RMS     0.005683998
 Leave Link  716 at Tue Dec  3 13:36:37 2024, MaxMem=  2147483648 cpu:               0.9 elap:               0.1
 (Enter /home/szhao/Apps/g16/l103.exe)

 GradGradGradGradGradGradGradGradGradGradGradGradGradGradGradGradGradGrad
 Berny optimization.
 FormGI is forming the generalized inverse of G from B-inverse, IUseBI=4.
 Internal  Forces:  Max     0.023872722 RMS     0.009844895
 Search for a local minimum.
 Step number   1 out of a maximum of   30
 All quantities printed in internal units (Hartrees-Bohrs-Radians)
 RMS Force = .75528D-02 SwitMx=.10000D-02 MixMth= 1
 Mixed Optimization -- RFO/linear search
 Second derivative matrix not updated -- first step.
 The second derivative matrix:
                          X1        Y1        Z1        X2        Y2
           X1           0.50000
           Y1           0.00000   0.50000
           Z1           0.00000   0.00000   0.50000
           X2           0.00000   0.00000   0.00000   0.50000
           Y2           0.00000   0.00000   0.00000   0.00000   0.50000
           Z2           0.00000   0.00000   0.00000   0.00000   0.00000
           R1           0.00000   0.00000   0.00000   0.00000   0.00000
           R2           0.00000   0.00000   0.00000   0.00000   0.00000
           R3           0.00000   0.00000   0.00000   0.00000   0.00000
           R4           0.00000   0.00000   0.00000   0.00000   0.00000
           A1           0.00000   0.00000   0.00000   0.00000   0.00000
           A2           0.00000   0.00000   0.00000   0.00000   0.00000
           A3           0.00000   0.00000   0.00000   0.00000   0.00000
           A4           0.00000   0.00000   0.00000   0.00000   0.00000
           A5           0.00000   0.00000   0.00000   0.00000   0.00000
           A6           0.00000   0.00000   0.00000   0.00000   0.00000
           D1           0.00000   0.00000   0.00000   0.00000   0.00000
           D2           0.00000   0.00000   0.00000   0.00000   0.00000
           D3           0.00000   0.00000   0.00000   0.00000   0.00000
           D4           0.00000   0.00000   0.00000   0.00000   0.00000
                          Z2        R1        R2        R3        R4
           Z2           0.50000
           R1           0.00000   0.35377
           R2           0.00000   0.00000   0.35389
           R3           0.00000   0.00000   0.00000   0.35377
           R4           0.00000   0.00000   0.00000   0.00000   0.35389
           A1           0.00000   0.00000   0.00000   0.00000   0.00000
           A2           0.00000   0.00000   0.00000   0.00000   0.00000
           A3           0.00000   0.00000   0.00000   0.00000   0.00000
           A4           0.00000   0.00000   0.00000   0.00000   0.00000
           A5           0.00000   0.00000   0.00000   0.00000   0.00000
           A6           0.00000   0.00000   0.00000   0.00000   0.00000
           D1           0.00000   0.00000   0.00000   0.00000   0.00000
           D2           0.00000   0.00000   0.00000   0.00000   0.00000
           D3           0.00000   0.00000   0.00000   0.00000   0.00000
           D4           0.00000   0.00000   0.00000   0.00000   0.00000
                          A1        A2        A3        A4        A5
           A1           0.16000
           A2           0.00000   0.16000
           A3           0.00000   0.00000   0.16000
           A4           0.00000   0.00000   0.00000   0.16000
           A5           0.00000   0.00000   0.00000   0.00000   0.16000
           A6           0.00000   0.00000   0.00000   0.00000   0.00000
           D1           0.00000   0.00000   0.00000   0.00000   0.00000
           D2           0.00000   0.00000   0.00000   0.00000   0.00000
           D3           0.00000   0.00000   0.00000   0.00000   0.00000
           D4           0.00000   0.00000   0.00000   0.00000   0.00000
                          A6        D1        D2        D3        D4
           A6           0.16000
           D1           0.00000   0.00230
           D2           0.00000   0.00000   0.00230
           D3           0.00000   0.00000   0.00000   0.00230
           D4           0.00000   0.00000   0.00000   0.00000   0.00230
 ITU=  0
     Eigenvalues ---    0.00230   0.00230   0.00230   0.16000   0.16000
     Eigenvalues ---    0.16000   0.16000   0.35377   0.35377   0.35389
     Eigenvalues ---    0.353891000.000001000.000001000.000001000.00000
     Eigenvalues --- 1000.000001000.000001000.000001000.000001000.00000
 RFO step:  Lambda=-4.71376848D-03 EMin= 2.30000000D-03
 Linear search not attempted -- first point.
 Iteration  1 RMS(Cart)=  0.04441664 RMS(Int)=  0.00107868
 Iteration  2 RMS(Cart)=  0.00108568 RMS(Int)=  0.00000022
 Iteration  3 RMS(Cart)=  0.00000026 RMS(Int)=  0.00000000
 ITry= 1 IFail=0 DXMaxC= 9.37D-02 DCOld= 1.00D+10 DXMaxT= 3.00D-01 DXLimC= 3.00D+00 Rises=F
 Variable       Old X    -DE/DX   Delta X   Delta X   Delta X     New X
                                 (Linear)    (Quad)   (Total)
    X1       -4.21603  -0.02387   0.00000   0.00000   0.00000  -4.21603
    Y1        0.00000   0.00007   0.00000   0.00000   0.00000   0.00000
    Z1        0.00000  -0.00000   0.00000   0.00000   0.00000   0.00000
    X2        4.21603   0.02387   0.00000   0.00000   0.00000   4.21603
    Y2        0.00000  -0.00007   0.00000   0.00000   0.00000   0.00000
    Z2        0.00000  -0.00000   0.00000   0.00000   0.00000   0.00000
    R1        2.05068   0.00317   0.00000   0.00883   0.00883   2.05951
    R2        2.05048   0.00324   0.00000   0.00904   0.00904   2.05952
    R3        2.05068   0.00317   0.00000   0.00883   0.00883   2.05951
    R4        2.05048   0.00324   0.00000   0.00904   0.00904   2.05952
    A1        1.98162   0.00795   0.00000   0.04824   0.04824   2.02986
    A2        1.98155   0.00795   0.00000   0.04824   0.04824   2.02979
    A3        2.32001  -0.01589   0.00000  -0.09648  -0.09648   2.22353
    A4        1.98162   0.00795   0.00000   0.04824   0.04824   2.02986
    A5        1.98155   0.00795   0.00000   0.04824   0.04824   2.02979
    A6        2.32001  -0.01589   0.00000  -0.09648  -0.09648   2.22353
    D1        3.14159  -0.00000   0.00000  -0.00000   0.00000   3.14159
    D2        0.00000   0.00000   0.00000  -0.00000  -0.00000   0.00000
    D3        0.00000  -0.00000   0.00000   0.00000   0.00000   0.00000
    D4        3.14159   0.00000   0.00000   0.00000   0.00000   3.14159
         Item               Value     Threshold  Converged?
 Maximum Force            0.015891     0.000450     NO 
 RMS     Force            0.007553     0.000300     NO 
 Maximum Displacement     0.093700     0.001800     NO 
 RMS     Displacement     0.044508     0.001200     NO 
 Predicted change in Energy=-2.423449D-03
 Lowest energy point so far.  Saving SCF results.
 GradGradGradGradGradGradGradGradGradGradGradGradGradGradGradGradGradGrad

 Leave Link  103 at Tue Dec  3 13:36:38 2024, MaxMem=  2147483648 cpu:               1.1 elap:               0.1
 (Enter /home/szhao/Apps/g16/l202.exe)
                          Input orientation:                          
 ---------------------------------------------------------------------
 Center     Atomic      Atomic             Coordinates (Angstroms)
 Number     Number       Type             X           Y           Z
 ---------------------------------------------------------------------
      1          6           0       -2.231027    0.000000    0.000000
      2          6           0        2.231027    0.000000    0.000000
      3          1           0       -2.713950   -0.977012   -0.000000
      4          1           0       -2.713884    0.977049   -0.000000
      5          1           0        2.713950    0.977012   -0.000000
      6          1           0        2.713884   -0.977049   -0.000000
 ---------------------------------------------------------------------
                    Distance matrix (angstroms):
                    1          2          3          4          5
     1  C    0.000000
     2  C    4.462054   0.000000
     3  H    1.089848   5.040570   0.000000
     4  H    1.089851   5.040513   1.954061   0.000000
     5  H    5.040570   1.089848   5.768909   5.427834   0.000000
     6  H    5.040513   1.089851   5.427834   5.768809   1.954061
                    6
     6  H    0.000000
 Symmetry turned off by external request.
 Stoichiometry    C2H4(1+,2)
 Framework group  C2H[SGH(C2H4)]
 Deg. of freedom     5
 Full point group                 C2H     NOp   4
 Rotational constants (GHZ):         131.3275228           3.3883608           3.3031371
 Leave Link  202 at Tue Dec  3 13:36:38 2024, MaxMem=  2147483648 cpu:               0.2 elap:               0.0
 (Enter /home/szhao/Apps/g16/l301.exe)
 Standard basis: 6-311+G(d,p) (5D, 7F)
 Ernie: Thresh=  0.10000D-02 Tol=  0.10000D-05 Strict=F.
    68 basis functions,   104 primitive gaussians,    70 cartesian basis functions
     8 alpha electrons        7 beta electrons
       nuclear repulsion energy        19.3623239417 Hartrees.
 IExCor= 4336 DFT=T Ex+Corr=M062X ExCW=0 ScaHFX=  0.540000
 ScaDFX=  1.000000  1.000000  1.000000  1.000000 ScalE2=  1.000000  1.000000
 IRadAn=      7 IRanWt=     -1 IRanGd=            0 ICorTp=0 IEmpDi=  4
 NAtoms=    6 NActive=    6 NUniq=    6 SFac= 1.00D+00 NAtFMM=   60 NAOKFM=F Big=F
 Integral buffers will be    131072 words long.
 Raffenetti 2 integral format.
 Two-electron integral symmetry is turned off.
 Leave Link  301 at Tue Dec  3 13:36:38 2024, MaxMem=  2147483648 cpu:               1.3 elap:               0.1
 (Enter /home/szhao/Apps/g16/l302.exe)
 NPDir=0 NMtPBC=     1 NCelOv=     1 NCel=       1 NClECP=     1 NCelD=      1
         NCelK=      1 NCelE2=     1 NClLst=     1 CellRange=     0.0.
 One-electron integrals computed using PRISM.
 NBasis=    68 RedAO= T EigKep=  1.36D-02  NBF=    68
 NBsUse=    68 1.00D-06 EigRej= -1.00D+00 NBFU=    68
 Precomputing XC quadrature grid using
 IXCGrd= 4 IRadAn=           7 IRanWt=          -1 IRanGd=           0 AccXCQ= 0.00D+00.
 Generated NRdTot=       0 NPtTot=           0 NUsed=           0 NTot=          32
 NSgBfM=    70    70    70    70    70 MxSgAt=     6 MxSgA2=     6.
 Leave Link  302 at Tue Dec  3 13:36:38 2024, MaxMem=  2147483648 cpu:               3.6 elap:               0.2
 (Enter /home/szhao/Apps/g16/l303.exe)
 DipDrv:  MaxL=1.
 Leave Link  303 at Tue Dec  3 13:36:38 2024, MaxMem=  2147483648 cpu:               0.8 elap:               0.0
 (Enter /home/szhao/Apps/g16/l401.exe)
 Initial guess from the checkpoint file:  "opt.chk"
 B after Tr=    -0.000000   -0.000000   -0.000000
         Rot=    1.000000   -0.000000    0.000000    0.000002 Ang=   0.00 deg.
 Guess basis will be translated and rotated to current coordinates.
 JPrj=2 DoOrth=T DoCkMO=T.
 Initial guess <Sx>= 0.0000 <Sy>= 0.0000 <Sz>= 0.5000 <S**2>= 0.7638 S= 0.5069
 Generating alternative initial guess.
 ExpMin= 4.38D-02 ExpMax= 4.56D+03 ExpMxC= 6.82D+02 IAcc=3 IRadAn=         5 AccDes= 0.00D+00
 Harris functional with IExCor= 1009 and IRadAn=       5 diagonalized for initial guess.
 HarFok:  IExCor= 1009 AccDes= 0.00D+00 IRadAn=         5 IDoV= 1 UseB2=F ITyADJ=14
 ICtDFT=  3500011 ScaDFX=  1.000000  1.000000  1.000000  1.000000
 FoFCou: FMM=F IPFlag=           0 FMFlag=      100000 FMFlg1=           0
         NFxFlg=           0 DoJE=T BraDBF=F KetDBF=T FulRan=T
         wScrn=  0.000000 ICntrl=       500 IOpCl=  0 I1Cent=   200000004 NGrid=           0
         NMat0=    1 NMatS0=      1 NMatT0=    0 NMatD0=    1 NMtDS0=    0 NMtDT0=    0
 Symmetry not used in FoFCou.
 Harris En= -77.9139180858815    
 Leave Link  401 at Tue Dec  3 13:36:39 2024, MaxMem=  2147483648 cpu:               5.1 elap:               0.2
 (Enter /home/szhao/Apps/g16/l502.exe)
 Keep R1 and R2 ints in memory in canonical form, NReq=27031774.
 FoFCou: FMM=F IPFlag=           0 FMFlag=           0 FMFlg1=           0
         NFxFlg=           0 DoJE=F BraDBF=F KetDBF=F FulRan=T
         wScrn=  0.000000 ICntrl=       600 IOpCl=  0 I1Cent=           0 NGrid=           0
         NMat0=    1 NMatS0=   2346 NMatT0=    0 NMatD0=    1 NMtDS0=    0 NMtDT0=    0
 Symmetry not used in FoFCou.
 Two-electron integral symmetry not used.
 UHF open shell SCF:
 Using DIIS extrapolation, IDIIS=  1040.
 NGot=  2147483648 LenX=  2141965410 LenY=  2141960069
 Requested convergence on RMS density matrix=1.00D-08 within 128 cycles.
 Requested convergence on MAX density matrix=1.00D-06.
 Requested convergence on             energy=1.00D-06.
 No special actions if energy rises.

 Cycle   1  Pass 1  IDiag  1:
 E= -77.8991379723607    
 DIIS: error= 3.84D-03 at cycle   1 NSaved=   1.
 NSaved= 1 IEnMin= 1 EnMin= -77.8991379723607     IErMin= 1 ErrMin= 3.84D-03
 ErrMax= 3.84D-03  0.00D+00 EMaxC= 1.00D-01 BMatC= 1.79D-03 BMatP= 1.79D-03
 IDIUse=3 WtCom= 9.62D-01 WtEn= 3.84D-02
 Coeff-Com:  0.100D+01
 Coeff-En:   0.100D+01
 Coeff:      0.100D+01
 Gap=     0.580 Goal=   None    Shift=    0.000
 Gap=     0.472 Goal=   None    Shift=    0.000
 GapD=    0.472 DampG=2.000 DampE=1.000 DampFc=2.0000 IDamp=-1.
 RMSDP=3.41D-04 MaxDP=4.23D-03              OVMax= 1.25D-02

 Cycle   2  Pass 1  IDiag  1:
 E= -77.8997595499972     Delta-E=       -0.000621577637 Rises=F Damp=F
 DIIS: error= 7.04D-04 at cycle   2 NSaved=   2.
 NSaved= 2 IEnMin= 2 EnMin= -77.8997595499972     IErMin= 2 ErrMin= 7.04D-04
 ErrMax= 7.04D-04  0.00D+00 EMaxC= 1.00D-01 BMatC= 4.15D-05 BMatP= 1.79D-03
 IDIUse=3 WtCom= 9.93D-01 WtEn= 7.04D-03
 Coeff-Com: -0.116D+00 0.112D+01
 Coeff-En:   0.000D+00 0.100D+01
 Coeff:     -0.115D+00 0.111D+01
 Gap=     0.243 Goal=   None    Shift=    0.000
 Gap=     0.086 Goal=   None    Shift=    0.000
 RMSDP=1.19D-04 MaxDP=1.64D-03 DE=-6.22D-04 OVMax= 3.55D-03

 Cycle   3  Pass 1  IDiag  1:
 E= -77.8997892921792     Delta-E=       -0.000029742182 Rises=F Damp=F
 DIIS: error= 1.66D-04 at cycle   3 NSaved=   3.
 NSaved= 3 IEnMin= 3 EnMin= -77.8997892921792     IErMin= 3 ErrMin= 1.66D-04
 ErrMax= 1.66D-04  0.00D+00 EMaxC= 1.00D-01 BMatC= 2.41D-06 BMatP= 4.15D-05
 IDIUse=3 WtCom= 9.98D-01 WtEn= 1.66D-03
 Coeff-Com: -0.137D-01 0.102D-01 0.100D+01
 Coeff-En:   0.000D+00 0.000D+00 0.100D+01
 Coeff:     -0.137D-01 0.102D-01 0.100D+01
 Gap=     0.243 Goal=   None    Shift=    0.000
 Gap=     0.086 Goal=   None    Shift=    0.000
 RMSDP=2.99D-05 MaxDP=6.42D-04 DE=-2.97D-05 OVMax= 8.58D-04

 Cycle   4  Pass 1  IDiag  1:
 E= -77.8997907935125     Delta-E=       -0.000001501333 Rises=F Damp=F
 DIIS: error= 5.69D-05 at cycle   4 NSaved=   4.
 NSaved= 4 IEnMin= 4 EnMin= -77.8997907935125     IErMin= 4 ErrMin= 5.69D-05
 ErrMax= 5.69D-05  0.00D+00 EMaxC= 1.00D-01 BMatC= 4.36D-07 BMatP= 2.41D-06
 IDIUse=1 WtCom= 1.00D+00 WtEn= 0.00D+00
 Coeff-Com:  0.804D-02-0.109D+00 0.215D+00 0.886D+00
 Coeff:      0.804D-02-0.109D+00 0.215D+00 0.886D+00
 Gap=     0.243 Goal=   None    Shift=    0.000
 Gap=     0.086 Goal=   None    Shift=    0.000
 RMSDP=9.79D-06 MaxDP=1.56D-04 DE=-1.50D-06 OVMax= 2.93D-04

 Cycle   5  Pass 1  IDiag  1:
 E= -77.8997910039546     Delta-E=       -0.000000210442 Rises=F Damp=F
 DIIS: error= 1.30D-05 at cycle   5 NSaved=   5.
 NSaved= 5 IEnMin= 5 EnMin= -77.8997910039546     IErMin= 5 ErrMin= 1.30D-05
 ErrMax= 1.30D-05  0.00D+00 EMaxC= 1.00D-01 BMatC= 1.90D-08 BMatP= 4.36D-07
 IDIUse=1 WtCom= 1.00D+00 WtEn= 0.00D+00
 Coeff-Com:  0.607D-03 0.160D-02-0.607D-01-0.320D-01 0.109D+01
 Coeff:      0.607D-03 0.160D-02-0.607D-01-0.320D-01 0.109D+01
 Gap=     0.243 Goal=   None    Shift=    0.000
 Gap=     0.086 Goal=   None    Shift=    0.000
 RMSDP=2.60D-06 MaxDP=4.22D-05 DE=-2.10D-07 OVMax= 8.68D-05

 Cycle   6  Pass 1  IDiag  1:
 E= -77.8997910190949     Delta-E=       -0.000000015140 Rises=F Damp=F
 DIIS: error= 4.99D-06 at cycle   6 NSaved=   6.
 NSaved= 6 IEnMin= 6 EnMin= -77.8997910190949     IErMin= 6 ErrMin= 4.99D-06
 ErrMax= 4.99D-06  0.00D+00 EMaxC= 1.00D-01 BMatC= 1.82D-09 BMatP= 1.90D-08
 IDIUse=1 WtCom= 1.00D+00 WtEn= 0.00D+00
 Coeff-Com: -0.870D-03 0.105D-01-0.129D-01-0.870D-01-0.150D+00 0.124D+01
 Coeff:     -0.870D-03 0.105D-01-0.129D-01-0.870D-01-0.150D+00 0.124D+01
 Gap=     0.243 Goal=   None    Shift=    0.000
 Gap=     0.086 Goal=   None    Shift=    0.000
 RMSDP=8.60D-07 MaxDP=1.27D-05 DE=-1.51D-08 OVMax= 3.11D-05

 Cycle   7  Pass 1  IDiag  1:
 E= -77.8997910205487     Delta-E=       -0.000000001454 Rises=F Damp=F
 DIIS: error= 8.22D-07 at cycle   7 NSaved=   7.
 NSaved= 7 IEnMin= 7 EnMin= -77.8997910205487     IErMin= 7 ErrMin= 8.22D-07
 ErrMax= 8.22D-07  0.00D+00 EMaxC= 1.00D-01 BMatC= 4.37D-11 BMatP= 1.82D-09
 IDIUse=1 WtCom= 1.00D+00 WtEn= 0.00D+00
 Coeff-Com:  0.193D-03-0.271D-02 0.600D-02 0.242D-01-0.115D-01-0.271D+00
 Coeff-Com:  0.126D+01
 Coeff:      0.193D-03-0.271D-02 0.600D-02 0.242D-01-0.115D-01-0.271D+00
 Coeff:      0.126D+01
 Gap=     0.243 Goal=   None    Shift=    0.000
 Gap=     0.086 Goal=   None    Shift=    0.000
 RMSDP=1.32D-07 MaxDP=2.04D-06 DE=-1.45D-09 OVMax= 2.59D-06

 Cycle   8  Pass 1  IDiag  1:
 E= -77.8997910205789     Delta-E=       -0.000000000030 Rises=F Damp=F
 DIIS: error= 1.19D-07 at cycle   8 NSaved=   8.
 NSaved= 8 IEnMin= 8 EnMin= -77.8997910205789     IErMin= 8 ErrMin= 1.19D-07
 ErrMax= 1.19D-07  0.00D+00 EMaxC= 1.00D-01 BMatC= 1.07D-12 BMatP= 4.37D-11
 IDIUse=1 WtCom= 1.00D+00 WtEn= 0.00D+00
 Coeff-Com: -0.232D-04 0.367D-03-0.121D-02-0.308D-02 0.930D-02 0.226D-01
 Coeff-Com: -0.285D+00 0.126D+01
 Coeff:     -0.232D-04 0.367D-03-0.121D-02-0.308D-02 0.930D-02 0.226D-01
 Coeff:     -0.285D+00 0.126D+01
 Gap=     0.243 Goal=   None    Shift=    0.000
 Gap=     0.086 Goal=   None    Shift=    0.000
 RMSDP=2.05D-08 MaxDP=3.96D-07 DE=-3.02D-11 OVMax= 7.19D-07

 Cycle   9  Pass 1  IDiag  1:
 E= -77.8997910205798     Delta-E=       -0.000000000001 Rises=F Damp=F
 DIIS: error= 1.28D-08 at cycle   9 NSaved=   9.
 NSaved= 9 IEnMin= 9 EnMin= -77.8997910205798     IErMin= 9 ErrMin= 1.28D-08
 ErrMax= 1.28D-08  0.00D+00 EMaxC= 1.00D-01 BMatC= 2.04D-14 BMatP= 1.07D-12
 IDIUse=1 WtCom= 1.00D+00 WtEn= 0.00D+00
 Coeff-Com:  0.734D-07-0.603D-05 0.547D-04 0.706D-04-0.105D-02 0.981D-03
 Coeff-Com:  0.187D-01-0.175D+00 0.116D+01
 Coeff:      0.734D-07-0.603D-05 0.547D-04 0.706D-04-0.105D-02 0.981D-03
 Coeff:      0.187D-01-0.175D+00 0.116D+01
 Gap=     0.243 Goal=   None    Shift=    0.000
 Gap=     0.086 Goal=   None    Shift=    0.000
 RMSDP=4.20D-09 MaxDP=8.17D-08 DE=-9.38D-13 OVMax= 2.76D-07

 SCF Done:  E(UM062X) =  -77.8997910206     A.U. after    9 cycles
            NFock=  9  Conv=0.42D-08     -V/T= 2.0038
 <Sx>= 0.0000 <Sy>= 0.0000 <Sz>= 0.5000 <S**2>= 0.7632 S= 0.5066
 <L.S>=  0.00000000000    
 KE= 7.760108134303D+01 PE=-2.155445411095D+02 EE= 4.068134480416D+01
 Annihilation of the first spin contaminant:
 S**2 before annihilation     0.7632,   after     0.7500
 Leave Link  502 at Tue Dec  3 13:36:41 2024, MaxMem=  2147483648 cpu:              61.9 elap:               2.7
 (Enter /home/szhao/Apps/g16/l701.exe)
 ... and contract with generalized density number  0.
 Compute integral first derivatives.
 Leave Link  701 at Tue Dec  3 13:36:42 2024, MaxMem=  2147483648 cpu:               2.5 elap:               0.1
 (Enter /home/szhao/Apps/g16/l702.exe)
 L702 exits ... SP integral derivatives will be done elsewhere.
 Leave Link  702 at Tue Dec  3 13:36:42 2024, MaxMem=  2147483648 cpu:               1.0 elap:               0.1
 (Enter /home/szhao/Apps/g16/l703.exe)
 Integral derivatives from FoFJK, PRISM(SPDF).
 Compute integral first derivatives, UseDBF=F ICtDFT=           0.
 Calling FoFJK, ICntrl=      2127 FMM=F ISym2X=0 I1Cent= 0 IOpClX= 1 NMat=1 NMatS=1 NMatT=0.
 FoFJK:  IHMeth= 1 ICntrl=    2127 DoSepK=F KAlg= 0 I1Cent=           0 FoldK=F
 IRaf=         0 NMat=       1 IRICut=       1 DoRegI=T DoRafI=F ISym2E= 0 IDoP0=0 IntGTp=1.
 FoFCou: FMM=F IPFlag=           0 FMFlag=      100000 FMFlg1=         800
         NFxFlg=           0 DoJE=F BraDBF=F KetDBF=F FulRan=T
         wScrn=  0.000000 ICntrl=      2127 IOpCl=  1 I1Cent=           0 NGrid=           0
         NMat0=    1 NMatS0=      1 NMatT0=    0 NMatD0=    1 NMtDS0=    0 NMtDT0=    0
 Symmetry not used in FoFCou.
 Leave Link  703 at Tue Dec  3 13:36:42 2024, MaxMem=  2147483648 cpu:              11.4 elap:               0.5
 (Enter /home/szhao/Apps/g16/l716.exe)
 Dipole        =-1.25704099D-06-8.55271409D-12 2.02849835D-13
 -------------------------------------------------------------------
 Center     Atomic                   Forces (Hartrees/Bohr)
 Number     Number              X              Y              Z
 -------------------------------------------------------------------
      1        6          -0.000000000   -0.000000000   -0.000000000
      2        6          -0.000000000   -0.000000000   -0.000000000
      3        1          -0.007712800    0.002069166   -0.000000000
      4        1          -0.007712010   -0.002070795   -0.000000000
      5        1           0.007712825   -0.002069135    0.000000000
      6        1           0.007712035    0.002070764    0.000000000
 -------------------------------------------------------------------
 Cartesian Forces:  Max     0.007712825 RMS     0.003764340
 Leave Link  716 at Tue Dec  3 13:36:43 2024, MaxMem=  2147483648 cpu:               0.9 elap:               0.1
 (Enter /home/szhao/Apps/g16/l103.exe)

 GradGradGradGradGradGradGradGradGradGradGradGradGradGradGradGradGradGrad
 Berny optimization.
 Using GEDIIS/GDIIS optimizer.
 FormGI is forming the generalized inverse of G from B-inverse, IUseBI=4.
 Internal  Forces:  Max     0.015424860 RMS     0.006451521
 Search for a local minimum.
 Step number   2 out of a maximum of   30
 All quantities printed in internal units (Hartrees-Bohrs-Radians)
 RMS Force = .50469D-02 SwitMx=.10000D-02 MixMth= 1
 Mixed Optimization -- RFO/linear search
 Update second derivatives using D2CorX and points    1    2
 DE= -3.97D-03 DEPred=-2.42D-03 R= 1.64D+00
 TightC=F SS=  1.41D+00  RLast= 1.68D-01 DXNew= 5.0454D-01 5.0416D-01
 Trust test= 1.64D+00 RLast= 1.68D-01 DXMaxT set to 5.04D-01
 The second derivative matrix:
                          X1        Y1        Z1        X2        Y2
           X1           0.54616
           Y1          -0.00038   0.50000
           Z1          -0.00000   0.00000   0.50000
           X2          -0.04616   0.00038   0.00000   0.54616
           Y2           0.00038  -0.00000  -0.00000  -0.00038   0.50000
           Z2           0.00000  -0.00000  -0.00000  -0.00000   0.00000
           R1          -0.00877   0.00007   0.00000   0.00877  -0.00007
           R2          -0.00918   0.00008   0.00000   0.00918  -0.00008
           R3          -0.00877   0.00007   0.00000   0.00877  -0.00007
           R4          -0.00918   0.00008   0.00000   0.00918  -0.00008
           A1          -0.01404   0.00011   0.00000   0.01404  -0.00011
           A2          -0.01404   0.00011   0.00000   0.01404  -0.00011
           A3           0.02808  -0.00023  -0.00000  -0.02808   0.00023
           A4          -0.01404   0.00011   0.00000   0.01404  -0.00011
           A5          -0.01404   0.00011   0.00000   0.01404  -0.00011
           A6           0.02808  -0.00023  -0.00000  -0.02808   0.00023
           D1           0.00000  -0.00000  -0.00000  -0.00000   0.00000
           D2          -0.00000   0.00000   0.00000   0.00000  -0.00000
           D3           0.00000  -0.00000  -0.00000  -0.00000   0.00000
           D4          -0.00000   0.00000   0.00000   0.00000  -0.00000
                          Z2        R1        R2        R3        R4
           Z2           0.50000
           R1          -0.00000   0.35330
           R2          -0.00000  -0.00044   0.35348
           R3          -0.00000  -0.00047  -0.00044   0.35330
           R4          -0.00000  -0.00044  -0.00041  -0.00044   0.35348
           A1          -0.00000  -0.00260  -0.00260  -0.00260  -0.00260
           A2          -0.00000  -0.00260  -0.00260  -0.00260  -0.00260
           A3           0.00000   0.00520   0.00519   0.00520   0.00519
           A4          -0.00000  -0.00260  -0.00260  -0.00260  -0.00260
           A5          -0.00000  -0.00260  -0.00260  -0.00260  -0.00260
           A6           0.00000   0.00520   0.00519   0.00520   0.00519
           D1           0.00000  -0.00000  -0.00000  -0.00000  -0.00000
           D2          -0.00000   0.00000   0.00000   0.00000   0.00000
           D3           0.00000  -0.00000  -0.00000  -0.00000  -0.00000
           D4          -0.00000   0.00000   0.00000   0.00000   0.00000
                          A1        A2        A3        A4        A5
           A1           0.15127
           A2          -0.00873   0.15127
           A3           0.01747   0.01747   0.12506
           A4          -0.00873  -0.00873   0.01747   0.15127
           A5          -0.00873  -0.00873   0.01747  -0.00873   0.15127
           A6           0.01747   0.01747  -0.03494   0.01747   0.01747
           D1          -0.00000  -0.00000   0.00000  -0.00000  -0.00000
           D2           0.00000   0.00000  -0.00000   0.00000   0.00000
           D3          -0.00000  -0.00000   0.00000  -0.00000  -0.00000
           D4           0.00000   0.00000  -0.00000   0.00000   0.00000
                          A6        D1        D2        D3        D4
           A6           0.12506
           D1           0.00000   0.00230
           D2          -0.00000  -0.00000   0.00230
           D3           0.00000   0.00000  -0.00000   0.00230
           D4          -0.00000  -0.00000   0.00000  -0.00000   0.00230
 ITU=  1  0
 Use linear search instead of GDIIS.
     Eigenvalues ---    0.00230   0.00230   0.00230   0.05410   0.16000
     Eigenvalues ---    0.16000   0.16000   0.35314   0.35377   0.35385
     Eigenvalues ---    0.353891000.000001000.000001000.000001000.00000
     Eigenvalues --- 1000.000001000.000001000.000001000.000001000.00000
 RFO step:  Lambda=-1.74651513D-05 EMin= 2.30000000D-03
 Quartic linear search produced a step of  1.53829.
 Iteration  1 RMS(Cart)=  0.06916517 RMS(Int)=  0.00259931
 Iteration  2 RMS(Cart)=  0.00261246 RMS(Int)=  0.00000111
 Iteration  3 RMS(Cart)=  0.00000132 RMS(Int)=  0.00000000
 Iteration  4 RMS(Cart)=  0.00000000 RMS(Int)=  0.00000000
 ITry= 1 IFail=0 DXMaxC= 1.41D-01 DCOld= 1.00D+10 DXMaxT= 5.04D-01 DXLimC= 3.00D+00 Rises=F
 Variable       Old X    -DE/DX   Delta X   Delta X   Delta X     New X
                                 (Linear)    (Quad)   (Total)
    X1       -4.21603  -0.01542   0.00000   0.00000   0.00000  -4.21603
    Y1        0.00000  -0.00000   0.00000   0.00000   0.00000   0.00000
    Z1        0.00000  -0.00000   0.00000   0.00000   0.00000   0.00000
    X2        4.21603   0.01542   0.00000   0.00000   0.00000   4.21603
    Y2        0.00000   0.00000   0.00000   0.00000   0.00000   0.00000
    Z2        0.00000   0.00000   0.00000   0.00000   0.00000   0.00000
    R1        2.05951   0.00156   0.01359  -0.00321   0.01038   2.06989
    R2        2.05952   0.00156   0.01390  -0.00356   0.01034   2.06986
    R3        2.05951   0.00156   0.01359  -0.00321   0.01038   2.06989
    R4        2.05952   0.00156   0.01390  -0.00356   0.01034   2.06986
    A1        2.02986   0.00538   0.07420   0.00072   0.07492   2.10479
    A2        2.02979   0.00538   0.07420   0.00072   0.07493   2.10472
    A3        2.22353  -0.01075  -0.14841  -0.00144  -0.14985   2.07368
    A4        2.02986   0.00538   0.07420   0.00072   0.07492   2.10479
    A5        2.02979   0.00538   0.07420   0.00072   0.07493   2.10472
    A6        2.22353  -0.01075  -0.14841  -0.00144  -0.14985   2.07368
    D1        3.14159   0.00000   0.00000   0.00000   0.00000   3.14159
    D2       -0.00000  -0.00000   0.00000  -0.00000   0.00000   0.00000
    D3        0.00000   0.00000   0.00000   0.00000   0.00000   0.00000
    D4        3.14159  -0.00000   0.00000  -0.00000   0.00000   3.14159
         Item               Value     Threshold  Converged?
 Maximum Force            0.010752     0.000450     NO 
 RMS     Force            0.005047     0.000300     NO 
 Maximum Displacement     0.140924     0.001800     NO 
 RMS     Displacement     0.069322     0.001200     NO 
 Predicted change in Energy=-3.060792D-03
 Lowest energy point so far.  Saving SCF results.
 GradGradGradGradGradGradGradGradGradGradGradGradGradGradGradGradGradGrad

 Leave Link  103 at Tue Dec  3 13:36:43 2024, MaxMem=  2147483648 cpu:               1.8 elap:               0.1
 (Enter /home/szhao/Apps/g16/l202.exe)
                          Input orientation:                          
 ---------------------------------------------------------------------
 Center     Atomic      Atomic             Coordinates (Angstroms)
 Number     Number       Type             X           Y           Z
 ---------------------------------------------------------------------
      1          6           0       -2.231027    0.000000    0.000000
      2          6           0        2.231027    0.000000    0.000000
      3          1           0       -2.788523   -0.942851   -0.000000
      4          1           0       -2.788454    0.942872   -0.000000
      5          1           0        2.788523    0.942851    0.000000
      6          1           0        2.788454   -0.942872    0.000000
 ---------------------------------------------------------------------
                    Distance matrix (angstroms):
                    1          2          3          4          5
     1  C    0.000000
     2  C    4.462054   0.000000
     3  H    1.095340   5.107333   0.000000
     4  H    1.095323   5.107269   1.885723   0.000000
     5  H    5.107333   1.095340   5.887217   5.576977   0.000000
     6  H    5.107269   1.095323   5.576977   5.887098   1.885723
                    6
     6  H    0.000000
 Symmetry turned off by external request.
 Stoichiometry    C2H4(1+,2)
 Framework group  CS[SG(C2H4)]
 Deg. of freedom     9
 Full point group                 CS      NOp   2
 Rotational constants (GHZ):         141.0185431           3.3511951           3.2734052
 Leave Link  202 at Tue Dec  3 13:36:43 2024, MaxMem=  2147483648 cpu:               0.2 elap:               0.0
 (Enter /home/szhao/Apps/g16/l301.exe)
 Standard basis: 6-311+G(d,p) (5D, 7F)
 Ernie: Thresh=  0.10000D-02 Tol=  0.10000D-05 Strict=F.
    68 basis functions,   104 primitive gaussians,    70 cartesian basis functions
     8 alpha electrons        7 beta electrons
       nuclear repulsion energy        19.2817903794 Hartrees.
 IExCor= 4336 DFT=T Ex+Corr=M062X ExCW=0 ScaHFX=  0.540000
 ScaDFX=  1.000000  1.000000  1.000000  1.000000 ScalE2=  1.000000  1.000000
 IRadAn=      7 IRanWt=     -1 IRanGd=            0 ICorTp=0 IEmpDi=  4
 NAtoms=    6 NActive=    6 NUniq=    6 SFac= 1.00D+00 NAtFMM=   60 NAOKFM=F Big=F
 Integral buffers will be    131072 words long.
 Raffenetti 2 integral format.
 Two-electron integral symmetry is turned off.
 Leave Link  301 at Tue Dec  3 13:36:43 2024, MaxMem=  2147483648 cpu:               1.3 elap:               0.1
 (Enter /home/szhao/Apps/g16/l302.exe)
 NPDir=0 NMtPBC=     1 NCelOv=     1 NCel=       1 NClECP=     1 NCelD=      1
         NCelK=      1 NCelE2=     1 NClLst=     1 CellRange=     0.0.
 One-electron integrals computed using PRISM.
 NBasis=    68 RedAO= T EigKep=  1.46D-02  NBF=    68
 NBsUse=    68 1.00D-06 EigRej= -1.00D+00 NBFU=    68
 Precomputing XC quadrature grid using
 IXCGrd= 4 IRadAn=           7 IRanWt=          -1 IRanGd=           0 AccXCQ= 0.00D+00.
 Generated NRdTot=       0 NPtTot=           0 NUsed=           0 NTot=          32
 NSgBfM=    70    70    70    70    70 MxSgAt=     6 MxSgA2=     6.
 Leave Link  302 at Tue Dec  3 13:36:43 2024, MaxMem=  2147483648 cpu:               3.8 elap:               0.2
 (Enter /home/szhao/Apps/g16/l303.exe)
 DipDrv:  MaxL=1.
 Leave Link  303 at Tue Dec  3 13:36:43 2024, MaxMem=  2147483648 cpu:               1.0 elap:               0.1
 (Enter /home/szhao/Apps/g16/l401.exe)
 Initial guess from the checkpoint file:  "opt.chk"
 B after Tr=     0.000000    0.000000    0.000000
         Rot=    1.000000    0.000000    0.000000   -0.000000 Ang=  -0.00 deg.
 Guess basis will be translated and rotated to current coordinates.
 JPrj=2 DoOrth=T DoCkMO=T.
 Initial guess <Sx>= 0.0000 <Sy>= 0.0000 <Sz>= 0.5000 <S**2>= 0.7631 S= 0.5065
 Generating alternative initial guess.
 ExpMin= 4.38D-02 ExpMax= 4.56D+03 ExpMxC= 6.82D+02 IAcc=3 IRadAn=         5 AccDes= 0.00D+00
 Harris functional with IExCor= 1009 and IRadAn=       5 diagonalized for initial guess.
 HarFok:  IExCor= 1009 AccDes= 0.00D+00 IRadAn=         5 IDoV= 1 UseB2=F ITyADJ=14
 ICtDFT=  3500011 ScaDFX=  1.000000  1.000000  1.000000  1.000000
 FoFCou: FMM=F IPFlag=           0 FMFlag=      100000 FMFlg1=           0
         NFxFlg=           0 DoJE=T BraDBF=F KetDBF=T FulRan=T
         wScrn=  0.000000 ICntrl=       500 IOpCl=  0 I1Cent=   200000004 NGrid=           0
         NMat0=    1 NMatS0=      1 NMatT0=    0 NMatD0=    1 NMtDS0=    0 NMtDT0=    0
 Symmetry not used in FoFCou.
 Harris En= -77.9164363578767    
 Leave Link  401 at Tue Dec  3 13:36:44 2024, MaxMem=  2147483648 cpu:               4.9 elap:               0.2
 (Enter /home/szhao/Apps/g16/l502.exe)
 Keep R1 and R2 ints in memory in canonical form, NReq=27031774.
 FoFCou: FMM=F IPFlag=           0 FMFlag=           0 FMFlg1=           0
         NFxFlg=           0 DoJE=F BraDBF=F KetDBF=F FulRan=T
         wScrn=  0.000000 ICntrl=       600 IOpCl=  0 I1Cent=           0 NGrid=           0
         NMat0=    1 NMatS0=   2346 NMatT0=    0 NMatD0=    1 NMtDS0=    0 NMtDT0=    0
 Symmetry not used in FoFCou.
 Two-electron integral symmetry not used.
 UHF open shell SCF:
 Using DIIS extrapolation, IDIIS=  1040.
 NGot=  2147483648 LenX=  2141965410 LenY=  2141960069
 Requested convergence on RMS density matrix=1.00D-08 within 128 cycles.
 Requested convergence on MAX density matrix=1.00D-06.
 Requested convergence on             energy=1.00D-06.
 No special actions if energy rises.

 Cycle   1  Pass 1  IDiag  1:
 E= -77.9010799465476    
 DIIS: error= 5.50D-03 at cycle   1 NSaved=   1.
 NSaved= 1 IEnMin= 1 EnMin= -77.9010799465476     IErMin= 1 ErrMin= 5.50D-03
 ErrMax= 5.50D-03  0.00D+00 EMaxC= 1.00D-01 BMatC= 3.83D-03 BMatP= 3.83D-03
 IDIUse=3 WtCom= 9.45D-01 WtEn= 5.50D-02
 Coeff-Com:  0.100D+01
 Coeff-En:   0.100D+01
 Coeff:      0.100D+01
 Gap=     0.593 Goal=   None    Shift=    0.000
 Gap=     0.483 Goal=   None    Shift=    0.000
 GapD=    0.483 DampG=2.000 DampE=1.000 DampFc=2.0000 IDamp=-1.
 RMSDP=4.90D-04 MaxDP=6.40D-03              OVMax= 1.72D-02

 Cycle   2  Pass 1  IDiag  1:
 E= -77.9023696817877     Delta-E=       -0.001289735240 Rises=F Damp=F
 DIIS: error= 9.28D-04 at cycle   2 NSaved=   2.
 NSaved= 2 IEnMin= 2 EnMin= -77.9023696817877     IErMin= 2 ErrMin= 9.28D-04
 ErrMax= 9.28D-04  0.00D+00 EMaxC= 1.00D-01 BMatC= 8.38D-05 BMatP= 3.83D-03
 IDIUse=3 WtCom= 9.91D-01 WtEn= 9.28D-03
 Coeff-Com: -0.102D+00 0.110D+01
 Coeff-En:   0.000D+00 0.100D+01
 Coeff:     -0.101D+00 0.110D+01
 Gap=     0.254 Goal=   None    Shift=    0.000
 Gap=     0.085 Goal=   None    Shift=    0.000
 RMSDP=1.52D-04 MaxDP=2.16D-03 DE=-1.29D-03 OVMax= 4.39D-03

 Cycle   3  Pass 1  IDiag  1:
 E= -77.9024214841440     Delta-E=       -0.000051802356 Rises=F Damp=F
 DIIS: error= 2.02D-04 at cycle   3 NSaved=   3.
 NSaved= 3 IEnMin= 3 EnMin= -77.9024214841440     IErMin= 3 ErrMin= 2.02D-04
 ErrMax= 2.02D-04  0.00D+00 EMaxC= 1.00D-01 BMatC= 5.49D-06 BMatP= 8.38D-05
 IDIUse=3 WtCom= 9.98D-01 WtEn= 2.02D-03
 Coeff-Com: -0.214D-01 0.102D+00 0.919D+00
 Coeff-En:   0.000D+00 0.000D+00 0.100D+01
 Coeff:     -0.214D-01 0.102D+00 0.919D+00
 Gap=     0.254 Goal=   None    Shift=    0.000
 Gap=     0.085 Goal=   None    Shift=    0.000
 RMSDP=3.50D-05 MaxDP=8.11D-04 DE=-5.18D-05 OVMax= 9.35D-04

 Cycle   4  Pass 1  IDiag  1:
 E= -77.9024240493776     Delta-E=       -0.000002565234 Rises=F Damp=F
 DIIS: error= 7.22D-05 at cycle   4 NSaved=   4.
 NSaved= 4 IEnMin= 4 EnMin= -77.9024240493776     IErMin= 4 ErrMin= 7.22D-05
 ErrMax= 7.22D-05  0.00D+00 EMaxC= 1.00D-01 BMatC= 8.15D-07 BMatP= 5.49D-06
 IDIUse=1 WtCom= 1.00D+00 WtEn= 0.00D+00
 Coeff-Com:  0.517D-02-0.842D-01 0.171D+00 0.908D+00
 Coeff:      0.517D-02-0.842D-01 0.171D+00 0.908D+00
 Gap=     0.254 Goal=   None    Shift=    0.000
 Gap=     0.085 Goal=   None    Shift=    0.000
 RMSDP=1.22D-05 MaxDP=2.21D-04 DE=-2.57D-06 OVMax= 3.52D-04

 Cycle   5  Pass 1  IDiag  1:
 E= -77.9024244168059     Delta-E=       -0.000000367428 Rises=F Damp=F
 DIIS: error= 1.68D-05 at cycle   5 NSaved=   5.
 NSaved= 5 IEnMin= 5 EnMin= -77.9024244168059     IErMin= 5 ErrMin= 1.68D-05
 ErrMax= 1.68D-05  0.00D+00 EMaxC= 1.00D-01 BMatC= 3.33D-08 BMatP= 8.15D-07
 IDIUse=1 WtCom= 1.00D+00 WtEn= 0.00D+00
 Coeff-Com:  0.137D-02-0.955D-02-0.421D-01 0.223D-01 0.103D+01
 Coeff:      0.137D-02-0.955D-02-0.421D-01 0.223D-01 0.103D+01
 Gap=     0.254 Goal=   None    Shift=    0.000
 Gap=     0.085 Goal=   None    Shift=    0.000
 RMSDP=3.13D-06 MaxDP=5.85D-05 DE=-3.67D-07 OVMax= 1.04D-04

 Cycle   6  Pass 1  IDiag  1:
 E= -77.9024244403209     Delta-E=       -0.000000023515 Rises=F Damp=F
 DIIS: error= 6.65D-06 at cycle   6 NSaved=   6.
 NSaved= 6 IEnMin= 6 EnMin= -77.9024244403209     IErMin= 6 ErrMin= 6.65D-06
 ErrMax= 6.65D-06  0.00D+00 EMaxC= 1.00D-01 BMatC= 3.26D-09 BMatP= 3.33D-08
 IDIUse=1 WtCom= 1.00D+00 WtEn= 0.00D+00
 Coeff-Com: -0.771D-03 0.966D-02-0.529D-02-0.886D-01-0.224D+00 0.131D+01
 Coeff:     -0.771D-03 0.966D-02-0.529D-02-0.886D-01-0.224D+00 0.131D+01
 Gap=     0.254 Goal=   None    Shift=    0.000
 Gap=     0.085 Goal=   None    Shift=    0.000
 RMSDP=1.10D-06 MaxDP=1.49D-05 DE=-2.35D-08 OVMax= 4.98D-05

 Cycle   7  Pass 1  IDiag  1:
 E= -77.9024244426700     Delta-E=       -0.000000002349 Rises=F Damp=F
 DIIS: error= 2.75D-06 at cycle   7 NSaved=   7.
 NSaved= 7 IEnMin= 7 EnMin= -77.9024244426700     IErMin= 7 ErrMin= 2.75D-06
 ErrMax= 2.75D-06  0.00D+00 EMaxC= 1.00D-01 BMatC= 8.20D-10 BMatP= 3.26D-09
 IDIUse=1 WtCom= 1.00D+00 WtEn= 0.00D+00
 Coeff-Com: -0.411D-03 0.494D-02-0.139D-02-0.432D-01-0.137D+00 0.643D+00
 Coeff-Com:  0.534D+00
 Coeff:     -0.411D-03 0.494D-02-0.139D-02-0.432D-01-0.137D+00 0.643D+00
 Coeff:      0.534D+00
 Gap=     0.254 Goal=   None    Shift=    0.000
 Gap=     0.085 Goal=   None    Shift=    0.000
 RMSDP=3.65D-07 MaxDP=6.51D-06 DE=-2.35D-09 OVMax= 4.31D-05

 Cycle   8  Pass 1  IDiag  1:
 E= -77.9024244428572     Delta-E=       -0.000000000187 Rises=F Damp=F
 DIIS: error= 1.86D-06 at cycle   8 NSaved=   8.
 NSaved= 8 IEnMin= 8 EnMin= -77.9024244428572     IErMin= 8 ErrMin= 1.86D-06
 ErrMax= 1.86D-06  0.00D+00 EMaxC= 1.00D-01 BMatC= 3.69D-10 BMatP= 8.20D-10
 IDIUse=1 WtCom= 1.00D+00 WtEn= 0.00D+00
 Coeff-Com:  0.127D-03-0.178D-02 0.206D-02 0.185D-01 0.221D-01-0.258D+00
 Coeff-Com:  0.437D+00 0.779D+00
 Coeff:      0.127D-03-0.178D-02 0.206D-02 0.185D-01 0.221D-01-0.258D+00
 Coeff:      0.437D+00 0.779D+00
 Gap=     0.254 Goal=   None    Shift=    0.000
 Gap=     0.085 Goal=   None    Shift=    0.000
 RMSDP=1.71D-07 MaxDP=3.20D-06 DE=-1.87D-10 OVMax= 1.76D-05

 Cycle   9  Pass 1  IDiag  1:
 E= -77.9024244430055     Delta-E=       -0.000000000148 Rises=F Damp=F
 DIIS: error= 1.22D-07 at cycle   9 NSaved=   9.
 NSaved= 9 IEnMin= 9 EnMin= -77.9024244430055     IErMin= 9 ErrMin= 1.22D-07
 ErrMax= 1.22D-07  0.00D+00 EMaxC= 1.00D-01 BMatC= 1.18D-12 BMatP= 3.69D-10
 IDIUse=1 WtCom= 1.00D+00 WtEn= 0.00D+00
 Coeff-Com: -0.146D-04 0.235D-03-0.541D-03-0.252D-02 0.197D-02 0.301D-01
 Coeff-Com: -0.120D+00-0.174D+00 0.126D+01
 Coeff:     -0.146D-04 0.235D-03-0.541D-03-0.252D-02 0.197D-02 0.301D-01
 Coeff:     -0.120D+00-0.174D+00 0.126D+01
 Gap=     0.254 Goal=   None    Shift=    0.000
 Gap=     0.085 Goal=   None    Shift=    0.000
 RMSDP=2.02D-08 MaxDP=4.10D-07 DE=-1.48D-10 OVMax= 7.42D-07

 Cycle  10  Pass 1  IDiag  1:
 E= -77.9024244430065     Delta-E=       -0.000000000001 Rises=F Damp=F
 DIIS: error= 1.17D-08 at cycle  10 NSaved=  10.
 NSaved=10 IEnMin=10 EnMin= -77.9024244430065     IErMin=10 ErrMin= 1.17D-08
 ErrMax= 1.17D-08  0.00D+00 EMaxC= 1.00D-01 BMatC= 1.24D-14 BMatP= 1.18D-12
 IDIUse=1 WtCom= 1.00D+00 WtEn= 0.00D+00
 Coeff-Com:  0.938D-06-0.182D-04 0.668D-04 0.218D-03-0.695D-03-0.197D-02
 Coeff-Com:  0.159D-01 0.210D-01-0.241D+00 0.121D+01
 Coeff:      0.938D-06-0.182D-04 0.668D-04 0.218D-03-0.695D-03-0.197D-02
 Coeff:      0.159D-01 0.210D-01-0.241D+00 0.121D+01
 Gap=     0.254 Goal=   None    Shift=    0.000
 Gap=     0.085 Goal=   None    Shift=    0.000
 RMSDP=3.36D-09 MaxDP=7.31D-08 DE=-9.95D-13 OVMax= 1.15D-07

 SCF Done:  E(UM062X) =  -77.9024244430     A.U. after   10 cycles
            NFock= 10  Conv=0.34D-08     -V/T= 2.0040
 <Sx>= 0.0000 <Sy>= 0.0000 <Sz>= 0.5000 <S**2>= 0.7621 S= 0.5061
 <L.S>=  0.00000000000    
 KE= 7.759556198782D+01 PE=-2.153834430530D+02 EE= 4.060366624277D+01
 Annihilation of the first spin contaminant:
 S**2 before annihilation     0.7621,   after     0.7500
 Leave Link  502 at Tue Dec  3 13:36:47 2024, MaxMem=  2147483648 cpu:              62.8 elap:               2.7
 (Enter /home/szhao/Apps/g16/l701.exe)
 ... and contract with generalized density number  0.
 Compute integral first derivatives.
 Leave Link  701 at Tue Dec  3 13:36:47 2024, MaxMem=  2147483648 cpu:               2.4 elap:               0.1
 (Enter /home/szhao/Apps/g16/l702.exe)
 L702 exits ... SP integral derivatives will be done elsewhere.
 Leave Link  702 at Tue Dec  3 13:36:47 2024, MaxMem=  2147483648 cpu:               0.9 elap:               0.1
 (Enter /home/szhao/Apps/g16/l703.exe)
 Integral derivatives from FoFJK, PRISM(SPDF).
 Compute integral first derivatives, UseDBF=F ICtDFT=           0.
 Calling FoFJK, ICntrl=      2127 FMM=F ISym2X=0 I1Cent= 0 IOpClX= 1 NMat=1 NMatS=1 NMatT=0.
 FoFJK:  IHMeth= 1 ICntrl=    2127 DoSepK=F KAlg= 0 I1Cent=           0 FoldK=F
 IRaf=         0 NMat=       1 IRICut=       1 DoRegI=T DoRafI=F ISym2E= 0 IDoP0=0 IntGTp=1.
 FoFCou: FMM=F IPFlag=           0 FMFlag=      100000 FMFlg1=         800
         NFxFlg=           0 DoJE=F BraDBF=F KetDBF=F FulRan=T
         wScrn=  0.000000 ICntrl=      2127 IOpCl=  1 I1Cent=           0 NGrid=           0
         NMat0=    1 NMatS0=      1 NMatT0=    0 NMatD0=    1 NMtDS0=    0 NMtDT0=    0
 Symmetry not used in FoFCou.
 Leave Link  703 at Tue Dec  3 13:36:48 2024, MaxMem=  2147483648 cpu:              12.1 elap:               0.5
 (Enter /home/szhao/Apps/g16/l716.exe)
 Dipole        =-3.82832935D-07 3.46123130D-12 2.88242854D-10
 -------------------------------------------------------------------
 Center     Atomic                   Forces (Hartrees/Bohr)
 Number     Number              X              Y              Z
 -------------------------------------------------------------------
      1        6          -0.000000000   -0.000000000   -0.000000000
      2        6          -0.000000000   -0.000000000   -0.000000000
      3        1          -0.000426455   -0.000269703    0.000000000
      4        1          -0.000432465    0.000279653    0.000000000
      5        1           0.000426406    0.000269624   -0.000000000
      6        1           0.000432416   -0.000279574   -0.000000000
 -------------------------------------------------------------------
 Cartesian Forces:  Max     0.000432465 RMS     0.000240312
 Leave Link  716 at Tue Dec  3 13:36:48 2024, MaxMem=  2147483648 cpu:               1.1 elap:               0.1
 (Enter /home/szhao/Apps/g16/l103.exe)

 GradGradGradGradGradGradGradGradGradGradGradGradGradGradGradGradGradGrad
 Berny optimization.
 Using GEDIIS/GDIIS optimizer.
 FormGI is forming the generalized inverse of G from B-inverse, IUseBI=4.
 Internal  Forces:  Max     0.000858920 RMS     0.000360937
 Search for a local minimum.
 Step number   3 out of a maximum of   30
 All quantities printed in internal units (Hartrees-Bohrs-Radians)
 RMS Force = .28410D-03 SwitMx=.10000D-02 MixMth= 2
 Mixed Optimization -- En-DIIS/RFO-DIIS
 Update second derivatives using D2CorX and points    1    2    3
 DE= -2.63D-03 DEPred=-3.06D-03 R= 8.60D-01
 TightC=F SS=  1.41D+00  RLast= 2.60D-01 DXNew= 8.4790D-01 7.8113D-01
 Trust test= 8.60D-01 RLast= 2.60D-01 DXMaxT set to 7.81D-01
 The second derivative matrix:
                          X1        Y1        Z1        X2        Y2
           X1           0.54499
           Y1           0.00003   0.50000
           Z1           0.00000   0.00000   0.50000
           X2          -0.04499  -0.00003  -0.00000   0.54499
           Y2          -0.00003  -0.00000  -0.00000   0.00003   0.50000
           Z2          -0.00000  -0.00000  -0.00000   0.00000   0.00000
           R1          -0.00740   0.00002  -0.00000   0.00740  -0.00002
           R2          -0.00778   0.00002  -0.00000   0.00778  -0.00002
           R3          -0.00740   0.00002  -0.00000   0.00740  -0.00002
           R4          -0.00778   0.00002  -0.00000   0.00778  -0.00002
           A1          -0.01585  -0.00001  -0.00000   0.01585   0.00001
           A2          -0.01585  -0.00001  -0.00000   0.01585   0.00001
           A3           0.03170   0.00003   0.00000  -0.03170  -0.00003
           A4          -0.01585  -0.00001  -0.00000   0.01585   0.00001
           A5          -0.01585  -0.00001  -0.00000   0.01585   0.00001
           A6           0.03170   0.00003   0.00000  -0.03170  -0.00003
           D1          -0.00000  -0.00000  -0.00000   0.00000   0.00000
           D2           0.00000   0.00000   0.00000  -0.00000  -0.00000
           D3          -0.00000  -0.00000  -0.00000   0.00000   0.00000
           D4           0.00000   0.00000   0.00000  -0.00000  -0.00000
                          Z2        R1        R2        R3        R4
           Z2           0.50000
           R1           0.00000   0.35300
           R2           0.00000  -0.00074   0.35318
           R3           0.00000  -0.00076  -0.00074   0.35300
           R4           0.00000  -0.00074  -0.00071  -0.00074   0.35318
           A1           0.00000  -0.00281  -0.00281  -0.00281  -0.00281
           A2           0.00000  -0.00281  -0.00281  -0.00281  -0.00281
           A3          -0.00000   0.00562   0.00563   0.00562   0.00563
           A4           0.00000  -0.00281  -0.00281  -0.00281  -0.00281
           A5           0.00000  -0.00281  -0.00281  -0.00281  -0.00281
           A6          -0.00000   0.00562   0.00563   0.00562   0.00563
           D1           0.00000   0.00000   0.00000   0.00000   0.00000
           D2          -0.00000  -0.00000  -0.00000  -0.00000  -0.00000
           D3           0.00000   0.00000   0.00000   0.00000   0.00000
           D4          -0.00000  -0.00000  -0.00000  -0.00000  -0.00000
[...]
           A6           0.05124  -0.00045  -0.00000  -0.05124   0.00045
           D1           0.00000  -0.00000  -0.00000  -0.00000   0.00000
           D2          -0.00000   0.00000   0.00000   0.00000  -0.00000
           D3           0.00000  -0.00000  -0.00000  -0.00000   0.00000
           D4          -0.00000   0.00000   0.00000   0.00000  -0.00000
                          Z2        R1        R2        R3        R4
           Z2           0.50000
           R1          -0.00000   0.34902
           R2          -0.00000  -0.00482   0.34899
           R3          -0.00000  -0.00475  -0.00482   0.34902
           R4          -0.00000  -0.00482  -0.00489  -0.00482   0.34900
           A1          -0.00000  -0.00249  -0.00248  -0.00249  -0.00248
           A2          -0.00000  -0.00251  -0.00250  -0.00251  -0.00250
           A3           0.00000   0.00500   0.00499   0.00500   0.00499
           A4          -0.00000  -0.00249  -0.00248  -0.00249  -0.00248
           A5          -0.00000  -0.00251  -0.00250  -0.00251  -0.00250
           A6           0.00000   0.00500   0.00499   0.00500   0.00499
           D1           0.00000  -0.00000  -0.00000  -0.00000  -0.00000
           D2          -0.00000   0.00000   0.00000   0.00000   0.00000
           D3           0.00000  -0.00000  -0.00000  -0.00000  -0.00000
           D4          -0.00000   0.00000   0.00000   0.00000   0.00000
                          A1        A2        A3        A4        A5
           A1           0.15330
           A2          -0.00671   0.15329
           A3           0.01341   0.01342   0.13317
           A4          -0.00670  -0.00671   0.01341   0.15330
           A5          -0.00671  -0.00671   0.01342  -0.00671   0.15329
           A6           0.01341   0.01342  -0.02683   0.01341   0.01342
           D1          -0.00000  -0.00000   0.00000  -0.00000  -0.00000
           D2           0.00000   0.00000  -0.00000   0.00000   0.00000
           D3          -0.00000  -0.00000   0.00000  -0.00000  -0.00000
           D4           0.00000   0.00000  -0.00000   0.00000   0.00000
                          A6        D1        D2        D3        D4
           A6           0.13317
           D1           0.00000   0.00230
           D2          -0.00000  -0.00000   0.00230
           D3           0.00000   0.00000  -0.00000   0.00230
           D4          -0.00000  -0.00000   0.00000  -0.00000   0.00230
 ITU=  1  1  1  0
     Eigenvalues ---    0.00230   0.00230   0.00230   0.07835   0.16000
     Eigenvalues ---    0.16000   0.16000   0.33571   0.35377   0.35383
     Eigenvalues ---    0.353891000.000001000.000001000.000001000.00000
     Eigenvalues --- 1000.000001000.000001000.000001000.000001000.00000
 En-DIIS/RFO-DIIS/Sim-DIIS IScMMF=       -3 using points:     4    3
 RFO step:  Lambda=-4.38469802D-09.
 NNeg= 0 NGDIIS= 2 SimSw=  2.50D-01 Rises=F DC= -3.50D-06 SmlDif=  1.00D-05
 NRisDI= 0 DoIntr=F SqrtH=F CThrHd= 10.0 CDAdj=  3.0
 RMS Error=  0.3561751765D-04 NUsed= 2 OKEnD=F EnDIS=F
 InvSVX:  RCond= 1.62D-05 Info=           0 Equed=N FErr=  9.22D-16 BErr=  6.66D-17
 DidBck=F Rises=F RFO-DIIS coefs:    1.01755   -0.01755
 Iteration  1 RMS(Cart)=  0.00003876 RMS(Int)=  0.00000000
 Iteration  2 RMS(Cart)=  0.00000000 RMS(Int)=  0.00000000
 ITry= 1 IFail=0 DXMaxC= 8.61D-05 DCOld= 1.00D+10 DXMaxT= 7.81D-01 DXLimC= 3.00D+00 Rises=F
 Variable       Old X    -DE/DX   Delta X   Delta X   Delta X     New X
                                 (Linear)    (Quad)   (Total)
    X1       -4.21603  -0.00002   0.00000   0.00000   0.00000  -4.21603
    Y1        0.00000   0.00000   0.00000   0.00000   0.00000   0.00000
    Z1        0.00000  -0.00000   0.00000   0.00000   0.00000   0.00000
    X2        4.21603   0.00002   0.00000   0.00000   0.00000   4.21603
    Y2        0.00000  -0.00000   0.00000   0.00000   0.00000   0.00000
    Z2        0.00000   0.00000   0.00000   0.00000   0.00000   0.00000
    R1        2.07137   0.00002   0.00003   0.00003   0.00006   2.07143
    R2        2.07137   0.00002   0.00003   0.00003   0.00006   2.07143
    R3        2.07137   0.00002   0.00003   0.00003   0.00006   2.07143
    R4        2.07137   0.00002   0.00003   0.00003   0.00006   2.07143
    A1        2.10694   0.00000   0.00004  -0.00001   0.00003   2.10697
    A2        2.10688   0.00000   0.00004  -0.00001   0.00003   2.10691
    A3        2.06936  -0.00000  -0.00008   0.00002  -0.00006   2.06930
    A4        2.10694   0.00000   0.00004  -0.00001   0.00003   2.10697
    A5        2.10688   0.00000   0.00004  -0.00001   0.00003   2.10691
    A6        2.06936  -0.00000  -0.00008   0.00002  -0.00006   2.06930
    D1        3.14159   0.00000   0.00000   0.00000   0.00000  -3.14159
    D2        0.00000  -0.00000   0.00000  -0.00000  -0.00000  -0.00000
    D3       -0.00000   0.00000   0.00000   0.00000   0.00000   0.00000
    D4        3.14159  -0.00000   0.00000  -0.00000  -0.00000   3.14159
         Item               Value     Threshold  Converged?
 Maximum Force            0.000019     0.000450     YES
 RMS     Force            0.000010     0.000300     YES
 Maximum Displacement     0.000086     0.001800     YES
 RMS     Displacement     0.000039     0.001200     YES
 Predicted change in Energy=-2.645664D-09
 Optimization completed.
    -- Stationary point found.
                           ----------------------------
                           !   Optimized Parameters   !
                           ! (Angstroms and Degrees)  !
 --------------------------                            --------------------------
 ! Name  Definition              Value          Derivative Info.                !
 --------------------------------------------------------------------------------
 ! X1    R(1,-1)                -2.231          -DE/DX =    0.0                 !
 ! Y1    R(1,-2)                 0.0            -DE/DX =    0.0                 !
 ! Z1    R(1,-3)                 0.0            -DE/DX =    0.0                 !
 ! X2    R(2,-1)                 2.231          -DE/DX =    0.0                 !
 ! Y2    R(2,-2)                 0.0            -DE/DX =    0.0                 !
 ! Z2    R(2,-3)                 0.0            -DE/DX =    0.0                 !
 ! R1    R(1,3)                  1.0961         -DE/DX =    0.0                 !
 ! R2    R(1,4)                  1.0961         -DE/DX =    0.0                 !
 ! R3    R(2,5)                  1.0961         -DE/DX =    0.0                 !
 ! R4    R(2,6)                  1.0961         -DE/DX =    0.0                 !
 ! A1    A(2,1,3)              120.719          -DE/DX =    0.0                 !
 ! A2    A(2,1,4)              120.7154         -DE/DX =    0.0                 !
 ! A3    A(3,1,4)              118.5656         -DE/DX =    0.0                 !
 ! A4    A(1,2,5)              120.719          -DE/DX =    0.0                 !
 ! A5    A(1,2,6)              120.7154         -DE/DX =    0.0                 !
 ! A6    A(5,2,6)              118.5655         -DE/DX =    0.0                 !
 ! D1    D(3,1,2,5)           -180.0            -DE/DX =    0.0                 !
 ! D2    D(3,1,2,6)              0.0            -DE/DX =    0.0                 !
 ! D3    D(4,1,2,5)              0.0            -DE/DX =    0.0                 !
 ! D4    D(4,1,2,6)            180.0            -DE/DX =    0.0                 !
 --------------------------------------------------------------------------------
 Lowest energy point so far.  Saving SCF results.
 Largest change from initial coordinates is atom    6       0.137 Angstoms.
 GradGradGradGradGradGradGradGradGradGradGradGradGradGradGradGradGradGrad

 Leave Link  103 at Tue Dec  3 13:36:52 2024, MaxMem=  2147483648 cpu:               1.8 elap:               0.1
 (Enter /home/szhao/Apps/g16/l202.exe)
                          Input orientation:                          
 ---------------------------------------------------------------------
 Center     Atomic      Atomic             Coordinates (Angstroms)
 Number     Number       Type             X           Y           Z
 ---------------------------------------------------------------------
      1          6           0       -2.231027    0.000000    0.000000
      2          6           0        2.231027    0.000000    0.000000
      3          1           0       -2.790958   -0.942318    0.000000
      4          1           0       -2.790899    0.942353    0.000000
      5          1           0        2.790958    0.942318   -0.000000
      6          1           0        2.790899   -0.942353   -0.000000
 ---------------------------------------------------------------------
                    Distance matrix (angstroms):
                    1          2          3          4          5
     1  C    0.000000
     2  C    4.462054   0.000000
     3  H    1.096123   5.109628   0.000000
     4  H    1.096123   5.109576   1.884671   0.000000
     5  H    5.109628   1.096123   5.891489   5.581857   0.000000
     6  H    5.109576   1.096123   5.581857   5.891398   1.884671
                    6
     6  H    0.000000
 Symmetry turned off by external request.
 Stoichiometry    C2H4(1+,2)
 Framework group  CS[SG(C2H4)]
 Deg. of freedom     9
 Full point group                 CS      NOp   2
 Rotational constants (GHZ):         141.1759809           3.3499761           3.2723268
 Leave Link  202 at Tue Dec  3 13:36:53 2024, MaxMem=  2147483648 cpu:               0.2 elap:               0.0
 (Enter /home/szhao/Apps/g16/l601.exe)
 Copying SCF densities to generalized density rwf, IOpCl= 1 IROHF=0.

 **********************************************************************

            Population analysis using the SCF density.

 **********************************************************************

 Alpha  occ. eigenvalues --  -10.87939 -10.87939  -0.99324  -0.99305  -0.73998
 Alpha  occ. eigenvalues --   -0.73986  -0.57244  -0.56628
 Alpha virt. eigenvalues --   -0.31162  -0.30993  -0.12394  -0.10696  -0.08627
 Alpha virt. eigenvalues --   -0.06751  -0.06163  -0.06145  -0.04026  -0.01128
 Alpha virt. eigenvalues --    0.00060   0.00712   0.02462   0.04708   0.27801
 Alpha virt. eigenvalues --    0.28155   0.28390   0.28754   0.38849   0.39721
 Alpha virt. eigenvalues --    0.41580   0.42245   0.42417   0.46601   0.51932
 Alpha virt. eigenvalues --    0.52423   0.85393   0.85393   0.94960   0.96255
 Alpha virt. eigenvalues --    0.99443   0.99648   1.23273   1.23550   1.30797
 Alpha virt. eigenvalues --    1.31253   1.48272   1.50011   1.58195   1.58240
 Alpha virt. eigenvalues --    1.72410   1.72410   1.83632   1.83717   2.18530
 Alpha virt. eigenvalues --    2.20103   2.25957   2.27352   2.28429   2.29081
 Alpha virt. eigenvalues --    2.41400   2.42275   2.49945   2.50763   2.70950
 Alpha virt. eigenvalues --    2.72830   3.46464   3.46809  23.51442  23.51449
  Beta  occ. eigenvalues --  -10.87174 -10.87173  -0.97168  -0.97054  -0.72979
  Beta  occ. eigenvalues --   -0.72961  -0.45337
  Beta virt. eigenvalues --   -0.36801  -0.29415  -0.29193  -0.12118  -0.10856
  Beta virt. eigenvalues --   -0.08467  -0.06582  -0.06328  -0.04354  -0.04240
  Beta virt. eigenvalues --   -0.00980   0.00838   0.01016   0.02604   0.05387
  Beta virt. eigenvalues --    0.27635   0.27978   0.28140   0.28578   0.39049
  Beta virt. eigenvalues --    0.39958   0.43615   0.43943   0.44619   0.47877
  Beta virt. eigenvalues --    0.53379   0.54126   0.86804   0.86804   0.97410
  Beta virt. eigenvalues --    0.98878   1.01470   1.01614   1.24505   1.24712
  Beta virt. eigenvalues --    1.32095   1.32527   1.49600   1.51314   1.58773
  Beta virt. eigenvalues --    1.58827   1.73236   1.73236   1.84834   1.84933
  Beta virt. eigenvalues --    2.20083   2.21305   2.27566   2.29353   2.31668
  Beta virt. eigenvalues --    2.32254   2.42966   2.43809   2.51460   2.52282
  Beta virt. eigenvalues --    2.74747   2.76602   3.49636   3.49954  23.52018
  Beta virt. eigenvalues --   23.52025
          Condensed to atoms (all electrons):
               1          2          3          4          5          6
     1  C    5.263658   0.021111   0.344941   0.344940  -0.000521  -0.000521
     2  C    0.021111   5.263658  -0.000521  -0.000521   0.344941   0.344940
     3  H    0.344941  -0.000521   0.438600  -0.019833   0.000003   0.000006
     4  H    0.344940  -0.000521  -0.019833   0.438601   0.000006   0.000003
     5  H   -0.000521   0.344941   0.000003   0.000006   0.438600  -0.019833
     6  H   -0.000521   0.344940   0.000006   0.000003  -0.019833   0.438601
          Atomic-Atomic Spin Densities.
               1          2          3          4          5          6
     1  C    0.513177  -0.023760  -0.002368  -0.002368   0.000726   0.000726
     2  C   -0.023760   0.513176   0.000726   0.000726  -0.002368  -0.002368
     3  H   -0.002368   0.000726   0.005371   0.003214  -0.000003  -0.000007
     4  H   -0.002368   0.000726   0.003214   0.005370  -0.000007  -0.000003
     5  H    0.000726  -0.002368  -0.000003  -0.000007   0.005371   0.003214
     6  H    0.000726  -0.002368  -0.000007  -0.000003   0.003214   0.005370
 Mulliken charges and spin densities:
               1          2
     1  C    0.026393   0.486134
     2  C    0.026393   0.486134
     3  H    0.236804   0.006933
     4  H    0.236803   0.006933
     5  H    0.236804   0.006933
     6  H    0.236803   0.006933
 Sum of Mulliken charges =   1.00000   1.00000
 Mulliken charges and spin densities with hydrogens summed into heavy atoms:
               1          2
     1  C    0.500000   0.500000
     2  C    0.500000   0.500000
 Electronic spatial extent (au):  <R**2>=            332.6973
 Charge=              1.0000 electrons
 Dipole moment (field-independent basis, Debye):
    X=             -0.0000    Y=             -0.0000    Z=             -0.0000  Tot=              0.0000
 Quadrupole moment (field-independent basis, Debye-Ang):
   XX=             26.3037   YY=             -9.4578   ZZ=            -10.7259
   XY=             -0.0001   XZ=             -0.0000   YZ=             -0.0000
 Traceless Quadrupole moment (field-independent basis, Debye-Ang):
   XX=             24.2637   YY=            -11.4978   ZZ=            -12.7660
   XY=             -0.0001   XZ=             -0.0000   YZ=             -0.0000
 Octapole moment (field-independent basis, Debye-Ang**2):
  XXX=             -0.0000  YYY=              0.0000  ZZZ=              0.0000  XYY=             -0.0000
  XXY=             -0.0000  XXZ=             -0.0000  XZZ=             -0.0000  YZZ=              0.0000
  YYZ=             -0.0000  XYZ=             -0.0000
 Hexadecapole moment (field-independent basis, Debye-Ang**3):
 XXXX=           -169.5689 YYYY=            -20.4177 ZZZZ=             -9.2427 XXXY=              0.0023
 XXXZ=              0.0000 YYYX=             -0.0005 YYYZ=             -0.0000 ZZZX=              0.0000
 ZZZY=             -0.0000 XXYY=            -42.8831 XXZZ=            -60.8420 YYZZ=             -5.9852
 XXYZ=             -0.0000 YYXZ=             -0.0000 ZZXY=              0.0000
 N-N= 1.927231382923D+01 E-N=-2.153630040217D+02  KE= 7.759218738650D+01
                          Isotropic Fermi Contact Couplings
        Atom                 a.u.       MegaHertz       Gauss      10(-4) cm-1
     1  C(13)              0.31915     358.78073     128.02189     119.67637
     2  C(13)              0.31915     358.78071     128.02188     119.67636
     3  H(1)               0.00755      33.72883      12.03529      11.25073
     4  H(1)               0.00755      33.72815      12.03504      11.25050
     5  H(1)               0.00755      33.72883      12.03529      11.25073
     6  H(1)               0.00755      33.72815      12.03504      11.25050
 --------------------------------------------------------
       Center         ----  Spin Dipole Couplings  ----
                      3XX-RR        3YY-RR        3ZZ-RR
 --------------------------------------------------------
     1   Atom        0.647240     -0.303048     -0.344192
     2   Atom        0.647240     -0.303048     -0.344192
     3   Atom       -0.000942      0.035032     -0.034090
     4   Atom       -0.000945      0.035035     -0.034090
     5   Atom       -0.000942      0.035032     -0.034090
     6   Atom       -0.000945      0.035035     -0.034090
 --------------------------------------------------------
                        XY            XZ            YZ
 --------------------------------------------------------
     1   Atom       -0.000029     -0.000000      0.000000
     2   Atom       -0.000029     -0.000000     -0.000000
     3   Atom        0.023026     -0.000000     -0.000000
     4   Atom       -0.023024     -0.000000      0.000000
     5   Atom        0.023026     -0.000000     -0.000000
     6   Atom       -0.023024     -0.000000      0.000000
 --------------------------------------------------------


 ---------------------------------------------------------------------------------
              Anisotropic Spin Dipole Couplings in Principal Axis System
 ---------------------------------------------------------------------------------

       Atom             a.u.   MegaHertz   Gauss  10(-4) cm-1        Axes

              Baa    -0.3442   -46.187   -16.481   -15.406  0.0000 -0.0000  1.0000
     1 C(13)  Bbb    -0.3030   -40.666   -14.511   -13.565  0.0000  1.0000  0.0000
              Bcc     0.6472    86.853    30.991    28.971  1.0000 -0.0000 -0.0000
 
              Baa    -0.3442   -46.187   -16.481   -15.406  0.0000  0.0000  1.0000
     2 C(13)  Bbb    -0.3030   -40.666   -14.511   -13.565  0.0000  1.0000 -0.0000
              Bcc     0.6472    86.853    30.991    28.971  1.0000 -0.0000 -0.0000
 
              Baa    -0.0341   -18.189    -6.490    -6.067  0.0000  0.0000  1.0000
     3 H(1)   Bbb    -0.0122    -6.495    -2.318    -2.167  0.8988 -0.4384 -0.0000
              Bcc     0.0463    24.684     8.808     8.234  0.4384  0.8988 -0.0000
 
              Baa    -0.0341   -18.189    -6.490    -6.067  0.0000 -0.0000  1.0000
     4 H(1)   Bbb    -0.0122    -6.495    -2.318    -2.167  0.8988  0.4383 -0.0000
              Bcc     0.0463    24.684     8.808     8.234 -0.4383  0.8988  0.0000
 
              Baa    -0.0341   -18.189    -6.490    -6.067  0.0000  0.0000  1.0000
     5 H(1)   Bbb    -0.0122    -6.495    -2.318    -2.167  0.8988 -0.4384 -0.0000
              Bcc     0.0463    24.684     8.808     8.234  0.4384  0.8988 -0.0000
 
              Baa    -0.0341   -18.189    -6.490    -6.067  0.0000 -0.0000  1.0000
     6 H(1)   Bbb    -0.0122    -6.495    -2.318    -2.167  0.8988  0.4383 -0.0000
              Bcc     0.0463    24.684     8.808     8.234 -0.4383  0.8988  0.0000
 

 ---------------------------------------------------------------------------------

 No NMR shielding tensors so no spin-rotation constants.
 Leave Link  601 at Tue Dec  3 13:36:53 2024, MaxMem=  2147483648 cpu:               4.4 elap:               0.2
 (Enter /home/szhao/Apps/g16/l9999.exe)
 1\1\GINC-NODE02\FOpt\UM062X\6-311+G(d,p)\C2H4(1+,2)\SZHAO\03-Dec-2024\
 0\\#p opt UM062X/6-311+G** nosymm int=superfine SCF=NoVarAcc\\Title Ca
 rd Required\\1,2\C,-2.231027,0.,0.\C,2.231027,0.,0.\H,-2.7909578952,-0
 .9423183233,0.0000000006\H,-2.7908985313,0.9423530366,0.0000000006\H,2
 .7909579807,0.9423182812,-0.000000005\H,2.7908986168,-0.9423529946,-0.
 000000005\\Version=ES64L-G16RevA.03\HF=-77.9024279\S2=0.76212\S2-1=0.\
 S2A=0.750014\RMSD=3.511e-09\RMSF=9.165e-06\Dipole=-0.0000005,0.,0.\Qua
 drupole=18.039485,-8.5483082,-9.4911768,-0.0000644,0.,0.\PG=CS [SG(C2H
 4)]\\@


 THERE'S A SUCKER BORN EVERY MINUTE

              -- PHINEAS TAYLOR (P.T.) BARNUM
 Job cpu time:       0 days  0 hours  6 minutes 22.1 seconds.
 Elapsed time:       0 days  0 hours  0 minutes 17.4 seconds.
 File lengths (MBytes):  RWF=     22 Int=      0 D2E=      0 Chk=      2 Scr=      2
 Normal termination of Gaussian 16 at Tue Dec  3 13:36:53 2024.
