Title Card Required                                                     
FOpt      UM062X                                                      6-311+G(d,p)        
Number of atoms                            I                6
Info1-9                                    I   N=           9
          15          15           0           0           0         110
           2          18        -502
Full Title                                 C   N=           2
Title Card Required     
Route                                      C   N=           5
#p opt UM062X/6-311+G** nosymm int=superfine SCF=NoVarAcc   
Charge                                     I                1
Multiplicity                               I                2
Number of electrons                        I               15
Number of alpha electrons                  I                8
Number of beta electrons                   I                7
Number of basis functions                  I               68
Number of independent functions            I               68
Number of point charges in /Mol/           I                0
Number of translation vectors              I                0
Atomic numbers                             I   N=           6
           6           6           1           1           1           1
Nuclear charges                            R   N=           6
  6.00000000E+00  6.00000000E+00  1.00000000E+00  1.00000000E+00  1.00000000E+00
  1.00000000E+00
Current cartesian coordinates              R   N=          18
 -4.21603001E+00  0.00000000E+00  0.00000000E+00  4.21603001E+00  0.00000000E+00
  0.00000000E+00 -5.27414605E+00 -1.78072355E+00  1.06327281E-09 -5.27403387E+00
  1.78078915E+00  1.12669096E-09  5.27414621E+00  1.78072347E+00 -9.49269523E-09
  5.27403403E+00 -1.78078907E+00 -9.42934652E-09
Number of symbols in /Mol/                 I                0
Force Field                                I                0
Atom Types                                 C   N=           6
                                                            
            
Int Atom Types                             I   N=           6
           0           0           0           0           0           0
MM charges                                 R   N=           6
  0.00000000E+00  0.00000000E+00  0.00000000E+00  0.00000000E+00  0.00000000E+00
  0.00000000E+00
Integer atomic weights                     I   N=           6
          12          12           1           1           1           1
Real atomic weights                        R   N=           6
  1.20000000E+01  1.20000000E+01  1.00782504E+00  1.00782504E+00  1.00782504E+00
  1.00782504E+00
Atom fragment info                         I   N=           6
           0           0           0           0           0           0
Atom residue num                           I   N=           6
           0           0           0           0           0           0
Nuclear spins                              I   N=           6
           0           0           1           1           1           1
Nuclear ZEff                               R   N=           6
 -3.60000000E+00 -3.60000000E+00 -1.00000000E+00 -1.00000000E+00 -1.00000000E+00
 -1.00000000E+00
Nuclear ZNuc                               R   N=           6
  6.00000000E+00  6.00000000E+00  1.00000000E+00  1.00000000E+00  1.00000000E+00
  1.00000000E+00
Nuclear QMom                               R   N=           6
  0.00000000E+00  0.00000000E+00  0.00000000E+00  0.00000000E+00  0.00000000E+00
  0.00000000E+00
Nuclear GFac                               R   N=           6
  0.00000000E+00  0.00000000E+00  2.79284600E+00  2.79284600E+00  2.79284600E+00
  2.79284600E+00
MicOpt                                     I   N=           6
          -2          -2          -1          -1          -1          -1
Number of residues                         I                0
Number of secondary structures             I                0
Redundant internal dimensions              I   N=           4
          20          10           6           4
Redundant internal coordinate indices      I   N=          80
           1          -1           0           0           1          -2
           0           0           1          -3           0           0
           2          -1           0           0           2          -2
           0           0           2          -3           0           0
           1           3           0           0           1           4
           0           0           2           5           0           0
           2           6           0           0           2           1
           3           0           2           1           4           0
           3           1           4           0           1           2
           5           0           1           2           6           0
           5           2           6           0           3           1
           2           5           3           1           2           6
           4           1           2           5           4           1
           2           6
Redundant internal coordinates             R   N=          20
 -4.21603001E+00  0.00000000E+00  0.00000000E+00  4.21603001E+00  0.00000000E+00
  0.00000000E+00  2.07137296E+00  2.07137205E+00  2.07137297E+00  2.07137206E+00
  2.10694440E+00  2.10688166E+00  2.06935924E+00  2.10694449E+00  2.10688175E+00
  2.06935907E+00  3.14159265E+00  0.00000000E+00 -0.00000000E+00  3.14159265E+00
ZRed-IntVec                                I   N=          20
          -1          -1          -1          -1          -1          -1
           0           0           0           0           0           0
           0           0           0           0           0           0
           0           0
ZRed-FPVec                                 R   N=          20
  0.00000000E+00  0.00000000E+00  0.00000000E+00  0.00000000E+00  0.00000000E+00
  0.00000000E+00  0.00000000E+00  0.00000000E+00  0.00000000E+00  0.00000000E+00
  0.00000000E+00  0.00000000E+00  0.00000000E+00  0.00000000E+00  0.00000000E+00
  0.00000000E+00  0.00000000E+00  0.00000000E+00  0.00000000E+00  0.00000000E+00
ZRed-Constraint1                           R   N=          20
 -4.21603001E+00  0.00000000E+00  0.00000000E+00  4.21603001E+00  0.00000000E+00
  0.00000000E+00  2.05067934E+00  2.05048469E+00  2.05067934E+00  2.05048469E+00
  1.98162443E+00  1.98155420E+00  2.32000667E+00  1.98162443E+00  1.98155420E+00
  2.32000667E+00  3.14159265E+00  0.00000000E+00  0.00000000E+00  3.14159265E+00
ZRed-Constraint2                           R   N=          20
 -4.21603001E+00  0.00000000E+00  0.00000000E+00  4.21603001E+00  0.00000000E+00
  0.00000000E+00  0.00000000E+00  0.00000000E+00  0.00000000E+00  0.00000000E+00
  0.00000000E+00  0.00000000E+00  0.00000000E+00  0.00000000E+00  0.00000000E+00
  0.00000000E+00  0.00000000E+00  0.00000000E+00  0.00000000E+00  0.00000000E+00
Number of contracted shells                I               28
Number of primitive shells                 I               50
Pure/Cartesian d shells                    I                0
Pure/Cartesian f shells                    I                0
Highest angular momentum                   I                2
Largest degree of contraction              I                6
Shell types                                I   N=          28
           0          -1          -1          -1          -1          -2
           0          -1          -1          -1          -1          -2
           0           0           0           1           0           0
           0           1           0           0           0           1
           0           0           0           1
Number of primitives per shell             I   N=          28
           6           3           1           1           1           1
           6           3           1           1           1           1
           3           1           1           1           3           1
           1           1           3           1           1           1
           3           1           1           1
Shell to atom map                          I   N=          28
           1           1           1           1           1           1
           2           2           2           2           2           2
           3           3           3           3           4           4
           4           4           5           5           5           5
           6           6           6           6
Primitive exponents                        R   N=          50
  4.56324000E+03  6.82024000E+02  1.54973000E+02  4.44553000E+01  1.30290000E+01
  1.82773000E+00  2.09642000E+01  4.80331000E+00  1.45933000E+00  4.83456000E-01
  1.45585000E-01  4.38000000E-02  6.26000000E-01  4.56324000E+03  6.82024000E+02
  1.54973000E+02  4.44553000E+01  1.30290000E+01  1.82773000E+00  2.09642000E+01
  4.80331000E+00  1.45933000E+00  4.83456000E-01  1.45585000E-01  4.38000000E-02
  6.26000000E-01  3.38650000E+01  5.09479000E+00  1.15879000E+00  3.25840000E-01
  1.02741000E-01  7.50000000E-01  3.38650000E+01  5.09479000E+00  1.15879000E+00
  3.25840000E-01  1.02741000E-01  7.50000000E-01  3.38650000E+01  5.09479000E+00
  1.15879000E+00  3.25840000E-01  1.02741000E-01  7.50000000E-01  3.38650000E+01
  5.09479000E+00  1.15879000E+00  3.25840000E-01  1.02741000E-01  7.50000000E-01
Contraction coefficients                   R   N=          50
  1.96665025E-03  1.52306019E-02  7.61269097E-02  2.60801033E-01  6.16462078E-01
  2.21006028E-01  1.14660081E-01  9.19999648E-01 -3.03068213E-03  1.00000000E+00
  1.00000000E+00  1.00000000E+00  1.00000000E+00  1.96665025E-03  1.52306019E-02
  7.61269097E-02  2.60801033E-01  6.16462078E-01  2.21006028E-01  1.14660081E-01
  9.19999648E-01 -3.03068213E-03  1.00000000E+00  1.00000000E+00  1.00000000E+00
  1.00000000E+00  2.54938145E-02  1.90373109E-01  8.52161486E-01  1.00000000E+00
  1.00000000E+00  1.00000000E+00  2.54938145E-02  1.90373109E-01  8.52161486E-01
  1.00000000E+00  1.00000000E+00  1.00000000E+00  2.54938145E-02  1.90373109E-01
  8.52161486E-01  1.00000000E+00  1.00000000E+00  1.00000000E+00  2.54938145E-02
  1.90373109E-01  8.52161486E-01  1.00000000E+00  1.00000000E+00  1.00000000E+00
P(S=P) Contraction coefficients            R   N=          50
  0.00000000E+00  0.00000000E+00  0.00000000E+00  0.00000000E+00  0.00000000E+00
  0.00000000E+00  4.02486927E-02  2.37593957E-01  8.15853851E-01  1.00000000E+00
  1.00000000E+00  1.00000000E+00  0.00000000E+00  0.00000000E+00  0.00000000E+00
  0.00000000E+00  0.00000000E+00  0.00000000E+00  0.00000000E+00  4.02486927E-02
  2.37593957E-01  8.15853851E-01  1.00000000E+00  1.00000000E+00  1.00000000E+00
  0.00000000E+00  0.00000000E+00  0.00000000E+00  0.00000000E+00  0.00000000E+00
  0.00000000E+00  0.00000000E+00  0.00000000E+00  0.00000000E+00  0.00000000E+00
  0.00000000E+00  0.00000000E+00  0.00000000E+00  0.00000000E+00  0.00000000E+00
  0.00000000E+00  0.00000000E+00  0.00000000E+00  0.00000000E+00  0.00000000E+00
  0.00000000E+00  0.00000000E+00  0.00000000E+00  0.00000000E+00  0.00000000E+00
Coordinates of each shell                  R   N=          84
 -4.21603001E+00  0.00000000E+00  0.00000000E+00 -4.21603001E+00  0.00000000E+00
  0.00000000E+00 -4.21603001E+00  0.00000000E+00  0.00000000E+00 -4.21603001E+00
  0.00000000E+00  0.00000000E+00 -4.21603001E+00  0.00000000E+00  0.00000000E+00
 -4.21603001E+00  0.00000000E+00  0.00000000E+00  4.21603001E+00  0.00000000E+00
  0.00000000E+00  4.21603001E+00  0.00000000E+00  0.00000000E+00  4.21603001E+00
  0.00000000E+00  0.00000000E+00  4.21603001E+00  0.00000000E+00  0.00000000E+00
  4.21603001E+00  0.00000000E+00  0.00000000E+00  4.21603001E+00  0.00000000E+00
  0.00000000E+00 -5.27414605E+00 -1.78072355E+00  1.06327281E-09 -5.27414605E+00
 -1.78072355E+00  1.06327281E-09 -5.27414605E+00 -1.78072355E+00  1.06327281E-09
 -5.27414605E+00 -1.78072355E+00  1.06327281E-09 -5.27403387E+00  1.78078915E+00
  1.12669096E-09 -5.27403387E+00  1.78078915E+00  1.12669096E-09 -5.27403387E+00
  1.78078915E+00  1.12669096E-09 -5.27403387E+00  1.78078915E+00  1.12669096E-09
  5.27414621E+00  1.78072347E+00 -9.49269523E-09  5.27414621E+00  1.78072347E+00
 -9.49269523E-09  5.27414621E+00  1.78072347E+00 -9.49269523E-09  5.27414621E+00
  1.78072347E+00 -9.49269523E-09  5.27403403E+00 -1.78078907E+00 -9.42934652E-09
  5.27403403E+00 -1.78078907E+00 -9.42934652E-09  5.27403403E+00 -1.78078907E+00
 -9.42934652E-09  5.27403403E+00 -1.78078907E+00 -9.42934652E-09
Num ILSW                                   I              100
ILSW                                       I   N=         100
           1           0           0           1           2           0
           0           0           0           0        4336          -1
           7           0           0           0           2           0
           0           0           0           0           1           0
           1           1           0           0           0           0
           0           0      100000           0          -1           0
           0           0           0           0           0           0
           0           0           0           1           0           0
           0 -2000000000           1           0           0           0
           0           0           4          52           0           0
           0           0          55           0           0           0
           0           0           0           6           0           1
           0           0           0           0           0           0
           0           0           0           0           0           0
           0           0           0           0           0           0
           0           0           0           0           0           0
           0           0           0           0
Num RLSW                                   I               52
RLSW                                       R   N=          52
  1.00000000E+00  1.00000000E+00  1.00000000E+00  1.00000000E+00  5.40000000E-01
  0.00000000E+00  0.00000000E+00  1.00000000E+00  0.00000000E+00  0.00000000E+00
  0.00000000E+00  0.00000000E+00  1.00000000E+00  0.00000000E+00  0.00000000E+00
  0.00000000E+00  0.00000000E+00  1.00000000E+00  0.00000000E+00  0.00000000E+00
  0.00000000E+00  0.00000000E+00  1.00000000E+00  0.00000000E+00  0.00000000E+00
  0.00000000E+00  0.00000000E+00  1.00000000E+00  0.00000000E+00  0.00000000E+00
  0.00000000E+00  0.00000000E+00  1.00000000E+00  0.00000000E+00  0.00000000E+00
  0.00000000E+00  0.00000000E+00  0.00000000E+00  1.00000000E+00  1.00000000E+00
  0.00000000E+00  1.00000000E+00  0.00000000E+00  0.00000000E+00  0.00000000E+00
  0.00000000E+00  0.00000000E+00  0.00000000E+00  0.00000000E+00  0.00000000E+00
  0.00000000E+00  0.00000000E+00
MxBond                                     I                3
NBond                                      I   N=           6
           3           3           1           1           1           1
IBond                                      I   N=          18
           2           3           4           1           5           6
           1           0           0           1           0           0
           2           0           0           2           0           0
RBond                                      R   N=          18
  1.00000000E-01  1.00000000E+00  1.00000000E+00  1.00000000E-01  1.00000000E+00
  1.00000000E+00  1.00000000E+00  0.00000000E+00  0.00000000E+00  1.00000000E+00
  0.00000000E+00  0.00000000E+00  1.00000000E+00  0.00000000E+00  0.00000000E+00
  1.00000000E+00  0.00000000E+00  0.00000000E+00
Virial Ratio                               R      2.003998347845509E+00
SCF Energy                                 R     -7.790242794176913E+01
Total Energy                               R     -7.790242794176913E+01
S**2                                       R      7.621202677014782E-01
S**2 after annihilation                    R      7.500139715653011E-01
RMS Force                                  R      9.165006768873064E-06
RMS Density                                R      3.510779669769793E-09
Job Status                                 I                1
Nuclear derivative order                   I                1
External E-field                           R   N=          35
  0.00000000E+00  0.00000000E+00  0.00000000E+00  0.00000000E+00  0.00000000E+00
  0.00000000E+00  0.00000000E+00  0.00000000E+00  0.00000000E+00  0.00000000E+00
  0.00000000E+00  0.00000000E+00  0.00000000E+00  0.00000000E+00  0.00000000E+00
  0.00000000E+00  0.00000000E+00  0.00000000E+00  0.00000000E+00  0.00000000E+00
  0.00000000E+00  0.00000000E+00  0.00000000E+00  0.00000000E+00  0.00000000E+00
  0.00000000E+00  0.00000000E+00  0.00000000E+00  0.00000000E+00  0.00000000E+00
  0.00000000E+00  0.00000000E+00  0.00000000E+00  0.00000000E+00  0.00000000E+00
IOpCl                                      I                1
IROHF                                      I                0
Alpha Orbital Energies                     R   N=          68
 -1.08793921E+01 -1.08793919E+01 -9.93241960E-01 -9.93049065E-01 -7.39983198E-01
 -7.39860032E-01 -5.72438143E-01 -5.66283709E-01 -3.11615802E-01 -3.09933779E-01
 -1.23939187E-01 -1.06964689E-01 -8.62729514E-02 -6.75110603E-02 -6.16299839E-02
 -6.14456326E-02 -4.02563840E-02 -1.12811068E-02  6.01474890E-04  7.11648868E-03
  2.46213729E-02  4.70806063E-02  2.78006422E-01  2.81551694E-01  2.83896897E-01
  2.87538601E-01  3.88490024E-01  3.97208144E-01  4.15799009E-01  4.22453882E-01
  4.24173395E-01  4.66008464E-01  5.19322971E-01  5.24230514E-01  8.53925741E-01
  8.53925789E-01  9.49600865E-01  9.62551154E-01  9.94426657E-01  9.96480266E-01
  1.23272688E+00  1.23550398E+00  1.30796773E+00  1.31253255E+00  1.48271758E+00
  1.50011363E+00  1.58194631E+00  1.58240134E+00  1.72409870E+00  1.72409880E+00
  1.83632143E+00  1.83717254E+00  2.18529652E+00  2.20102621E+00  2.25956939E+00
  2.27352443E+00  2.28429246E+00  2.29081157E+00  2.41400459E+00  2.42275484E+00
  2.49945145E+00  2.50762544E+00  2.70949749E+00  2.72829668E+00  3.46464093E+00
  3.46808561E+00  2.35144197E+01  2.35144931E+01
Beta Orbital Energies                      R   N=          68
 -1.08717375E+01 -1.08717300E+01 -9.71681806E-01 -9.70536120E-01 -7.29792264E-01
 -7.29613706E-01 -4.53370537E-01 -3.68011068E-01 -2.94152089E-01 -2.91930948E-01
 -1.21180043E-01 -1.08559162E-01 -8.46700242E-02 -6.58163493E-02 -6.32843524E-02
 -4.35438587E-02 -4.24014207E-02 -9.79962110E-03  8.37985555E-03  1.01595523E-02
  2.60433825E-02  5.38654023E-02  2.76353316E-01  2.79777852E-01  2.81404641E-01
  2.85776706E-01  3.90489479E-01  3.99578917E-01  4.36152492E-01  4.39432771E-01
  4.46194716E-01  4.78769655E-01  5.33793971E-01  5.41263648E-01  8.68042529E-01
  8.68044285E-01  9.74097771E-01  9.88779518E-01  1.01470432E+00  1.01613748E+00
  1.24505368E+00  1.24712278E+00  1.32095221E+00  1.32527483E+00  1.49599996E+00
  1.51313563E+00  1.58772801E+00  1.58827297E+00  1.73235512E+00  1.73236444E+00
  1.84834443E+00  1.84933285E+00  2.20083279E+00  2.21304590E+00  2.27565799E+00
  2.29353112E+00  2.31668254E+00  2.32253674E+00  2.42965912E+00  2.43808905E+00
  2.51460254E+00  2.52281542E+00  2.74747076E+00  2.76601835E+00  3.49635925E+00
  3.49953896E+00  2.35201829E+01  2.35202545E+01
Alpha MO coefficients                      R   N=        4624
  4.39407089E-01  3.61457825E-01 -5.84886501E-04  1.88774503E-08  4.77553973E-13
  8.75767557E-03 -1.51149212E-03  5.13128963E-08  1.56036324E-12 -2.87227359E-03
  9.22070264E-05  2.06083829E-09 -3.09729139E-13 -3.56709376E-04  6.27032963E-04
 -1.33240260E-08  3.46765948E-14 -8.76844417E-04 -8.01729486E-13  4.72215811E-14
 -7.08962353E-04  4.19077026E-08 -3.53844829E-01 -2.91074054E-01 -4.70574611E-04
  1.51079095E-08  1.45055997E-12 -7.05212396E-03 -1.21910950E-03  4.19922324E-08
  1.20213592E-11  2.31546708E-03  7.90323442E-05  2.41710870E-09 -1.13157305E-12
  2.30678425E-04  5.29202400E-04 -1.23626053E-08 -3.20711822E-12  7.07423851E-04
  5.65595599E-12  3.71224165E-14  5.70442666E-04 -3.33521303E-08  2.39788995E-04
 -2.30888622E-03  1.78928614E-03 -8.03152955E-04 -1.27060006E-03  8.09653511E-13
  2.39788066E-04 -2.30889595E-03  1.78927851E-03 -8.03075929E-04  1.27065432E-03
  8.48898349E-13 -1.92916439E-04  1.85803486E-03 -1.42983876E-03 -6.48147577E-04
 -1.02293604E-03  5.57651331E-12 -1.92916177E-04  1.85804627E-03 -1.42983694E-03
 -6.48085848E-04  1.02298023E-03  5.54337524E-12  3.53844923E-01  2.91073864E-01
 -4.72974079E-04  1.56410155E-08  4.34966076E-13  7.05348408E-03 -1.20808245E-03
  3.81726401E-08  1.07352131E-12 -2.30130966E-03  5.18362639E-05 -1.89292068E-09
  2.23928529E-13 -5.52541274E-04  3.91139164E-04 -3.07103874E-09 -1.11989658E-12
 -6.99911427E-04 -6.86712834E-13  3.70856402E-14 -5.73110393E-04  3.56012758E-08
  4.39407164E-01  3.61457671E-01  5.86819086E-04 -1.93067859E-08 -1.80227835E-12
  8.75877053E-03  1.50261240E-03 -4.82364332E-08 -1.49369948E-11 -2.86087317E-03
 -7.03065606E-05  1.40990612E-09  1.51552134E-12 -6.15898378E-04 -5.15853916E-04
  5.84162266E-09  4.29742743E-12 -8.70794715E-04 -7.02643621E-12 -4.59449517E-14
 -7.11110108E-04  4.37191326E-08  1.93942714E-04 -1.86520506E-03  1.49261603E-03
 -6.40260875E-04 -1.02435908E-03  6.62766596E-13  1.93939686E-04 -1.86519611E-03
  1.49258963E-03 -6.40197447E-04  1.02440041E-03  6.97094365E-13  2.40615500E-04
 -2.31466005E-03  1.83983933E-03  7.96801983E-04  1.27174583E-03 -6.93722213E-12
  2.40612344E-04 -2.31465338E-03  1.83981191E-03  7.96723589E-04 -1.27179778E-03
 -6.89712366E-12 -7.93789162E-02 -1.28742706E-01 -3.41859235E-02  1.12804837E-06
  3.43200102E-11  3.63863223E-01 -4.94262782E-02  1.61764832E-06  5.05474399E-11
  2.32169042E-01 -1.96165203E-02  6.86935509E-07  9.60429663E-12  2.82254672E-03
 -2.81783193E-03  6.27821846E-08  1.42610947E-11 -5.29551186E-03 -6.40906991E-12
  8.18560099E-14 -3.43997601E-03  1.98828766E-07 -7.93638594E-02 -1.28718286E-01
  3.41794220E-02 -1.12783081E-06 -3.27147625E-10  3.63794230E-01  4.94168132E-02
 -1.61733285E-06 -4.65470238E-10  2.32124768E-01  1.96129166E-02 -6.86835079E-07
 -1.97459358E-10  2.82341388E-03  2.81653609E-03 -6.27819544E-08 -3.07025778E-11
 -5.29450782E-03 -4.23490922E-11 -8.10843131E-14 -3.43929941E-03  1.98788842E-07
  7.74966341E-02  9.26189771E-02 -5.39263286E-03  5.53771692E-03  1.32630485E-02
 -5.77203386E-12  7.74967356E-02  9.26189710E-02 -5.39252055E-03  5.53688678E-03
 -1.32633901E-02 -6.16256623E-12  7.74819170E-02  9.26014850E-02 -5.39196282E-03
 -5.53666573E-03 -1.32605443E-02  5.22912220E-11  7.74820185E-02  9.26014789E-02
 -5.39185059E-03 -5.53583575E-03  1.32608860E-02  5.18997460E-11  7.93753206E-02
  1.28734370E-01  3.43098934E-02 -1.12465847E-06 -3.49429765E-11 -3.63691522E-01
  4.99490042E-02 -1.63793993E-06 -4.78134800E-11 -2.33420442E-01  1.90181010E-02
 -5.21768367E-07 -2.00197897E-11  4.57081120E-03  6.83674165E-03 -9.27466922E-10
  6.65670934E-12  5.29263544E-03  6.53300180E-12 -8.42937763E-14  3.55675214E-03
 -2.13344341E-07 -7.93903720E-02 -1.28758781E-01  3.43163822E-02 -1.12486814E-06
 -3.27689894E-10  3.63760511E-01  4.99583859E-02 -1.63824187E-06 -4.67583519E-10
  2.33464469E-01  1.90218247E-02 -5.21897237E-07 -1.96047797E-10 -4.57027414E-03
  6.83727620E-03 -9.39343652E-10 -2.13693134E-11 -5.29363947E-03 -4.30082401E-11
 -8.33605918E-14 -3.55740248E-03  2.13382592E-07 -7.75985117E-02 -9.22336673E-02
  3.52223021E-03 -5.54812057E-03 -1.32003598E-02  5.91104250E-12 -7.75986029E-02
 -9.22337179E-02  3.52178313E-03 -5.54730689E-03  1.32007073E-02  6.29912137E-12
  7.76132086E-02  9.22512330E-02 -3.52325162E-03 -5.54917183E-03 -1.32028745E-02
  5.18704386E-11  7.76132999E-02  9.22512835E-02 -3.52280452E-03 -5.54835799E-03
  1.32032221E-02  5.14809903E-11  2.54573980E-08  4.23612607E-08  4.92253819E-06
  1.58732722E-01  2.77422258E-12 -1.00655826E-07  7.33590322E-06  2.35703626E-01
  4.00812132E-12 -4.14830425E-07  3.63783165E-06  1.18356313E-01  1.85811989E-12
  2.14062658E-07  1.45668830E-07 -2.15275052E-03 -1.21832698E-14  5.75837880E-09
 -3.79690428E-13  2.35559212E-11 -1.55685708E-06 -2.47798678E-02 -2.54455492E-08
 -4.23409641E-08  4.92042223E-06  1.58665324E-01 -2.76922781E-12  1.00591330E-07
  7.33275652E-06  2.35603613E-01 -4.00727826E-12  4.14744433E-07  3.63623538E-06
  1.18306378E-01 -1.84088688E-12 -2.14076135E-07  1.45693569E-07 -2.15205523E-03
 -7.92789148E-15 -5.75938331E-09 -3.86258332E-13 -2.14638521E-10  1.55620048E-06
  2.47693946E-02 -1.05343843E-01 -1.49670675E-01 -3.59655317E-02 -8.29301814E-03
 -7.55430622E-03  8.89089550E-12  1.05343838E-01  1.49670709E-01  3.59656300E-02
  8.29255293E-03 -7.55482450E-03 -9.09189408E-12  1.05299141E-01  1.49606819E-01
  3.59505672E-02 -8.28947104E-03 -7.55107029E-03  7.20564809E-11 -1.05299136E-01
 -1.49606853E-01 -3.59506654E-02  8.28900602E-03 -7.55158836E-03 -7.18574150E-11
 -2.36055911E-08 -4.05580410E-08 -4.98768173E-06 -1.58727906E-01 -2.77638739E-12
  1.30058834E-07 -7.41530919E-06 -2.35543948E-01 -4.00645262E-12  1.72615754E-07
 -3.76046821E-06 -1.17618328E-01 -1.86102156E-12  3.01100771E-08  5.86879069E-08
  1.63915343E-03  3.28943022E-15  1.87294630E-09  3.76105143E-13 -2.33998959E-11
  1.54653567E-06  2.46745670E-02 -2.36145751E-08 -4.05729520E-08  4.98977259E-06
  1.58795271E-01 -2.77544816E-12  1.30092289E-07  7.41842428E-06  2.35643981E-01
 -3.99557838E-12  1.72779127E-07  3.76201236E-06  1.17668566E-01 -1.88113491E-12
  3.00186951E-08 -5.86263539E-08 -1.64006725E-03  3.56570328E-14  1.87029782E-09
 -3.84272909E-13 -2.13388225E-10  1.54719648E-06  2.46850874E-02  1.05278505E-01
  1.50397954E-01  3.52692989E-02  8.35505020E-03  7.61597568E-03 -8.95063447E-12
 -1.05278461E-01 -1.50397842E-01 -3.52694304E-02 -8.35457443E-03  7.61647633E-03
  9.15416447E-12  1.05323213E-01  1.50461479E-01  3.52845733E-02 -8.35857027E-03
 -7.61917958E-03  7.26403522E-11 -1.05323169E-01 -1.50461366E-01 -3.52847048E-02
  8.35809431E-03 -7.61968045E-03 -7.24341416E-11 -3.07070662E-02 -5.17831438E-02
  1.88528950E-01 -5.97987095E-06 -1.76139102E-10  1.65140073E-01  2.83161752E-01
 -8.92441971E-06 -2.67796271E-10  1.97206220E-01  2.30530923E-01 -7.05242263E-06
 -2.10063241E-10  1.03020538E-02  9.80230185E-03 -4.61984605E-07 -2.94954331E-11
  1.22385662E-02  2.32778160E-11 -3.29060412E-13 -4.97675816E-03  3.06196102E-07
 -3.07069019E-02 -5.17828660E-02 -1.88527934E-01  5.97984005E-06  1.27915155E-09
  1.65139175E-01 -2.83160215E-01  8.92437366E-06  1.91134926E-09  1.97205197E-01
 -2.30529707E-01  7.05238595E-06  1.49685081E-09  1.03019838E-02 -9.80222914E-03
  4.61983872E-07  7.49133677E-11  1.22384992E-02  2.17061122E-10  3.20559903E-13
 -4.97673203E-03  3.06194468E-07 -4.73099800E-02 -7.64181098E-02 -2.65710520E-02
  7.81478806E-03 -9.04958412E-03 -6.80239304E-12 -4.73100251E-02 -7.64185845E-02
 -2.65707612E-02  7.81532260E-03  9.04912765E-03 -6.47500005E-12 -4.73097324E-02
 -7.64177144E-02 -2.65709070E-02 -7.81474236E-03  9.04953733E-03  4.61388367E-11
 -4.73097775E-02 -7.64181891E-02 -2.65706162E-02 -7.81527689E-03 -9.04908086E-03
  4.64648205E-11 -3.19722781E-02 -5.39787359E-02  1.91464604E-01 -5.93792571E-06
 -1.85094333E-10  1.73538913E-01  2.89078552E-01 -9.01009228E-06 -2.74702594E-10
  1.99812988E-01  2.29759529E-01 -7.23576587E-06 -2.44492319E-10  1.54541809E-02
  1.51718556E-02 -1.66319156E-07  4.06098888E-12  1.30701659E-02  2.34657752E-11
 -3.46788810E-13 -5.55879488E-03  3.34796774E-07  3.19724433E-02  5.39790141E-02
  1.91465586E-01 -5.93795735E-06 -1.32211334E-09 -1.73539796E-01  2.89080023E-01
 -9.01014022E-06 -1.98071587E-09 -1.99814053E-01  2.29760735E-01 -7.23580418E-06
 -1.56570816E-09 -1.54542422E-02  1.51719126E-02 -1.66321865E-07 -8.06470164E-11
 -1.30702318E-02 -2.23036699E-10 -3.37777069E-13  5.55882422E-03 -3.34798465E-07
 -4.76316935E-02 -7.61780776E-02 -2.89353804E-02  8.40431315E-03 -8.95548871E-03
 -6.89197429E-12 -4.76315989E-02 -7.61775668E-02 -2.89358996E-02  8.40490586E-03
  8.95493102E-03 -6.56706243E-12  4.76319452E-02  7.61784855E-02  2.89355253E-02
  8.40435261E-03 -8.95553671E-03 -5.01537885E-11  4.76318506E-02  7.61779747E-02
  2.89360445E-02  8.40494532E-03  8.95497902E-03 -5.04780085E-11 -1.39398968E-11
 -2.46240109E-11  2.27637895E-10 -3.17183489E-12  1.84119279E-01  1.01434868E-10
  3.79326751E-10 -5.84150807E-12  2.95119805E-01  1.15402416E-11  3.12922769E-10
 -8.60093657E-12  3.16007988E-01  1.73941431E-10  2.21360112E-10 -3.22445768E-12
  7.08337360E-02  2.29352872E-11 -8.85513924E-03  2.88417143E-07 -1.37318824E-11
  6.90657389E-13 -5.84691414E-11 -9.37322505E-11  1.35966620E-09  3.11923901E-12
  1.84115458E-01  2.58953495E-10  2.21242223E-09  5.76778528E-12  2.95113661E-01
  4.65266344E-10  2.29019696E-09  8.49661214E-12  3.16001480E-01 -2.61370830E-10
  6.44739416E-10  3.19729619E-12  7.08322169E-02 -1.46021429E-10  8.85494975E-03
 -2.88410946E-07  7.42287292E-11  6.89072364E-13 -6.21174111E-12  5.58408325E-12
 -5.78883429E-11  2.28002247E-11  6.66416874E-13  1.61676098E-02 -5.94577295E-12
  7.89636859E-12 -5.05036306E-11  2.33198722E-11 -1.98398724E-12  1.61676211E-02
 -7.27466542E-11 -1.30186429E-10  2.08123034E-11  1.29589222E-10  1.32652495E-11
  1.61672719E-02 -7.24847230E-11 -1.27855560E-10  2.81411699E-11  1.29064284E-10
 -1.19511872E-11  1.61672833E-02 -1.34250029E-11 -2.27940672E-11 -1.39599496E-10
  3.16639832E-12 -1.85796057E-01  7.84553708E-11 -2.15561353E-10  5.98787167E-12
 -2.98579163E-01  8.05809289E-11 -3.08324410E-10  8.71929190E-12 -3.16937484E-01
  2.06393228E-10  5.55472325E-11  2.08256473E-12 -7.48192798E-02 -6.16785332E-12
  9.32814606E-03 -2.90672996E-07  4.27235390E-12 -7.47977613E-13 -6.37700420E-11
 -1.02782785E-10  1.35059536E-09  3.11538058E-12  1.85799834E-01  2.88689265E-10
  2.19711125E-09  5.89029022E-12  2.98585216E-01  5.17471191E-10  2.31157093E-09