 Entering Gaussian System, Link 0=g16
 Initial command:
 /home/szhao/Apps/g16/l1.exe "/home/szhao/tmp/Gau-43455.inp" -scrdir="/home/szhao/tmp/"
 Default is to use a total of  16 processors:
                               16 via shared-memory
                                1 via Linda
 Entering Link 1 = /home/szhao/Apps/g16/l1.exe PID=     43458.
  
 Copyright (c) 1988,1990,1992,1993,1995,1998,2003,2009,2016,
            Gaussian, Inc.  All Rights Reserved.
  
 This is part of the Gaussian(R) 16 program.  It is based on
 the Gaussian(R) 09 system (copyright 2009, Gaussian, Inc.),
 the Gaussian(R) 03 system (copyright 2003, Gaussian, Inc.),
 the Gaussian(R) 98 system (copyright 1998, Gaussian, Inc.),
 the Gaussian(R) 94 system (copyright 1995, Gaussian, Inc.),
 the Gaussian 92(TM) system (copyright 1992, Gaussian, Inc.),
 the Gaussian 90(TM) system (copyright 1990, Gaussian, Inc.),
 the Gaussian 88(TM) system (copyright 1988, Gaussian, Inc.),
 the Gaussian 86(TM) system (copyright 1986, Carnegie Mellon
 University), and the Gaussian 82(TM) system (copyright 1983,
 Carnegie Mellon University). Gaussian is a federally registered
 trademark of Gaussian, Inc.
  
 This software contains proprietary and confidential information,
 including trade secrets, belonging to Gaussian, Inc.
  
 This software is provided under written license and may be
 used, copied, transmitted, or stored only in accord with that
 written license.
  
 The following legend is applicable only to US Government
 contracts under FAR:
  
                    RESTRICTED RIGHTS LEGEND
  
 Use, reproduction and disclosure by the US Government is
 subject to restrictions as set forth in subparagraphs (a)
 and (c) of the Commercial Computer Software - Restricted
 Rights clause in FAR 52.227-19.
  
 Gaussian, Inc.
 340 Quinnipiac St., Bldg. 40, Wallingford CT 06492
  
  
 ---------------------------------------------------------------
 Warning -- This program may not be used in any manner that
 competes with the business of Gaussian, Inc. or will provide
 assistance to any competitor of Gaussian, Inc.  The licensee
 of this program is prohibited from giving any competitor of
 Gaussian, Inc. access to this program.  By using this program,
 the user acknowledges that Gaussian, Inc. is engaged in the
 business of creating and licensing software in the field of
 computational chemistry and represents and warrants to the
 licensee that it is not a competitor of Gaussian, Inc. and that
 it will not use this program in any manner prohibited above.
 ---------------------------------------------------------------
  

 Cite this work as:
 Gaussian 16, Revision A.03,
 M. J. Frisch, G. W. Trucks, H. B. Schlegel, G. E. Scuseria, 
 M. A. Robb, J. R. Cheeseman, G. Scalmani, V. Barone, 
 G. A. Petersson, H. Nakatsuji, X. Li, M. Caricato, A. V. Marenich, 
 J. Bloino, B. G. Janesko, R. Gomperts, B. Mennucci, H. P. Hratchian, 
 J. V. Ortiz, A. F. Izmaylov, J. L. Sonnenberg, D. Williams-Young, 
 F. Ding, F. Lipparini, F. Egidi, J. Goings, B. Peng, A. Petrone, 
 T. Henderson, D. Ranasinghe, V. G. Zakrzewski, J. Gao, N. Rega, 
 G. Zheng, W. Liang, M. Hada, M. Ehara, K. Toyota, R. Fukuda, 
 J. Hasegawa, M. Ishida, T. Nakajima, Y. Honda, O. Kitao, H. Nakai, 
 T. Vreven, K. Throssell, J. A. Montgomery, Jr., J. E. Peralta, 
 F. Ogliaro, M. J. Bearpark, J. J. Heyd, E. N. Brothers, K. N. Kudin, 
 V. N. Staroverov, T. A. Keith, R. Kobayashi, J. Normand, 
 K. Raghavachari, A. P. Rendell, J. C. Burant, S. S. Iyengar, 
 J. Tomasi, M. Cossi, J. M. Millam, M. Klene, C. Adamo, R. Cammi, 
 J. W. Ochterski, R. L. Martin, K. Morokuma, O. Farkas, 
 J. B. Foresman, and D. J. Fox, Gaussian, Inc., Wallingford CT, 2016.
 
 ******************************************
 Gaussian 16:  ES64L-G16RevA.03 25-Dec-2016
                16-Apr-2025 
 ******************************************
 %oldchk=force.chk
 %chk=nbo.chk
 Copying data from "force.chk" to current chk file "nbo.chk"
 IOpt=  2 FromEx=T IUOpen= 4 IOptOp= 5 NList=   0 IFRang= 0 IUIn= 4 IUOut= 2.
 --------------------------------
 #p UM062X/6-311+G** Pop=NBO Read
 --------------------------------
 1/38=1,172=1/1;
 2/12=2,17=6,18=5,40=1/2;
 3/5=11,6=8,7=111,11=2,25=1,30=1,74=-55,116=2/1,2,3;
 4//1;
 5/5=2,38=5/2;
 6/7=2,8=2,9=2,10=2,28=1,40=1/1,7;
 99/5=1,9=1/99;
 Leave Link    1 at Wed Apr 16 05:50:20 2025, MaxMem=  8053063680 cpu:               0.6 elap:               0.1
 (Enter /home/szhao/Apps/g16/l101.exe)
 ------------
 NBO Analysis
 ------------
 Symbolic Z-matrix:
 Charge =  1 Multiplicity = 2
 Si                   -1.10297   0.        0. 
 Si                    1.10297   0.        0. 
 H                    -1.6744   -1.37463   0. 
 H                     2.08931   1.10449   0. 
 
 ITRead=  0  0  0  0
 MicOpt= -1 -1 -1 -1
 NAtoms=      4 NQM=        4 NQMF=       0 NMMI=      0 NMMIF=      0
                NMic=       0 NMicF=      0.
                    Isotopes and Nuclear Properties:
 (Nuclear quadrupole moments (NQMom) in fm**2, nuclear magnetic moments (NMagM)
  in nuclear magnetons)

  Atom         1           2           3           4
 IAtWgt=          28          28           1           1
 AtmWgt=  27.9769284  27.9769284   1.0078250   1.0078250
 NucSpn=           0           0           1           1
 AtZEff=  -0.0000000  -0.0000000  -0.0000000  -0.0000000
 NQMom=    0.0000000   0.0000000   0.0000000   0.0000000
 NMagM=    0.0000000   0.0000000   2.7928460   2.7928460
 AtZNuc=  14.0000000  14.0000000   1.0000000   1.0000000
 Leave Link  101 at Wed Apr 16 05:50:20 2025, MaxMem=  8053063680 cpu:               2.8 elap:               0.4
 (Enter /home/szhao/Apps/g16/l202.exe)
                          Input orientation:                          
 ---------------------------------------------------------------------
 Center     Atomic      Atomic             Coordinates (Angstroms)
 Number     Number       Type             X           Y           Z
 ---------------------------------------------------------------------
      1         14           0       -1.102975    0.000000    0.000000
      2         14           0        1.102975    0.000000    0.000000
      3          1           0       -1.674400   -1.374629    0.000000
      4          1           0        2.089306    1.104488    0.000000
 ---------------------------------------------------------------------
                    Distance matrix (angstroms):
                    1          2          3          4
     1  Si   0.000000
     2  Si   2.205949   0.000000
     3  H    1.488667   3.098937   0.000000
     4  H    3.377950   1.480791   4.506828   0.000000
 Stoichiometry    H2Si2(1+,2)
 Framework group  CS[SG(H2Si2)]
 Deg. of freedom     5
 Full point group                 CS      NOp   2
 Largest Abelian subgroup         CS      NOp   2
 Largest concise Abelian subgroup C1      NOp   1
                         Standard orientation:                         
 ---------------------------------------------------------------------
 Center     Atomic      Atomic             Coordinates (Angstroms)
 Number     Number       Type             X           Y           Z
 ---------------------------------------------------------------------
      1         14           0        0.009005   -1.116805    0.000000
      2         14           0        0.009005    1.089144    0.000000
      3          1           0       -1.365624   -1.688230   -0.000000
      4          1           0        1.113493    2.075476    0.000000
 ---------------------------------------------------------------------
 Rotational constants (GHZ):         178.2967999           6.6857221           6.4440837
 Leave Link  202 at Wed Apr 16 05:50:20 2025, MaxMem=  8053063680 cpu:               0.0 elap:               0.0
 (Enter /home/szhao/Apps/g16/l301.exe)
 Standard basis: CBSB2** (6D, 7F)
 Ernie: Thresh=  0.10000D-02 Tol=  0.10000D-05 Strict=F.
 There are    42 symmetry adapted cartesian basis functions of A'  symmetry.
 There are    14 symmetry adapted cartesian basis functions of A"  symmetry.
 There are    42 symmetry adapted basis functions of A'  symmetry.
 There are    14 symmetry adapted basis functions of A"  symmetry.
    56 basis functions,   126 primitive gaussians,    56 cartesian basis functions
    15 alpha electrons       14 beta electrons
       nuclear repulsion energy        61.6986337661 Hartrees.
 IExCor= 4336 DFT=T Ex+Corr=M062X ExCW=0 ScaHFX=  0.540000
 ScaDFX=  1.000000  1.000000  1.000000  1.000000 ScalE2=  1.000000  1.000000
 IRadAn=      5 IRanWt=     -1 IRanGd=            0 ICorTp=0 IEmpDi=  4
 NAtoms=    4 NActive=    4 NUniq=    4 SFac= 1.00D+00 NAtFMM=   60 NAOKFM=F Big=F
 Integral buffers will be    131072 words long.
 Raffenetti 2 integral format.
 Two-electron integral symmetry is turned on.
 Leave Link  301 at Wed Apr 16 05:50:20 2025, MaxMem=  8053063680 cpu:               0.6 elap:               0.1
 (Enter /home/szhao/Apps/g16/l302.exe)
 NPDir=0 NMtPBC=     1 NCelOv=     1 NCel=       1 NClECP=     1 NCelD=      1
         NCelK=      1 NCelE2=     1 NClLst=     1 CellRange=     0.0.
 One-electron integrals computed using PRISM.
 One-electron integral symmetry used in STVInt
 NBasis=    56 RedAO= T EigKep=  1.03D-03  NBF=    42    14
 NBsUse=    56 1.00D-06 EigRej= -1.00D+00 NBFU=    42    14
 Precomputing XC quadrature grid using
 IXCGrd= 4 IRadAn=           5 IRanWt=          -1 IRanGd=           0 AccXCQ= 0.00D+00.
 Generated NRdTot=       0 NPtTot=           0 NUsed=           0 NTot=          32
 NSgBfM=    55    55    55    55    55 MxSgAt=     4 MxSgA2=     4.
 Leave Link  302 at Wed Apr 16 05:50:21 2025, MaxMem=  8053063680 cpu:               2.9 elap:               0.4
 (Enter /home/szhao/Apps/g16/l303.exe)
 DipDrv:  MaxL=1.
 Leave Link  303 at Wed Apr 16 05:50:21 2025, MaxMem=  8053063680 cpu:               0.5 elap:               0.1
 (Enter /home/szhao/Apps/g16/l401.exe)
 ExpMin= 3.31D-02 ExpMax= 1.61D+04 ExpMxC= 2.43D+03 IAcc=3 IRadAn=         5 AccDes= 0.00D+00
 Harris functional with IExCor= 1009 and IRadAn=       5 diagonalized for initial guess.
 HarFok:  IExCor= 1009 AccDes= 0.00D+00 IRadAn=         5 IDoV= 1 UseB2=F ITyADJ=14
 ICtDFT=  3500011 ScaDFX=  1.000000  1.000000  1.000000  1.000000
 FoFCou: FMM=F IPFlag=           0 FMFlag=      100000 FMFlg1=           0
         NFxFlg=           0 DoJE=T BraDBF=F KetDBF=T FulRan=T
         wScrn=  0.000000 ICntrl=       500 IOpCl=  0 I1Cent=   200000004 NGrid=           0
         NMat0=    1 NMatS0=      1 NMatT0=    0 NMatD0=    1 NMtDS0=    0 NMtDT0=    0
 Petite list used in FoFCou.
 Harris En= -579.460213670631    
 JPrj=0 DoOrth=F DoCkMO=F.
 Initial guess orbital symmetries:
 Alpha Orbitals:
       Occupied  (A') (A') (A') (A') (A') (A') (A') (A') (A") (A")
                 (A') (A') (A') (A') (A")
       Virtual   (A') (A") (A') (A') (A') (A') (A') (A") (A') (A')
                 (A") (A') (A') (A') (A') (A') (A") (A') (A') (A")
                 (A") (A') (A') (A") (A") (A') (A') (A') (A') (A")
                 (A') (A') (A') (A") (A") (A') (A') (A') (A') (A')
                 (A')
 Beta  Orbitals:
       Occupied  (A') (A') (A') (A') (A') (A') (A') (A') (A") (A")
                 (A') (A') (A') (A')
       Virtual   (A") (A') (A") (A') (A') (A') (A') (A') (A") (A')
                 (A') (A") (A') (A') (A') (A') (A') (A") (A') (A')
                 (A") (A") (A') (A') (A") (A") (A') (A') (A') (A')
                 (A") (A') (A') (A') (A") (A") (A') (A') (A') (A')
                 (A') (A')
 The electronic state of the initial guess is 2-A".
 Initial guess <Sx>= 0.0000 <Sy>= 0.0000 <Sz>= 0.5000 <S**2>= 0.7500 S= 0.5000
 Leave Link  401 at Wed Apr 16 05:50:21 2025, MaxMem=  8053063680 cpu:               4.7 elap:               0.6
 (Enter /home/szhao/Apps/g16/l502.exe)
 Keep R1 and R2 ints in memory in symmetry-blocked form, NReq=15452508.
 FoFCou: FMM=F IPFlag=           0 FMFlag=           0 FMFlg1=           0
         NFxFlg=           0 DoJE=F BraDBF=F KetDBF=F FulRan=T
         wScrn=  0.000000 ICntrl=       600 IOpCl=  0 I1Cent=           0 NGrid=           0
         NMat0=    1 NMatS0=   1596 NMatT0=    0 NMatD0=    1 NMtDS0=    0 NMtDT0=    0
 Petite list used in FoFCou.
 UHF open shell SCF:
 Using DIIS extrapolation, IDIIS=  1040.
 NGot=  8053063680 LenX=  8051688364 LenY=  8051684787
 Requested convergence on RMS density matrix=1.00D-08 within 128 cycles.
 Requested convergence on MAX density matrix=1.00D-06.
 Requested convergence on             energy=1.00D-06.
 No special actions if energy rises.

 Cycle   1  Pass 1  IDiag  1:
 E= -579.646070135516    
 DIIS: error= 2.64D-02 at cycle   1 NSaved=   1.
 NSaved= 1 IEnMin= 1 EnMin= -579.646070135516     IErMin= 1 ErrMin= 2.64D-02
 ErrMax= 2.64D-02  0.00D+00 EMaxC= 1.00D-01 BMatC= 1.31D-01 BMatP= 1.31D-01
 IDIUse=3 WtCom= 7.36D-01 WtEn= 2.64D-01
 Coeff-Com:  0.100D+01
 Coeff-En:   0.100D+01
 Coeff:      0.100D+01
 Gap=     0.162 Goal=   None    Shift=    0.000
 Gap=     0.175 Goal=   None    Shift=    0.000
 GapD=    0.162 DampG=1.000 DampE=0.500 DampFc=0.5000 IDamp=-1.
 Damping current iteration by 5.00D-01
 RMSDP=8.76D-03 MaxDP=1.77D-01              OVMax= 1.33D-01

 Cycle   2  Pass 1  IDiag  1:
 E= -579.665319639937     Delta-E=       -0.019249504422 Rises=F Damp=T
 DIIS: error= 1.05D-02 at cycle   2 NSaved=   2.
 NSaved= 2 IEnMin= 2 EnMin= -579.665319639937     IErMin= 2 ErrMin= 1.05D-02
 ErrMax= 1.05D-02  0.00D+00 EMaxC= 1.00D-01 BMatC= 2.03D-02 BMatP= 1.31D-01
 IDIUse=3 WtCom= 8.95D-01 WtEn= 1.05D-01
 Coeff-Com: -0.495D+00 0.149D+01
 Coeff-En:   0.000D+00 0.100D+01
 Coeff:     -0.443D+00 0.144D+01
 Gap=     0.162 Goal=   None    Shift=    0.000
 Gap=     0.189 Goal=   None    Shift=    0.000
 RMSDP=2.72D-03 MaxDP=4.00D-02 DE=-1.92D-02 OVMax= 9.74D-02

 Cycle   3  Pass 1  IDiag  1:
 E= -579.679470759032     Delta-E=       -0.014151119094 Rises=F Damp=F
 DIIS: error= 7.96D-03 at cycle   3 NSaved=   3.
 NSaved= 3 IEnMin= 3 EnMin= -579.679470759032     IErMin= 3 ErrMin= 7.96D-03
 ErrMax= 7.96D-03  0.00D+00 EMaxC= 1.00D-01 BMatC= 7.04D-03 BMatP= 2.03D-02
 IDIUse=3 WtCom= 9.20D-01 WtEn= 7.96D-02
 Coeff-Com: -0.301D+00 0.794D+00 0.507D+00
 Coeff-En:   0.000D+00 0.000D+00 0.100D+01
 Coeff:     -0.277D+00 0.731D+00 0.546D+00
 Gap=     0.164 Goal=   None    Shift=    0.000
 Gap=     0.182 Goal=   None    Shift=    0.000
 RMSDP=1.77D-03 MaxDP=3.42D-02 DE=-1.42D-02 OVMax= 5.65D-02

 Cycle   4  Pass 1  IDiag  1:
 E= -579.682872407010     Delta-E=       -0.003401647978 Rises=F Damp=F
 DIIS: error= 3.07D-03 at cycle   4 NSaved=   4.
 NSaved= 4 IEnMin= 4 EnMin= -579.682872407010     IErMin= 4 ErrMin= 3.07D-03
 ErrMax= 3.07D-03  0.00D+00 EMaxC= 1.00D-01 BMatC= 8.36D-04 BMatP= 7.04D-03
 IDIUse=3 WtCom= 9.69D-01 WtEn= 3.07D-02
 Coeff-Com: -0.592D-01 0.132D+00 0.275D+00 0.652D+00
 Coeff-En:   0.000D+00 0.000D+00 0.777D-01 0.922D+00
 Coeff:     -0.574D-01 0.128D+00 0.269D+00 0.660D+00
 Gap=     0.166 Goal=   None    Shift=    0.000
 Gap=     0.181 Goal=   None    Shift=    0.000
 RMSDP=5.07D-04 MaxDP=1.10D-02 DE=-3.40D-03 OVMax= 1.91D-02

 Cycle   5  Pass 1  IDiag  1:
 E= -579.683333803933     Delta-E=       -0.000461396923 Rises=F Damp=F
 DIIS: error= 3.89D-04 at cycle   5 NSaved=   5.
 NSaved= 5 IEnMin= 5 EnMin= -579.683333803933     IErMin= 5 ErrMin= 3.89D-04
 ErrMax= 3.89D-04  0.00D+00 EMaxC= 1.00D-01 BMatC= 1.74D-05 BMatP= 8.36D-04
 IDIUse=3 WtCom= 9.96D-01 WtEn= 3.89D-03
 Coeff-Com:  0.198D-01-0.536D-01-0.372D-01 0.392D-01 0.103D+01
 Coeff-En:   0.000D+00 0.000D+00 0.000D+00 0.000D+00 0.100D+01
 Coeff:      0.197D-01-0.534D-01-0.371D-01 0.391D-01 0.103D+01
 Gap=     0.167 Goal=   None    Shift=    0.000
 Gap=     0.182 Goal=   None    Shift=    0.000
 RMSDP=1.33D-04 MaxDP=3.46D-03 DE=-4.61D-04 OVMax= 5.03D-03

 Cycle   6  Pass 1  IDiag  1:
 E= -579.683362235319     Delta-E=       -0.000028431386 Rises=F Damp=F
 DIIS: error= 3.10D-04 at cycle   6 NSaved=   6.
 NSaved= 6 IEnMin= 6 EnMin= -579.683362235319     IErMin= 6 ErrMin= 3.10D-04
 ErrMax= 3.10D-04  0.00D+00 EMaxC= 1.00D-01 BMatC= 4.15D-06 BMatP= 1.74D-05
 IDIUse=3 WtCom= 9.97D-01 WtEn= 3.10D-03
 Coeff-Com: -0.113D-02 0.504D-02-0.171D-01-0.761D-01-0.218D+00 0.131D+01
 Coeff-En:   0.000D+00 0.000D+00 0.000D+00 0.000D+00 0.000D+00 0.100D+01
 Coeff:     -0.113D-02 0.503D-02-0.171D-01-0.759D-01-0.218D+00 0.131D+01
 Gap=     0.167 Goal=   None    Shift=    0.000
 Gap=     0.182 Goal=   None    Shift=    0.000
 RMSDP=1.20D-04 MaxDP=2.16D-03 DE=-2.84D-05 OVMax= 5.92D-03

 Cycle   7  Pass 1  IDiag  1:
 E= -579.683380017811     Delta-E=       -0.000017782493 Rises=F Damp=F
 DIIS: error= 2.73D-04 at cycle   7 NSaved=   7.
 NSaved= 7 IEnMin= 7 EnMin= -579.683380017811     IErMin= 7 ErrMin= 2.73D-04
 ErrMax= 2.73D-04  0.00D+00 EMaxC= 1.00D-01 BMatC= 2.61D-06 BMatP= 4.15D-06
 IDIUse=3 WtCom= 9.97D-01 WtEn= 2.73D-03
 Coeff-Com: -0.185D-02 0.367D-02 0.160D-01 0.429D-01 0.789D-02-0.861D+00
 Coeff-Com:  0.179D+01
 Coeff-En:   0.000D+00 0.000D+00 0.000D+00 0.000D+00 0.000D+00 0.000D+00
 Coeff-En:   0.100D+01
 Coeff:     -0.185D-02 0.366D-02 0.160D-01 0.427D-01 0.787D-02-0.858D+00
 Coeff:      0.179D+01
 Gap=     0.167 Goal=   None    Shift=    0.000
 Gap=     0.182 Goal=   None    Shift=    0.000
 RMSDP=1.51D-04 MaxDP=2.28D-03 DE=-1.78D-05 OVMax= 7.61D-03

 Cycle   8  Pass 1  IDiag  1:
 E= -579.683399682971     Delta-E=       -0.000019665160 Rises=F Damp=F
 DIIS: error= 2.44D-04 at cycle   8 NSaved=   8.
 NSaved= 8 IEnMin= 8 EnMin= -579.683399682971     IErMin= 8 ErrMin= 2.44D-04
 ErrMax= 2.44D-04  0.00D+00 EMaxC= 1.00D-01 BMatC= 2.24D-06 BMatP= 2.61D-06
 IDIUse=3 WtCom= 9.98D-01 WtEn= 2.44D-03
 Coeff-Com:  0.258D-02-0.598D-02-0.716D-02-0.810D-02 0.700D-01 0.255D+00
 Coeff-Com: -0.134D+01 0.203D+01
 Coeff-En:   0.000D+00 0.000D+00 0.000D+00 0.000D+00 0.000D+00 0.000D+00
 Coeff-En:   0.000D+00 0.100D+01
 Coeff:      0.257D-02-0.596D-02-0.714D-02-0.808D-02 0.698D-01 0.254D+00
 Coeff:     -0.134D+01 0.203D+01
 Gap=     0.167 Goal=   None    Shift=    0.000
 Gap=     0.182 Goal=   None    Shift=    0.000
 RMSDP=1.86D-04 MaxDP=2.74D-03 DE=-1.97D-05 OVMax= 9.17D-03

 Cycle   9  Pass 1  IDiag  1:
 E= -579.683422717201     Delta-E=       -0.000023034230 Rises=F Damp=F
 DIIS: error= 2.30D-04 at cycle   9 NSaved=   9.
 NSaved= 9 IEnMin= 9 EnMin= -579.683422717201     IErMin= 9 ErrMin= 2.30D-04
 ErrMax= 2.30D-04  0.00D+00 EMaxC= 1.00D-01 BMatC= 2.04D-06 BMatP= 2.24D-06
 IDIUse=3 WtCom= 9.98D-01 WtEn= 2.30D-03
 Coeff-Com: -0.340D-02 0.904D-02-0.785D-02-0.511D-01-0.123D+00 0.761D+00
 Coeff-Com:  0.212D+00-0.532D+01 0.553D+01
 Coeff-En:   0.000D+00 0.000D+00 0.000D+00 0.000D+00 0.000D+00 0.000D+00
 Coeff-En:   0.000D+00 0.000D+00 0.100D+01
 Coeff:     -0.339D-02 0.902D-02-0.783D-02-0.509D-01-0.123D+00 0.759D+00
 Coeff:      0.211D+00-0.531D+01 0.552D+01
 Gap=     0.167 Goal=   None    Shift=    0.000
 Gap=     0.183 Goal=   None    Shift=    0.000
 RMSDP=7.34D-04 MaxDP=1.02D-02 DE=-2.30D-05 OVMax= 3.53D-02

 Cycle  10  Pass 1  IDiag  1:
 E= -579.683502481147     Delta-E=       -0.000079763946 Rises=F Damp=F
 DIIS: error= 2.03D-04 at cycle  10 NSaved=  10.
 NSaved=10 IEnMin=10 EnMin= -579.683502481147     IErMin=10 ErrMin= 2.03D-04
 ErrMax= 2.03D-04  0.00D+00 EMaxC= 1.00D-01 BMatC= 1.58D-06 BMatP= 2.04D-06
 IDIUse=3 WtCom= 9.98D-01 WtEn= 2.03D-03
 Coeff-Com: -0.243D-02 0.663D-02 0.485D-02-0.787D-02 0.177D-01-0.114D+00
 Coeff-Com:  0.447D+00-0.431D+00-0.634D+00 0.171D+01
 Coeff-En:   0.000D+00 0.000D+00 0.000D+00 0.000D+00 0.000D+00 0.000D+00
 Coeff-En:   0.000D+00 0.000D+00 0.000D+00 0.100D+01
 Coeff:     -0.242D-02 0.662D-02 0.484D-02-0.786D-02 0.176D-01-0.114D+00
 Coeff:      0.446D+00-0.430D+00-0.633D+00 0.171D+01
 Gap=     0.167 Goal=   None    Shift=    0.000
 Gap=     0.183 Goal=   None    Shift=    0.000
 RMSDP=5.35D-04 MaxDP=7.35D-03 DE=-7.98D-05 OVMax= 2.55D-02

 Cycle  11  Pass 1  IDiag  1:
 E= -579.683548351775     Delta-E=       -0.000045870628 Rises=F Damp=F
 DIIS: error= 1.56D-04 at cycle  11 NSaved=  11.
 NSaved=11 IEnMin=11 EnMin= -579.683548351775     IErMin=11 ErrMin= 1.56D-04
 ErrMax= 1.56D-04  0.00D+00 EMaxC= 1.00D-01 BMatC= 1.09D-06 BMatP= 1.58D-06
 IDIUse=3 WtCom= 9.98D-01 WtEn= 1.56D-03
 Coeff-Com: -0.133D-03 0.971D-03-0.886D-02-0.265D-01-0.769D-01 0.762D+00
 Coeff-Com: -0.110D+01-0.104D+01 0.290D+01-0.480D+01 0.440D+01
 Coeff-En:   0.000D+00 0.000D+00 0.000D+00 0.000D+00 0.000D+00 0.000D+00
 Coeff-En:   0.000D+00 0.000D+00 0.000D+00 0.000D+00 0.100D+01
 Coeff:     -0.132D-03 0.969D-03-0.885D-02-0.264D-01-0.768D-01 0.761D+00
 Coeff:     -0.110D+01-0.104D+01 0.289D+01-0.480D+01 0.439D+01
 Gap=     0.167 Goal=   None    Shift=    0.000
 Gap=     0.184 Goal=   None    Shift=    0.000
 RMSDP=1.07D-03 MaxDP=1.51D-02 DE=-4.59D-05 OVMax= 5.04D-02

 Cycle  12  Pass 1  IDiag  1:
 E= -579.683598424059     Delta-E=       -0.000050072283 Rises=F Damp=F
 DIIS: error= 7.61D-05 at cycle  12 NSaved=  12.
 NSaved=12 IEnMin=12 EnMin= -579.683598424059     IErMin=12 ErrMin= 7.61D-05
 ErrMax= 7.61D-05  0.00D+00 EMaxC= 1.00D-01 BMatC= 7.19D-07 BMatP= 1.09D-06
 IDIUse=1 WtCom= 1.00D+00 WtEn= 0.00D+00
 Coeff-Com: -0.126D-03 0.100D-02-0.662D-02-0.260D-01-0.282D-01 0.529D+00
 Coeff-Com: -0.511D+00-0.194D+01 0.340D+01-0.283D+01 0.160D+01 0.819D+00
 Coeff:     -0.126D-03 0.100D-02-0.662D-02-0.260D-01-0.282D-01 0.529D+00
 Coeff:     -0.511D+00-0.194D+01 0.340D+01-0.283D+01 0.160D+01 0.819D+00
 Gap=     0.167 Goal=   None    Shift=    0.000
 Gap=     0.184 Goal=   None    Shift=    0.000
 RMSDP=1.26D-04 MaxDP=1.82D-03 DE=-5.01D-05 OVMax= 5.60D-03

 Cycle  13  Pass 1  IDiag  1:
 E= -579.683596431042     Delta-E=        0.000001993016 Rises=F Damp=F
 DIIS: error= 6.69D-05 at cycle  13 NSaved=  13.
 NSaved=13 IEnMin=12 EnMin= -579.683598424059     IErMin=13 ErrMin= 6.69D-05
 ErrMax= 6.69D-05  0.00D+00 EMaxC= 1.00D-01 BMatC= 2.63D-07 BMatP= 7.19D-07
 IDIUse=1 WtCom= 1.00D+00 WtEn= 0.00D+00
 Coeff-Com: -0.917D-03 0.186D-02 0.235D-02 0.750D-02-0.452D-01-0.585D-01
 Coeff-Com:  0.219D+00 0.103D+00-0.914D+00 0.354D+00 0.302D+00-0.118D-01
 Coeff-Com:  0.104D+01
 Coeff:     -0.917D-03 0.186D-02 0.235D-02 0.750D-02-0.452D-01-0.585D-01
 Coeff:      0.219D+00 0.103D+00-0.914D+00 0.354D+00 0.302D+00-0.118D-01
 Coeff:      0.104D+01
 Gap=     0.168 Goal=   None    Shift=    0.000
 Gap=     0.186 Goal=   None    Shift=    0.000
 RMSDP=6.26D-04 MaxDP=9.07D-03 DE= 1.99D-06 OVMax= 2.91D-02

 Cycle  14  Pass 1  IDiag  1:
 E= -579.683595194416     Delta-E=        0.000001236627 Rises=F Damp=F
 DIIS: error= 1.57D-04 at cycle  14 NSaved=  14.
 NSaved=14 IEnMin=12 EnMin= -579.683598424059     IErMin=13 ErrMin= 6.69D-05
 ErrMax= 1.57D-04  0.00D+00 EMaxC= 1.00D-01 BMatC= 3.19D-06 BMatP= 2.63D-07
 IDIUse=1 WtCom= 1.00D+00 WtEn= 0.00D+00
 Coeff-Com: -0.392D-03 0.719D-03 0.271D-02 0.802D-02-0.731D-02-0.144D+00
 Coeff-Com:  0.228D+00 0.483D+00-0.115D+01 0.709D+00-0.153D+00-0.527D+00
 Coeff-Com:  0.118D+01 0.374D+00
 Coeff:     -0.392D-03 0.719D-03 0.271D-02 0.802D-02-0.731D-02-0.144D+00
 Coeff:      0.228D+00 0.483D+00-0.115D+01 0.709D+00-0.153D+00-0.527D+00
 Coeff:      0.118D+01 0.374D+00
 Gap=     0.168 Goal=   None    Shift=    0.000
 Gap=     0.185 Goal=   None    Shift=    0.000
 RMSDP=1.90D-04 MaxDP=2.79D-03 DE= 1.24D-06 OVMax= 8.69D-03

 Cycle  15  Pass 1  IDiag  1:
 E= -579.683599894412     Delta-E=       -0.000004699996 Rises=F Damp=F
 DIIS: error= 6.40D-05 at cycle  15 NSaved=  15.
 NSaved=15 IEnMin=15 EnMin= -579.683599894412     IErMin=15 ErrMin= 6.40D-05
 ErrMax= 6.40D-05  0.00D+00 EMaxC= 1.00D-01 BMatC= 5.37D-07 BMatP= 2.63D-07
 IDIUse=1 WtCom= 1.00D+00 WtEn= 0.00D+00
 Coeff-Com:  0.194D-04-0.633D-05-0.812D-03-0.262D-02-0.547D-02 0.544D-01
 Coeff-Com: -0.692D-01-0.174D+00 0.286D+00-0.104D+00-0.356D-01-0.753D-01
 Coeff-Com:  0.134D+00-0.547D+00 0.154D+01
 Coeff:      0.194D-04-0.633D-05-0.812D-03-0.262D-02-0.547D-02 0.544D-01
 Coeff:     -0.692D-01-0.174D+00 0.286D+00-0.104D+00-0.356D-01-0.753D-01
 Coeff:      0.134D+00-0.547D+00 0.154D+01
 Gap=     0.168 Goal=   None    Shift=    0.000
 Gap=     0.185 Goal=   None    Shift=    0.000
 RMSDP=9.09D-05 MaxDP=1.34D-03 DE=-4.70D-06 OVMax= 4.06D-03

 Cycle  16  Pass 1  IDiag  1:
 E= -579.683600644468     Delta-E=       -0.000000750056 Rises=F Damp=F
 DIIS: error= 3.60D-06 at cycle  16 NSaved=  16.
 NSaved=16 IEnMin=16 EnMin= -579.683600644468     IErMin=16 ErrMin= 3.60D-06
 ErrMax= 3.60D-06  0.00D+00 EMaxC= 1.00D-01 BMatC= 1.32D-09 BMatP= 2.63D-07
 IDIUse=1 WtCom= 1.00D+00 WtEn= 0.00D+00
 Coeff-Com: -0.574D-04 0.123D-03 0.921D-04 0.424D-03 0.586D-03-0.825D-02
 Coeff-Com:  0.190D-01 0.111D-01-0.510D-01-0.612D-02 0.830D-01 0.699D-01
 Coeff-Com: -0.180D+00 0.620D-01-0.416D+00 0.141D+01
 Coeff:     -0.574D-04 0.123D-03 0.921D-04 0.424D-03 0.586D-03-0.825D-02
 Coeff:      0.190D-01 0.111D-01-0.510D-01-0.612D-02 0.830D-01 0.699D-01
 Coeff:     -0.180D+00 0.620D-01-0.416D+00 0.141D+01
 Gap=     0.168 Goal=   None    Shift=    0.000
 Gap=     0.185 Goal=   None    Shift=    0.000
 RMSDP=3.91D-06 MaxDP=6.18D-05 DE=-7.50D-07 OVMax= 1.74D-04

 Cycle  17  Pass 1  IDiag  1:
 E= -579.683600647961     Delta-E=       -0.000000003492 Rises=F Damp=F
 DIIS: error= 4.21D-06 at cycle  17 NSaved=  17.
 NSaved=17 IEnMin=17 EnMin= -579.683600647961     IErMin=16 ErrMin= 3.60D-06
 ErrMax= 4.21D-06  0.00D+00 EMaxC= 1.00D-01 BMatC= 1.61D-09 BMatP= 1.32D-09
 IDIUse=1 WtCom= 1.00D+00 WtEn= 0.00D+00
 Coeff-Com: -0.668D-05 0.143D-04-0.920D-05-0.188D-03-0.899D-03 0.304D-02
 Coeff-Com: -0.851D-04-0.993D-03-0.573D-02 0.655D-02-0.877D-02-0.613D-02
 Coeff-Com:  0.536D-01 0.638D-01-0.181D+00-0.291D+00 0.137D+01
 Coeff:     -0.668D-05 0.143D-04-0.920D-05-0.188D-03-0.899D-03 0.304D-02
 Coeff:     -0.851D-04-0.993D-03-0.573D-02 0.655D-02-0.877D-02-0.613D-02
 Coeff:      0.536D-01 0.638D-01-0.181D+00-0.291D+00 0.137D+01
 Gap=     0.168 Goal=   None    Shift=    0.000
 Gap=     0.185 Goal=   None    Shift=    0.000
 RMSDP=5.84D-06 MaxDP=8.87D-05 DE=-3.49D-09 OVMax= 2.59D-04

 Cycle  18  Pass 1  IDiag  1:
 E= -579.683600650717     Delta-E=       -0.000000002757 Rises=F Damp=F
 DIIS: error= 7.28D-07 at cycle  18 NSaved=  18.
 NSaved=18 IEnMin=18 EnMin= -579.683600650717     IErMin=18 ErrMin= 7.28D-07
 ErrMax= 7.28D-07  0.00D+00 EMaxC= 1.00D-01 BMatC= 7.45D-11 BMatP= 1.32D-09
 IDIUse=1 WtCom= 1.00D+00 WtEn= 0.00D+00
 Coeff-Com: -0.409D-05 0.831D-05 0.203D-04 0.870D-04 0.167D-03-0.200D-02
 Coeff-Com:  0.180D-02 0.554D-02-0.118D-01 0.139D-01-0.103D-01-0.131D-01
 Coeff-Com:  0.193D-01 0.152D-02 0.182D-01-0.467D-01-0.213D+00 0.124D+01
 Coeff:     -0.409D-05 0.831D-05 0.203D-04 0.870D-04 0.167D-03-0.200D-02
 Coeff:      0.180D-02 0.554D-02-0.118D-01 0.139D-01-0.103D-01-0.131D-01
 Coeff:      0.193D-01 0.152D-02 0.182D-01-0.467D-01-0.213D+00 0.124D+01
 Gap=     0.168 Goal=   None    Shift=    0.000
 Gap=     0.185 Goal=   None    Shift=    0.000
 RMSDP=3.52D-07 MaxDP=5.55D-06 DE=-2.76D-09 OVMax= 1.62D-05

 Cycle  19  Pass 1  IDiag  1:
 E= -579.683600650779     Delta-E=       -0.000000000062 Rises=F Damp=F
 DIIS: error= 3.45D-07 at cycle  19 NSaved=  19.
 NSaved=19 IEnMin=19 EnMin= -579.683600650779     IErMin=19 ErrMin= 3.45D-07
 ErrMax= 3.45D-07  0.00D+00 EMaxC= 1.00D-01 BMatC= 1.33D-11 BMatP= 7.45D-11
 IDIUse=1 WtCom= 1.00D+00 WtEn= 0.00D+00
 Coeff-Com: -0.806D-06 0.227D-05 0.839D-06-0.668D-05-0.174D-04 0.370D-04
 Coeff-Com:  0.332D-03-0.647D-03 0.524D-03-0.148D-02 0.201D-02 0.155D-02
 Coeff-Com: -0.308D-02 0.425D-03-0.631D-02 0.308D-01-0.490D-01-0.256D+00
 Coeff-Com:  0.128D+01
 Coeff:     -0.806D-06 0.227D-05 0.839D-06-0.668D-05-0.174D-04 0.370D-04
 Coeff:      0.332D-03-0.647D-03 0.524D-03-0.148D-02 0.201D-02 0.155D-02
 Coeff:     -0.308D-02 0.425D-03-0.631D-02 0.308D-01-0.490D-01-0.256D+00
 Coeff:      0.128D+01
 Gap=     0.168 Goal=   None    Shift=    0.000
 Gap=     0.185 Goal=   None    Shift=    0.000
 RMSDP=3.40D-07 MaxDP=5.32D-06 DE=-6.18D-11 OVMax= 1.52D-05

 Cycle  20  Pass 1  IDiag  1:
 E= -579.683600650794     Delta-E=       -0.000000000015 Rises=F Damp=F
 DIIS: error= 3.42D-08 at cycle  20 NSaved=  20.
 NSaved=20 IEnMin=20 EnMin= -579.683600650794     IErMin=20 ErrMin= 3.42D-08
 ErrMax= 3.42D-08  0.00D+00 EMaxC= 1.00D-01 BMatC= 1.12D-13 BMatP= 1.33D-11
 IDIUse=1 WtCom= 1.00D+00 WtEn= 0.00D+00
 Coeff-Com:  0.922D-07-0.179D-06-0.746D-06-0.333D-05-0.467D-05 0.734D-04
 Coeff-Com: -0.129D-03-0.806D-04 0.245D-03 0.298D-04-0.131D-03-0.565D-04
 Coeff-Com:  0.881D-05-0.177D-03 0.552D-03-0.354D-02 0.133D-01-0.128D-02
 Coeff-Com: -0.224D+00 0.121D+01
 Coeff:      0.922D-07-0.179D-06-0.746D-06-0.333D-05-0.467D-05 0.734D-04
 Coeff:     -0.129D-03-0.806D-04 0.245D-03 0.298D-04-0.131D-03-0.565D-04
 Coeff:      0.881D-05-0.177D-03 0.552D-03-0.354D-02 0.133D-01-0.128D-02
 Coeff:     -0.224D+00 0.121D+01
 Gap=     0.168 Goal=   None    Shift=    0.000
 Gap=     0.185 Goal=   None    Shift=    0.000
 RMSDP=1.19D-07 MaxDP=1.83D-06 DE=-1.50D-11 OVMax= 5.42D-06

 Cycle  21  Pass 1  IDiag  1:
 E= -579.683600650795     Delta-E=       -0.000000000001 Rises=F Damp=F
 DIIS: error= 1.98D-08 at cycle  21 NSaved=  20.
 NSaved=20 IEnMin=20 EnMin= -579.683600650795     IErMin=20 ErrMin= 1.98D-08
 ErrMax= 1.98D-08  0.00D+00 EMaxC= 1.00D-01 BMatC= 6.48D-14 BMatP= 1.12D-13
 IDIUse=1 WtCom= 1.00D+00 WtEn= 0.00D+00
 Large coefficients: NSaved= 20 BigCof=    0.00 CofMax=   10.00 Det=-2.63D-15
 Inversion failed.  Reducing to 19 matrices.
 Large coefficients: NSaved= 19 BigCof=    0.00 CofMax=   10.00 Det=-2.64D-15
 Inversion failed.  Reducing to 18 matrices.
 Large coefficients: NSaved= 18 BigCof=    0.00 CofMax=   10.00 Det=-2.70D-15
 Inversion failed.  Reducing to 17 matrices.
 Large coefficients: NSaved= 17 BigCof=    0.00 CofMax=   10.00 Det=-2.81D-15
 Inversion failed.  Reducing to 16 matrices.
 Large coefficients: NSaved= 16 BigCof=    0.00 CofMax=   10.00 Det=-2.82D-15
 Inversion failed.  Reducing to 15 matrices.
 Coeff-Com:  0.160D-05 0.121D-04-0.280D-04 0.564D-04-0.630D-04-0.163D-04
 Coeff-Com:  0.389D-04 0.267D-03-0.278D-04-0.190D-03-0.236D-02 0.193D-01
 Coeff-Com: -0.267D-01-0.242D+00 0.125D+01
 Coeff:      0.160D-05 0.121D-04-0.280D-04 0.564D-04-0.630D-04-0.163D-04
 Coeff:      0.389D-04 0.267D-03-0.278D-04-0.190D-03-0.236D-02 0.193D-01
 Coeff:     -0.267D-01-0.242D+00 0.125D+01
 Gap=     0.168 Goal=   None    Shift=    0.000
 Gap=     0.185 Goal=   None    Shift=    0.000
 RMSDP=3.35D-08 MaxDP=4.77D-07 DE=-9.09D-13 OVMax= 1.52D-06

 Cycle  22  Pass 1  IDiag  1:
 E= -579.683600650795     Delta-E=        0.000000000000 Rises=F Damp=F
 DIIS: error= 2.37D-09 at cycle  22 NSaved=  16.
 NSaved=16 IEnMin=15 EnMin= -579.683600650795     IErMin=16 ErrMin= 2.37D-09
 ErrMax= 2.37D-09  0.00D+00 EMaxC= 1.00D-01 BMatC= 7.15D-16 BMatP= 6.48D-14
 IDIUse=1 WtCom= 1.00D+00 WtEn= 0.00D+00
 Large coefficients: NSaved= 16 BigCof=    0.00 CofMax=   10.00 Det=-1.83D-16
 Inversion failed.  Reducing to 15 matrices.
 Coeff-Com: -0.419D-05 0.153D-04-0.284D-05-0.140D-04 0.633D-05 0.259D-05
 Coeff-Com:  0.310D-04-0.141D-03 0.786D-06 0.980D-03-0.453D-02 0.577D-02
 Coeff-Com:  0.397D-02-0.231D+00 0.123D+01
 Coeff:     -0.419D-05 0.153D-04-0.284D-05-0.140D-04 0.633D-05 0.259D-05
 Coeff:      0.310D-04-0.141D-03 0.786D-06 0.980D-03-0.453D-02 0.577D-02
 Coeff:      0.397D-02-0.231D+00 0.123D+01
 Gap=     0.168 Goal=   None    Shift=    0.000
 Gap=     0.185 Goal=   None    Shift=    0.000
 RMSDP=2.33D-09 MaxDP=3.04D-08 DE= 2.27D-13 OVMax= 1.09D-07

 SCF Done:  E(UM062X) =  -579.683600651     A.U. after   22 cycles
            NFock= 22  Conv=0.23D-08     -V/T= 2.0031
 <Sx>= 0.0000 <Sy>= 0.0000 <Sz>= 0.5000 <S**2>= 0.8334 S= 0.5409
 <L.S>=  0.00000000000    
 KE= 5.778696972817D+02 PE=-1.496220381011D+03 EE= 2.769684493121D+02
 Annihilation of the first spin contaminant:
 S**2 before annihilation     0.8334,   after     0.7505
 Leave Link  502 at Wed Apr 16 05:50:30 2025, MaxMem=  8053063680 cpu:              70.4 elap:               8.2
 (Enter /home/szhao/Apps/g16/l601.exe)
 Copying SCF densities to generalized density rwf, IOpCl= 1 IROHF=0.

 **********************************************************************

            Population analysis using the SCF density.

 **********************************************************************

 Orbital symmetries:
 Alpha Orbitals:
       Occupied  (A') (A') (A') (A') (A") (A') (A') (A") (A') (A')
                 (A') (A') (A') (A') (A")
       Virtual   (A') (A") (A') (A') (A') (A') (A') (A") (A') (A')
                 (A") (A') (A') (A') (A') (A') (A") (A') (A') (A")
                 (A") (A') (A") (A') (A") (A') (A') (A') (A') (A")
                 (A') (A') (A') (A") (A") (A') (A') (A') (A') (A')
                 (A')
 Beta  Orbitals:
       Occupied  (A') (A') (A') (A') (A') (A") (A') (A') (A") (A')
                 (A') (A') (A') (A')
       Virtual   (A") (A') (A") (A') (A') (A') (A') (A') (A") (A')
                 (A') (A") (A') (A') (A') (A') (A") (A') (A") (A')
                 (A') (A") (A') (A') (A") (A") (A') (A') (A') (A')
                 (A") (A') (A') (A') (A") (A") (A') (A') (A') (A')
                 (A') (A')
 The electronic state is 2-A".
 Alpha  occ. eigenvalues --  -67.30598 -67.29746  -5.83759  -5.82877  -4.14932
 Alpha  occ. eigenvalues --   -4.14731  -4.14110  -4.14024  -4.13573  -4.13214
 Alpha  occ. eigenvalues --   -0.86456  -0.75635  -0.62278  -0.52686  -0.49244
 Alpha virt. eigenvalues --   -0.32466  -0.27125  -0.19180  -0.12785  -0.11518
 Alpha virt. eigenvalues --   -0.08857  -0.08361  -0.08359  -0.07202  -0.05649
 Alpha virt. eigenvalues --   -0.05258  -0.01638  -0.00825   0.09630   0.15978
 Alpha virt. eigenvalues --    0.18389   0.19217   0.21357   0.21650   0.22768
 Alpha virt. eigenvalues --    0.24199   0.27883   0.32211   0.32654   0.38266
 Alpha virt. eigenvalues --    0.41949   0.43725   0.48548   0.52933   0.53853
 Alpha virt. eigenvalues --    0.80171   0.94585   0.96170   1.25061   1.25848
 Alpha virt. eigenvalues --    1.27475   1.28452   1.83855   1.85403   2.66981
 Alpha virt. eigenvalues --    2.74721
  Beta  occ. eigenvalues --  -67.30165 -67.29665  -5.83573  -5.82912  -4.14420
  Beta  occ. eigenvalues --   -4.14018  -4.13935  -4.13791  -4.13481  -4.13249
  Beta  occ. eigenvalues --   -0.83620  -0.74537  -0.62005  -0.51817
  Beta virt. eigenvalues --   -0.33327  -0.30950  -0.23154  -0.17399  -0.14921
  Beta virt. eigenvalues --   -0.11751  -0.09645  -0.08680  -0.08677  -0.07635
  Beta virt. eigenvalues --   -0.05625  -0.04419  -0.02130  -0.01306   0.10449
  Beta virt. eigenvalues --    0.15665   0.17238   0.18108   0.20854   0.21072
  Beta virt. eigenvalues --    0.21423   0.27363   0.27419   0.34942   0.35968
  Beta virt. eigenvalues --    0.41621   0.44357   0.45430   0.49277   0.53786
  Beta virt. eigenvalues --    0.57090   0.82508   0.95176   0.96443   1.26297
  Beta virt. eigenvalues --    1.26463   1.28265   1.28749   1.84880   1.86541
  Beta virt. eigenvalues --    2.68051   2.76223
          Condensed to atoms (all electrons):
               1          2          3          4
     1  Si  12.765887   0.401902   0.339722  -0.011300
     2  Si   0.401902  12.783780  -0.000793   0.359553
     3  H    0.339722  -0.000793   0.646628   0.000129
     4  H   -0.011300   0.359553   0.000129   0.625276
          Atomic-Atomic Spin Densities.
               1          2          3          4
     1  Si   0.126386   0.105106   0.001456   0.001502
     2  Si   0.105106   0.737767  -0.001637  -0.009952
     3  H    0.001456  -0.001637  -0.048979   0.000007
     4  H    0.001502  -0.009952   0.000007  -0.008137
 Mulliken charges and spin densities:
               1          2
     1  Si   0.503788   0.234450
     2  Si   0.455558   0.831284
     3  H    0.014314  -0.049154
     4  H    0.026341  -0.016580
 Sum of Mulliken charges =   1.00000   1.00000
 Mulliken charges and spin densities with hydrogens summed into heavy atoms:
               1          2
     1  Si   0.518101   0.185296
     2  Si   0.481899   0.814704
 Electronic spatial extent (au):  <R**2>=            201.2277
 Charge=              1.0000 electrons
 Dipole moment (field-independent basis, Debye):
    X=             -0.1059    Y=              0.3986    Z=             -0.0000  Tot=              0.4125
 Quadrupole moment (field-independent basis, Debye-Ang):
   XX=            -23.6373   YY=            -11.7036   ZZ=            -22.3738
   XY=              1.1130   XZ=             -0.0000   YZ=              0.0000
 Traceless Quadrupole moment (field-independent basis, Debye-Ang):
   XX=             -4.3991   YY=              7.5346   ZZ=             -3.1355
   XY=              1.1130   XZ=             -0.0000   YZ=              0.0000
 Octapole moment (field-independent basis, Debye-Ang**2):
  XXX=             -0.3654  YYY=              2.1403  ZZZ=             -0.0000  XYY=             -0.6871
  XXY=              0.9931  XXZ=             -0.0000  XZZ=             -0.0498  YZZ=             -0.4377
  YYZ=             -0.0000  XYZ=              0.0000
 Hexadecapole moment (field-independent basis, Debye-Ang**3):
 XXXX=            -52.7745 YYYY=           -188.2540 ZZZZ=            -33.0163 XXXY=             -6.9499
 XXXZ=             -0.0000 YYYX=             -9.0928 YYYZ=             -0.0000 ZZZX=             -0.0000
 ZZZY=             -0.0000 XXYY=            -41.9417 XXZZ=            -15.0068 YYZZ=            -39.8186
 XXYZ=              0.0000 YYXZ=             -0.0000 ZZXY=             -3.6684
 N-N= 6.169863376615D+01 E-N=-1.496220381026D+03  KE= 5.778696972817D+02
 Symmetry A'   KE= 5.281559285578D+02
 Symmetry A"   KE= 4.971376872388D+01
 Symmetry A'   SP= 4.670400673357D-15
 Symmetry A"   SP= 1.000000000000D+00
                          Isotropic Fermi Contact Couplings
        Atom                 a.u.       MegaHertz       Gauss      10(-4) cm-1
     1  Si(29)            -0.15940     141.66359      50.54909      47.25389
     2  Si(29)             0.29754    -264.43275     -94.35618     -88.20527
     3  H(1)              -0.01759     -78.63554     -28.05912     -26.22999
     4  H(1)              -0.00335     -14.96905      -5.34133      -4.99314
 --------------------------------------------------------
       Center         ----  Spin Dipole Couplings  ----
                      3XX-RR        3YY-RR        3ZZ-RR
 --------------------------------------------------------
     1   Atom       -0.578982     -0.386779      0.965761
     2   Atom       -0.201844     -0.752516      0.954360
     3   Atom       -0.002743      0.000010      0.002733
     4   Atom       -0.001545      0.004313     -0.002768
 --------------------------------------------------------
                        XY            XZ            YZ
 --------------------------------------------------------
     1   Atom        0.330853      0.000000     -0.000000
     2   Atom       -0.196735     -0.000000      0.000000
     3   Atom        0.011050     -0.000000     -0.000000
     4   Atom        0.015803     -0.000000     -0.000000
 --------------------------------------------------------


 ---------------------------------------------------------------------------------
              Anisotropic Spin Dipole Couplings in Principal Axis System
 ---------------------------------------------------------------------------------

       Atom             a.u.   MegaHertz   Gauss  10(-4) cm-1        Axes

              Baa    -0.8274    87.775    31.320    29.279  0.7997 -0.6004  0.0000
     1 Si(29) Bbb    -0.1384    14.677     5.237     4.896  0.6004  0.7997  0.0000
              Bcc     0.9658  -102.452   -36.557   -34.174  0.0000  0.0000  1.0000
 
              Baa    -0.8156    86.520    30.873    28.860  0.3053  0.9523  0.0000
     2 Si(29) Bbb    -0.1388    14.722     5.253     4.911  0.9523 -0.3053 -0.0000
              Bcc     0.9544  -101.242   -36.126   -33.771  0.0000  0.0000  1.0000
 
              Baa    -0.0125    -6.671    -2.380    -2.225  0.7495 -0.6620 -0.0000
     3 H(1)   Bbb     0.0027     1.458     0.520     0.486  0.0000  0.0000  1.0000
              Bcc     0.0098     5.212     1.860     1.739  0.6620  0.7495 -0.0000
 
              Baa    -0.0147    -7.837    -2.796    -2.614  0.7688 -0.6394 -0.0000
     4 H(1)   Bbb    -0.0028    -1.477    -0.527    -0.493  0.0000  0.0000  1.0000
              Bcc     0.0175     9.314     3.323     3.107  0.6394  0.7688 -0.0000
 

 ---------------------------------------------------------------------------------

 No NMR shielding tensors so no spin-rotation constants.
 Leave Link  601 at Wed Apr 16 05:50:30 2025, MaxMem=  8053063680 cpu:               5.8 elap:               0.7
 (Enter /home/szhao/Apps/g16/l607.exe)
 ******************************Gaussian NBO Version 3.1******************************
             N A T U R A L   A T O M I C   O R B I T A L   A N D
          N A T U R A L   B O N D   O R B I T A L   A N A L Y S I S
 ******************************Gaussian NBO Version 3.1******************************
       /RESON  / : Allow strongly delocalized NBO set

 Analyzing the SCF density

 Job title: NBO Analysis                                                    

 Storage needed:      9794 in NPA,     12751 in NBO (8053063576 available)
 GSVD:  LWork=        1576 too small for GESVD, short by        1310 words or        1310 for optimal perf.


 NATURAL POPULATIONS:  Natural atomic orbital occupancies 
                                                          
   NAO  Atom  No  lang   Type(AO)    Occupancy
 --------------------------------------------
     1   Si    1  S      Cor( 1S)     2.00000
     2   Si    1  S      Cor( 2S)     1.99900
     3   Si    1  S      Val( 3S)     1.53763
     4   Si    1  S      Ryd( 4S)     0.00181
     5   Si    1  S      Ryd( 5S)     0.00013
     6   Si    1  S      Ryd( 6S)     0.00001
     7   Si    1  px     Cor( 2p)     1.99955
     8   Si    1  px     Val( 3p)     0.86065
     9   Si    1  px     Ryd( 4p)     0.00296
    10   Si    1  px     Ryd( 5p)     0.00001
    11   Si    1  py     Cor( 2p)     1.99967
    12   Si    1  py     Val( 3p)     0.56967
    13   Si    1  py     Ryd( 4p)     0.00400
    14   Si    1  py     Ryd( 5p)     0.00023
    15   Si    1  pz     Cor( 2p)     1.99976
    16   Si    1  pz     Val( 3p)     0.41451
    17   Si    1  pz     Ryd( 4p)     0.00106
    18   Si    1  pz     Ryd( 5p)     0.00009
    19   Si    1  dxy    Ryd( 3d)     0.00265
    20   Si    1  dxz    Ryd( 3d)     0.00009
    21   Si    1  dyz    Ryd( 3d)     0.00391
    22   Si    1  dx2y2  Ryd( 3d)     0.00748
    23   Si    1  dz2    Ryd( 3d)     0.00262
 
    24   Si    2  S      Cor( 1S)     2.00000
    25   Si    2  S      Cor( 2S)     1.99912
    26   Si    2  S      Val( 3S)     1.46230
    27   Si    2  S      Ryd( 4S)     0.00134
    28   Si    2  S      Ryd( 5S)     0.00005
    29   Si    2  S      Ryd( 6S)     0.00001
    30   Si    2  px     Cor( 2p)     1.99959
    31   Si    2  px     Val( 3p)     0.68112
    32   Si    2  px     Ryd( 4p)     0.00268
    33   Si    2  px     Ryd( 5p)     0.00002
    34   Si    2  py     Cor( 2p)     1.99947
    35   Si    2  py     Val( 3p)     0.61935
    36   Si    2  py     Ryd( 4p)     0.00435
    37   Si    2  py     Ryd( 5p)     0.00022
    38   Si    2  pz     Cor( 2p)     1.99979
    39   Si    2  pz     Val( 3p)     0.57615
    40   Si    2  pz     Ryd( 4p)     0.00158
    41   Si    2  pz     Ryd( 5p)     0.00004
    42   Si    2  dxy    Ryd( 3d)     0.00532
    43   Si    2  dxz    Ryd( 3d)     0.00003
    44   Si    2  dyz    Ryd( 3d)     0.00296
    45   Si    2  dx2y2  Ryd( 3d)     0.00332
    46   Si    2  dz2    Ryd( 3d)     0.00246
 
    47    H    3  S      Val( 1S)     1.11524
    48    H    3  S      Ryd( 2S)     0.00037
    49    H    3  px     Ryd( 2p)     0.00170
    50    H    3  py     Ryd( 2p)     0.00038
    51    H    3  pz     Ryd( 2p)     0.00001
 
    52    H    4  S      Val( 1S)     1.11104
    53    H    4  S      Ryd( 2S)     0.00037
    54    H    4  px     Ryd( 2p)     0.00111
    55    H    4  py     Ryd( 2p)     0.00098
    56    H    4  pz     Ryd( 2p)     0.00000

 WARNING:  1 low occupancy (<1.9990e) core orbital  found on Si    1


 Summary of Natural Population Analysis:                  
                                                          
                                       Natural Population 
                Natural  -----------------------------------------------
    Atom  No    Charge         Core      Valence    Rydberg      Total
 -----------------------------------------------------------------------
     Si    1    0.59248      9.99798     3.38246    0.02707    13.40752
     Si    2    0.63872      9.99797     3.33892    0.02440    13.36128
      H    3   -0.11770      0.00000     1.11524    0.00246     1.11770
      H    4   -0.11350      0.00000     1.11104    0.00246     1.11350
 =======================================================================
   * Total *    1.00000     19.99595     8.94766    0.05639    29.00000

                                 Natural Population      
 --------------------------------------------------------
   Core                      19.99595 ( 99.9798% of  20)
   Valence                    8.94766 ( 99.4184% of   9)
   Natural Minimal Basis     28.94361 ( 99.8056% of  29)
   Natural Rydberg Basis      0.05639 (  0.1944% of  29)
 --------------------------------------------------------

    Atom  No          Natural Electron Configuration
 ----------------------------------------------------------------------------
     Si    1      [core]3S( 1.54)3p( 1.84)3d( 0.02)4p( 0.01)
     Si    2      [core]3S( 1.46)3p( 1.88)3d( 0.01)4p( 0.01)
      H    3            1S( 1.12)
      H    4            1S( 1.11)


 ***************************************************
 *******         Alpha spin orbitals         *******
 ***************************************************


 NATURAL POPULATIONS:  Natural atomic orbital occupancies 
                                                          
   NAO  Atom  No  lang   Type(AO)    Occupancy      Energy
 ----------------------------------------------------------
     1   Si    1  S      Cor( 1S)     1.00000     -66.62029
     2   Si    1  S      Cor( 2S)     0.99942      -6.40499
     3   Si    1  S      Val( 3S)     0.74961      -0.68079
     4   Si    1  S      Ryd( 5S)     0.00058       0.17084
     5   Si    1  S      Ryd( 4S)     0.00008       0.07761
     6   Si    1  S      Ryd( 6S)     0.00000       2.67403
     7   Si    1  px     Cor( 2p)     0.99975      -4.12941
     8   Si    1  px     Val( 3p)     0.38065      -0.25210
     9   Si    1  px     Ryd( 5p)     0.00130       0.11705
    10   Si    1  px     Ryd( 4p)     0.00001       0.02649
    11   Si    1  py     Cor( 2p)     0.99982      -4.13325
    12   Si    1  py     Val( 3p)     0.25424      -0.27802
    13   Si    1  py     Ryd( 5p)     0.00201       0.08539
    14   Si    1  py     Ryd( 4p)     0.00013       0.03932
    15   Si    1  pz     Cor( 2p)     0.99997      -4.13959
    16   Si    1  pz     Val( 3p)     0.41431      -0.35297
    17   Si    1  pz     Ryd( 5p)     0.00106       0.12916
    18   Si    1  pz     Ryd( 4p)     0.00009       0.01741
    19   Si    1  dxy    Ryd( 3d)     0.00160       0.54634
    20   Si    1  dxz    Ryd( 3d)     0.00009       0.41455
    21   Si    1  dyz    Ryd( 3d)     0.00391       0.40239
    22   Si    1  dx2y2  Ryd( 3d)     0.00383       0.67591
    23   Si    1  dz2    Ryd( 3d)     0.00093       0.53096
 
    24   Si    2  S      Cor( 1S)     1.00000     -66.67929
    25   Si    2  S      Cor( 2S)     0.99962      -6.36887
    26   Si    2  S      Val( 3S)     0.76843      -0.69813
    27   Si    2  S      Ryd( 5S)     0.00077       0.15908
    28   Si    2  S      Ryd( 4S)     0.00003       0.14848
    29   Si    2  S      Ryd( 6S)     0.00001       2.55065
    30   Si    2  px     Cor( 2p)     0.99982      -4.14266
    31   Si    2  px     Val( 3p)     0.42204      -0.30045
    32   Si    2  px     Ryd( 5p)     0.00116       0.12218
    33   Si    2  px     Ryd( 4p)     0.00001       0.01744
    34   Si    2  py     Cor( 2p)     0.99974      -4.14040
    35   Si    2  py     Val( 3p)     0.31774      -0.26641
    36   Si    2  py     Ryd( 5p)     0.00230       0.08844
    37   Si    2  py     Ryd( 4p)     0.00009       0.03429
    38   Si    2  pz     Cor( 2p)     0.99999      -4.14874
    39   Si    2  pz     Val( 3p)     0.57596      -0.39132
    40   Si    2  pz     Ryd( 5p)     0.00158       0.12655
    41   Si    2  pz     Ryd( 4p)     0.00004       0.00969
    42   Si    2  dxy    Ryd( 3d)     0.00232       0.61588
    43   Si    2  dxz    Ryd( 3d)     0.00003       0.37582
    44   Si    2  dyz    Ryd( 3d)     0.00296       0.39303
    45   Si    2  dx2y2  Ryd( 3d)     0.00153       0.56884
    46   Si    2  dz2    Ryd( 3d)     0.00101       0.47986
 
    47    H    3  S      Val( 1S)     0.53770      -0.37386
    48    H    3  S      Ryd( 2S)     0.00018       0.65650
    49    H    3  px     Ryd( 2p)     0.00080       1.63315
    50    H    3  py     Ryd( 2p)     0.00017       1.30124
    51    H    3  pz     Ryd( 2p)     0.00001       1.19803
 
    52    H    4  S      Val( 1S)     0.54948      -0.38361
    53    H    4  S      Ryd( 2S)     0.00020       0.65295
    54    H    4  px     Ryd( 2p)     0.00045       1.48905
    55    H    4  py     Ryd( 2p)     0.00046       1.43420
    56    H    4  pz     Ryd( 2p)     0.00000       1.19080

 WARNING:  Population inversion found on atom Si    1
           Population inversion found on atom Si    2


 Summary of Natural Population Analysis:                  
                                                          
                                       Natural Population 
                Natural  -----------------------------------------------
    Atom  No    Charge         Core      Valence    Rydberg      Total
 -----------------------------------------------------------------------
     Si    1    0.18662      4.99896     1.79880    0.01562     6.81338
     Si    2   -0.09717      4.99917     2.08417    0.01383     7.09717
      H    3   -0.03885      0.00000     0.53770    0.00115     0.53885
      H    4   -0.05060      0.00000     0.54948    0.00111     0.55060
 =======================================================================
   * Total *   -0.00000      9.99813     4.97015    0.03172    15.00000

                                 Natural Population      
 --------------------------------------------------------
   Core                       9.99813 ( 99.9813% of  10)
   Valence                    4.97015 ( 99.4030% of   5)
   Natural Minimal Basis     14.96828 ( 99.7885% of  15)
   Natural Rydberg Basis      0.03172 (  0.2115% of  15)
 --------------------------------------------------------

    Atom  No          Natural Electron Configuration
 ----------------------------------------------------------------------------
     Si    1      [core]3S( 0.75)3p( 1.05)3d( 0.01)
     Si    2      [core]3S( 0.77)3p( 1.32)3d( 0.01)5p( 0.01)
      H    3            1S( 0.54)
      H    4            1S( 0.55)


 NATURAL BOND ORBITAL ANALYSIS, alpha spin orbitals:

                       Occupancies       Lewis Structure    Low   High
           Occ.    -------------------  -----------------   occ   occ
  Cycle   Thresh.   Lewis   Non-Lewis     CR  BD  3C  LP    (L)   (NL)   Dev
 =============================================================================
   1(1)    0.90    14.83886   0.16114     10   5   0   0     0      0    0.02
 -----------------------------------------------------------------------------

 Structure accepted: No low occupancy Lewis orbitals

 --------------------------------------------------------
   Core                      9.99813 ( 99.981% of  10)
   Valence Lewis             4.84073 ( 96.815% of   5)
  ==================       ============================
   Total Lewis              14.83886 ( 98.926% of  15)
  -----------------------------------------------------
   Valence non-Lewis         0.15955 (  1.064% of  15)
   Rydberg non-Lewis         0.00160 (  0.011% of  15)
  ==================       ============================
   Total non-Lewis           0.16114 (  1.074% of  15)
 --------------------------------------------------------


       (Occupancy)   Bond orbital/ Coefficients/ Hybrids
 ---------------------------------------------------------------------------------
     1. (0.99999) BD ( 1)Si   1 -Si   2  
                ( 41.94%)   0.6476*Si   1 s(  0.00%)p 1.00( 99.05%)d 0.01(  0.95%)
                                            0.0000  0.0000  0.0000  0.0000  0.0000
                                            0.0000  0.0000  0.0000  0.0000  0.0000
                                            0.0000  0.0000  0.0000  0.0000  0.0000
                                            0.9938  0.0502  0.0143  0.0000 -0.0150
                                            0.0965  0.0000  0.0000
                ( 58.06%)   0.7619*Si   2 s(  0.00%)p 1.00( 99.49%)d 0.01(  0.51%)
                                            0.0000  0.0000  0.0000  0.0000  0.0000
                                            0.0000  0.0000  0.0000  0.0000  0.0000
                                            0.0000  0.0000  0.0000  0.0000  0.0000
                                            0.9960  0.0521  0.0086  0.0000  0.0074
                                           -0.0713  0.0000  0.0000
     2. (0.93002) BD ( 2)Si   1 -Si   2  
                ( 64.34%)   0.8021*Si   1 s( 49.78%)p 1.00( 49.64%)d 0.01(  0.58%)
                                            0.0000  0.0001  0.7055 -0.0027  0.0083
                                           -0.0016 -0.0000  0.3343 -0.0102  0.0004
                                            0.0000  0.6190 -0.0366 -0.0017  0.0000
                                            0.0000  0.0000  0.0000 -0.0122  0.0000
                                            0.0000 -0.0749 -0.0053
                ( 35.66%)   0.5971*Si   2 s( 20.40%)p 3.87( 78.92%)d 0.03(  0.67%)
                                           -0.0000  0.0000  0.4512 -0.0196  0.0048
                                           -0.0024  0.0000  0.2924  0.0309  0.0026
                                           -0.0000 -0.8378  0.0269  0.0108  0.0000
                                            0.0000  0.0000  0.0000 -0.0452  0.0000
                                            0.0000 -0.0617 -0.0298
     3. (0.93794) BD ( 3)Si   1 -Si   2  
                ( 28.59%)   0.5347*Si   1 s(  8.54%)p10.64( 90.80%)d 0.08(  0.67%)
                                           -0.0000  0.0000 -0.2889 -0.0407  0.0154
                                            0.0006 -0.0000 -0.6629 -0.0358 -0.0039
                                           -0.0000  0.6826  0.0270 -0.0220  0.0000
                                            0.0000  0.0000  0.0000 -0.0581  0.0000
                                            0.0000 -0.0302 -0.0486
                ( 71.41%)   0.8450*Si   2 s( 39.26%)p 1.54( 60.64%)d 0.00(  0.10%)
                                            0.0000 -0.0000  0.6257  0.0331  0.0026
                                            0.0006 -0.0000 -0.7750 -0.0302  0.0005
                                           -0.0000  0.0642  0.0255 -0.0122  0.0000
                                            0.0000  0.0000  0.0000  0.0047  0.0000
                                            0.0000 -0.0035  0.0309
     4. (0.98329) BD ( 1)Si   1 - H   3  
                ( 46.69%)   0.6833*Si   1 s( 41.73%)p 1.38( 57.66%)d 0.01(  0.61%)
                                           -0.0000 -0.0004  0.6456 -0.0207 -0.0039
                                           -0.0009  0.0001 -0.6618  0.0438 -0.0015
                                           -0.0001 -0.3668  0.0465  0.0015  0.0000
                                            0.0000  0.0000  0.0000  0.0320  0.0000
                                            0.0000  0.0638 -0.0319
                ( 53.31%)   0.7302* H   3 s( 99.83%)p 0.00(  0.17%)
                                            0.9992 -0.0002  0.0384  0.0143  0.0000
     5. (0.98948) BD ( 1)Si   2 - H   4  
                ( 45.85%)   0.6771*Si   2 s( 40.38%)p 1.46( 59.10%)d 0.01(  0.52%)
                                           -0.0000 -0.0002  0.6350 -0.0237 -0.0031
                                           -0.0020 -0.0001  0.5537 -0.0311 -0.0011
                                            0.0001  0.5290 -0.0600 -0.0012  0.0000
                                            0.0000  0.0000  0.0000  0.0593  0.0000
                                            0.0000  0.0228 -0.0339
                ( 54.15%)   0.7359* H   4 s( 99.84%)p 0.00(  0.16%)
                                            0.9992 -0.0011 -0.0293 -0.0279  0.0000
     6. (1.00000) CR ( 1)Si   1           s(100.00%)
                                            1.0000 -0.0000  0.0000 -0.0000 -0.0000
                                           -0.0000  0.0000 -0.0000  0.0000 -0.0000
                                           -0.0000 -0.0000  0.0000 -0.0000  0.0000
                                            0.0000  0.0000  0.0000  0.0000  0.0000
                                            0.0000  0.0000 -0.0000
     7. (0.99941) CR ( 2)Si   1           s(100.00%)p 0.00(  0.00%)
                                           -0.0000  1.0000  0.0002 -0.0000 -0.0000
                                           -0.0000  0.0000 -0.0003  0.0000 -0.0000
                                           -0.0000 -0.0002  0.0000  0.0000  0.0000
                                            0.0000  0.0000  0.0000  0.0000  0.0000
                                            0.0000  0.0000 -0.0000
     8. (0.99975) CR ( 3)Si   1           s(  0.00%)p 1.00(100.00%)
                                            0.0000  0.0000 -0.0000  0.0000  0.0000
                                            0.0000  1.0000  0.0000 -0.0000  0.0000
                                            0.0000  0.0000 -0.0000 -0.0000  0.0000
                                            0.0000  0.0000  0.0000 -0.0000  0.0000
                                            0.0000 -0.0000  0.0000
     9. (0.99983) CR ( 4)Si   1           s(  0.00%)p 1.00(100.00%)
                                           -0.0000 -0.0000  0.0001 -0.0000 -0.0000
                                           -0.0000  0.0000 -0.0001  0.0000 -0.0000
                                            1.0000 -0.0001  0.0000 -0.0000  0.0000
                                            0.0000  0.0000  0.0000  0.0000  0.0000
                                            0.0000  0.0000 -0.0000
    10. (0.99997) CR ( 5)Si   1           s(  0.00%)p 1.00(100.00%)
                                            0.0000  0.0000  0.0000  0.0000  0.0000
                                            0.0000  0.0000  0.0000  0.0000  0.0000
                                            0.0000  0.0000  0.0000  0.0000  1.0000
                                           -0.0000 -0.0000 -0.0000  0.0000  0.0000
                                           -0.0000  0.0000  0.0000
    11. (1.00000) CR ( 1)Si   2           s(100.00%)
                                            1.0000 -0.0000  0.0000 -0.0000 -0.0000
                                           -0.0000 -0.0000  0.0000 -0.0000 -0.0000
                                            0.0000  0.0000 -0.0000  0.0000  0.0000
                                            0.0000  0.0000  0.0000  0.0000  0.0000
                                            0.0000  0.0000 -0.0000
    12. (0.99962) CR ( 2)Si   2           s(100.00%)
                                           -0.0000  1.0000  0.0001 -0.0000 -0.0000
                                           -0.0000 -0.0000  0.0001 -0.0000 -0.0000
                                            0.0000  0.0001 -0.0000 -0.0000  0.0000
                                            0.0000  0.0000  0.0000  0.0000  0.0000
                                            0.0000  0.0000 -0.0000
    13. (0.99982) CR ( 3)Si   2           s(  0.00%)p 1.00(100.00%)
                                           -0.0000 -0.0000  0.0000 -0.0000 -0.0000
                                           -0.0000  1.0000  0.0000 -0.0000 -0.0000
                                            0.0000  0.0000 -0.0000 -0.0000  0.0000
                                            0.0000  0.0000  0.0000  0.0000  0.0000
                                            0.0000  0.0000 -0.0000
    14. (0.99974) CR ( 4)Si   2           s(  0.00%)p 1.00(100.00%)
                                            0.0000  0.0000 -0.0000  0.0000  0.0000
                                            0.0000  0.0000 -0.0001  0.0000  0.0000
                                            1.0000 -0.0000  0.0000 -0.0000  0.0000
                                            0.0000  0.0000  0.0000 -0.0000  0.0000
                                            0.0000 -0.0000  0.0000
    15. (0.99999) CR ( 5)Si   2           s(  0.00%)p 1.00(100.00%)
                                            0.0000  0.0000  0.0000  0.0000  0.0000
                                            0.0000  0.0000  0.0000  0.0000  0.0000
                                            0.0000  0.0000  0.0000  0.0000  1.0000
                                           -0.0000 -0.0000 -0.0000  0.0000 -0.0000
                                            0.0000  0.0000  0.0000
    16. (0.00026) RY*( 1)Si   1           s(  2.68%)p30.40( 81.46%)d 5.92( 15.86%)
                                           -0.0000 -0.0000 -0.0010  0.1597  0.0354
                                           -0.0055  0.0000  0.0600 -0.0556 -0.0335
                                           -0.0000  0.0625  0.8953 -0.0371  0.0000
                                            0.0000  0.0000  0.0000  0.2599  0.0000
                                            0.0000  0.3018  0.0003
    17. (0.00012) RY*( 2)Si   1           s( 33.03%)p 1.19( 39.18%)d 0.84( 27.79%)
                                           -0.0000  0.0000  0.0034 -0.1975  0.5392
                                            0.0235 -0.0000  0.0139 -0.5210 -0.1285
                                           -0.0000 -0.0414 -0.1112 -0.2994 -0.0000
                                           -0.0000 -0.0000 -0.0000  0.3654 -0.0000
                                           -0.0000 -0.0840 -0.3705
    18. (0.00002) RY*( 3)Si   1           s(  1.85%)p17.92( 33.22%)d35.02( 64.92%)
    19. (0.00000) RY*( 4)Si   1           s( 78.00%)p 0.02(  1.86%)d 0.26( 20.14%)
    20. (0.00000) RY*( 5)Si   1           s(  1.38%)p71.29( 98.54%)d 0.06(  0.08%)
    21. (0.00000) RY*( 6)Si   1           s( 56.93%)p 0.65( 37.28%)d 0.10(  5.80%)
    22. (0.00000) RY*( 7)Si   1           s(  6.84%)p13.39( 91.64%)d 0.22(  1.52%)
    23. (0.00000) RY*( 8)Si   1           s(  0.00%)p 1.00(100.00%)d 0.00(  0.00%)
    24. (0.00000) RY*( 9)Si   1           s(  0.00%)p 1.00(100.00%)d 0.00(  0.00%)
    25. (0.00000) RY*(10)Si   1           s( 99.84%)p 0.00(  0.12%)d 0.00(  0.05%)
    26. (0.00000) RY*(11)Si   1           s(  0.00%)p 1.00(  0.02%)d99.99( 99.98%)
    27. (0.00000) RY*(12)Si   1           s(  0.00%)p 1.00(  0.93%)d99.99( 99.07%)
    28. (0.00000) RY*(13)Si   1           s(  0.43%)p24.97( 10.77%)d99.99( 88.80%)
    29. (0.00000) RY*(14)Si   1           s( 18.98%)p 0.41(  7.83%)d 3.86( 73.19%)
    30. (0.00044) RY*( 1)Si   2           s( 14.22%)p 3.47( 49.28%)d 2.57( 36.50%)
                                            0.0000  0.0000  0.0116  0.3594 -0.1033
                                           -0.0474 -0.0000  0.0681 -0.3379  0.0602
                                            0.0000  0.0572  0.5960 -0.1092  0.0000
                                            0.0000  0.0000  0.0000 -0.5669  0.0000
                                            0.0000 -0.0905  0.1883
    31. (0.00020) RY*( 2)Si   2           s( 25.66%)p 2.41( 61.83%)d 0.49( 12.51%)
                                            0.0000 -0.0000 -0.0039  0.4768 -0.1643
                                           -0.0466 -0.0000  0.0089 -0.3394  0.0281
                                            0.0000 -0.0634 -0.7022 -0.0722  0.0000
                                            0.0000  0.0000  0.0000 -0.1569  0.0000
                                            0.0000  0.2384  0.2089
    32. (0.00000) RY*( 3)Si   2           s( 99.61%)p 0.00(  0.10%)d 0.00(  0.30%)
    33. (0.00000) RY*( 4)Si   2           s( 37.93%)p 1.64( 62.04%)d 0.00(  0.03%)
    34. (0.00000) RY*( 5)Si   2           s(  0.08%)p99.99( 99.56%)d 4.64(  0.36%)
    35. (0.00000) RY*( 6)Si   2           s( 99.95%)p 0.00(  0.05%)d 0.00(  0.00%)
    36. (0.00000) RY*( 7)Si   2           s(  0.80%)p99.99( 98.80%)d 0.50(  0.40%)
    37. (0.00000) RY*( 8)Si   2           s(  0.00%)p 1.00(100.00%)d 0.00(  0.00%)
    38. (0.00000) RY*( 9)Si   2           s(  0.00%)p 1.00(100.00%)d 0.00(  0.00%)
    39. (0.00001) RY*(10)Si   2           s( 18.88%)p 1.12( 21.18%)d 3.17( 59.94%)
    40. (0.00000) RY*(11)Si   2           s(  0.00%)p 0.00(  0.01%)d 1.00( 99.99%)
    41. (0.00000) RY*(12)Si   2           s(  0.00%)p 1.00(  0.51%)d99.99( 99.49%)
    42. (0.00000) RY*(13)Si   2           s(  0.55%)p11.32(  6.25%)d99.99( 93.20%)
    43. (0.00000) RY*(14)Si   2           s(  2.28%)p 0.98(  2.25%)d41.81( 95.47%)
    44. (0.00019) RY*( 1) H   3           s( 92.97%)p 0.08(  7.03%)
                                            0.0062  0.9642 -0.2150  0.1551  0.0000
    45. (0.00006) RY*( 2) H   3           s(  6.87%)p13.55( 93.13%)
    46. (0.00002) RY*( 3) H   3           s(  0.32%)p99.99( 99.68%)
    47. (0.00001) RY*( 4) H   3           s(  0.00%)p 1.00(100.00%)
    48. (0.00021) RY*( 1) H   4           s( 98.76%)p 0.01(  1.24%)
                                            0.0011  0.9938  0.0767 -0.0805  0.0000
    49. (0.00003) RY*( 2) H   4           s(  0.24%)p99.99( 99.76%)
    50. (0.00001) RY*( 3) H   4           s(  1.16%)p85.19( 98.84%)
    51. (0.00000) RY*( 4) H   4           s(  0.00%)p 1.00(100.00%)
    52. (0.00003) BD*( 1)Si   1 -Si   2  
                ( 58.06%)   0.7619*Si   1 s(  0.00%)p 1.00( 99.05%)d 0.01(  0.95%)
                ( 41.94%)  -0.6476*Si   2 s(  0.00%)p 1.00( 99.49%)d 0.01(  0.51%)
    53. (0.04684) BD*( 2)Si   1 -Si   2  
                ( 35.66%)   0.5971*Si   1 s( 49.78%)p 1.00( 49.64%)d 0.01(  0.58%)
                                           -0.0000 -0.0001 -0.7055  0.0027 -0.0083
                                            0.0016  0.0000 -0.3343  0.0102 -0.0004
                                           -0.0000 -0.6190  0.0366  0.0017 -0.0000
                                           -0.0000 -0.0000 -0.0000  0.0122 -0.0000
                                           -0.0000  0.0749  0.0053
                ( 64.34%)  -0.8021*Si   2 s( 20.40%)p 3.87( 78.92%)d 0.03(  0.67%)
                                            0.0000 -0.0000 -0.4512  0.0196 -0.0048
                                            0.0024 -0.0000 -0.2924 -0.0309 -0.0026
                                            0.0000  0.8378 -0.0269 -0.0108 -0.0000
                                           -0.0000 -0.0000 -0.0000  0.0452 -0.0000
                                           -0.0000  0.0617  0.0298
    54. (0.05015) BD*( 3)Si   1 -Si   2  
                ( 71.41%)   0.8450*Si   1 s(  8.54%)p10.64( 90.80%)d 0.08(  0.67%)
                                           -0.0000  0.0000 -0.2889 -0.0407  0.0154
                                            0.0006 -0.0000 -0.6629 -0.0358 -0.0039
                                           -0.0000  0.6826  0.0270 -0.0220  0.0000
                                            0.0000  0.0000  0.0000 -0.0581  0.0000
                                            0.0000 -0.0302 -0.0486
                ( 28.59%)  -0.5347*Si   2 s( 39.26%)p 1.54( 60.64%)d 0.00(  0.10%)
                                            0.0000 -0.0000  0.6257  0.0331  0.0026
                                            0.0006 -0.0000 -0.7750 -0.0302  0.0005
                                           -0.0000  0.0642  0.0255 -0.0122  0.0000
                                            0.0000  0.0000  0.0000  0.0047  0.0000
                                            0.0000 -0.0035  0.0309
    55. (0.03075) BD*( 1)Si   1 - H   3  
                ( 53.31%)   0.7302*Si   1 s( 41.73%)p 1.38( 57.66%)d 0.01(  0.61%)
                                           -0.0000 -0.0004  0.6456 -0.0207 -0.0039
                                           -0.0009  0.0001 -0.6618  0.0438 -0.0015
                                           -0.0001 -0.3668  0.0465  0.0015  0.0000
                                            0.0000  0.0000  0.0000  0.0320  0.0000
                                            0.0000  0.0638 -0.0319
                ( 46.69%)  -0.6833* H   3 s( 99.83%)p 0.00(  0.17%)
                                            0.9992 -0.0002  0.0384  0.0143  0.0000
    56. (0.03177) BD*( 1)Si   2 - H   4  
                ( 54.15%)   0.7359*Si   2 s( 40.38%)p 1.46( 59.10%)d 0.01(  0.52%)
                                           -0.0000 -0.0002  0.6350 -0.0237 -0.0031
                                           -0.0020 -0.0001  0.5537 -0.0311 -0.0011
                                            0.0001  0.5290 -0.0600 -0.0012  0.0000
                                            0.0000  0.0000  0.0000  0.0593  0.0000
                                            0.0000  0.0228 -0.0339
                ( 45.85%)  -0.6771* H   4 s( 99.84%)p 0.00(  0.16%)
                                            0.9992 -0.0011 -0.0293 -0.0279  0.0000


 NHO Directionality and "Bond Bending" (deviations from line of nuclear centers)

         [Thresholds for printing:  angular deviation  >  1.0 degree]
                                    hybrid p-character > 25.0%
                                    orbital occupancy  >  0.10e

                                Line of Centers        Hybrid 1              Hybrid 2
                                ---------------  -------------------   ------------------
                NBO               Theta   Phi    Theta   Phi    Dev    Theta   Phi    Dev
 ========================================================================================
     1. BD (   1)Si   1 -Si   2    90.0   90.0     0.0    0.0  90.0      0.0    0.0  90.0
     2. BD (   2)Si   1 -Si   2    90.0   90.0    90.0   60.8  29.2     90.0  292.2  22.2
     3. BD (   3)Si   1 -Si   2    90.0   90.0    90.0  315.6 134.4     90.0  174.5  95.5
     4. BD (   1)Si   1 - H   3    90.0  202.6    90.0  207.3   4.7      --     --    --


 Second Order Perturbation Theory Analysis of Fock Matrix in NBO Basis

     Threshold for printing:   0.25 kcal/mol
                                                                              E(2)  E(j)-E(i) F(i,j)
         Donor NBO (i)                     Acceptor NBO (j)                 kcal/mol   a.u.    a.u. 
 ===================================================================================================

 within unit  1
   2. BD (   2)Si   1 -Si   2        / 16. RY*(   1)Si   1                    0.50    0.91    0.028
   2. BD (   2)Si   1 -Si   2        / 44. RY*(   1) H   3                    0.51    1.48    0.036
   2. BD (   2)Si   1 -Si   2        / 53. BD*(   2)Si   1 -Si   2            0.97    0.67    0.033
   2. BD (   2)Si   1 -Si   2        / 54. BD*(   3)Si   1 -Si   2           15.82    0.49    0.112
   2. BD (   2)Si   1 -Si   2        / 55. BD*(   1)Si   1 - H   3           10.63    0.80    0.119
   2. BD (   2)Si   1 -Si   2        / 56. BD*(   1)Si   2 - H   4            1.90    0.81    0.051
   3. BD (   3)Si   1 -Si   2        / 31. RY*(   2)Si   2                    0.28    0.72    0.018
   3. BD (   3)Si   1 -Si   2        / 33. RY*(   4)Si   2                    0.34    0.73    0.021
   3. BD (   3)Si   1 -Si   2        / 48. RY*(   1) H   4                    1.26    1.24    0.052
   3. BD (   3)Si   1 -Si   2        / 53. BD*(   2)Si   1 -Si   2            9.79    0.49    0.088
   3. BD (   3)Si   1 -Si   2        / 54. BD*(   3)Si   1 -Si   2            2.27    0.30    0.033
   3. BD (   3)Si   1 -Si   2        / 56. BD*(   1)Si   2 - H   4            9.60    0.63    0.100
   4. BD (   1)Si   1 - H   3        / 53. BD*(   2)Si   1 -Si   2            3.63    0.66    0.063
   4. BD (   1)Si   1 - H   3        / 54. BD*(   3)Si   1 -Si   2            4.52    0.47    0.059
   4. BD (   1)Si   1 - H   3        / 56. BD*(   1)Si   2 - H   4            0.85    0.80    0.033
   5. BD (   1)Si   2 - H   4        / 53. BD*(   2)Si   1 -Si   2            2.91    0.67    0.057
   5. BD (   1)Si   2 - H   4        / 54. BD*(   3)Si   1 -Si   2            5.21    0.48    0.065
   5. BD (   1)Si   2 - H   4        / 55. BD*(   1)Si   1 - H   3            0.43    0.80    0.024
   6. CR (   1)Si   1                / 54. BD*(   3)Si   1 -Si   2            0.63   66.34    0.264
   7. CR (   2)Si   1                / 31. RY*(   2)Si   2                    0.52    6.54    0.073
   7. CR (   2)Si   1                / 44. RY*(   1) H   3                    0.34    7.12    0.062
   7. CR (   2)Si   1                / 53. BD*(   2)Si   1 -Si   2            0.42    6.31    0.066
   7. CR (   2)Si   1                / 54. BD*(   3)Si   1 -Si   2            4.88    6.12    0.224
   7. CR (   2)Si   1                / 55. BD*(   1)Si   1 - H   3            0.69    6.44    0.085
   7. CR (   2)Si   1                / 56. BD*(   1)Si   2 - H   4            0.28    6.45    0.054
   8. CR (   3)Si   1                / 55. BD*(   1)Si   1 - H   3            0.57    4.17    0.063
   9. CR (   4)Si   1                / 53. BD*(   2)Si   1 -Si   2            0.31    4.04    0.046
  12. CR (   2)Si   2                / 16. RY*(   1)Si   1                    0.69    6.51    0.085
  12. CR (   2)Si   2                / 48. RY*(   1) H   4                    0.42    7.03    0.069
  12. CR (   2)Si   2                / 53. BD*(   2)Si   1 -Si   2            0.42    6.28    0.066
  12. CR (   2)Si   2                / 54. BD*(   3)Si   1 -Si   2            0.95    6.09    0.099
  12. CR (   2)Si   2                / 56. BD*(   1)Si   2 - H   4            0.51    6.41    0.074
  13. CR (   3)Si   2                / 56. BD*(   1)Si   2 - H   4            0.38    4.19    0.051
  14. CR (   4)Si   2                / 56. BD*(   1)Si   2 - H   4            0.28    4.19    0.044
  54. BD*(   3)Si   1 -Si   2        / 53. BD*(   2)Si   1 -Si   2            2.81    0.19    0.093
  54. BD*(   3)Si   1 -Si   2        / 55. BD*(   1)Si   1 - H   3            1.08    0.32    0.082
  54. BD*(   3)Si   1 -Si   2        / 56. BD*(   1)Si   2 - H   4            1.50    0.32    0.097


 Natural Bond Orbitals (Summary):

                                                            Principal Delocalizations
           NBO                        Occupancy    Energy   (geminal,vicinal,remote)
 ====================================================================================
 Molecular unit  1  (H2Si2)
     1. BD (   1)Si   1 -Si   2          0.99999    -0.49350   
     2. BD (   2)Si   1 -Si   2          0.93002    -0.76705  54(g),55(g),56(g),53(g)
                                                    44(v),16(g)
     3. BD (   3)Si   1 -Si   2          0.93794    -0.58258  53(g),56(g),54(g),48(v)
                                                    33(g),31(g)
     4. BD (   1)Si   1 - H   3          0.98329    -0.75047  54(g),53(g),56(v)
     5. BD (   1)Si   2 - H   4          0.98948    -0.76403  54(g),53(g),55(v)
     6. CR (   1)Si   1                  1.00000   -66.62029  54(g)
     7. CR (   2)Si   1                  0.99941    -6.40522  54(g),55(g),31(v),53(g)
                                                    44(v),56(v)
     8. CR (   3)Si   1                  0.99975    -4.12941  55(g)
     9. CR (   4)Si   1                  0.99983    -4.13324  53(g)
    10. CR (   5)Si   1                  0.99997    -4.13959   
    11. CR (   1)Si   2                  1.00000   -66.67929   
    12. CR (   2)Si   2                  0.99962    -6.36901  54(g),16(v),56(g),53(g)
                                                    48(v)
    13. CR (   3)Si   2                  0.99982    -4.14266  56(g)
    14. CR (   4)Si   2                  0.99974    -4.14040  56(g)
    15. CR (   5)Si   2                  0.99999    -4.14874   
    16. RY*(   1)Si   1                  0.00026     0.13818   
    17. RY*(   2)Si   1                  0.00012     0.26222   
    18. RY*(   3)Si   1                  0.00002     0.43492   
    19. RY*(   4)Si   1                  0.00000     0.25991   
    20. RY*(   5)Si   1                  0.00000     0.00709   
    21. RY*(   6)Si   1                  0.00000     0.08302   
    22. RY*(   7)Si   1                  0.00000     0.07504   
    23. RY*(   8)Si   1                  0.00000     0.13276   
    24. RY*(   9)Si   1                  0.00000     0.01766   
    25. RY*(  10)Si   1                  0.00000     2.67645   
    26. RY*(  11)Si   1                  0.00000     0.41473   
    27. RY*(  12)Si   1                  0.00000     0.39892   
    28. RY*(  13)Si   1                  0.00000     0.63284   
    29. RY*(  14)Si   1                  0.00000     0.33553   
    30. RY*(   1)Si   2                  0.00044     0.28309   
    31. RY*(   2)Si   2                  0.00020     0.13566   
    32. RY*(   3)Si   2                  0.00000     2.55912   
    33. RY*(   4)Si   2                  0.00000     0.14747   
    34. RY*(   5)Si   2                  0.00000     0.02560   
    35. RY*(   6)Si   2                  0.00000     0.09825   
    36. RY*(   7)Si   2                  0.00000     0.03976   
    37. RY*(   8)Si   2                  0.00000     0.12970   
    38. RY*(   9)Si   2                  0.00000     0.00982   
    39. RY*(  10)Si   2                  0.00001     0.47453   
    40. RY*(  11)Si   2                  0.00000     0.37586   
    41. RY*(  12)Si   2                  0.00000     0.39060   
    42. RY*(  13)Si   2                  0.00000     0.55672   
    43. RY*(  14)Si   2                  0.00000     0.42649   
    44. RY*(   1) H   3                  0.00019     0.71214   
    45. RY*(   2) H   3                  0.00006     1.37891   
    46. RY*(   3) H   3                  0.00002     1.49988   
    47. RY*(   4) H   3                  0.00001     1.19803   
    48. RY*(   1) H   4                  0.00021     0.66229   
    49. RY*(   2) H   4                  0.00003     1.67599   
    50. RY*(   3) H   4                  0.00001     1.23849   
    51. RY*(   4) H   4                  0.00000     1.19080   
    52. BD*(   1)Si   1 -Si   2          0.00003    -0.25223   
    53. BD*(   2)Si   1 -Si   2          0.04684    -0.09363   
    54. BD*(   3)Si   1 -Si   2          0.05015    -0.28032   
    55. BD*(   1)Si   1 - H   3          0.03075     0.03704   
    56. BD*(   1)Si   2 - H   4          0.03177     0.04463   
       -------------------------------
              Total Lewis   14.83886  ( 98.9257%)
        Valence non-Lewis    0.15955  (  1.0636%)
        Rydberg non-Lewis    0.00160  (  0.0106%)
       -------------------------------
            Total unit  1   15.00000  (100.0000%)
           Charge unit  1    0.00000


 ***************************************************
 *******         Beta  spin orbitals         *******
 ***************************************************


 NATURAL POPULATIONS:  Natural atomic orbital occupancies 
                                                          
   NAO  Atom  No  lang   Type(AO)    Occupancy      Energy
 ----------------------------------------------------------
     1   Si    1  S      Cor( 1S)     1.00000     -66.61968
     2   Si    1  S      Cor( 2S)     0.99958      -6.40485
     3   Si    1  S      Val( 3S)     0.78802      -0.67065
     4   Si    1  S      Ryd( 5S)     0.00123       0.14263
[...]
    18. (0.00011) RY*( 2)Si   1           s( 17.67%)p 2.68( 47.40%)d 1.98( 34.93%)
                                            0.0000  0.0000 -0.0055  0.0091  0.4183
                                           -0.0392 -0.0000  0.0460 -0.5031 -0.2407
                                           -0.0000 -0.0187  0.3208 -0.2400 -0.0000
                                           -0.0000 -0.0000 -0.0000  0.3648 -0.0000
                                           -0.0000 -0.0244 -0.4644
    19. (0.00002) RY*( 3)Si   1           s(  1.93%)p22.53( 43.44%)d28.33( 54.63%)
    20. (0.00000) RY*( 4)Si   1           s(  3.56%)p26.90( 95.89%)d 0.15(  0.55%)
    21. (0.00000) RY*( 5)Si   1           s( 67.42%)p 0.34( 23.17%)d 0.14(  9.41%)
    22. (0.00000) RY*( 6)Si   1           s(  3.74%)p25.48( 95.26%)d 0.27(  1.00%)
    23. (0.00000) RY*( 7)Si   1           s( 99.70%)p 0.00(  0.28%)d 0.00(  0.01%)
    24. (0.00000) RY*( 8)Si   1           s(  0.00%)p 1.00(100.00%)
    25. (0.00000) RY*( 9)Si   1           s(  0.00%)p 1.00(100.00%)
    26. (0.00000) RY*(10)Si   1           s(  3.34%)p 1.18(  3.93%)d27.76( 92.73%)
    27. (0.00000) RY*(11)Si   1           s(  0.00%)p 1.00(  0.07%)d99.99( 99.93%)
    28. (0.00000) RY*(12)Si   1           s(  0.00%)p 0.00(  0.01%)d 1.00( 99.99%)
    29. (0.00000) RY*(13)Si   1           s(  1.13%)p 8.10(  9.13%)d79.62( 89.75%)
    30. (0.00000) RY*(14)Si   1           s( 93.48%)p 0.06(  5.33%)d 0.01(  1.19%)
    31. (0.00023) RY*( 1)Si   2           s( 16.66%)p 4.25( 70.85%)d 0.75( 12.50%)
                                           -0.0000  0.0000  0.0063  0.3915 -0.1123
                                           -0.0251 -0.0000 -0.0003 -0.2098  0.0143
                                            0.0000 -0.0716 -0.8111 -0.0347 -0.0000
                                           -0.0000 -0.0000 -0.0000 -0.0006 -0.0000
                                           -0.0000  0.2893  0.2031
    32. (0.00019) RY*( 2)Si   2           s(  0.00%)p 1.00( 99.86%)d 0.00(  0.14%)
                                            0.0000  0.0000  0.0000  0.0000  0.0000
                                            0.0000  0.0000  0.0000  0.0000  0.0000
                                            0.0000  0.0000  0.0000  0.0000  0.0000
                                            0.9992  0.0142 -0.0012  0.0000  0.0232
                                            0.0285  0.0000  0.0000
    33. (0.00005) RY*( 3)Si   2           s(  6.20%)p 7.23( 44.81%)d 7.90( 48.99%)
    34. (0.00000) RY*( 4)Si   2           s(  0.10%)p99.99( 99.82%)d 0.71(  0.07%)
    35. (0.00000) RY*( 5)Si   2           s( 99.64%)p 0.00(  0.24%)d 0.00(  0.12%)
    36. (0.00000) RY*( 6)Si   2           s(  2.05%)p47.18( 96.59%)d 0.66(  1.36%)
    37. (0.00000) RY*( 7)Si   2           s( 99.93%)p 0.00(  0.07%)d 0.00(  0.00%)
    38. (0.00000) RY*( 8)Si   2           s(  0.00%)p 1.00(100.00%)d 0.00(  0.00%)
    39. (0.00000) RY*( 9)Si   2           s(  0.00%)p 1.00(100.00%)
    40. (0.00000) RY*(10)Si   2           s( 48.98%)p 0.84( 41.06%)d 0.20(  9.96%)
    41. (0.00000) RY*(11)Si   2           s(  0.00%)p 1.00(  0.05%)d99.99( 99.95%)
    42. (0.00000) RY*(12)Si   2           s(  0.00%)p 1.00(  0.08%)d99.99( 99.92%)
    43. (0.00000) RY*(13)Si   2           s(  0.11%)p99.99( 11.70%)d99.99( 88.18%)
    44. (0.00000) RY*(14)Si   2           s(  0.63%)p10.85(  6.81%)d99.99( 92.56%)
    45. (0.00021) RY*( 1) H   3           s( 92.69%)p 0.08(  7.31%)
                                            0.0054  0.9627 -0.1961  0.1861  0.0000
    46. (0.00005) RY*( 2) H   3           s(  6.16%)p15.24( 93.84%)
    47. (0.00001) RY*( 3) H   3           s(  1.34%)p73.39( 98.66%)
    48. (0.00000) RY*( 4) H   3           s(  0.00%)p 1.00(100.00%)
    49. (0.00017) RY*( 1) H   4           s( 98.67%)p 0.01(  1.33%)
                                            0.0072  0.9933  0.1050 -0.0481  0.0000
    50. (0.00006) RY*( 2) H   4           s(  0.81%)p99.99( 99.19%)
    51. (0.00001) RY*( 3) H   4           s(  0.74%)p99.99( 99.26%)
    52. (0.00000) RY*( 4) H   4           s(  0.00%)p 1.00(100.00%)
    53. (0.07940) BD*( 1)Si   1 -Si   2  
                ( 27.33%)   0.5228*Si   1 s( 56.22%)p 0.77( 43.25%)d 0.01(  0.53%)
                                           -0.0000 -0.0001 -0.7498  0.0010 -0.0068
                                           -0.0006  0.0000 -0.4281  0.0034  0.0010
                                           -0.0000 -0.4977  0.0395 -0.0001 -0.0000
                                           -0.0000 -0.0000 -0.0000  0.0170 -0.0000
                                           -0.0000  0.0695  0.0132
                ( 72.67%)  -0.8525*Si   2 s( 16.80%)p 4.89( 82.21%)d 0.06(  0.98%)
                                            0.0000  0.0000 -0.4087  0.0301 -0.0090
                                           -0.0004  0.0000 -0.3764 -0.0423  0.0027
                                            0.0000  0.8235 -0.0113 -0.0181 -0.0000
                                           -0.0000 -0.0000 -0.0000  0.0514 -0.0000
                                           -0.0000  0.0727  0.0438
    54. (0.06490) BD*( 2)Si   1 -Si   2  
                ( 52.90%)   0.7273*Si   1 s(  3.83%)p25.02( 95.78%)d 0.10(  0.40%)
                                           -0.0000  0.0000 -0.1905 -0.0446  0.0028
                                           -0.0014 -0.0000 -0.5850 -0.0422  0.0002
                                           -0.0000  0.7832  0.0115 -0.0145  0.0000
                                            0.0000  0.0000  0.0000 -0.0251  0.0000
                                            0.0000 -0.0394 -0.0421
                ( 47.10%)  -0.6863*Si   2 s( 42.54%)p 1.35( 57.40%)d 0.00(  0.06%)
                                            0.0000 -0.0000  0.6514  0.0316 -0.0074
                                            0.0005 -0.0000 -0.7539 -0.0533  0.0061
                                           -0.0000 -0.0267  0.0412 -0.0208  0.0000
                                            0.0000  0.0000  0.0000  0.0174  0.0000
                                            0.0000 -0.0040  0.0155
    55. (0.03614) BD*( 1)Si   1 - H   3  
                ( 56.81%)   0.7537*Si   1 s( 40.00%)p 1.48( 59.18%)d 0.02(  0.82%)
                                           -0.0000 -0.0003  0.6316 -0.0324 -0.0060
                                            0.0017  0.0001 -0.6805  0.0413  0.0008
                                           -0.0001 -0.3531  0.0489  0.0015  0.0000
                                            0.0000  0.0000  0.0000  0.0421  0.0000
                                            0.0000  0.0631 -0.0492
                ( 43.19%)  -0.6572* H   3 s( 99.81%)p 0.00(  0.19%)
                                            0.9990 -0.0007  0.0403  0.0172  0.0000
    56. (0.02072) BD*( 1)Si   2 - H   4  
                ( 55.98%)   0.7482*Si   2 s( 40.47%)p 1.45( 58.73%)d 0.02(  0.80%)
                                           -0.0000 -0.0001  0.6355 -0.0279 -0.0021
                                            0.0023 -0.0001  0.5282 -0.0311 -0.0036
                                            0.0000  0.5517 -0.0540  0.0006  0.0000
                                            0.0000  0.0000  0.0000  0.0729  0.0000
                                            0.0000  0.0204 -0.0478
                ( 44.02%)  -0.6635* H   4 s( 99.78%)p 0.00(  0.22%)
                                            0.9989 -0.0050 -0.0350 -0.0305  0.0000


 NHO Directionality and "Bond Bending" (deviations from line of nuclear centers)

         [Thresholds for printing:  angular deviation  >  1.0 degree]
                                    hybrid p-character > 25.0%
                                    orbital occupancy  >  0.10e

                                Line of Centers        Hybrid 1              Hybrid 2
                                ---------------  -------------------   ------------------
                NBO               Theta   Phi    Theta   Phi    Dev    Theta   Phi    Dev
 ========================================================================================
     1. BD (   1)Si   1 -Si   2    90.0   90.0    90.0   47.3  42.7     90.0  297.6  27.6
     2. BD (   2)Si   1 -Si   2    90.0   90.0    90.0  308.8 141.2     90.0  180.5  89.5
     3. BD (   1)Si   1 - H   3    90.0  202.6    90.0  205.4   2.8      --     --    --
     4. BD (   1)Si   2 - H   4    90.0   41.8    90.0   45.3   3.5      --     --    --


 Second Order Perturbation Theory Analysis of Fock Matrix in NBO Basis

     Threshold for printing:   0.25 kcal/mol
                                                                              E(2)  E(j)-E(i) F(i,j)
         Donor NBO (i)                     Acceptor NBO (j)                 kcal/mol   a.u.    a.u. 
 ===================================================================================================

 within unit  1
   1. BD (   1)Si   1 -Si   2        / 15. LP*(   1)Si   1                    0.64    0.86    0.031
   1. BD (   1)Si   1 -Si   2        / 29. RY*(  13)Si   1                    0.42    1.38    0.032
   1. BD (   1)Si   1 -Si   2        / 45. RY*(   1) H   3                    0.75    1.44    0.043
   1. BD (   1)Si   1 -Si   2        / 53. BD*(   1)Si   1 -Si   2            2.45    0.63    0.050
   1. BD (   1)Si   1 -Si   2        / 54. BD*(   2)Si   1 -Si   2           20.69    0.48    0.127
   1. BD (   1)Si   1 -Si   2        / 55. BD*(   1)Si   1 - H   3           12.40    0.78    0.128
   1. BD (   1)Si   1 -Si   2        / 56. BD*(   1)Si   2 - H   4            0.70    0.81    0.031
   2. BD (   2)Si   1 -Si   2        / 15. LP*(   1)Si   1                    0.73    0.69    0.030
   2. BD (   2)Si   1 -Si   2        / 31. RY*(   1)Si   2                    0.59    0.66    0.026
   2. BD (   2)Si   1 -Si   2        / 33. RY*(   3)Si   2                    0.36    1.00    0.025
   2. BD (   2)Si   1 -Si   2        / 49. RY*(   1) H   4                    0.72    1.22    0.039
   2. BD (   2)Si   1 -Si   2        / 53. BD*(   1)Si   1 -Si   2           22.94    0.46    0.130
   2. BD (   2)Si   1 -Si   2        / 54. BD*(   2)Si   1 -Si   2            6.03    0.30    0.055
   2. BD (   2)Si   1 -Si   2        / 56. BD*(   1)Si   2 - H   4            5.37    0.63    0.076
   3. BD (   1)Si   1 - H   3        / 53. BD*(   1)Si   1 -Si   2            2.09    0.65    0.048
   3. BD (   1)Si   1 - H   3        / 54. BD*(   2)Si   1 -Si   2            2.64    0.49    0.047
   3. BD (   1)Si   1 - H   3        / 56. BD*(   1)Si   2 - H   4            0.79    0.82    0.032
   4. BD (   1)Si   2 - H   4        / 53. BD*(   1)Si   1 -Si   2            2.80    0.65    0.056
   4. BD (   1)Si   2 - H   4        / 54. BD*(   2)Si   1 -Si   2            6.73    0.50    0.075
   4. BD (   1)Si   2 - H   4        / 55. BD*(   1)Si   1 - H   3            0.36    0.80    0.022
   5. CR (   1)Si   1                / 54. BD*(   2)Si   1 -Si   2            0.37   66.36    0.205
   6. CR (   2)Si   1                / 31. RY*(   1)Si   2                    0.66    6.51    0.083
   6. CR (   2)Si   1                / 45. RY*(   1) H   3                    0.34    7.11    0.062
   6. CR (   2)Si   1                / 54. BD*(   2)Si   1 -Si   2            2.79    6.15    0.171
   6. CR (   2)Si   1                / 55. BD*(   1)Si   1 - H   3            0.87    6.45    0.096
   6. CR (   2)Si   1                / 56. BD*(   1)Si   2 - H   4            0.33    6.48    0.059
   7. CR (   3)Si   1                / 55. BD*(   1)Si   1 - H   3            0.50    4.18    0.059
   8. CR (   4)Si   1                / 53. BD*(   1)Si   1 -Si   2            0.36    4.03    0.050
   9. CR (   5)Si   1                / 17. RY*(   1)Si   1                    0.41    3.87    0.050
  10. CR (   1)Si   2                / 54. BD*(   2)Si   1 -Si   2            0.35   66.42    0.199
  11. CR (   2)Si   2                / 15. LP*(   1)Si   1                    0.76    6.50    0.089
  11. CR (   2)Si   2                / 49. RY*(   1) H   4                    0.39    7.03    0.066
  11. CR (   2)Si   2                / 53. BD*(   1)Si   1 -Si   2            0.70    6.26    0.087
  11. CR (   2)Si   2                / 54. BD*(   2)Si   1 -Si   2            2.66    6.11    0.167
  11. CR (   2)Si   2                / 56. BD*(   1)Si   2 - H   4            0.75    6.44    0.088
  12. CR (   3)Si   2                / 56. BD*(   1)Si   2 - H   4            0.37    4.21    0.051
  13. CR (   4)Si   2                / 56. BD*(   1)Si   2 - H   4            0.26    4.21    0.042
  14. CR (   5)Si   2                / 32. RY*(   2)Si   2                    0.38    3.88    0.048
  53. BD*(   1)Si   1 -Si   2        / 15. LP*(   1)Si   1                    3.03    0.23    0.118
  53. BD*(   1)Si   1 -Si   2        / 29. RY*(  13)Si   1                    0.42    0.75    0.079
  53. BD*(   1)Si   1 -Si   2        / 31. RY*(   1)Si   2                    3.10    0.20    0.112
  53. BD*(   1)Si   1 -Si   2        / 43. RY*(  13)Si   2                    0.38    0.64    0.070
  53. BD*(   1)Si   1 -Si   2        / 55. BD*(   1)Si   1 - H   3            2.28    0.15    0.068
  53. BD*(   1)Si   1 -Si   2        / 56. BD*(   1)Si   2 - H   4            1.76    0.17    0.069
  54. BD*(   2)Si   1 -Si   2        / 15. LP*(   1)Si   1                    0.43    0.38    0.064
  54. BD*(   2)Si   1 -Si   2        / 31. RY*(   1)Si   2                    0.36    0.36    0.056
  54. BD*(   2)Si   1 -Si   2        / 53. BD*(   1)Si   1 -Si   2            5.74    0.15    0.099
  54. BD*(   2)Si   1 -Si   2        / 55. BD*(   1)Si   1 - H   3            1.18    0.30    0.075
  54. BD*(   2)Si   1 -Si   2        / 56. BD*(   1)Si   2 - H   4            2.01    0.33    0.111
  55. BD*(   1)Si   1 - H   3        / 15. LP*(   1)Si   1                    1.35    0.08    0.070
  55. BD*(   1)Si   1 - H   3        / 19. RY*(   3)Si   1                    1.39    0.36    0.148
  55. BD*(   1)Si   1 - H   3        / 29. RY*(  13)Si   1                    0.62    0.60    0.128
  55. BD*(   1)Si   1 - H   3        / 30. RY*(  14)Si   1                    0.69    0.10    0.056
  55. BD*(   1)Si   1 - H   3        / 45. RY*(   1) H   3                    2.09    0.66    0.246
  55. BD*(   1)Si   1 - H   3        / 56. BD*(   1)Si   2 - H   4            2.66    0.02    0.043


 Natural Bond Orbitals (Summary):

                                                            Principal Delocalizations
           NBO                        Occupancy    Energy   (geminal,vicinal,remote)
 ====================================================================================
 Molecular unit  1  (H2Si2)
     1. BD (   1)Si   1 -Si   2          0.91170    -0.73407  54(g),55(g),53(g),45(v)
                                                    56(g),15(g),29(g)
     2. BD (   2)Si   1 -Si   2          0.90761    -0.55840  53(g),54(g),56(g),15(g)
                                                    49(v),31(g),33(g)
     3. BD (   1)Si   1 - H   3          0.99095    -0.74976  54(g),53(g),56(v)
     4. BD (   1)Si   2 - H   4          0.98886    -0.75449  54(g),53(g),55(v)
     5. CR (   1)Si   1                  1.00000   -66.61968  54(g)
     6. CR (   2)Si   1                  0.99958    -6.40505  54(g),55(g),31(v),45(v)
                                                    56(v)
     7. CR (   3)Si   1                  0.99980    -4.13118  55(g)
     8. CR (   4)Si   1                  0.99985    -4.13409  53(g)
     9. CR (   5)Si   1                  0.99979    -4.13401  17(g)
    10. CR (   1)Si   2                  1.00000   -66.67544  54(g)
    11. CR (   2)Si   2                  0.99949    -6.36516  54(g),15(v),56(g),53(g)
                                                    49(v)
    12. CR (   3)Si   2                  0.99977    -4.13870  56(g)
    13. CR (   4)Si   2                  0.99973    -4.13933  56(g)
    14. CR (   5)Si   2                  0.99980    -4.13942  32(g)
    15. LP*(   1)Si   1                  0.00025     0.12995   
    16. LP*(   1)Si   2                  0.00032     0.36265   
    17. RY*(   1)Si   1                  0.00021    -0.26603   
    18. RY*(   2)Si   1                  0.00011     0.30385   
    19. RY*(   3)Si   1                  0.00002     0.40513   
    20. RY*(   4)Si   1                  0.00000    -0.00355   
    21. RY*(   5)Si   1                  0.00000     0.09154   
    22. RY*(   6)Si   1                  0.00000     0.04441   
    23. RY*(   7)Si   1                  0.00000     2.66645   
    24. RY*(   8)Si   1                  0.00000     0.09020   
    25. RY*(   9)Si   1                  0.00000     0.02698   
    26. RY*(  10)Si   1                  0.00000     0.44991   
    27. RY*(  11)Si   1                  0.00000     0.43332   
    28. RY*(  12)Si   1                  0.00000     0.42441   
    29. RY*(  13)Si   1                  0.00000     0.64747   
    30. RY*(  14)Si   1                  0.00000     0.15131   
    31. RY*(   1)Si   2                  0.00023     0.10300   
    32. RY*(   2)Si   2                  0.00019    -0.25517   
    33. RY*(   3)Si   2                  0.00005     0.43978   
    34. RY*(   4)Si   2                  0.00000     0.02903   
    35. RY*(   5)Si   2                  0.00000     0.09772   
    36. RY*(   6)Si   2                  0.00000     0.04828   
    37. RY*(   7)Si   2                  0.00000     2.57457   
    38. RY*(   8)Si   2                  0.00000     0.07267   
    39. RY*(   9)Si   2                  0.00000     0.02796   
    40. RY*(  10)Si   2                  0.00000     0.18690   
    41. RY*(  11)Si   2                  0.00000     0.43306   
    42. RY*(  12)Si   2                  0.00000     0.44499   
    43. RY*(  13)Si   2                  0.00000     0.54160   
    44. RY*(  14)Si   2                  0.00000     0.43820   
    45. RY*(   1) H   3                  0.00021     0.70650   
    46. RY*(   2) H   3                  0.00005     1.43776   
    47. RY*(   3) H   3                  0.00001     1.44541   
    48. RY*(   4) H   3                  0.00000     1.20106   
    49. RY*(   1) H   4                  0.00017     0.66572   
    50. RY*(   2) H   4                  0.00006     1.65449   
    51. RY*(   3) H   4                  0.00001     1.27481   
    52. RY*(   4) H   4                  0.00000     1.19817   
    53. BD*(   1)Si   1 -Si   2          0.07940    -0.10061   
    54. BD*(   2)Si   1 -Si   2          0.06490    -0.25481   
    55. BD*(   1)Si   1 - H   3          0.03614     0.04682   
    56. BD*(   1)Si   2 - H   4          0.02072     0.07140   
       -------------------------------
              Total Lewis   13.79695  ( 98.5496%)
        Valence non-Lewis    0.20174  (  1.4410%)
        Rydberg non-Lewis    0.00131  (  0.0094%)
       -------------------------------
            Total unit  1   14.00000  (100.0000%)
           Charge unit  1    1.00000
 Leave Link  607 at Wed Apr 16 05:50:39 2025, MaxMem=  8053063680 cpu:              81.4 elap:               8.6
 (Enter /home/szhao/Apps/g16/l9999.exe)
 1\1\GINC-NODE01\SP\UM062X\CBSB2**\H2Si2(1+,2)\SZHAO\16-Apr-2025\0\\#p 
 UM062X/6-311+G** Pop=NBO Read\\NBO Analysis\\1,2\Si,0,-1.10297457,0.,0
 .\Si,0,1.10297457,0.,0.\H,0,-1.67439957,-1.37462879,0.\H,0,2.08930572,
 1.10448803,0.\\Version=ES64L-G16RevA.03\State=2-A"\HF=-579.6836007\S2=
 0.83343\S2-1=0.\S2A=0.750534\RMSD=2.328e-09\Dipole=0.1568387,-0.041646
 4,0.\Quadrupole=5.6018155,-3.2706284,-2.3311871,0.827488,0.,0.\PG=CS [
 SG(H2Si2)]\\@


 WOE UNTO THEM THAT CALL EVIL GOOD, AND GOOD EVIL      
 Job cpu time:       0 days  0 hours  2 minutes 57.8 seconds.
 Elapsed time:       0 days  0 hours  0 minutes 19.2 seconds.
 File lengths (MBytes):  RWF=      6 Int=      0 D2E=      0 Chk=      2 Scr=      1
 Normal termination of Gaussian 16 at Wed Apr 16 05:50:48 2025.
