 Entering Gaussian System, Link 0=g16
 Initial command:
 /home/szhao/Apps/g16/l1.exe "/home/szhao/tmp/Gau-111840.inp" -scrdir="/home/szhao/tmp/"
 Default is to use a total of  16 processors:
                               16 via shared-memory
                                1 via Linda
 Entering Link 1 = /home/szhao/Apps/g16/l1.exe PID=    111841.
  
 Copyright (c) 1988,1990,1992,1993,1995,1998,2003,2009,2016,
            Gaussian, Inc.  All Rights Reserved.
  
 This is part of the Gaussian(R) 16 program.  It is based on
 the Gaussian(R) 09 system (copyright 2009, Gaussian, Inc.),
 the Gaussian(R) 03 system (copyright 2003, Gaussian, Inc.),
 the Gaussian(R) 98 system (copyright 1998, Gaussian, Inc.),
 the Gaussian(R) 94 system (copyright 1995, Gaussian, Inc.),
 the Gaussian 92(TM) system (copyright 1992, Gaussian, Inc.),
 the Gaussian 90(TM) system (copyright 1990, Gaussian, Inc.),
 the Gaussian 88(TM) system (copyright 1988, Gaussian, Inc.),
 the Gaussian 86(TM) system (copyright 1986, Carnegie Mellon
 University), and the Gaussian 82(TM) system (copyright 1983,
 Carnegie Mellon University). Gaussian is a federally registered
 trademark of Gaussian, Inc.
  
 This software contains proprietary and confidential information,
 including trade secrets, belonging to Gaussian, Inc.
  
 This software is provided under written license and may be
 used, copied, transmitted, or stored only in accord with that
 written license.
  
 The following legend is applicable only to US Government
 contracts under FAR:
  
                    RESTRICTED RIGHTS LEGEND
  
 Use, reproduction and disclosure by the US Government is
 subject to restrictions as set forth in subparagraphs (a)
 and (c) of the Commercial Computer Software - Restricted
 Rights clause in FAR 52.227-19.
  
 Gaussian, Inc.
 340 Quinnipiac St., Bldg. 40, Wallingford CT 06492
  
  
 ---------------------------------------------------------------
 Warning -- This program may not be used in any manner that
 competes with the business of Gaussian, Inc. or will provide
 assistance to any competitor of Gaussian, Inc.  The licensee
 of this program is prohibited from giving any competitor of
 Gaussian, Inc. access to this program.  By using this program,
 the user acknowledges that Gaussian, Inc. is engaged in the
 business of creating and licensing software in the field of
 computational chemistry and represents and warrants to the
 licensee that it is not a competitor of Gaussian, Inc. and that
 it will not use this program in any manner prohibited above.
 ---------------------------------------------------------------
  

 Cite this work as:
 Gaussian 16, Revision A.03,
 M. J. Frisch, G. W. Trucks, H. B. Schlegel, G. E. Scuseria, 
 M. A. Robb, J. R. Cheeseman, G. Scalmani, V. Barone, 
 G. A. Petersson, H. Nakatsuji, X. Li, M. Caricato, A. V. Marenich, 
 J. Bloino, B. G. Janesko, R. Gomperts, B. Mennucci, H. P. Hratchian, 
 J. V. Ortiz, A. F. Izmaylov, J. L. Sonnenberg, D. Williams-Young, 
 F. Ding, F. Lipparini, F. Egidi, J. Goings, B. Peng, A. Petrone, 
 T. Henderson, D. Ranasinghe, V. G. Zakrzewski, J. Gao, N. Rega, 
 G. Zheng, W. Liang, M. Hada, M. Ehara, K. Toyota, R. Fukuda, 
 J. Hasegawa, M. Ishida, T. Nakajima, Y. Honda, O. Kitao, H. Nakai, 
 T. Vreven, K. Throssell, J. A. Montgomery, Jr., J. E. Peralta, 
 F. Ogliaro, M. J. Bearpark, J. J. Heyd, E. N. Brothers, K. N. Kudin, 
 V. N. Staroverov, T. A. Keith, R. Kobayashi, J. Normand, 
 K. Raghavachari, A. P. Rendell, J. C. Burant, S. S. Iyengar, 
 J. Tomasi, M. Cossi, J. M. Millam, M. Klene, C. Adamo, R. Cammi, 
 J. W. Ochterski, R. L. Martin, K. Morokuma, O. Farkas, 
 J. B. Foresman, and D. J. Fox, Gaussian, Inc., Wallingford CT, 2016.
 
 ******************************************
 Gaussian 16:  ES64L-G16RevA.03 25-Dec-2016
                21-Apr-2025 
 ******************************************
 %chk=opt.chk
 %mem=4GB
 %nprocshared=8
 Will use up to    8 processors via shared memory.
 --------------------------------------------
 #p opt UM062X/6-311+G** nosymm int=superfine
 --------------------------------------------
 1/18=20,19=15,26=5,38=1/1,3;
 2/9=110,12=2,15=1,17=6,18=5,40=1/2;
 3/5=4,6=6,7=111,11=2,25=1,30=1,71=1,74=-55,75=-7,116=2/1,2,3;
 4//1;
 5/5=2,38=5/2;
 6/7=2,8=2,9=2,10=2,28=1/1;
 7/30=1/1,2,3,16;
 1/18=20,19=15,26=5/3(2);
 2/9=110,15=1/2;
 99//99;
 2/9=110,15=1/2;
 3/5=4,6=6,7=111,11=2,25=1,30=1,71=1,74=-55,75=-7,116=2/1,2,3;
 4/5=5,16=3,69=1/1;
 5/5=2,38=5/2;
 7/30=1/1,2,3,16;
 1/18=20,19=15,26=5/3(-5);
 2/9=110,15=1/2;
 6/7=2,8=2,9=2,10=2,19=2,28=1/1;
 99/9=1/99;
 Leave Link    1 at Mon Apr 21 20:18:36 2025, MaxMem=   536870912 cpu:               1.7 elap:               0.2
 (Enter /home/szhao/Apps/g16/l101.exe)
 -------------------
 Title Card Required
 -------------------
 Symbolic Z-matrix:
 Charge =  1 Multiplicity = 2
 Si                   -1   -1.9663    0.        0. 
 Si                   -1    1.9663    0.        0. 
 H                    0    -2.69477  -1.27361   0. 
 H                    0     2.69477   1.27361   0.0012 
 H                    0    -2.69479   1.2736   -0.0001 
 H                    0     2.69479  -1.2736   -0.0013 
 
 Add virtual bond connecting atoms Si2        and Si1        Dist= 7.43D+00.
 ITRead=  2  2  0  0  0  0
 MicOpt= -2 -2 -1 -1 -1 -1
 NAtoms=      6 NQM=        4 NQMF=       2 NMMI=      0 NMMIF=      0
                NMic=       0 NMicF=      0.
                    Isotopes and Nuclear Properties:
 (Nuclear quadrupole moments (NQMom) in fm**2, nuclear magnetic moments (NMagM)
  in nuclear magnetons)

  Atom         1           2           3           4           5           6
 IAtWgt=          28          28           1           1           1           1
 AtmWgt=  27.9769284  27.9769284   1.0078250   1.0078250   1.0078250   1.0078250
 NucSpn=           0           0           1           1           1           1
 AtZEff=  -0.0000000  -0.0000000  -0.0000000  -0.0000000  -0.0000000  -0.0000000
 NQMom=    0.0000000   0.0000000   0.0000000   0.0000000   0.0000000   0.0000000
 NMagM=    0.0000000   0.0000000   2.7928460   2.7928460   2.7928460   2.7928460
 AtZNuc=  14.0000000  14.0000000   1.0000000   1.0000000   1.0000000   1.0000000
 Leave Link  101 at Mon Apr 21 20:18:36 2025, MaxMem=   536870912 cpu:               4.1 elap:               0.6
 (Enter /home/szhao/Apps/g16/l103.exe)

 GradGradGradGradGradGradGradGradGradGradGradGradGradGradGradGradGradGrad
 Berny optimization.
 Initialization pass.
                           ----------------------------
                           !    Initial Parameters    !
                           ! (Angstroms and Degrees)  !
 --------------------------                            --------------------------
 ! Name  Definition              Value          Derivative Info.                !
 --------------------------------------------------------------------------------
 ! X1    R(1,-1)                -1.9663         Frozen                          !
 ! Y1    R(1,-2)                 0.0            Frozen                          !
 ! Z1    R(1,-3)                 0.0            Frozen                          !
 ! X2    R(2,-1)                 1.9663         Frozen                          !
 ! Y2    R(2,-2)                 0.0            Frozen                          !
 ! Z2    R(2,-3)                 0.0            Frozen                          !
 ! R1    R(1,3)                  1.4672         estimate D2E/DX2                !
 ! R2    R(1,5)                  1.4672         estimate D2E/DX2                !
 ! R3    R(2,4)                  1.4672         estimate D2E/DX2                !
 ! R4    R(2,6)                  1.4672         estimate D2E/DX2                !
 ! A1    A(2,1,3)              119.7685         estimate D2E/DX2                !
 ! A2    A(2,1,5)              119.7693         estimate D2E/DX2                !
 ! A3    A(3,1,5)              120.4622         estimate D2E/DX2                !
 ! A4    A(1,2,4)              119.7685         estimate D2E/DX2                !
 ! A5    A(1,2,6)              119.7693         estimate D2E/DX2                !
 ! A6    A(4,2,6)              120.4622         estimate D2E/DX2                !
 ! D1    D(3,1,2,4)           -179.946          estimate D2E/DX2                !
 ! D2    D(3,1,2,6)              0.0583         estimate D2E/DX2                !
 ! D3    D(5,1,2,4)              0.0583         estimate D2E/DX2                !
 ! D4    D(5,1,2,6)           -179.9375         estimate D2E/DX2                !
 --------------------------------------------------------------------------------
 Trust Radius=3.00D-01 FncErr=1.00D-07 GrdErr=1.00D-07 EigMax=2.50D+02 EigMin=1.00D-04
 Number of steps in this run=     30 maximum allowed number of steps=    100.
 GradGradGradGradGradGradGradGradGradGradGradGradGradGradGradGradGradGrad

 Leave Link  103 at Mon Apr 21 20:18:37 2025, MaxMem=   536870912 cpu:               0.5 elap:               0.1
 (Enter /home/szhao/Apps/g16/l202.exe)
                          Input orientation:                          
 ---------------------------------------------------------------------
 Center     Atomic      Atomic             Coordinates (Angstroms)
 Number     Number       Type             X           Y           Z
 ---------------------------------------------------------------------
      1         14           0       -1.966295    0.000000    0.000000
      2         14           0        1.966295    0.000000    0.000000
      3          1           0       -2.694766   -1.273606    0.000000
      4          1           0        2.694766    1.273606    0.001200
      5          1           0       -2.694788    1.273601   -0.000095
      6          1           0        2.694788   -1.273601   -0.001295
 ---------------------------------------------------------------------
                    Distance matrix (angstroms):
                    1          2          3          4          5
     1  Si   0.000000
     2  Si   3.932590   0.000000
     3  H    1.467223   4.831932   0.000000
     4  H    4.831932   1.467223   5.961154   0.000000
     5  H    1.467229   4.831951   2.547207   5.389554   0.000000
     6  H    4.831951   1.467230   5.389554   2.547208   5.961188
                    6
     6  H    0.000000
 Symmetry turned off by external request.
 Stoichiometry    H4Si2(1+,2)
 Framework group  C2[X(H4Si2)]
 Deg. of freedom     7
 Full point group                 C2      NOp   2
 Rotational constants (GHZ):          77.2864592           2.0576493           2.0042878
 Leave Link  202 at Mon Apr 21 20:18:37 2025, MaxMem=   536870912 cpu:               0.1 elap:               0.0
 (Enter /home/szhao/Apps/g16/l301.exe)
 Standard basis: 6-311+G(d,p) (5D, 7F)
 Ernie: Thresh=  0.10000D-02 Tol=  0.10000D-05 Strict=F.
    84 basis functions,   132 primitive gaussians,    86 cartesian basis functions
    16 alpha electrons       15 beta electrons
       nuclear repulsion energy        53.4937289358 Hartrees.
 IExCor= 4336 DFT=T Ex+Corr=M062X ExCW=0 ScaHFX=  0.540000
 ScaDFX=  1.000000  1.000000  1.000000  1.000000 ScalE2=  1.000000  1.000000
 IRadAn=      7 IRanWt=     -1 IRanGd=            0 ICorTp=0 IEmpDi=  4
 NAtoms=    6 NActive=    6 NUniq=    6 SFac= 1.00D+00 NAtFMM=   60 NAOKFM=F Big=F
 Integral buffers will be    131072 words long.
 Raffenetti 2 integral format.
 Two-electron integral symmetry is turned off.
 Leave Link  301 at Mon Apr 21 20:18:37 2025, MaxMem=   536870912 cpu:               0.9 elap:               0.2
 (Enter /home/szhao/Apps/g16/l302.exe)
 NPDir=0 NMtPBC=     1 NCelOv=     1 NCel=       1 NClECP=     1 NCelD=      1
         NCelK=      1 NCelE2=     1 NClLst=     1 CellRange=     0.0.
 One-electron integrals computed using PRISM.
 NBasis=    84 RedAO= T EigKep=  1.03D-02  NBF=    84
 NBsUse=    84 1.00D-06 EigRej= -1.00D+00 NBFU=    84
 Precomputing XC quadrature grid using
 IXCGrd= 4 IRadAn=           7 IRanWt=          -1 IRanGd=           0 AccXCQ= 0.00D+00.
 Generated NRdTot=       0 NPtTot=           0 NUsed=           0 NTot=          32
 NSgBfM=    78    78    78    78    78 MxSgAt=     6 MxSgA2=     6.
 Leave Link  302 at Mon Apr 21 20:18:38 2025, MaxMem=   536870912 cpu:               2.3 elap:               0.3
 (Enter /home/szhao/Apps/g16/l303.exe)
 DipDrv:  MaxL=1.
 Leave Link  303 at Mon Apr 21 20:18:38 2025, MaxMem=   536870912 cpu:               0.7 elap:               0.1
 (Enter /home/szhao/Apps/g16/l401.exe)
 ExpMin= 3.31D-02 ExpMax= 6.94D+04 ExpMxC= 2.33D+03 IAcc=3 IRadAn=         7 AccDes= 0.00D+00
 Harris functional with IExCor= 1009 and IRadAn=       7 diagonalized for initial guess.
 HarFok:  IExCor= 1009 AccDes= 0.00D+00 IRadAn=         7 IDoV= 1 UseB2=F ITyADJ=14
 ICtDFT=  3500011 ScaDFX=  1.000000  1.000000  1.000000  1.000000
 FoFCou: FMM=F IPFlag=           0 FMFlag=      100000 FMFlg1=           0
         NFxFlg=           0 DoJE=T BraDBF=F KetDBF=T FulRan=T
         wScrn=  0.000000 ICntrl=       500 IOpCl=  0 I1Cent=   200000004 NGrid=           0
         NMat0=    1 NMatS0=      1 NMatT0=    0 NMatD0=    1 NMtDS0=    0 NMtDT0=    0
 Symmetry not used in FoFCou.
 Harris En= -580.637242551601    
 JPrj=0 DoOrth=F DoCkMO=F.
 Initial guess <Sx>= 0.0000 <Sy>= 0.0000 <Sz>= 0.5000 <S**2>= 0.7500 S= 0.5000
 Leave Link  401 at Mon Apr 21 20:18:39 2025, MaxMem=   536870912 cpu:               5.4 elap:               0.7
 (Enter /home/szhao/Apps/g16/l502.exe)
 Keep R1 and R2 ints in memory in canonical form, NReq=20057634.
 FoFCou: FMM=F IPFlag=           0 FMFlag=           0 FMFlg1=           0
         NFxFlg=           0 DoJE=F BraDBF=F KetDBF=F FulRan=T
         wScrn=  0.000000 ICntrl=       600 IOpCl=  0 I1Cent=           0 NGrid=           0
         NMat0=    1 NMatS0=   3570 NMatT0=    0 NMatD0=    1 NMtDS0=    0 NMtDT0=    0
 Symmetry not used in FoFCou.
 Two-electron integral symmetry not used.
 UHF open shell SCF:
 Using DIIS extrapolation, IDIIS=  1040.
 NGot=   536870912 LenX=   524106186 LenY=   524098349
 Requested convergence on RMS density matrix=1.00D-08 within 128 cycles.
 Requested convergence on MAX density matrix=1.00D-06.
 Requested convergence on             energy=1.00D-06.
 No special actions if energy rises.

 Cycle   1  Pass 1  IDiag  1:
 E= -580.839812440862    
 DIIS: error= 2.93D-02 at cycle   1 NSaved=   1.
 NSaved= 1 IEnMin= 1 EnMin= -580.839812440862     IErMin= 1 ErrMin= 2.93D-02
 ErrMax= 2.93D-02  0.00D+00 EMaxC= 1.00D-01 BMatC= 2.19D-01 BMatP= 2.19D-01
 IDIUse=3 WtCom= 7.07D-01 WtEn= 2.93D-01
 Coeff-Com:  0.100D+01
 Coeff-En:   0.100D+01
 Coeff:      0.100D+01
 Gap=     0.162 Goal=   None    Shift=    0.000
 Gap=     0.142 Goal=   None    Shift=    0.000
 GapD=    0.142 DampG=1.000 DampE=0.500 DampFc=0.5000 IDamp=-1.
 Damping current iteration by 5.00D-01
 RMSDP=4.17D-03 MaxDP=1.33D-01              OVMax= 1.02D-01

 Cycle   2  Pass 1  IDiag  1:
 E= -580.858844400959     Delta-E=       -0.019031960097 Rises=F Damp=T
 DIIS: error= 1.50D-02 at cycle   2 NSaved=   2.
 NSaved= 2 IEnMin= 2 EnMin= -580.858844400959     IErMin= 2 ErrMin= 1.50D-02
 ErrMax= 1.50D-02  0.00D+00 EMaxC= 1.00D-01 BMatC= 3.86D-02 BMatP= 2.19D-01
 IDIUse=3 WtCom= 8.50D-01 WtEn= 1.50D-01
 Coeff-Com: -0.541D+00 0.154D+01
 Coeff-En:   0.000D+00 0.100D+01
 Coeff:     -0.460D+00 0.146D+01
 Gap=     0.165 Goal=   None    Shift=    0.000
 Gap=     0.142 Goal=   None    Shift=    0.000
 RMSDP=1.50D-03 MaxDP=4.82D-02 DE=-1.90D-02 OVMax= 2.59D-02

 Cycle   3  Pass 1  IDiag  1:
 E= -580.875422643262     Delta-E=       -0.016578242303 Rises=F Damp=F
 DIIS: error= 9.77D-04 at cycle   3 NSaved=   3.
 NSaved= 3 IEnMin= 3 EnMin= -580.875422643262     IErMin= 3 ErrMin= 9.77D-04
 ErrMax= 9.77D-04  0.00D+00 EMaxC= 1.00D-01 BMatC= 3.19D-04 BMatP= 3.86D-02
 IDIUse=3 WtCom= 9.90D-01 WtEn= 9.77D-03
 Coeff-Com: -0.715D-01 0.135D+00 0.936D+00
 Coeff-En:   0.000D+00 0.000D+00 0.100D+01
 Coeff:     -0.708D-01 0.134D+00 0.937D+00
 Gap=     0.165 Goal=   None    Shift=    0.000
 Gap=     0.142 Goal=   None    Shift=    0.000
 RMSDP=1.62D-04 MaxDP=5.59D-03 DE=-1.66D-02 OVMax= 3.58D-03

 Cycle   4  Pass 1  IDiag  1:
 E= -580.875471590020     Delta-E=       -0.000048946758 Rises=F Damp=F
 DIIS: error= 2.07D-04 at cycle   4 NSaved=   4.
 NSaved= 4 IEnMin= 4 EnMin= -580.875471590020     IErMin= 4 ErrMin= 2.07D-04
 ErrMax= 2.07D-04  0.00D+00 EMaxC= 1.00D-01 BMatC= 8.22D-06 BMatP= 3.19D-04
 IDIUse=3 WtCom= 9.98D-01 WtEn= 2.07D-03
 Coeff-Com: -0.734D-02 0.108D-01 0.201D-01 0.976D+00
 Coeff-En:   0.000D+00 0.000D+00 0.000D+00 0.100D+01
 Coeff:     -0.733D-02 0.108D-01 0.200D-01 0.977D+00
 Gap=     0.166 Goal=   None    Shift=    0.000
 Gap=     0.142 Goal=   None    Shift=    0.000
 RMSDP=5.81D-05 MaxDP=2.24D-03 DE=-4.89D-05 OVMax= 1.57D-03

 Cycle   5  Pass 1  IDiag  1:
 E= -580.875476917957     Delta-E=       -0.000005327936 Rises=F Damp=F
 DIIS: error= 5.80D-05 at cycle   5 NSaved=   5.
 NSaved= 5 IEnMin= 5 EnMin= -580.875476917957     IErMin= 5 ErrMin= 5.80D-05
 ErrMax= 5.80D-05  0.00D+00 EMaxC= 1.00D-01 BMatC= 5.49D-07 BMatP= 8.22D-06
 IDIUse=1 WtCom= 1.00D+00 WtEn= 0.00D+00
 Coeff-Com:  0.609D-02-0.111D-01-0.492D-01-0.137D+00 0.119D+01
 Coeff:      0.609D-02-0.111D-01-0.492D-01-0.137D+00 0.119D+01
 Gap=     0.166 Goal=   None    Shift=    0.000
 Gap=     0.142 Goal=   None    Shift=    0.000
 RMSDP=1.99D-05 MaxDP=6.27D-04 DE=-5.33D-06 OVMax= 6.29D-04

 Cycle   6  Pass 1  IDiag  1:
 E= -580.875477438313     Delta-E=       -0.000000520356 Rises=F Damp=F
 DIIS: error= 9.92D-06 at cycle   6 NSaved=   6.
 NSaved= 6 IEnMin= 6 EnMin= -580.875477438313     IErMin= 6 ErrMin= 9.92D-06
 ErrMax= 9.92D-06  0.00D+00 EMaxC= 1.00D-01 BMatC= 1.13D-08 BMatP= 5.49D-07
 IDIUse=1 WtCom= 1.00D+00 WtEn= 0.00D+00
 Coeff-Com: -0.266D-03 0.520D-03 0.306D-02-0.142D-01-0.711D-01 0.108D+01
 Coeff:     -0.266D-03 0.520D-03 0.306D-02-0.142D-01-0.711D-01 0.108D+01
 Gap=     0.166 Goal=   None    Shift=    0.000
 Gap=     0.142 Goal=   None    Shift=    0.000
 RMSDP=2.17D-06 MaxDP=6.68D-05 DE=-5.20D-07 OVMax= 6.84D-05

 Cycle   7  Pass 1  IDiag  1:
 E= -580.875477448931     Delta-E=       -0.000000010619 Rises=F Damp=F
 DIIS: error= 2.55D-06 at cycle   7 NSaved=   7.
 NSaved= 7 IEnMin= 7 EnMin= -580.875477448931     IErMin= 7 ErrMin= 2.55D-06
 ErrMax= 2.55D-06  0.00D+00 EMaxC= 1.00D-01 BMatC= 9.18D-10 BMatP= 1.13D-08
 IDIUse=1 WtCom= 1.00D+00 WtEn= 0.00D+00
 Coeff-Com: -0.214D-03 0.387D-03 0.151D-02 0.944D-02-0.384D-01-0.252D+00
 Coeff-Com:  0.128D+01
 Coeff:     -0.214D-03 0.387D-03 0.151D-02 0.944D-02-0.384D-01-0.252D+00
 Coeff:      0.128D+01
 Gap=     0.166 Goal=   None    Shift=    0.000
 Gap=     0.142 Goal=   None    Shift=    0.000
 RMSDP=5.86D-07 MaxDP=1.15D-05 DE=-1.06D-08 OVMax= 2.19D-05

 Cycle   8  Pass 1  IDiag  1:
 E= -580.875477449990     Delta-E=       -0.000000001059 Rises=F Damp=F
 DIIS: error= 5.36D-07 at cycle   8 NSaved=   8.
 NSaved= 8 IEnMin= 8 EnMin= -580.875477449990     IErMin= 8 ErrMin= 5.36D-07
 ErrMax= 5.36D-07  0.00D+00 EMaxC= 1.00D-01 BMatC= 5.64D-11 BMatP= 9.18D-10
 IDIUse=1 WtCom= 1.00D+00 WtEn= 0.00D+00
 Coeff-Com:  0.676D-04-0.123D-03-0.577D-03-0.163D-02 0.135D-01 0.651D-02
 Coeff-Com: -0.324D+00 0.131D+01
 Coeff:      0.676D-04-0.123D-03-0.577D-03-0.163D-02 0.135D-01 0.651D-02
 Coeff:     -0.324D+00 0.131D+01
 Gap=     0.166 Goal=   None    Shift=    0.000
 Gap=     0.142 Goal=   None    Shift=    0.000
 RMSDP=1.70D-07 MaxDP=2.68D-06 DE=-1.06D-09 OVMax= 5.56D-06

 Cycle   9  Pass 1  IDiag  1:
 E= -580.875477450057     Delta-E=       -0.000000000067 Rises=F Damp=F
 DIIS: error= 1.30D-07 at cycle   9 NSaved=   9.
 NSaved= 9 IEnMin= 9 EnMin= -580.875477450057     IErMin= 9 ErrMin= 1.30D-07
 ErrMax= 1.30D-07  0.00D+00 EMaxC= 1.00D-01 BMatC= 3.46D-12 BMatP= 5.64D-11
 IDIUse=1 WtCom= 1.00D+00 WtEn= 0.00D+00
 Coeff-Com:  0.455D-05-0.823D-05-0.149D-04-0.434D-03 0.815D-03 0.198D-01
 Coeff-Com: -0.691D-01-0.404D-01 0.109D+01
 Coeff:      0.455D-05-0.823D-05-0.149D-04-0.434D-03 0.815D-03 0.198D-01
 Coeff:     -0.691D-01-0.404D-01 0.109D+01
 Gap=     0.166 Goal=   None    Shift=    0.000
 Gap=     0.142 Goal=   None    Shift=    0.000
 RMSDP=3.94D-08 MaxDP=5.77D-07 DE=-6.68D-11 OVMax= 2.09D-06

 Cycle  10  Pass 1  IDiag  1:
 E= -580.875477450062     Delta-E=       -0.000000000005 Rises=F Damp=F
 DIIS: error= 6.60D-08 at cycle  10 NSaved=  10.
 NSaved=10 IEnMin=10 EnMin= -580.875477450062     IErMin=10 ErrMin= 6.60D-08
 ErrMax= 6.60D-08  0.00D+00 EMaxC= 1.00D-01 BMatC= 4.29D-13 BMatP= 3.46D-12
 IDIUse=1 WtCom= 1.00D+00 WtEn= 0.00D+00
 Coeff-Com: -0.206D-05 0.355D-05 0.218D-04 0.952D-04-0.562D-03-0.285D-02
 Coeff-Com:  0.251D-01-0.758D-01-0.163D+00 0.122D+01
 Coeff:     -0.206D-05 0.355D-05 0.218D-04 0.952D-04-0.562D-03-0.285D-02
 Coeff:      0.251D-01-0.758D-01-0.163D+00 0.122D+01
 Gap=     0.166 Goal=   None    Shift=    0.000
 Gap=     0.142 Goal=   None    Shift=    0.000
 RMSDP=2.02D-08 MaxDP=3.20D-07 DE=-5.00D-12 OVMax= 1.53D-06

 Cycle  11  Pass 1  IDiag  1:
 E= -580.875477450064     Delta-E=       -0.000000000002 Rises=F Damp=F
 DIIS: error= 5.71D-08 at cycle  11 NSaved=  11.
 NSaved=11 IEnMin=11 EnMin= -580.875477450064     IErMin=11 ErrMin= 5.71D-08
 ErrMax= 5.71D-08  0.00D+00 EMaxC= 1.00D-01 BMatC= 2.10D-13 BMatP= 4.29D-13
 IDIUse=1 WtCom= 1.00D+00 WtEn= 0.00D+00
 Coeff-Com:  0.116D-05-0.186D-05-0.171D-04-0.443D-04 0.385D-03 0.113D-02
 Coeff-Com: -0.159D-01 0.615D-01 0.860D-01-0.103D+01 0.190D+01
 Coeff:      0.116D-05-0.186D-05-0.171D-04-0.443D-04 0.385D-03 0.113D-02
 Coeff:     -0.159D-01 0.615D-01 0.860D-01-0.103D+01 0.190D+01
 Gap=     0.166 Goal=   None    Shift=    0.000
 Gap=     0.142 Goal=   None    Shift=    0.000
 RMSDP=2.23D-08 MaxDP=4.21D-07 DE=-2.05D-12 OVMax= 1.93D-06

 Cycle  12  Pass 1  IDiag  1:
 E= -580.875477450066     Delta-E=       -0.000000000002 Rises=F Damp=F
 DIIS: error= 4.57D-08 at cycle  12 NSaved=  12.
 NSaved=12 IEnMin=12 EnMin= -580.875477450066     IErMin=12 ErrMin= 4.57D-08
 ErrMax= 4.57D-08  0.00D+00 EMaxC= 1.00D-01 BMatC= 1.36D-13 BMatP= 2.10D-13
 IDIUse=1 WtCom= 1.00D+00 WtEn= 0.00D+00
 Coeff-Com:  0.469D-06-0.123D-05 0.835D-05-0.354D-04-0.512D-04 0.140D-02
 Coeff-Com: -0.112D-02-0.203D-01 0.241D-01 0.468D+00-0.376D+01 0.429D+01
 Coeff:      0.469D-06-0.123D-05 0.835D-05-0.354D-04-0.512D-04 0.140D-02
 Coeff:     -0.112D-02-0.203D-01 0.241D-01 0.468D+00-0.376D+01 0.429D+01
 Gap=     0.166 Goal=   None    Shift=    0.000
 Gap=     0.142 Goal=   None    Shift=    0.000
 RMSDP=6.80D-08 MaxDP=1.29D-06 DE=-1.59D-12 OVMax= 5.90D-06

 Cycle  13  Pass 1  IDiag  1:
 E= -580.875477450069     Delta-E=       -0.000000000003 Rises=F Damp=F
 DIIS: error= 1.13D-08 at cycle  13 NSaved=  13.
 NSaved=13 IEnMin=13 EnMin= -580.875477450069     IErMin=13 ErrMin= 1.13D-08
 ErrMax= 1.13D-08  0.00D+00 EMaxC= 1.00D-01 BMatC= 1.43D-14 BMatP= 1.36D-13
 IDIUse=1 WtCom= 1.00D+00 WtEn= 0.00D+00
 Coeff-Com: -0.127D-06 0.112D-06 0.456D-05-0.335D-05-0.716D-04 0.174D-03
 Coeff-Com:  0.227D-02-0.150D-01-0.135D-01 0.308D+00-0.116D+01 0.820D+00
 Coeff-Com:  0.106D+01
 Coeff:     -0.127D-06 0.112D-06 0.456D-05-0.335D-05-0.716D-04 0.174D-03
 Coeff:      0.227D-02-0.150D-01-0.135D-01 0.308D+00-0.116D+01 0.820D+00
 Coeff:      0.106D+01
 Gap=     0.166 Goal=   None    Shift=    0.000
 Gap=     0.142 Goal=   None    Shift=    0.000
 RMSDP=1.95D-08 MaxDP=3.70D-07 DE=-3.07D-12 OVMax= 1.69D-06

 Cycle  14  Pass 1  IDiag  1:
 E= -580.875477450069     Delta-E=       -0.000000000001 Rises=F Damp=F
 DIIS: error= 1.88D-09 at cycle  14 NSaved=  14.
 NSaved=14 IEnMin=14 EnMin= -580.875477450069     IErMin=14 ErrMin= 1.88D-09
 ErrMax= 1.88D-09  0.00D+00 EMaxC= 1.00D-01 BMatC= 1.43D-15 BMatP= 1.43D-14
 IDIUse=1 WtCom= 1.00D+00 WtEn= 0.00D+00
 Coeff-Com: -0.943D-07 0.212D-06-0.690D-06 0.222D-05 0.292D-05-0.123D-03
 Coeff-Com:  0.278D-03 0.876D-03-0.515D-02-0.156D-01 0.356D+00-0.516D+00
 Coeff-Com:  0.263D+00 0.918D+00
 Coeff:     -0.943D-07 0.212D-06-0.690D-06 0.222D-05 0.292D-05-0.123D-03
 Coeff:      0.278D-03 0.876D-03-0.515D-02-0.156D-01 0.356D+00-0.516D+00
 Coeff:      0.263D+00 0.918D+00
 Gap=     0.166 Goal=   None    Shift=    0.000
 Gap=     0.142 Goal=   None    Shift=    0.000
 RMSDP=3.63D-09 MaxDP=6.83D-08 DE=-6.82D-13 OVMax= 3.07D-07

 SCF Done:  E(UM062X) =  -580.875477450     A.U. after   14 cycles
            NFock= 14  Conv=0.36D-08     -V/T= 2.0015
 <Sx>= 0.0000 <Sy>= 0.0000 <Sz>= 0.5000 <S**2>= 0.7564 S= 0.5032
 <L.S>=  0.00000000000    
 KE= 5.800281532216D+02 PE=-1.484105965075D+03 EE= 2.697086054676D+02
 Annihilation of the first spin contaminant:
 S**2 before annihilation     0.7564,   after     0.7500
 Leave Link  502 at Mon Apr 21 20:19:01 2025, MaxMem=   536870912 cpu:             172.2 elap:              22.5
 (Enter /home/szhao/Apps/g16/l601.exe)
 Copying SCF densities to generalized density rwf, IOpCl= 1 IROHF=0.

 **********************************************************************

            Population analysis using the SCF density.

 **********************************************************************

 Alpha  occ. eigenvalues --  -67.24073 -67.24073  -5.78652  -5.78650  -4.09934
 Alpha  occ. eigenvalues --   -4.09934  -4.09632  -4.09632  -4.09257  -4.09256
 Alpha  occ. eigenvalues --   -0.78952  -0.78603  -0.62224  -0.62128  -0.49278
 Alpha  occ. eigenvalues --   -0.44235
 Alpha virt. eigenvalues --   -0.27654  -0.26453  -0.12168  -0.11965  -0.09679
 Alpha virt. eigenvalues --   -0.09322  -0.08977  -0.07978  -0.07397  -0.06528
 Alpha virt. eigenvalues --   -0.06043  -0.05647  -0.03792  -0.03160   0.13022
 Alpha virt. eigenvalues --    0.13168   0.14633   0.14790   0.15547   0.17679
 Alpha virt. eigenvalues --    0.19532   0.24800   0.25358   0.26984   0.31249
 Alpha virt. eigenvalues --    0.32058   0.37455   0.37458   0.40117   0.40339
 Alpha virt. eigenvalues --    0.41477   0.44858   0.61527   0.61636   0.69120
 Alpha virt. eigenvalues --    0.69759   1.01849   1.01961   1.02399   1.02754
 Alpha virt. eigenvalues --    1.02979   1.04287   1.21553   1.24143   1.29136
 Alpha virt. eigenvalues --    1.29176   1.31033   1.31033   1.40545   1.41215
 Alpha virt. eigenvalues --    1.75240   1.75571   1.91769   1.93402   2.41524
 Alpha virt. eigenvalues --    2.43050   2.43279   2.47566   5.28973   5.35595
 Alpha virt. eigenvalues --   11.22623  11.23557  11.28009  11.29603  11.38799
 Alpha virt. eigenvalues --   11.39383 140.85340 140.93075
  Beta  occ. eigenvalues --  -67.23718 -67.23718  -5.78388  -5.78386  -4.09830
  Beta  occ. eigenvalues --   -4.09829  -4.09137  -4.09137  -4.08820  -4.08820
  Beta  occ. eigenvalues --   -0.77193  -0.76696  -0.61137  -0.61024  -0.43517
  Beta virt. eigenvalues --   -0.29269  -0.26468  -0.25071  -0.11671  -0.11030
  Beta virt. eigenvalues --   -0.09420  -0.09287  -0.09251  -0.07478  -0.07212
  Beta virt. eigenvalues --   -0.06404  -0.05327  -0.05311  -0.02758  -0.02303
  Beta virt. eigenvalues --    0.12935   0.13577   0.14461   0.15459   0.15911
  Beta virt. eigenvalues --    0.17993   0.19960   0.24934   0.26209   0.27238
  Beta virt. eigenvalues --    0.31573   0.32992   0.39217   0.39224   0.42741
  Beta virt. eigenvalues --    0.42898   0.44325   0.47083   0.63394   0.63491
  Beta virt. eigenvalues --    0.70084   0.70676   1.02590   1.03685   1.04303
  Beta virt. eigenvalues --    1.04482   1.06015   1.07353   1.21784   1.24641
  Beta virt. eigenvalues --    1.29497   1.29541   1.31524   1.31527   1.41437
  Beta virt. eigenvalues --    1.41978   1.76892   1.77186   1.93208   1.94759
  Beta virt. eigenvalues --    2.42612   2.44145   2.44210   2.48440   5.30087
  Beta virt. eigenvalues --    5.36749  11.23356  11.24293  11.29872  11.31505
  Beta virt. eigenvalues --   11.39490  11.40075 140.85892 140.93629
          Condensed to atoms (all electrons):
               1          2          3          4          5          6
     1  Si  12.801657   0.043598   0.299736   0.000160   0.299736   0.000160
     2  Si   0.043598  12.801657   0.000160   0.299735   0.000160   0.299736
     3  H    0.299736   0.000160   0.737323   0.000008  -0.009765   0.000014
     4  H    0.000160   0.299735   0.000008   0.737323   0.000014  -0.009765
     5  H    0.299736   0.000160  -0.009765   0.000014   0.737322   0.000008
     6  H    0.000160   0.299736   0.000014  -0.009765   0.000008   0.737322
          Atomic-Atomic Spin Densities.
               1          2          3          4          5          6
     1  Si   0.600028  -0.140810  -0.034613   0.004832  -0.034613   0.004832
     2  Si  -0.140810   0.600028   0.004832  -0.034613   0.004832  -0.034613
     3  H   -0.034613   0.004832   0.072191  -0.000019   0.007848  -0.000067
     4  H    0.004832  -0.034613  -0.000019   0.072191  -0.000067   0.007848
     5  H   -0.034613   0.004832   0.007848  -0.000067   0.072192  -0.000019
     6  H    0.004832  -0.034613  -0.000067   0.007848  -0.000019   0.072193
 Mulliken charges and spin densities:
               1          2
     1  Si   0.554952   0.399656
     2  Si   0.554952   0.399656
     3  H   -0.027476   0.050171
     4  H   -0.027476   0.050172
     5  H   -0.027476   0.050173
     6  H   -0.027476   0.050173
 Sum of Mulliken charges =   1.00000   1.00000
 Mulliken charges and spin densities with hydrogens summed into heavy atoms:
               1          2
     1  Si   0.500000   0.500000
     2  Si   0.500000   0.500000
 Electronic spatial extent (au):  <R**2>=            548.4025
 Charge=              1.0000 electrons
 Dipole moment (field-independent basis, Debye):
    X=              0.0000    Y=              0.0000    Z=             -0.0001  Tot=              0.0001
 Quadrupole moment (field-independent basis, Debye-Ang):
   XX=             -0.9761   YY=            -25.1736   ZZ=            -20.8061
   XY=             -0.0000   XZ=              0.0000   YZ=             -0.0021
 Traceless Quadrupole moment (field-independent basis, Debye-Ang):
   XX=             14.6758   YY=             -9.5217   ZZ=             -5.1541
   XY=             -0.0000   XZ=              0.0000   YZ=             -0.0021
 Octapole moment (field-independent basis, Debye-Ang**2):
  XXX=             -0.0000  YYY=             -0.0000  ZZZ=              0.0003  XYY=              0.0000
  XXY=             -0.0000  XXZ=              0.0018  XZZ=             -0.0000  YZZ=             -0.0000
  YYZ=              0.0001  XYZ=             -0.0046
 Hexadecapole moment (field-independent basis, Debye-Ang**3):
 XXXX=           -614.1045 YYYY=            -69.0344 ZZZZ=            -24.9585 XXXY=             -0.0002
 XXXZ=              0.0000 YYYX=              0.0001 YYYZ=             -0.0087 ZZZX=              0.0000
 ZZZY=             -0.0121 XXYY=           -122.0661 XXZZ=            -96.3731 YYZZ=            -16.8460
 XXYZ=             -0.0121 YYXZ=             -0.0000 ZZXY=              0.0001
 N-N= 5.349372893577D+01 E-N=-1.484105965108D+03  KE= 5.800281532216D+02
                          Isotropic Fermi Contact Couplings
        Atom                 a.u.       MegaHertz       Gauss      10(-4) cm-1
     1  Si(29)             0.66335    -589.53321    -210.36011    -196.64711
     2  Si(29)             0.66335    -589.53338    -210.36017    -196.64717
     3  H(1)               0.02100      93.88497      33.50049      31.31666
     4  H(1)               0.02100      93.88506      33.50053      31.31669
     5  H(1)               0.02100      93.88660      33.50107      31.31720
     6  H(1)               0.02100      93.88669      33.50110      31.31723
 --------------------------------------------------------
       Center         ----  Spin Dipole Couplings  ----
                      3XX-RR        3YY-RR        3ZZ-RR
 --------------------------------------------------------
     1   Atom        0.928408     -0.469418     -0.458991
     2   Atom        0.928408     -0.469418     -0.458991
     3   Atom        0.001363      0.008309     -0.009672
     4   Atom        0.001363      0.008309     -0.009672
     5   Atom        0.001363      0.008309     -0.009672
     6   Atom        0.001363      0.008309     -0.009672
 --------------------------------------------------------
                        XY            XZ            YZ
 --------------------------------------------------------
     1   Atom        0.000012      0.000253      0.000000
     2   Atom        0.000013     -0.000253     -0.000009
     3   Atom        0.004438      0.000002     -0.000001
     4   Atom        0.004438      0.000002      0.000018
     5   Atom       -0.004438      0.000002     -0.000001
     6   Atom       -0.004438     -0.000006      0.000018
 --------------------------------------------------------


 ---------------------------------------------------------------------------------
              Anisotropic Spin Dipole Couplings in Principal Axis System
 ---------------------------------------------------------------------------------

       Atom             a.u.   MegaHertz   Gauss  10(-4) cm-1        Axes

              Baa    -0.4694    49.798    17.769    16.611 -0.0000  1.0000 -0.0000
     1 Si(29) Bbb    -0.4590    48.692    17.374    16.242 -0.0002  0.0000  1.0000
              Bcc     0.9284   -98.489   -35.143   -32.853  1.0000  0.0000  0.0002
 
              Baa    -0.4694    49.798    17.769    16.611 -0.0000  1.0000  0.0008
     2 Si(29) Bbb    -0.4590    48.692    17.374    16.242  0.0002 -0.0008  1.0000
              Bcc     0.9284   -98.489   -35.143   -32.853  1.0000  0.0000 -0.0002
 
              Baa    -0.0097    -5.161    -1.841    -1.721 -0.0002  0.0001  1.0000
     3 H(1)   Bbb    -0.0008    -0.426    -0.152    -0.142  0.8990 -0.4380  0.0002
              Bcc     0.0105     5.587     1.994     1.864  0.4380  0.8990  0.0000
 
              Baa    -0.0097    -5.161    -1.841    -1.721  0.0002 -0.0010  1.0000
     4 H(1)   Bbb    -0.0008    -0.426    -0.152    -0.142  0.8990 -0.4380 -0.0006
              Bcc     0.0105     5.587     1.994     1.864  0.4380  0.8990  0.0008
 
              Baa    -0.0097    -5.161    -1.841    -1.721 -0.0002 -0.0000  1.0000
     5 H(1)   Bbb    -0.0008    -0.426    -0.152    -0.142  0.8990  0.4380  0.0002
              Bcc     0.0105     5.587     1.994     1.864 -0.4380  0.8990 -0.0001
 
              Baa    -0.0097    -5.161    -1.841    -1.721  0.0002 -0.0009  1.0000
     6 H(1)   Bbb    -0.0008    -0.426    -0.152    -0.142  0.8990  0.4380  0.0002
              Bcc     0.0105     5.587     1.994     1.864 -0.4380  0.8990  0.0009
 

 ---------------------------------------------------------------------------------

 No NMR shielding tensors so no spin-rotation constants.
 Leave Link  601 at Mon Apr 21 20:19:02 2025, MaxMem=   536870912 cpu:               2.5 elap:               0.4
 (Enter /home/szhao/Apps/g16/l701.exe)
 ... and contract with generalized density number  0.
 Compute integral first derivatives.
 Leave Link  701 at Mon Apr 21 20:19:02 2025, MaxMem=   536870912 cpu:               1.5 elap:               0.2
 (Enter /home/szhao/Apps/g16/l702.exe)
 L702 exits ... SP integral derivatives will be done elsewhere.
 Leave Link  702 at Mon Apr 21 20:19:03 2025, MaxMem=   536870912 cpu:               0.6 elap:               0.1
 (Enter /home/szhao/Apps/g16/l703.exe)
 Integral derivatives from FoFJK, PRISM(SPDF).
 Compute integral first derivatives, UseDBF=F ICtDFT=           0.
 Calling FoFJK, ICntrl=      2127 FMM=F ISym2X=0 I1Cent= 0 IOpClX= 1 NMat=1 NMatS=1 NMatT=0.
 FoFJK:  IHMeth= 1 ICntrl=    2127 DoSepK=F KAlg= 0 I1Cent=           0 FoldK=F
 IRaf=         0 NMat=       1 IRICut=       1 DoRegI=T DoRafI=F ISym2E= 0 IDoP0=0 IntGTp=1.
 FoFCou: FMM=F IPFlag=           0 FMFlag=      100000 FMFlg1=         800
         NFxFlg=           0 DoJE=F BraDBF=F KetDBF=F FulRan=T
         wScrn=  0.000000 ICntrl=      2127 IOpCl=  1 I1Cent=           0 NGrid=           0
         NMat0=    1 NMatS0=      1 NMatT0=    0 NMatD0=    1 NMtDS0=    0 NMtDT0=    0
 Symmetry not used in FoFCou.
 Leave Link  703 at Mon Apr 21 20:19:06 2025, MaxMem=   536870912 cpu:              21.4 elap:               2.7
 (Enter /home/szhao/Apps/g16/l716.exe)
 Dipole        = 3.75165149D-07 9.02672337D-09-3.18964475D-05
 -------------------------------------------------------------------
 Center     Atomic                   Forces (Hartrees/Bohr)
 Number     Number              X              Y              Z
 -------------------------------------------------------------------
      1       14          -0.000000000   -0.000000000   -0.000000000
      2       14          -0.000000000   -0.000000000   -0.000000000
      3        1          -0.014069503   -0.000338264   -0.000001133
      4        1           0.014069417    0.000338099   -0.000000718
      5        1          -0.014068194    0.000335932   -0.000001259
      6        1           0.014068119   -0.000335782   -0.000001671
 -------------------------------------------------------------------
 Cartesian Forces:  Max     0.014069503 RMS     0.006634003
 Leave Link  716 at Mon Apr 21 20:19:06 2025, MaxMem=   536870912 cpu:               0.8 elap:               0.1
 (Enter /home/szhao/Apps/g16/l103.exe)

 GradGradGradGradGradGradGradGradGradGradGradGradGradGradGradGradGradGrad
 Berny optimization.
 FormGI is forming the generalized inverse of G from B-inverse, IUseBI=4.
 Internal  Forces:  Max     0.028137697 RMS     0.012810932
 Search for a local minimum.
 Step number   1 out of a maximum of   30
 All quantities printed in internal units (Hartrees-Bohrs-Radians)
 RMS Force = .11016D-01 SwitMx=.10000D-02 MixMth= 1
 Mixed Optimization -- RFO/linear search
 Second derivative matrix not updated -- first step.
 The second derivative matrix:
                          X1        Y1        Z1        X2        Y2
           X1           0.50000
           Y1           0.00000   0.50000
           Z1           0.00000   0.00000   0.50000
           X2           0.00000   0.00000   0.00000   0.50000
           Y2           0.00000   0.00000   0.00000   0.00000   0.50000
           Z2           0.00000   0.00000   0.00000   0.00000   0.00000
           R1           0.00000   0.00000   0.00000   0.00000   0.00000
           R2           0.00000   0.00000   0.00000   0.00000   0.00000
           R3           0.00000   0.00000   0.00000   0.00000   0.00000
           R4           0.00000   0.00000   0.00000   0.00000   0.00000
           A1           0.00000   0.00000   0.00000   0.00000   0.00000
           A2           0.00000   0.00000   0.00000   0.00000   0.00000
           A3           0.00000   0.00000   0.00000   0.00000   0.00000
           A4           0.00000   0.00000   0.00000   0.00000   0.00000
           A5           0.00000   0.00000   0.00000   0.00000   0.00000
           A6           0.00000   0.00000   0.00000   0.00000   0.00000
           D1           0.00000   0.00000   0.00000   0.00000   0.00000
           D2           0.00000   0.00000   0.00000   0.00000   0.00000
           D3           0.00000   0.00000   0.00000   0.00000   0.00000
           D4           0.00000   0.00000   0.00000   0.00000   0.00000
                          Z2        R1        R2        R3        R4
           Z2           0.50000
           R1           0.00000   0.18389
           R2           0.00000   0.00000   0.18389
           R3           0.00000   0.00000   0.00000   0.18389
           R4           0.00000   0.00000   0.00000   0.00000   0.18389
           A1           0.00000   0.00000   0.00000   0.00000   0.00000
           A2           0.00000   0.00000   0.00000   0.00000   0.00000
           A3           0.00000   0.00000   0.00000   0.00000   0.00000
           A4           0.00000   0.00000   0.00000   0.00000   0.00000
           A5           0.00000   0.00000   0.00000   0.00000   0.00000
           A6           0.00000   0.00000   0.00000   0.00000   0.00000
           D1           0.00000   0.00000   0.00000   0.00000   0.00000
           D2           0.00000   0.00000   0.00000   0.00000   0.00000
           D3           0.00000   0.00000   0.00000   0.00000   0.00000
           D4           0.00000   0.00000   0.00000   0.00000   0.00000
                          A1        A2        A3        A4        A5
           A1           0.16000
           A2           0.00000   0.16000
           A3           0.00000   0.00000   0.16000
           A4           0.00000   0.00000   0.00000   0.16000
           A5           0.00000   0.00000   0.00000   0.00000   0.16000
           A6           0.00000   0.00000   0.00000   0.00000   0.00000
           D1           0.00000   0.00000   0.00000   0.00000   0.00000
           D2           0.00000   0.00000   0.00000   0.00000   0.00000
           D3           0.00000   0.00000   0.00000   0.00000   0.00000
           D4           0.00000   0.00000   0.00000   0.00000   0.00000
                          A6        D1        D2        D3        D4
           A6           0.16000
           D1           0.00000   0.00230
           D2           0.00000   0.00000   0.00230
           D3           0.00000   0.00000   0.00000   0.00230
           D4           0.00000   0.00000   0.00000   0.00000   0.00230
 ITU=  0
     Eigenvalues ---    0.00230   0.00230   0.00230   0.16000   0.16000
     Eigenvalues ---    0.16000   0.16000   0.18389   0.18389   0.18389
     Eigenvalues ---    0.183891000.000001000.000001000.000001000.00000
     Eigenvalues --- 1000.000001000.000001000.000001000.000001000.00000
 RFO step:  Lambda=-9.84888986D-03 EMin= 2.30000000D-03
 Linear search not attempted -- first point.
 Iteration  1 RMS(Cart)=  0.08259651 RMS(Int)=  0.00270509
 Iteration  2 RMS(Cart)=  0.00298254 RMS(Int)=  0.00000221
 Iteration  3 RMS(Cart)=  0.00000335 RMS(Int)=  0.00000000
 Iteration  4 RMS(Cart)=  0.00000000 RMS(Int)=  0.00000000
 ITry= 1 IFail=0 DXMaxC= 1.75D-01 DCOld= 1.00D+10 DXMaxT= 3.00D-01 DXLimC= 3.00D+00 Rises=F
 Variable       Old X    -DE/DX   Delta X   Delta X   Delta X     New X
                                 (Linear)    (Quad)   (Total)
    X1       -3.71576  -0.02814   0.00000   0.00000   0.00000  -3.71576
    Y1        0.00000  -0.00000   0.00000   0.00000   0.00000   0.00000
    Z1        0.00000  -0.00000   0.00000   0.00000   0.00000   0.00000
    X2        3.71576   0.02814   0.00000   0.00000   0.00000   3.71576
    Y2        0.00000   0.00000   0.00000   0.00000   0.00000   0.00000
    Z2        0.00000  -0.00000   0.00000   0.00000   0.00000   0.00000
    R1        2.77265   0.00728   0.00000   0.03757   0.03757   2.81022
    R2        2.77266   0.00728   0.00000   0.03756   0.03756   2.81022
    R3        2.77265   0.00728   0.00000   0.03757   0.03757   2.81022
    R4        2.77266   0.00728   0.00000   0.03756   0.03756   2.81022
    A1        2.09035   0.01113   0.00000   0.06554   0.06554   2.15590
    A2        2.09037   0.01113   0.00000   0.06554   0.06554   2.15591
    A3        2.10246  -0.02226   0.00000  -0.13108  -0.13108   1.97138
    A4        2.09035   0.01113   0.00000   0.06554   0.06554   2.15590
    A5        2.09037   0.01113   0.00000   0.06554   0.06554   2.15591
    A6        2.10246  -0.02226   0.00000  -0.13108  -0.13108   1.97138
    D1       -3.14065  -0.00000   0.00000  -0.00011  -0.00011  -3.14076
    D2        0.00102   0.00000   0.00000   0.00001   0.00001   0.00103
    D3        0.00102   0.00000   0.00000   0.00001   0.00001   0.00103
    D4       -3.14050   0.00000   0.00000   0.00012   0.00012  -3.14038
         Item               Value     Threshold  Converged?
 Maximum Force            0.022264     0.000450     NO 
 RMS     Force            0.011016     0.000300     NO 
 Maximum Displacement     0.175424     0.001800     NO 
 RMS     Displacement     0.083510     0.001200     NO 
 Predicted change in Energy=-5.206081D-03
 Lowest energy point so far.  Saving SCF results.
 GradGradGradGradGradGradGradGradGradGradGradGradGradGradGradGradGradGrad

 Leave Link  103 at Mon Apr 21 20:19:06 2025, MaxMem=   536870912 cpu:               1.5 elap:               0.3
 (Enter /home/szhao/Apps/g16/l202.exe)
                          Input orientation:                          
 ---------------------------------------------------------------------
 Center     Atomic      Atomic             Coordinates (Angstroms)
 Number     Number       Type             X           Y           Z
 ---------------------------------------------------------------------
      1         14           0       -1.966295    0.000000    0.000000
      2         14           0        1.966295    0.000000    0.000000
      3          1           0       -2.787597   -1.239735   -0.000043
      4          1           0        2.787597    1.239735    0.001081
      5          1           0       -2.787614    1.239724   -0.000191
      6          1           0        2.787614   -1.239723   -0.001316
 ---------------------------------------------------------------------
                    Distance matrix (angstroms):
                    1          2          3          4          5
     1  Si   0.000000
     2  Si   3.932590   0.000000
     3  H    1.487104   4.912884   0.000000
     4  H    4.912884   1.487104   6.101684   0.000000
     5  H    1.487104   4.912898   2.479459   5.575211   0.000000
     6  H    4.912898   1.487104   5.575211   2.479459   6.101706
                    6
     6  H    0.000000
 Symmetry turned off by external request.
 Stoichiometry    H4Si2(1+,2)
 Framework group  C1[X(H4Si2)]
 Deg. of freedom    12
 Full point group                 C1      NOp   1
 Rotational constants (GHZ):          81.5677205           2.0406039           1.9907995
 Leave Link  202 at Mon Apr 21 20:19:06 2025, MaxMem=   536870912 cpu:               0.2 elap:               0.1
 (Enter /home/szhao/Apps/g16/l301.exe)
 Standard basis: 6-311+G(d,p) (5D, 7F)
 Ernie: Thresh=  0.10000D-02 Tol=  0.10000D-05 Strict=F.
    84 basis functions,   132 primitive gaussians,    86 cartesian basis functions
    16 alpha electrons       15 beta electrons
       nuclear repulsion energy        53.1234248165 Hartrees.
 IExCor= 4336 DFT=T Ex+Corr=M062X ExCW=0 ScaHFX=  0.540000
 ScaDFX=  1.000000  1.000000  1.000000  1.000000 ScalE2=  1.000000  1.000000
 IRadAn=      7 IRanWt=     -1 IRanGd=            0 ICorTp=0 IEmpDi=  4
 NAtoms=    6 NActive=    6 NUniq=    6 SFac= 1.00D+00 NAtFMM=   60 NAOKFM=F Big=F
 Integral buffers will be    131072 words long.
 Raffenetti 2 integral format.
 Two-electron integral symmetry is turned off.
 Leave Link  301 at Mon Apr 21 20:19:07 2025, MaxMem=   536870912 cpu:               1.0 elap:               0.2
 (Enter /home/szhao/Apps/g16/l302.exe)
 NPDir=0 NMtPBC=     1 NCelOv=     1 NCel=       1 NClECP=     1 NCelD=      1
         NCelK=      1 NCelE2=     1 NClLst=     1 CellRange=     0.0.
 One-electron integrals computed using PRISM.
 NBasis=    84 RedAO= T EigKep=  1.03D-02  NBF=    84
 NBsUse=    84 1.00D-06 EigRej= -1.00D+00 NBFU=    84
 Precomputing XC quadrature grid using
 IXCGrd= 4 IRadAn=           7 IRanWt=          -1 IRanGd=           0 AccXCQ= 0.00D+00.
 Generated NRdTot=       0 NPtTot=           0 NUsed=           0 NTot=          32
 NSgBfM=    78    78    78    78    78 MxSgAt=     6 MxSgA2=     6.
 Leave Link  302 at Mon Apr 21 20:19:07 2025, MaxMem=   536870912 cpu:               3.3 elap:               0.5
 (Enter /home/szhao/Apps/g16/l303.exe)
 DipDrv:  MaxL=1.
 Leave Link  303 at Mon Apr 21 20:19:07 2025, MaxMem=   536870912 cpu:               0.7 elap:               0.1
 (Enter /home/szhao/Apps/g16/l401.exe)
 Initial guess from the checkpoint file:  "opt.chk"
 B after Tr=    -0.000000    0.000000   -0.000017
         Rot=    1.000000    0.000009   -0.000000   -0.000000 Ang=   0.00 deg.
 Guess basis will be translated and rotated to current coordinates.
 JPrj=2 DoOrth=T DoCkMO=T.
 Initial guess <Sx>= 0.0000 <Sy>= 0.0000 <Sz>= 0.5000 <S**2>= 0.7562 S= 0.5031
 Generating alternative initial guess.
 ExpMin= 3.31D-02 ExpMax= 6.94D+04 ExpMxC= 2.33D+03 IAcc=3 IRadAn=         5 AccDes= 0.00D+00
 Harris functional with IExCor= 1009 and IRadAn=       5 diagonalized for initial guess.
 HarFok:  IExCor= 1009 AccDes= 0.00D+00 IRadAn=         5 IDoV= 1 UseB2=F ITyADJ=14
 ICtDFT=  3500011 ScaDFX=  1.000000  1.000000  1.000000  1.000000
 FoFCou: FMM=F IPFlag=           0 FMFlag=      100000 FMFlg1=           0
         NFxFlg=           0 DoJE=T BraDBF=F KetDBF=T FulRan=T
         wScrn=  0.000000 ICntrl=       500 IOpCl=  0 I1Cent=   200000004 NGrid=           0
         NMat0=    1 NMatS0=      1 NMatT0=    0 NMatD0=    1 NMtDS0=    0 NMtDT0=    0
 Symmetry not used in FoFCou.
 Harris En= -580.646141490899    
 Leave Link  401 at Mon Apr 21 20:19:08 2025, MaxMem=   536870912 cpu:               4.0 elap:               0.6
 (Enter /home/szhao/Apps/g16/l502.exe)
 Keep R1 and R2 ints in memory in canonical form, NReq=20057634.
 FoFCou: FMM=F IPFlag=           0 FMFlag=           0 FMFlg1=           0
         NFxFlg=           0 DoJE=F BraDBF=F KetDBF=F FulRan=T
         wScrn=  0.000000 ICntrl=       600 IOpCl=  0 I1Cent=           0 NGrid=           0
         NMat0=    1 NMatS0=   3570 NMatT0=    0 NMatD0=    1 NMtDS0=    0 NMtDT0=    0
 Symmetry not used in FoFCou.
 Two-electron integral symmetry not used.
 UHF open shell SCF:
 Using DIIS extrapolation, IDIIS=  1040.
 NGot=   536870912 LenX=   524106186 LenY=   524098349
 Requested convergence on RMS density matrix=1.00D-08 within 128 cycles.
 Requested convergence on MAX density matrix=1.00D-06.
 Requested convergence on             energy=1.00D-06.
 No special actions if energy rises.

 Cycle   1  Pass 1  IDiag  1:
 E= -580.881886921166    
 DIIS: error= 3.03D-03 at cycle   1 NSaved=   1.
 NSaved= 1 IEnMin= 1 EnMin= -580.881886921166     IErMin= 1 ErrMin= 3.03D-03
 ErrMax= 3.03D-03  0.00D+00 EMaxC= 1.00D-01 BMatC= 1.97D-03 BMatP= 1.97D-03
 IDIUse=3 WtCom= 9.70D-01 WtEn= 3.03D-02
 Coeff-Com:  0.100D+01
 Coeff-En:   0.100D+01
 Coeff:      0.100D+01
 Gap=     0.512 Goal=   None    Shift=    0.000
 Gap=     0.358 Goal=   None    Shift=    0.000
 GapD=    0.358 DampG=1.000 DampE=1.000 DampFc=1.0000 IDamp=-1.
 RMSDP=3.35D-04 MaxDP=3.86D-03              OVMax= 9.50D-03

 Cycle   2  Pass 1  IDiag  1:
 E= -580.882584977747     Delta-E=       -0.000698056581 Rises=F Damp=F
 DIIS: error= 4.10D-04 at cycle   2 NSaved=   2.
 NSaved= 2 IEnMin= 2 EnMin= -580.882584977747     IErMin= 2 ErrMin= 4.10D-04
 ErrMax= 4.10D-04  0.00D+00 EMaxC= 1.00D-01 BMatC= 3.24D-05 BMatP= 1.97D-03
 IDIUse=3 WtCom= 9.96D-01 WtEn= 4.10D-03
 Coeff-Com: -0.712D-01 0.107D+01
 Coeff-En:   0.000D+00 0.100D+01
 Coeff:     -0.709D-01 0.107D+01
 Gap=     0.177 Goal=   None    Shift=    0.000
 Gap=     0.140 Goal=   None    Shift=    0.000
 RMSDP=8.00D-05 MaxDP=1.09D-03 DE=-6.98D-04 OVMax= 2.47D-03

 Cycle   3  Pass 1  IDiag  1:
 E= -580.882603390807     Delta-E=       -0.000018413061 Rises=F Damp=F
 DIIS: error= 8.17D-05 at cycle   3 NSaved=   3.
 NSaved= 3 IEnMin= 3 EnMin= -580.882603390807     IErMin= 3 ErrMin= 8.17D-05
 ErrMax= 8.17D-05  0.00D+00 EMaxC= 1.00D-01 BMatC= 2.75D-06 BMatP= 3.24D-05
 IDIUse=1 WtCom= 1.00D+00 WtEn= 0.00D+00
 Coeff-Com: -0.214D-01 0.163D+00 0.859D+00
 Coeff:     -0.214D-01 0.163D+00 0.859D+00
 Gap=     0.177 Goal=   None    Shift=    0.000
 Gap=     0.140 Goal=   None    Shift=    0.000
 RMSDP=1.66D-05 MaxDP=3.78D-04 DE=-1.84D-05 OVMax= 4.89D-04

 Cycle   4  Pass 1  IDiag  1:
 E= -580.882604245059     Delta-E=       -0.000000854251 Rises=F Damp=F
 DIIS: error= 2.84D-05 at cycle   4 NSaved=   4.
 NSaved= 4 IEnMin= 4 EnMin= -580.882604245059     IErMin= 4 ErrMin= 2.84D-05
 ErrMax= 2.84D-05  0.00D+00 EMaxC= 1.00D-01 BMatC= 2.42D-07 BMatP= 2.75D-06
 IDIUse=1 WtCom= 1.00D+00 WtEn= 0.00D+00
 Coeff-Com:  0.380D-02-0.708D-01 0.759D-01 0.991D+00
 Coeff:      0.380D-02-0.708D-01 0.759D-01 0.991D+00
 Gap=     0.177 Goal=   None    Shift=    0.000
 Gap=     0.140 Goal=   None    Shift=    0.000
 RMSDP=8.13D-06 MaxDP=2.07D-04 DE=-8.54D-07 OVMax= 2.55D-04

 Cycle   5  Pass 1  IDiag  1:
 E= -580.882604381620     Delta-E=       -0.000000136562 Rises=F Damp=F
 DIIS: error= 8.87D-06 at cycle   5 NSaved=   5.
 NSaved= 5 IEnMin= 5 EnMin= -580.882604381620     IErMin= 5 ErrMin= 8.87D-06
 ErrMax= 8.87D-06  0.00D+00 EMaxC= 1.00D-01 BMatC= 1.52D-08 BMatP= 2.42D-07
 IDIUse=1 WtCom= 1.00D+00 WtEn= 0.00D+00
 Coeff-Com:  0.706D-04 0.840D-02-0.513D-01-0.251D+00 0.129D+01
 Coeff:      0.706D-04 0.840D-02-0.513D-01-0.251D+00 0.129D+01
 Gap=     0.177 Goal=   None    Shift=    0.000
 Gap=     0.140 Goal=   None    Shift=    0.000
 RMSDP=3.06D-06 MaxDP=8.02D-05 DE=-1.37D-07 OVMax= 1.00D-04

 Cycle   6  Pass 1  IDiag  1:
 E= -580.882604400283     Delta-E=       -0.000000018663 Rises=F Damp=F
 DIIS: error= 3.50D-06 at cycle   6 NSaved=   6.
 NSaved= 6 IEnMin= 6 EnMin= -580.882604400283     IErMin= 6 ErrMin= 3.50D-06
 ErrMax= 3.50D-06  0.00D+00 EMaxC= 1.00D-01 BMatC= 1.27D-09 BMatP= 1.52D-08
 IDIUse=1 WtCom= 1.00D+00 WtEn= 0.00D+00
 Coeff-Com: -0.354D-03 0.508D-02-0.334D-02-0.308D-01-0.245D+00 0.127D+01
 Coeff:     -0.354D-03 0.508D-02-0.334D-02-0.308D-01-0.245D+00 0.127D+01
 Gap=     0.177 Goal=   None    Shift=    0.000
 Gap=     0.140 Goal=   None    Shift=    0.000
 RMSDP=8.71D-07 MaxDP=1.88D-05 DE=-1.87D-08 OVMax= 2.51D-05

 Cycle   7  Pass 1  IDiag  1:
 E= -580.882604401733     Delta-E=       -0.000000001450 Rises=F Damp=F
 DIIS: error= 6.22D-07 at cycle   7 NSaved=   7.
 NSaved= 7 IEnMin= 7 EnMin= -580.882604401733     IErMin= 7 ErrMin= 6.22D-07
 ErrMax= 6.22D-07  0.00D+00 EMaxC= 1.00D-01 BMatC= 3.49D-11 BMatP= 1.27D-09
 IDIUse=1 WtCom= 1.00D+00 WtEn= 0.00D+00
 Coeff-Com:  0.114D-04-0.515D-03 0.317D-02 0.777D-02-0.583D-01 0.377D-01
 Coeff-Com:  0.101D+01
 Coeff:      0.114D-04-0.515D-03 0.317D-02 0.777D-02-0.583D-01 0.377D-01
 Coeff:      0.101D+01
 Gap=     0.177 Goal=   None    Shift=    0.000
 Gap=     0.140 Goal=   None    Shift=    0.000
 RMSDP=1.10D-07 MaxDP=2.90D-06 DE=-1.45D-09 OVMax= 3.24D-06

 Cycle   8  Pass 1  IDiag  1:
 E= -580.882604401759     Delta-E=       -0.000000000026 Rises=F Damp=F
 DIIS: error= 1.00D-07 at cycle   8 NSaved=   8.
 NSaved= 8 IEnMin= 8 EnMin= -580.882604401759     IErMin= 8 ErrMin= 1.00D-07
 ErrMax= 1.00D-07  0.00D+00 EMaxC= 1.00D-01 BMatC= 1.49D-12 BMatP= 3.49D-11
 IDIUse=1 WtCom= 1.00D+00 WtEn= 0.00D+00
 Coeff-Com:  0.115D-04-0.151D-03-0.232D-03 0.142D-02 0.123D-01-0.429D-01
 Coeff-Com: -0.140D+00 0.117D+01
 Coeff:      0.115D-04-0.151D-03-0.232D-03 0.142D-02 0.123D-01-0.429D-01
 Coeff:     -0.140D+00 0.117D+01
 Gap=     0.177 Goal=   None    Shift=    0.000
 Gap=     0.140 Goal=   None    Shift=    0.000
 RMSDP=3.60D-08 MaxDP=5.13D-07 DE=-2.59D-11 OVMax= 1.96D-06

 Cycle   9  Pass 1  IDiag  1:
 E= -580.882604401764     Delta-E=       -0.000000000004 Rises=F Damp=F
 DIIS: error= 8.52D-08 at cycle   9 NSaved=   9.
 NSaved= 9 IEnMin= 9 EnMin= -580.882604401764     IErMin= 9 ErrMin= 8.52D-08
 ErrMax= 8.52D-08  0.00D+00 EMaxC= 1.00D-01 BMatC= 4.98D-13 BMatP= 1.49D-12
 IDIUse=1 WtCom= 1.00D+00 WtEn= 0.00D+00
 Coeff-Com: -0.478D-05 0.921D-04-0.105D-03-0.112D-02-0.100D-02 0.141D-01
 Coeff-Com: -0.949D-02-0.350D+00 0.135D+01
 Coeff:     -0.478D-05 0.921D-04-0.105D-03-0.112D-02-0.100D-02 0.141D-01
 Coeff:     -0.949D-02-0.350D+00 0.135D+01
 Gap=     0.177 Goal=   None    Shift=    0.000
 Gap=     0.140 Goal=   None    Shift=    0.000
 RMSDP=2.25D-08 MaxDP=4.24D-07 DE=-4.32D-12 OVMax= 1.91D-06

 Cycle  10  Pass 1  IDiag  1:
 E= -580.882604401766     Delta-E=       -0.000000000003 Rises=F Damp=F
 DIIS: error= 6.93D-08 at cycle  10 NSaved=  10.
 NSaved=10 IEnMin=10 EnMin= -580.882604401766     IErMin=10 ErrMin= 6.93D-08
 ErrMax= 6.93D-08  0.00D+00 EMaxC= 1.00D-01 BMatC= 3.08D-13 BMatP= 4.98D-13
 IDIUse=1 WtCom= 1.00D+00 WtEn= 0.00D+00
 Coeff-Com: -0.510D-06-0.434D-04 0.312D-03 0.771D-03-0.596D-02 0.518D-02
 Coeff-Com:  0.102D+00-0.242D+00-0.173D+01 0.287D+01
 Coeff:     -0.510D-06-0.434D-04 0.312D-03 0.771D-03-0.596D-02 0.518D-02
 Coeff:      0.102D+00-0.242D+00-0.173D+01 0.287D+01
 Gap=     0.177 Goal=   None    Shift=    0.000
 Gap=     0.140 Goal=   None    Shift=    0.000
 RMSDP=4.95D-08 MaxDP=9.34D-07 DE=-2.73D-12 OVMax= 4.26D-06

 Cycle  11  Pass 1  IDiag  1:
 E= -580.882604401769     Delta-E=       -0.000000000003 Rises=F Damp=F
 DIIS: error= 3.28D-08 at cycle  11 NSaved=  11.
 NSaved=11 IEnMin=11 EnMin= -580.882604401769     IErMin=11 ErrMin= 3.28D-08
 ErrMax= 3.28D-08  0.00D+00 EMaxC= 1.00D-01 BMatC= 6.85D-14 BMatP= 3.08D-13
 IDIUse=1 WtCom= 1.00D+00 WtEn= 0.00D+00
 Coeff-Com:  0.258D-05-0.340D-04-0.313D-04 0.405D-03 0.147D-02-0.720D-02
 Coeff-Com: -0.145D-01 0.200D+00-0.346D+00-0.593D+00 0.176D+01
 Coeff:      0.258D-05-0.340D-04-0.313D-04 0.405D-03 0.147D-02-0.720D-02
 Coeff:     -0.145D-01 0.200D+00-0.346D+00-0.593D+00 0.176D+01
 Gap=     0.177 Goal=   None    Shift=    0.000
 Gap=     0.140 Goal=   None    Shift=    0.000
 RMSDP=3.82D-08 MaxDP=7.19D-07 DE=-2.50D-12 OVMax= 3.33D-06

 Cycle  12  Pass 1  IDiag  1:
 E= -580.882604401770     Delta-E=       -0.000000000002 Rises=F Damp=F
 DIIS: error= 3.59D-09 at cycle  12 NSaved=  12.
 NSaved=12 IEnMin=12 EnMin= -580.882604401770     IErMin=12 ErrMin= 3.59D-09
 ErrMax= 3.59D-09  0.00D+00 EMaxC= 1.00D-01 BMatC= 1.33D-15 BMatP= 6.85D-14
 IDIUse=1 WtCom= 1.00D+00 WtEn= 0.00D+00
 Coeff-Com: -0.426D-06 0.778D-05-0.339D-05-0.110D-03-0.325D-04 0.111D-02
 Coeff-Com: -0.137D-02-0.300D-01 0.198D+00-0.860D-01-0.350D+00 0.127D+01
 Coeff:     -0.426D-06 0.778D-05-0.339D-05-0.110D-03-0.325D-04 0.111D-02
 Coeff:     -0.137D-02-0.300D-01 0.198D+00-0.860D-01-0.350D+00 0.127D+01
 Gap=     0.177 Goal=   None    Shift=    0.000
 Gap=     0.140 Goal=   None    Shift=    0.000
 RMSDP=3.21D-09 MaxDP=5.73D-08 DE=-1.59D-12 OVMax= 2.95D-07

 SCF Done:  E(UM062X) =  -580.882604402     A.U. after   12 cycles
            NFock= 12  Conv=0.32D-08     -V/T= 2.0016
 <Sx>= 0.0000 <Sy>= 0.0000 <Sz>= 0.5000 <S**2>= 0.7563 S= 0.5031
 <L.S>=  0.00000000000    
 KE= 5.799611606629D+02 PE=-1.483284010156D+03 EE= 2.693168202750D+02
 Annihilation of the first spin contaminant:
 S**2 before annihilation     0.7563,   after     0.7500
 Leave Link  502 at Mon Apr 21 20:19:26 2025, MaxMem=   536870912 cpu:             136.5 elap:              18.0
 (Enter /home/szhao/Apps/g16/l701.exe)
 ... and contract with generalized density number  0.
 Compute integral first derivatives.
 Leave Link  701 at Mon Apr 21 20:19:27 2025, MaxMem=   536870912 cpu:               2.3 elap:               0.4
 (Enter /home/szhao/Apps/g16/l702.exe)
 L702 exits ... SP integral derivatives will be done elsewhere.
 Leave Link  702 at Mon Apr 21 20:19:27 2025, MaxMem=   536870912 cpu:               1.1 elap:               0.2
 (Enter /home/szhao/Apps/g16/l703.exe)
 Integral derivatives from FoFJK, PRISM(SPDF).
 Compute integral first derivatives, UseDBF=F ICtDFT=           0.
 Calling FoFJK, ICntrl=      2127 FMM=F ISym2X=0 I1Cent= 0 IOpClX= 1 NMat=1 NMatS=1 NMatT=0.
 FoFJK:  IHMeth= 1 ICntrl=    2127 DoSepK=F KAlg= 0 I1Cent=           0 FoldK=F
 IRaf=         0 NMat=       1 IRICut=       1 DoRegI=T DoRafI=F ISym2E= 0 IDoP0=0 IntGTp=1.
 FoFCou: FMM=F IPFlag=           0 FMFlag=      100000 FMFlg1=         800
         NFxFlg=           0 DoJE=F BraDBF=F KetDBF=F FulRan=T
         wScrn=  0.000000 ICntrl=      2127 IOpCl=  1 I1Cent=           0 NGrid=           0
         NMat0=    1 NMatS0=      1 NMatT0=    0 NMatD0=    1 NMtDS0=    0 NMtDT0=    0
 Symmetry not used in FoFCou.
 Leave Link  703 at Mon Apr 21 20:19:30 2025, MaxMem=   536870912 cpu:              18.4 elap:               2.4
 (Enter /home/szhao/Apps/g16/l716.exe)
 Dipole        = 5.45220058D-07 2.33230404D-08-4.78458547D-05
 -------------------------------------------------------------------
 Center     Atomic                   Forces (Hartrees/Bohr)
 Number     Number              X              Y              Z
 -------------------------------------------------------------------
      1       14          -0.000000000   -0.000000000   -0.000000000
      2       14          -0.000000000   -0.000000000   -0.000000000
      3        1          -0.005092521    0.002926939   -0.000000951
      4        1           0.005092525   -0.002926945   -0.000003823
      5        1          -0.005092472   -0.002926968   -0.000000690
      6        1           0.005092475    0.002926976    0.000002181
 -------------------------------------------------------------------
 Cartesian Forces:  Max     0.005092525 RMS     0.002768900
 Leave Link  716 at Mon Apr 21 20:19:30 2025, MaxMem=   536870912 cpu:               0.6 elap:               0.1
 (Enter /home/szhao/Apps/g16/l103.exe)

 GradGradGradGradGradGradGradGradGradGradGradGradGradGradGradGradGradGrad
 Berny optimization.
 Using GEDIIS/GDIIS optimizer.
 FormGI is forming the generalized inverse of G from B-inverse, IUseBI=4.
 Internal  Forces:  Max     0.010982163 RMS     0.005337820
 Search for a local minimum.
 Step number   2 out of a maximum of   30
 All quantities printed in internal units (Hartrees-Bohrs-Radians)
 RMS Force = .50876D-02 SwitMx=.10000D-02 MixMth= 1
 Mixed Optimization -- RFO/linear search
 Update second derivatives using D2CorX and points    1    2
 DE= -7.13D-03 DEPred=-5.21D-03 R= 1.37D+00
 TightC=F SS=  1.41D+00  RLast= 2.39D-01 DXNew= 5.0454D-01 7.1745D-01
 Trust test= 1.37D+00 RLast= 2.39D-01 DXMaxT set to 5.05D-01
 The second derivative matrix:
                          X1        Y1        Z1        X2        Y2
           X1           0.55888
           Y1           0.00001   0.50000
           Z1           0.00000   0.00000   0.50000
           X2          -0.05888  -0.00001  -0.00000   0.55887
           Y2          -0.00001  -0.00000  -0.00000   0.00001   0.50000
           Z2           0.00000   0.00000   0.00000  -0.00000  -0.00000
           R1          -0.02265  -0.00000  -0.00000   0.02265   0.00000
           R2          -0.02264  -0.00000  -0.00000   0.02264   0.00000
           R3          -0.02265  -0.00000  -0.00000   0.02265   0.00000
           R4          -0.02264  -0.00000  -0.00000   0.02264   0.00000
           A1          -0.01850  -0.00000  -0.00000   0.01850   0.00000
           A2          -0.01850  -0.00000  -0.00000   0.01850   0.00000
           A3           0.03700   0.00000   0.00000  -0.03700  -0.00000
           A4          -0.01850  -0.00000  -0.00000   0.01850   0.00000
           A5          -0.01850  -0.00000  -0.00000   0.01850   0.00000
           A6           0.03700   0.00000   0.00000  -0.03700  -0.00000
           D1           0.00000   0.00000   0.00000  -0.00000  -0.00000
           D2          -0.00000  -0.00000  -0.00000   0.00000   0.00000
           D3          -0.00000  -0.00000  -0.00000   0.00000   0.00000
           D4          -0.00000  -0.00000  -0.00000   0.00000   0.00000
                          Z2        R1        R2        R3        R4
           Z2           0.50000
           R1          -0.00000   0.18747
           R2          -0.00000   0.00357   0.18746
           R3          -0.00000   0.00357   0.00357   0.18747
           R4          -0.00000   0.00357   0.00357   0.00357   0.18746
           A1          -0.00000  -0.00069  -0.00069  -0.00069  -0.00069
           A2          -0.00000  -0.00069  -0.00069  -0.00069  -0.00069
           A3           0.00000   0.00137   0.00137   0.00137   0.00137
           A4          -0.00000  -0.00069  -0.00069  -0.00069  -0.00069
           A5          -0.00000  -0.00069  -0.00069  -0.00069  -0.00069
           A6           0.00000   0.00137   0.00137   0.00137   0.00137
           D1           0.00000  -0.00000  -0.00000  -0.00000  -0.00000
           D2          -0.00000   0.00000   0.00000   0.00000   0.00000
           D3          -0.00000   0.00000   0.00000   0.00000   0.00000
           D4          -0.00000   0.00000   0.00000   0.00000   0.00000
                          A1        A2        A3        A4        A5
           A1           0.15397
           A2          -0.00603   0.15397
           A3           0.01206   0.01206   0.13588
           A4          -0.00603  -0.00603   0.01206   0.15397
           A5          -0.00603  -0.00603   0.01206  -0.00603   0.15397
           A6           0.01206   0.01206  -0.02412   0.01206   0.01206
           D1           0.00000   0.00000  -0.00000   0.00000   0.00000
           D2           0.00000   0.00000  -0.00000   0.00000   0.00000
           D3           0.00000   0.00000  -0.00000   0.00000   0.00000
           D4           0.00000   0.00000  -0.00000   0.00000   0.00000
                          A6        D1        D2        D3        D4
           A6           0.13588
           D1          -0.00000   0.00230
           D2          -0.00000  -0.00000   0.00230
           D3          -0.00000  -0.00000   0.00000   0.00230
           D4          -0.00000  -0.00000   0.00000   0.00000   0.00230
 ITU=  1  0
 Use linear search instead of GDIIS.
     Eigenvalues ---    0.00230   0.00230   0.00230   0.08744   0.16000
     Eigenvalues ---    0.16000   0.16000   0.18389   0.18389   0.18389
     Eigenvalues ---    0.198381000.000001000.000001000.000001000.00000
     Eigenvalues --- 1000.000001000.000001000.000001000.000001000.00000
 RFO step:  Lambda=-6.27362834D-04 EMin= 2.30000000D-03
 Quartic linear search produced a step of  0.77605.
 Iteration  1 RMS(Cart)=  0.07662816 RMS(Int)=  0.00233525
 Iteration  2 RMS(Cart)=  0.00235007 RMS(Int)=  0.00000038
 Iteration  3 RMS(Cart)=  0.00000062 RMS(Int)=  0.00000000
 ITry= 1 IFail=0 DXMaxC= 1.43D-01 DCOld= 1.00D+10 DXMaxT= 5.05D-01 DXLimC= 3.00D+00 Rises=F
 Variable       Old X    -DE/DX   Delta X   Delta X   Delta X     New X
                                 (Linear)    (Quad)   (Total)
    X1       -3.71576  -0.01018   0.00000   0.00000   0.00000  -3.71576
    Y1        0.00000  -0.00000   0.00000   0.00000   0.00000   0.00000
    Z1        0.00000  -0.00000   0.00000   0.00000   0.00000   0.00000
    X2        3.71576   0.01019   0.00000   0.00000   0.00000   3.71576
    Y2        0.00000   0.00000   0.00000   0.00000   0.00000   0.00000
    Z2        0.00000  -0.00000   0.00000   0.00000   0.00000   0.00000
    R1        2.81022   0.00037   0.02916  -0.02508   0.00407   2.81429
    R2        2.81022   0.00037   0.02915  -0.02507   0.00407   2.81429
    R3        2.81022   0.00037   0.02916  -0.02508   0.00407   2.81429
    R4        2.81022   0.00037   0.02915  -0.02507   0.00407   2.81429
    A1        2.15590   0.00549   0.05086   0.01019   0.06106   2.21695
    A2        2.15591   0.00549   0.05086   0.01019   0.06106   2.21697
    A3        1.97138  -0.01098  -0.10173  -0.02039  -0.12211   1.84927
    A4        2.15590   0.00549   0.05086   0.01019   0.06106   2.21695
    A5        2.15591   0.00549   0.05086   0.01019   0.06106   2.21697
    A6        1.97138  -0.01098  -0.10173  -0.02039  -0.12211   1.84927
    D1       -3.14076  -0.00000  -0.00008  -0.00024  -0.00032  -3.14108
    D2        0.00103  -0.00000   0.00001  -0.00008  -0.00008   0.00095
    D3        0.00103  -0.00000   0.00001  -0.00008  -0.00008   0.00095
    D4       -3.14038   0.00000   0.00010   0.00007   0.00017  -3.14021
         Item               Value     Threshold  Converged?
 Maximum Force            0.010982     0.000450     NO 
 RMS     Force            0.005088     0.000300     NO 
 Maximum Displacement     0.142515     0.001800     NO 
 RMS     Displacement     0.076800     0.001200     NO 
 Predicted change in Energy=-2.070593D-03
 Lowest energy point so far.  Saving SCF results.
 GradGradGradGradGradGradGradGradGradGradGradGradGradGradGradGradGradGrad

 Leave Link  103 at Mon Apr 21 20:19:30 2025, MaxMem=   536870912 cpu:               1.4 elap:               0.3
 (Enter /home/szhao/Apps/g16/l202.exe)
                          Input orientation:                          
 ---------------------------------------------------------------------
 Center     Atomic      Atomic             Coordinates (Angstroms)
 Number     Number       Type             X           Y           Z
 ---------------------------------------------------------------------
      1         14           0       -1.966295    0.000000    0.000000
      2         14           0        1.966295    0.000000    0.000000
      3          1           0       -2.863012   -1.189031   -0.000207
      4          1           0        2.863012    1.189031    0.000820
      5          1           0       -2.863028    1.189019   -0.000310
      6          1           0        2.863028   -1.189019   -0.001337
 ---------------------------------------------------------------------
                    Distance matrix (angstroms):
                    1          2          3          4          5
     1  Si   0.000000
     2  Si   3.932590   0.000000
     3  H    1.489260   4.973530   0.000000
     4  H    4.973530   1.489260   6.200205   0.000000
     5  H    1.489260   4.973542   2.378050   5.726040   0.000000
     6  H    4.973542   1.489260   5.726040   2.378050   6.200224
                    6
     6  H    0.000000
 Symmetry turned off by external request.
 Stoichiometry    H4Si2(1+,2)
 Framework group  C1[X(H4Si2)]
 Deg. of freedom    12
 Full point group                 C1      NOp   1
 Rotational constants (GHZ):          88.6727130           2.0265468           1.9812665
 Leave Link  202 at Mon Apr 21 20:19:31 2025, MaxMem=   536870912 cpu:               0.5 elap:               0.1
 (Enter /home/szhao/Apps/g16/l301.exe)
 Standard basis: 6-311+G(d,p) (5D, 7F)
 Ernie: Thresh=  0.10000D-02 Tol=  0.10000D-05 Strict=F.
    84 basis functions,   132 primitive gaussians,    86 cartesian basis functions
    16 alpha electrons       15 beta electrons
       nuclear repulsion energy        53.0314708696 Hartrees.
 IExCor= 4336 DFT=T Ex+Corr=M062X ExCW=0 ScaHFX=  0.540000
 ScaDFX=  1.000000  1.000000  1.000000  1.000000 ScalE2=  1.000000  1.000000
 IRadAn=      7 IRanWt=     -1 IRanGd=            0 ICorTp=0 IEmpDi=  4
 NAtoms=    6 NActive=    6 NUniq=    6 SFac= 1.00D+00 NAtFMM=   60 NAOKFM=F Big=F
 Integral buffers will be    131072 words long.
 Raffenetti 2 integral format.
 Two-electron integral symmetry is turned off.
 Leave Link  301 at Mon Apr 21 20:19:31 2025, MaxMem=   536870912 cpu:               1.1 elap:               0.2
 (Enter /home/szhao/Apps/g16/l302.exe)
 NPDir=0 NMtPBC=     1 NCelOv=     1 NCel=       1 NClECP=     1 NCelD=      1
         NCelK=      1 NCelE2=     1 NClLst=     1 CellRange=     0.0.
 One-electron integrals computed using PRISM.
 NBasis=    84 RedAO= T EigKep=  1.02D-02  NBF=    84
 NBsUse=    84 1.00D-06 EigRej= -1.00D+00 NBFU=    84
 Precomputing XC quadrature grid using
 IXCGrd= 4 IRadAn=           7 IRanWt=          -1 IRanGd=           0 AccXCQ= 0.00D+00.
 Generated NRdTot=       0 NPtTot=           0 NUsed=           0 NTot=          32
 NSgBfM=    78    78    78    78    78 MxSgAt=     6 MxSgA2=     6.
 Leave Link  302 at Mon Apr 21 20:19:32 2025, MaxMem=   536870912 cpu:               3.8 elap:               0.6
 (Enter /home/szhao/Apps/g16/l303.exe)
 DipDrv:  MaxL=1.
 Leave Link  303 at Mon Apr 21 20:19:32 2025, MaxMem=   536870912 cpu:               0.8 elap:               0.2
 (Enter /home/szhao/Apps/g16/l401.exe)
 Initial guess from the checkpoint file:  "opt.chk"
 B after Tr=     0.000000    0.000000   -0.000033
         Rot=    1.000000    0.000011   -0.000000    0.000000 Ang=   0.00 deg.
 Guess basis will be translated and rotated to current coordinates.
 JPrj=2 DoOrth=T DoCkMO=T.
 Initial guess <Sx>= 0.0000 <Sy>= 0.0000 <Sz>= 0.5000 <S**2>= 0.7562 S= 0.5031
 Generating alternative initial guess.
 ExpMin= 3.31D-02 ExpMax= 6.94D+04 ExpMxC= 2.33D+03 IAcc=3 IRadAn=         5 AccDes= 0.00D+00
 Harris functional with IExCor= 1009 and IRadAn=       5 diagonalized for initial guess.
 HarFok:  IExCor= 1009 AccDes= 0.00D+00 IRadAn=         5 IDoV= 1 UseB2=F ITyADJ=14
 ICtDFT=  3500011 ScaDFX=  1.000000  1.000000  1.000000  1.000000
 FoFCou: FMM=F IPFlag=           0 FMFlag=      100000 FMFlg1=           0
         NFxFlg=           0 DoJE=T BraDBF=F KetDBF=T FulRan=T
         wScrn=  0.000000 ICntrl=       500 IOpCl=  0 I1Cent=   200000004 NGrid=           0
         NMat0=    1 NMatS0=      1 NMatT0=    0 NMatD0=    1 NMtDS0=    0 NMtDT0=    0
 Symmetry not used in FoFCou.
 Harris En= -580.651076651498    
 Leave Link  401 at Mon Apr 21 20:19:33 2025, MaxMem=   536870912 cpu:               5.6 elap:               0.9
 (Enter /home/szhao/Apps/g16/l502.exe)
 Keep R1 and R2 ints in memory in canonical form, NReq=20057634.
 FoFCou: FMM=F IPFlag=           0 FMFlag=           0 FMFlg1=           0
         NFxFlg=           0 DoJE=F BraDBF=F KetDBF=F FulRan=T
         wScrn=  0.000000 ICntrl=       600 IOpCl=  0 I1Cent=           0 NGrid=           0
         NMat0=    1 NMatS0=   3570 NMatT0=    0 NMatD0=    1 NMtDS0=    0 NMtDT0=    0
 Symmetry not used in FoFCou.
 Two-electron integral symmetry not used.
 UHF open shell SCF:
 Using DIIS extrapolation, IDIIS=  1040.
 NGot=   536870912 LenX=   524106186 LenY=   524098349
 Requested convergence on RMS density matrix=1.00D-08 within 128 cycles.
 Requested convergence on MAX density matrix=1.00D-06.
 Requested convergence on             energy=1.00D-06.
 No special actions if energy rises.

 Cycle   1  Pass 1  IDiag  1:
 E= -580.884112417426    
 DIIS: error= 3.01D-03 at cycle   1 NSaved=   1.
 NSaved= 1 IEnMin= 1 EnMin= -580.884112417426     IErMin= 1 ErrMin= 3.01D-03
 ErrMax= 3.01D-03  0.00D+00 EMaxC= 1.00D-01 BMatC= 1.26D-03 BMatP= 1.26D-03
 IDIUse=3 WtCom= 9.70D-01 WtEn= 3.01D-02
 Coeff-Com:  0.100D+01
 Coeff-En:   0.100D+01
 Coeff:      0.100D+01
 Gap=     0.519 Goal=   None    Shift=    0.000
 Gap=     0.353 Goal=   None    Shift=    0.000
 GapD=    0.353 DampG=1.000 DampE=1.000 DampFc=1.0000 IDamp=-1.
 RMSDP=2.50D-04 MaxDP=2.61D-03              OVMax= 8.28D-03

 Cycle   2  Pass 1  IDiag  1:
 E= -580.884560776624     Delta-E=       -0.000448359198 Rises=F Damp=F
 DIIS: error= 3.43D-04 at cycle   2 NSaved=   2.
 NSaved= 2 IEnMin= 2 EnMin= -580.884560776624     IErMin= 2 ErrMin= 3.43D-04
 ErrMax= 3.43D-04  0.00D+00 EMaxC= 1.00D-01 BMatC= 1.90D-05 BMatP= 1.26D-03
 IDIUse=3 WtCom= 9.97D-01 WtEn= 3.43D-03
 Coeff-Com: -0.820D-01 0.108D+01
 Coeff-En:   0.000D+00 0.100D+01
 Coeff:     -0.817D-01 0.108D+01
 Gap=     0.187 Goal=   None    Shift=    0.000
 Gap=     0.138 Goal=   None    Shift=    0.000
 RMSDP=5.56D-05 MaxDP=6.47D-04 DE=-4.48D-04 OVMax= 1.61D-03

 Cycle   3  Pass 1  IDiag  1:
 E= -580.884571166593     Delta-E=       -0.000010389969 Rises=F Damp=F
 DIIS: error= 5.53D-05 at cycle   3 NSaved=   3.
 NSaved= 3 IEnMin= 3 EnMin= -580.884571166593     IErMin= 3 ErrMin= 5.53D-05
 ErrMax= 5.53D-05  0.00D+00 EMaxC= 1.00D-01 BMatC= 8.91D-07 BMatP= 1.90D-05
 IDIUse=1 WtCom= 1.00D+00 WtEn= 0.00D+00
 Coeff-Com: -0.141D-01 0.104D+00 0.910D+00
 Coeff:     -0.141D-01 0.104D+00 0.910D+00
 Gap=     0.187 Goal=   None    Shift=    0.000
 Gap=     0.138 Goal=   None    Shift=    0.000
 RMSDP=8.08D-06 MaxDP=1.93D-04 DE=-1.04D-05 OVMax= 3.13D-04

 Cycle   4  Pass 1  IDiag  1:
 E= -580.884571452965     Delta-E=       -0.000000286371 Rises=F Damp=F
 DIIS: error= 1.41D-05 at cycle   4 NSaved=   4.
 NSaved= 4 IEnMin= 4 EnMin= -580.884571452965     IErMin= 4 ErrMin= 1.41D-05
 ErrMax= 1.41D-05  0.00D+00 EMaxC= 1.00D-01 BMatC= 6.55D-08 BMatP= 8.91D-07
 IDIUse=1 WtCom= 1.00D+00 WtEn= 0.00D+00
 Coeff-Com:  0.274D-02-0.496D-01 0.881D-01 0.959D+00
 Coeff:      0.274D-02-0.496D-01 0.881D-01 0.959D+00
 Gap=     0.187 Goal=   None    Shift=    0.000
 Gap=     0.138 Goal=   None    Shift=    0.000
 RMSDP=2.91D-06 MaxDP=4.48D-05 DE=-2.86D-07 OVMax= 9.09D-05

 Cycle   5  Pass 1  IDiag  1:
 E= -580.884571476621     Delta-E=       -0.000000023657 Rises=F Damp=F
 DIIS: error= 3.31D-06 at cycle   5 NSaved=   5.
 NSaved= 5 IEnMin= 5 EnMin= -580.884571476621     IErMin= 5 ErrMin= 3.31D-06
 ErrMax= 3.31D-06  0.00D+00 EMaxC= 1.00D-01 BMatC= 2.30D-09 BMatP= 6.55D-08
 IDIUse=1 WtCom= 1.00D+00 WtEn= 0.00D+00
 Coeff-Com:  0.538D-03-0.600D-02-0.207D-01 0.359D-01 0.990D+00
 Coeff:      0.538D-03-0.600D-02-0.207D-01 0.359D-01 0.990D+00
 Gap=     0.187 Goal=   None    Shift=    0.000
 Gap=     0.138 Goal=   None    Shift=    0.000
 RMSDP=7.19D-07 MaxDP=1.07D-05 DE=-2.37D-08 OVMax= 2.15D-05

 Cycle   6  Pass 1  IDiag  1:
 E= -580.884571478313     Delta-E=       -0.000000001691 Rises=F Damp=F
 DIIS: error= 1.08D-06 at cycle   6 NSaved=   6.
 NSaved= 6 IEnMin= 6 EnMin= -580.884571478313     IErMin= 6 ErrMin= 1.08D-06
 ErrMax= 1.08D-06  0.00D+00 EMaxC= 1.00D-01 BMatC= 2.69D-10 BMatP= 2.30D-09
 IDIUse=1 WtCom= 1.00D+00 WtEn= 0.00D+00
 Coeff-Com: -0.299D-03 0.493D-02-0.365D-02-0.738D-01-0.223D+00 0.130D+01
 Coeff:     -0.299D-03 0.493D-02-0.365D-02-0.738D-01-0.223D+00 0.130D+01
 Gap=     0.187 Goal=   None    Shift=    0.000
 Gap=     0.138 Goal=   None    Shift=    0.000
 RMSDP=3.43D-07 MaxDP=4.92D-06 DE=-1.69D-09 OVMax= 1.20D-05

 Cycle   7  Pass 1  IDiag  1:
 E= -580.884571478626     Delta-E=       -0.000000000313 Rises=F Damp=F
 DIIS: error= 3.94D-07 at cycle   7 NSaved=   7.
 NSaved= 7 IEnMin= 7 EnMin= -580.884571478626     IErMin= 7 ErrMin= 3.94D-07
 ErrMax= 3.94D-07  0.00D+00 EMaxC= 1.00D-01 BMatC= 1.81D-11 BMatP= 2.69D-10
 IDIUse=1 WtCom= 1.00D+00 WtEn= 0.00D+00
 Coeff-Com:  0.225D-04-0.644D-03 0.222D-02 0.136D-01-0.356D-01-0.201D+00
 Coeff-Com:  0.122D+01
 Coeff:      0.225D-04-0.644D-03 0.222D-02 0.136D-01-0.356D-01-0.201D+00
 Coeff:      0.122D+01
 Gap=     0.187 Goal=   None    Shift=    0.000
 Gap=     0.138 Goal=   None    Shift=    0.000
 RMSDP=9.50D-08 MaxDP=2.02D-06 DE=-3.13D-10 OVMax= 5.13D-06

 Cycle   8  Pass 1  IDiag  1:
 E= -580.884571478656     Delta-E=       -0.000000000030 Rises=F Damp=F
 DIIS: error= 1.80D-07 at cycle   8 NSaved=   8.
 NSaved= 8 IEnMin= 8 EnMin= -580.884571478656     IErMin= 8 ErrMin= 1.80D-07
 ErrMax= 1.80D-07  0.00D+00 EMaxC= 1.00D-01 BMatC= 3.30D-12 BMatP= 1.81D-11
 IDIUse=1 WtCom= 1.00D+00 WtEn= 0.00D+00
 Coeff-Com:  0.235D-04-0.369D-03 0.297D-03 0.436D-02 0.224D-01-0.112D+00
 Coeff-Com:  0.541D-01 0.103D+01
 Coeff:      0.235D-04-0.369D-03 0.297D-03 0.436D-02 0.224D-01-0.112D+00
 Coeff:      0.541D-01 0.103D+01
 Gap=     0.187 Goal=   None    Shift=    0.000
 Gap=     0.138 Goal=   None    Shift=    0.000
 RMSDP=4.04D-08 MaxDP=7.07D-07 DE=-3.00D-11 OVMax= 3.05D-06

 Cycle   9  Pass 1  IDiag  1:
 E= -580.884571478665     Delta-E=       -0.000000000009 Rises=F Damp=F
 DIIS: error= 1.49D-07 at cycle   9 NSaved=   9.
 NSaved= 9 IEnMin= 9 EnMin= -580.884571478665     IErMin= 9 ErrMin= 1.49D-07
 ErrMax= 1.49D-07  0.00D+00 EMaxC= 1.00D-01 BMatC= 1.43D-12 BMatP= 3.30D-12
 IDIUse=1 WtCom= 1.00D+00 WtEn= 0.00D+00
 Coeff-Com: -0.163D-04 0.305D-03-0.660D-03-0.396D-02-0.472D-02 0.888D-01
 Coeff-Com: -0.249D+00-0.558D+00 0.173D+01
 Coeff:     -0.163D-04 0.305D-03-0.660D-03-0.396D-02-0.472D-02 0.888D-01
 Coeff:     -0.249D+00-0.558D+00 0.173D+01
 Gap=     0.187 Goal=   None    Shift=    0.000
 Gap=     0.138 Goal=   None    Shift=    0.000
 RMSDP=5.17D-08 MaxDP=9.72D-07 DE=-9.21D-12 OVMax= 4.40D-06

 Cycle  10  Pass 1  IDiag  1:
 E= -580.884571478673     Delta-E=       -0.000000000008 Rises=F Damp=F
 DIIS: error= 1.01D-07 at cycle  10 NSaved=  10.
 NSaved=10 IEnMin=10 EnMin= -580.884571478673     IErMin=10 ErrMin= 1.01D-07
 ErrMax= 1.01D-07  0.00D+00 EMaxC= 1.00D-01 BMatC= 6.16D-13 BMatP= 1.43D-12
 IDIUse=1 WtCom= 1.00D+00 WtEn= 0.00D+00
 Coeff-Com:  0.938D-05-0.217D-03 0.854D-03 0.247D-02-0.719D-02-0.537D-01
 Coeff-Com:  0.312D+00 0.231D+00-0.265D+01 0.317D+01
 Coeff:      0.938D-05-0.217D-03 0.854D-03 0.247D-02-0.719D-02-0.537D-01
 Coeff:      0.312D+00 0.231D+00-0.265D+01 0.317D+01
 Gap=     0.187 Goal=   None    Shift=    0.000
 Gap=     0.138 Goal=   None    Shift=    0.000
 RMSDP=8.63D-08 MaxDP=1.62D-06 DE=-8.30D-12 OVMax= 7.54D-06

 Cycle  11  Pass 1  IDiag  1:
 E= -580.884571478679     Delta-E=       -0.000000000006 Rises=F Damp=F
 DIIS: error= 1.45D-08 at cycle  11 NSaved=  11.
[...]
           R2           0.00000   0.00322   0.18711
           R3           0.00000   0.00322   0.00322   0.18711
           R4           0.00000   0.00322   0.00322   0.00322   0.18711
           A1          -0.00001  -0.00057  -0.00057  -0.00057  -0.00057
           A2          -0.00001  -0.00056  -0.00056  -0.00056  -0.00056
           A3           0.00001   0.00113   0.00113   0.00113   0.00113
           A4          -0.00001  -0.00057  -0.00057  -0.00057  -0.00057
           A5          -0.00001  -0.00056  -0.00056  -0.00056  -0.00056
           A6           0.00001   0.00113   0.00113   0.00113   0.00113
           D1          -0.00000  -0.00001  -0.00001  -0.00001  -0.00001
           D2          -0.00000  -0.00000  -0.00000  -0.00000  -0.00000
           D3          -0.00000  -0.00000  -0.00000  -0.00000  -0.00000
           D4          -0.00000   0.00000   0.00000   0.00000   0.00000
                          A1        A2        A3        A4        A5
           A1           0.15472
           A2          -0.00528   0.15471
           A3           0.01056   0.01057   0.13887
           A4          -0.00528  -0.00528   0.01056   0.15472
           A5          -0.00528  -0.00529   0.01057  -0.00528   0.15471
           A6           0.01056   0.01057  -0.02113   0.01056   0.01057
           D1           0.00001   0.00001  -0.00002   0.00001   0.00001
           D2           0.00000   0.00000  -0.00001   0.00000   0.00000
           D3           0.00000   0.00000  -0.00001   0.00000   0.00000
           D4          -0.00000  -0.00000   0.00001  -0.00000  -0.00000
                          A6        D1        D2        D3        D4
           A6           0.13887
           D1          -0.00002   0.00230
           D2          -0.00001  -0.00000   0.00230
           D3          -0.00001  -0.00000  -0.00000   0.00230
           D4           0.00001   0.00000   0.00000   0.00000   0.00230
 ITU=  1  1  1  0
     Eigenvalues ---    0.00230   0.00230   0.00230   0.09645   0.16000
     Eigenvalues ---    0.16000   0.16000   0.18389   0.18389   0.18389
     Eigenvalues ---    0.196911000.000001000.000001000.000001000.00000
     Eigenvalues --- 1000.000001000.000001000.000001000.000001000.00000
 En-DIIS/RFO-DIIS/Sim-DIIS IScMMF=       -3 using points:     4    3
 RFO step:  Lambda=-3.65376508D-10.
 NNeg= 0 NGDIIS= 2 SimSw=  2.50D-01 Rises=F DC= -2.49D-06 SmlDif=  1.00D-05
 NRisDI= 0 DoIntr=F SqrtH=F CThrHd= 10.0 CDAdj=  3.0
 RMS Error=  0.3133501730D-04 NUsed= 2 OKEnD=F EnDIS=F
 InvSVX:  RCond= 1.24D-05 Info=           0 Equed=N FErr=  8.90D-16 BErr=  3.50D-17
 DidBck=F Rises=F RFO-DIIS coefs:    1.00041   -0.00041
 Iteration  1 RMS(Cart)=  0.00004540 RMS(Int)=  0.00000000
 Iteration  2 RMS(Cart)=  0.00000000 RMS(Int)=  0.00000000
 ITry= 1 IFail=0 DXMaxC= 1.28D-04 DCOld= 1.00D+10 DXMaxT= 6.35D-01 DXLimC= 3.00D+00 Rises=F
 Variable       Old X    -DE/DX   Delta X   Delta X   Delta X     New X
                                 (Linear)    (Quad)   (Total)
    X1       -3.71576  -0.00001   0.00000   0.00000   0.00000  -3.71576
    Y1        0.00000   0.00000   0.00000   0.00000   0.00000   0.00000
    Z1        0.00000   0.00000   0.00000   0.00000   0.00000   0.00000
    X2        3.71576   0.00001   0.00000   0.00000   0.00000   3.71576
    Y2        0.00000  -0.00000   0.00000   0.00000   0.00000   0.00000
    Z2        0.00000   0.00000   0.00000   0.00000   0.00000   0.00000
    R1        2.81482   0.00000   0.00000   0.00002   0.00002   2.81484
    R2        2.81482   0.00000   0.00000   0.00002   0.00002   2.81484
    R3        2.81482   0.00000   0.00000   0.00002   0.00002   2.81484
    R4        2.81482   0.00000   0.00000   0.00002   0.00002   2.81484
    A1        2.21494   0.00000  -0.00000   0.00000   0.00000   2.21494
    A2        2.21495   0.00000  -0.00000   0.00000   0.00000   2.21496
    A3        1.85329  -0.00000   0.00000  -0.00001  -0.00000   1.85329
    A4        2.21494   0.00000  -0.00000   0.00000   0.00000   2.21494
    A5        2.21495   0.00000  -0.00000   0.00000   0.00000   2.21496
    A6        1.85329  -0.00000   0.00000  -0.00001  -0.00000   1.85329
    D1       -3.14093   0.00000   0.00000   0.00011   0.00011  -3.14081
    D2        0.00098   0.00000   0.00000   0.00003   0.00003   0.00101
    D3        0.00098   0.00000   0.00000   0.00003   0.00003   0.00101
    D4       -3.14030  -0.00000  -0.00000  -0.00005  -0.00005  -3.14035
         Item               Value     Threshold  Converged?
 Maximum Force            0.000005     0.000450     YES
 RMS     Force            0.000003     0.000300     YES
 Maximum Displacement     0.000128     0.001800     YES
 RMS     Displacement     0.000045     0.001200     YES
 Predicted change in Energy=-2.463846D-10
 Optimization completed.
    -- Stationary point found.
                           ----------------------------
                           !   Optimized Parameters   !
                           ! (Angstroms and Degrees)  !
 --------------------------                            --------------------------
 ! Name  Definition              Value          Derivative Info.                !
 --------------------------------------------------------------------------------
 ! X1    R(1,-1)                -1.9663         -DE/DX =    0.0                 !
 ! Y1    R(1,-2)                 0.0            -DE/DX =    0.0                 !
 ! Z1    R(1,-3)                 0.0            -DE/DX =    0.0                 !
 ! X2    R(2,-1)                 1.9663         -DE/DX =    0.0                 !
 ! Y2    R(2,-2)                 0.0            -DE/DX =    0.0                 !
 ! Z2    R(2,-3)                 0.0            -DE/DX =    0.0                 !
 ! R1    R(1,3)                  1.4895         -DE/DX =    0.0                 !
 ! R2    R(1,5)                  1.4895         -DE/DX =    0.0                 !
 ! R3    R(2,4)                  1.4895         -DE/DX =    0.0                 !
 ! R4    R(2,6)                  1.4895         -DE/DX =    0.0                 !
 ! A1    A(2,1,3)              126.9068         -DE/DX =    0.0                 !
 ! A2    A(2,1,5)              126.9075         -DE/DX =    0.0                 !
 ! A3    A(3,1,5)              106.1858         -DE/DX =    0.0                 !
 ! A4    A(1,2,4)              126.9068         -DE/DX =    0.0                 !
 ! A5    A(1,2,6)              126.9075         -DE/DX =    0.0                 !
 ! A6    A(4,2,6)              106.1858         -DE/DX =    0.0                 !
 ! D1    D(3,1,2,4)           -179.9618         -DE/DX =    0.0                 !
 ! D2    D(3,1,2,6)              0.0562         -DE/DX =    0.0                 !
 ! D3    D(5,1,2,4)              0.0562         -DE/DX =    0.0                 !
 ! D4    D(5,1,2,6)           -179.9257         -DE/DX =    0.0                 !
 --------------------------------------------------------------------------------
 Lowest energy point so far.  Saving SCF results.
 Largest change from initial coordinates is atom    4       0.185 Angstoms.
 GradGradGradGradGradGradGradGradGradGradGradGradGradGradGradGradGradGrad

 Leave Link  103 at Mon Apr 21 20:20:16 2025, MaxMem=   536870912 cpu:               1.4 elap:               0.2
 (Enter /home/szhao/Apps/g16/l202.exe)
                          Input orientation:                          
 ---------------------------------------------------------------------
 Center     Atomic      Atomic             Coordinates (Angstroms)
 Number     Number       Type             X           Y           Z
 ---------------------------------------------------------------------
      1         14           0       -1.966295    0.000000    0.000000
      2         14           0        1.966295    0.000000    0.000000
      3          1           0       -2.860784   -1.191055   -0.000119
      4          1           0        2.860784    1.191055    0.000912
      5          1           0       -2.860799    1.191044   -0.000257
      6          1           0        2.860799   -1.191044   -0.001288
 ---------------------------------------------------------------------
                    Distance matrix (angstroms):
                    1          2          3          4          5
     1  Si   0.000000
     2  Si   3.932590   0.000000
     3  H    1.489538   4.971851   0.000000
     4  H    4.971851   1.489538   6.197644   0.000000
     5  H    1.489538   4.971863   2.382099   5.721583   0.000000
     6  H    4.971863   1.489538   5.721583   2.382099   6.197663
                    6
     6  H    0.000000
 Symmetry turned off by external request.
 Stoichiometry    H4Si2(1+,2)
 Framework group  C1[X(H4Si2)]
 Deg. of freedom    12
 Full point group                 C1      NOp   1
 Rotational constants (GHZ):          88.3715066           2.0269647           1.9815150
 Leave Link  202 at Mon Apr 21 20:20:16 2025, MaxMem=   536870912 cpu:               0.2 elap:               0.1
 (Enter /home/szhao/Apps/g16/l601.exe)
 Copying SCF densities to generalized density rwf, IOpCl= 1 IROHF=0.

 **********************************************************************

            Population analysis using the SCF density.

 **********************************************************************

 Alpha  occ. eigenvalues --  -67.24558 -67.24558  -5.79046  -5.79044  -4.10318
 Alpha  occ. eigenvalues --   -4.10318  -4.09988  -4.09987  -4.09651  -4.09651
 Alpha  occ. eigenvalues --   -0.78722  -0.78364  -0.60411  -0.60315  -0.51227
 Alpha  occ. eigenvalues --   -0.46511
 Alpha virt. eigenvalues --   -0.27876  -0.26626  -0.13615  -0.12109  -0.09298
 Alpha virt. eigenvalues --   -0.08077  -0.07678  -0.07628  -0.06852  -0.06385
 Alpha virt. eigenvalues --   -0.06166  -0.05681  -0.05645  -0.03383   0.12816
 Alpha virt. eigenvalues --    0.13173   0.14310   0.14491   0.15955   0.17549
 Alpha virt. eigenvalues --    0.20693   0.22302   0.25938   0.28490   0.29628
 Alpha virt. eigenvalues --    0.32455   0.37928   0.37931   0.39309   0.39617
 Alpha virt. eigenvalues --    0.40154   0.44338   0.57952   0.58076   0.71064
 Alpha virt. eigenvalues --    0.71923   1.00662   1.01681   1.01765   1.02712
 Alpha virt. eigenvalues --    1.03148   1.03267   1.20871   1.21212   1.27837
 Alpha virt. eigenvalues --    1.27837   1.31891   1.31904   1.43096   1.43841
 Alpha virt. eigenvalues --    1.72757   1.72873   1.90080   1.91711   2.38297
 Alpha virt. eigenvalues --    2.42394   2.45592   2.47058   5.29482   5.35239
 Alpha virt. eigenvalues --   11.22265  11.23202  11.28924  11.30558  11.34397
 Alpha virt. eigenvalues --   11.35030 140.85632 140.92222
  Beta  occ. eigenvalues --  -67.24206 -67.24206  -5.78769  -5.78767  -4.10212
  Beta  occ. eigenvalues --   -4.10212  -4.09535  -4.09535  -4.09203  -4.09202
  Beta  occ. eigenvalues --   -0.76895  -0.76383  -0.59233  -0.59118  -0.45406
  Beta virt. eigenvalues --   -0.31599  -0.26672  -0.25213  -0.12597  -0.11692
  Beta virt. eigenvalues --   -0.09404  -0.07605  -0.07465  -0.06542  -0.06515
  Beta virt. eigenvalues --   -0.06088  -0.05793  -0.05365  -0.05038  -0.02997
  Beta virt. eigenvalues --    0.13158   0.13292   0.14434   0.14839   0.16285
  Beta virt. eigenvalues --    0.17905   0.21217   0.22986   0.26481   0.28719
  Beta virt. eigenvalues --    0.29910   0.33191   0.39714   0.39721   0.41778
  Beta virt. eigenvalues --    0.42007   0.42757   0.46265   0.59849   0.59988
  Beta virt. eigenvalues --    0.72177   0.72887   1.02430   1.03294   1.03416
  Beta virt. eigenvalues --    1.04856   1.05898   1.06307   1.21046   1.21397
  Beta virt. eigenvalues --    1.28269   1.28271   1.32261   1.32275   1.43993
  Beta virt. eigenvalues --    1.44564   1.74385   1.74490   1.91719   1.93260
  Beta virt. eigenvalues --    2.39383   2.43463   2.46726   2.48187   5.30593
  Beta virt. eigenvalues --    5.36383  11.22997  11.23935  11.30701  11.32385
  Beta virt. eigenvalues --   11.35085  11.35720 140.86174 140.92765
          Condensed to atoms (all electrons):
               1          2          3          4          5          6
     1  Si  12.764814   0.048826   0.315417   0.000259   0.315417   0.000259
     2  Si   0.048826  12.764814   0.000259   0.315417   0.000259   0.315417
     3  H    0.315417   0.000259   0.729729   0.000003  -0.017908   0.000005
     4  H    0.000259   0.315417   0.000003   0.729729   0.000005  -0.017908
     5  H    0.315417   0.000259  -0.017908   0.000005   0.729728   0.000003
     6  H    0.000259   0.315417   0.000005  -0.017908   0.000003   0.729728
          Atomic-Atomic Spin Densities.
               1          2          3          4          5          6
     1  Si   0.548745  -0.117102  -0.026382   0.003046  -0.026383   0.003045
     2  Si  -0.117102   0.548745   0.003046  -0.026382   0.003045  -0.026383
     3  H   -0.026382   0.003046   0.071832  -0.000009   0.009055  -0.000025
     4  H    0.003046  -0.026382  -0.000009   0.071832  -0.000025   0.009055
     5  H   -0.026383   0.003045   0.009055  -0.000025   0.071832  -0.000009
     6  H    0.003045  -0.026383  -0.000025   0.009055  -0.000009   0.071832
 Mulliken charges and spin densities:
               1          2
     1  Si   0.555008   0.384968
     2  Si   0.555008   0.384968
     3  H   -0.027504   0.057516
     4  H   -0.027504   0.057516
     5  H   -0.027504   0.057516
     6  H   -0.027504   0.057516
 Sum of Mulliken charges =   1.00000   1.00000
 Mulliken charges and spin densities with hydrogens summed into heavy atoms:
               1          2
     1  Si   0.500000   0.500000
     2  Si   0.500000   0.500000
 Electronic spatial extent (au):  <R**2>=            560.2976
 Charge=              1.0000 electrons
 Dipole moment (field-independent basis, Debye):
    X=              0.0000    Y=              0.0000    Z=             -0.0001  Tot=              0.0001
 Quadrupole moment (field-independent basis, Debye-Ang):
   XX=             -2.5686   YY=            -25.7770   ZZ=            -20.7986
   XY=             -0.0000   XZ=              0.0000   YZ=             -0.0022
 Traceless Quadrupole moment (field-independent basis, Debye-Ang):
   XX=             13.8128   YY=             -9.3956   ZZ=             -4.4172
   XY=             -0.0000   XZ=              0.0000   YZ=             -0.0022
 Octapole moment (field-independent basis, Debye-Ang**2):
  XXX=              0.0000  YYY=             -0.0000  ZZZ=              0.0015  XYY=              0.0000
  XXY=             -0.0000  XXZ=              0.0056  XZZ=             -0.0000  YZZ=             -0.0000
  YYZ=              0.0005  XYZ=             -0.0049
 Hexadecapole moment (field-independent basis, Debye-Ang**3):
 XXXX=           -640.9123 YYYY=            -68.2072 ZZZZ=            -24.5975 XXXY=             -0.0003
 XXXZ=              0.0000 YYYX=             -0.0001 YYYZ=             -0.0084 ZZZX=              0.0000
 ZZZY=             -0.0105 XXYY=           -126.9641 XXZZ=           -101.4228 YYZZ=            -16.2577
 XXYZ=             -0.0110 YYXZ=              0.0000 ZZXY=             -0.0000
 N-N= 5.302923193031D+01 E-N=-1.483074442117D+03  KE= 5.799587756095D+02
                          Isotropic Fermi Contact Couplings
        Atom                 a.u.       MegaHertz       Gauss      10(-4) cm-1
     1  Si(29)             0.71576    -636.11360    -226.98115    -212.18466
     2  Si(29)             0.71576    -636.11362    -226.98116    -212.18467
     3  H(1)               0.02374     106.13704      37.87234      35.40351
     4  H(1)               0.02374     106.13704      37.87234      35.40351
     5  H(1)               0.02375     106.13800      37.87268      35.40383
     6  H(1)               0.02375     106.13800      37.87268      35.40383
 --------------------------------------------------------
       Center         ----  Spin Dipole Couplings  ----
                      3XX-RR        3YY-RR        3ZZ-RR
 --------------------------------------------------------
     1   Atom        0.885383     -0.449815     -0.435568
     2   Atom        0.885383     -0.449815     -0.435568
     3   Atom        0.000596      0.008335     -0.008931
     4   Atom        0.000596      0.008335     -0.008931
     5   Atom        0.000596      0.008335     -0.008931
     6   Atom        0.000596      0.008335     -0.008931
 --------------------------------------------------------
                        XY            XZ            YZ
 --------------------------------------------------------
     1   Atom        0.000009      0.000527      0.000001
     2   Atom        0.000009     -0.000528     -0.000015
     3   Atom        0.004856      0.000003     -0.000001
     4   Atom        0.004856      0.000001      0.000015
     5   Atom       -0.004856      0.000004     -0.000002
     6   Atom       -0.004856     -0.000008      0.000016
 --------------------------------------------------------


 ---------------------------------------------------------------------------------
              Anisotropic Spin Dipole Couplings in Principal Axis System
 ---------------------------------------------------------------------------------

       Atom             a.u.   MegaHertz   Gauss  10(-4) cm-1        Axes

              Baa    -0.4498    47.718    17.027    15.917 -0.0000  1.0000 -0.0001
     1 Si(29) Bbb    -0.4356    46.207    16.488    15.413 -0.0004  0.0001  1.0000
              Bcc     0.8854   -93.925   -33.515   -31.330  1.0000  0.0000  0.0004
 
              Baa    -0.4498    47.718    17.027    15.917 -0.0000  1.0000  0.0011
     2 Si(29) Bbb    -0.4356    46.207    16.488    15.413  0.0004 -0.0011  1.0000
              Bcc     0.8854   -93.925   -33.515   -31.330  1.0000  0.0000 -0.0004
 
              Baa    -0.0089    -4.765    -1.700    -1.590 -0.0004  0.0001  1.0000
     3 H(1)   Bbb    -0.0017    -0.930    -0.332    -0.310  0.9009 -0.4341  0.0004
              Bcc     0.0107     5.696     2.032     1.900  0.4341  0.9009  0.0000
 
              Baa    -0.0089    -4.765    -1.700    -1.590  0.0004 -0.0010  1.0000
     4 H(1)   Bbb    -0.0017    -0.930    -0.332    -0.310  0.9009 -0.4341 -0.0008
              Bcc     0.0107     5.696     2.032     1.900  0.4341  0.9009  0.0007
 
              Baa    -0.0089    -4.765    -1.700    -1.590 -0.0004 -0.0000  1.0000
     5 H(1)   Bbb    -0.0017    -0.930    -0.332    -0.310  0.9009  0.4341  0.0004
              Bcc     0.0107     5.696     2.032     1.900 -0.4341  0.9009 -0.0002
 
              Baa    -0.0089    -4.765    -1.700    -1.590  0.0004 -0.0008  1.0000
     6 H(1)   Bbb    -0.0017    -0.930    -0.332    -0.310  0.9009  0.4341 -0.0000
              Bcc     0.0107     5.696     2.032     1.900 -0.4341  0.9009  0.0009
 

 ---------------------------------------------------------------------------------

 No NMR shielding tensors so no spin-rotation constants.
 Leave Link  601 at Mon Apr 21 20:20:17 2025, MaxMem=   536870912 cpu:               3.0 elap:               0.5
 (Enter /home/szhao/Apps/g16/l9999.exe)
 1\1\GINC-NODE03\FOpt\UM062X\6-311+G(d,p)\H4Si2(1+,2)\SZHAO\21-Apr-2025
 \0\\#p opt UM062X/6-311+G** nosymm int=superfine\\Title Card Required\
 \1,2\Si,-1.966295,0.,0.\Si,1.966295,0.,0.\H,-2.8607841995,-1.191055228
 8,-0.0001187083\H,2.8607841568,1.1910549127,0.0009117694\H,-2.86079886
 91,1.1910442372,-0.0002567747\H,2.8607988802,-1.1910435538,-0.00128769
 77\\Version=ES64L-G16RevA.03\HF=-580.884574\S2=0.756211\S2-1=0.\S2A=0.
 750008\RMSD=2.337e-09\RMSF=2.213e-06\Dipole=0.,0.,-0.0000039\Quadrupol
 e=10.2694775,-6.9854161,-3.2840614,-0.0000071,0.0000004,-0.0016012\PG=
 C01 [X(H4Si2)]\\@


 JUST WHEN YOU THINK YOU'VE GOT THE WORLD ON A STRING,
 YOU FIND OUT IT'S YOUR LEASH.
 Job cpu time:       0 days  0 hours 11 minutes 41.3 seconds.
 Elapsed time:       0 days  0 hours  1 minutes 34.4 seconds.
 File lengths (MBytes):  RWF=     22 Int=      0 D2E=      0 Chk=      2 Scr=      2
 Normal termination of Gaussian 16 at Mon Apr 21 20:20:18 2025.
