 Entering Gaussian System, Link 0=g16
 Initial command:
 /home/szhao/Apps/g16/l1.exe "/home/szhao/tmp/Gau-116060.inp" -scrdir="/home/szhao/tmp/"
 Default is to use a total of  16 processors:
                               16 via shared-memory
                                1 via Linda
 Entering Link 1 = /home/szhao/Apps/g16/l1.exe PID=    116061.
  
 Copyright (c) 1988,1990,1992,1993,1995,1998,2003,2009,2016,
            Gaussian, Inc.  All Rights Reserved.
  
 This is part of the Gaussian(R) 16 program.  It is based on
 the Gaussian(R) 09 system (copyright 2009, Gaussian, Inc.),
 the Gaussian(R) 03 system (copyright 2003, Gaussian, Inc.),
 the Gaussian(R) 98 system (copyright 1998, Gaussian, Inc.),
 the Gaussian(R) 94 system (copyright 1995, Gaussian, Inc.),
 the Gaussian 92(TM) system (copyright 1992, Gaussian, Inc.),
 the Gaussian 90(TM) system (copyright 1990, Gaussian, Inc.),
 the Gaussian 88(TM) system (copyright 1988, Gaussian, Inc.),
 the Gaussian 86(TM) system (copyright 1986, Carnegie Mellon
 University), and the Gaussian 82(TM) system (copyright 1983,
 Carnegie Mellon University). Gaussian is a federally registered
 trademark of Gaussian, Inc.
  
 This software contains proprietary and confidential information,
 including trade secrets, belonging to Gaussian, Inc.
  
 This software is provided under written license and may be
 used, copied, transmitted, or stored only in accord with that
 written license.
  
 The following legend is applicable only to US Government
 contracts under FAR:
  
                    RESTRICTED RIGHTS LEGEND
  
 Use, reproduction and disclosure by the US Government is
 subject to restrictions as set forth in subparagraphs (a)
 and (c) of the Commercial Computer Software - Restricted
 Rights clause in FAR 52.227-19.
  
 Gaussian, Inc.
 340 Quinnipiac St., Bldg. 40, Wallingford CT 06492
  
  
 ---------------------------------------------------------------
 Warning -- This program may not be used in any manner that
 competes with the business of Gaussian, Inc. or will provide
 assistance to any competitor of Gaussian, Inc.  The licensee
 of this program is prohibited from giving any competitor of
 Gaussian, Inc. access to this program.  By using this program,
 the user acknowledges that Gaussian, Inc. is engaged in the
 business of creating and licensing software in the field of
 computational chemistry and represents and warrants to the
 licensee that it is not a competitor of Gaussian, Inc. and that
 it will not use this program in any manner prohibited above.
 ---------------------------------------------------------------
  

 Cite this work as:
 Gaussian 16, Revision A.03,
 M. J. Frisch, G. W. Trucks, H. B. Schlegel, G. E. Scuseria, 
 M. A. Robb, J. R. Cheeseman, G. Scalmani, V. Barone, 
 G. A. Petersson, H. Nakatsuji, X. Li, M. Caricato, A. V. Marenich, 
 J. Bloino, B. G. Janesko, R. Gomperts, B. Mennucci, H. P. Hratchian, 
 J. V. Ortiz, A. F. Izmaylov, J. L. Sonnenberg, D. Williams-Young, 
 F. Ding, F. Lipparini, F. Egidi, J. Goings, B. Peng, A. Petrone, 
 T. Henderson, D. Ranasinghe, V. G. Zakrzewski, J. Gao, N. Rega, 
 G. Zheng, W. Liang, M. Hada, M. Ehara, K. Toyota, R. Fukuda, 
 J. Hasegawa, M. Ishida, T. Nakajima, Y. Honda, O. Kitao, H. Nakai, 
 T. Vreven, K. Throssell, J. A. Montgomery, Jr., J. E. Peralta, 
 F. Ogliaro, M. J. Bearpark, J. J. Heyd, E. N. Brothers, K. N. Kudin, 
 V. N. Staroverov, T. A. Keith, R. Kobayashi, J. Normand, 
 K. Raghavachari, A. P. Rendell, J. C. Burant, S. S. Iyengar, 
 J. Tomasi, M. Cossi, J. M. Millam, M. Klene, C. Adamo, R. Cammi, 
 J. W. Ochterski, R. L. Martin, K. Morokuma, O. Farkas, 
 J. B. Foresman, and D. J. Fox, Gaussian, Inc., Wallingford CT, 2016.
 
 ******************************************
 Gaussian 16:  ES64L-G16RevA.03 25-Dec-2016
                21-Apr-2025 
 ******************************************
 %chk=opt.chk
 %mem=4GB
 %nprocshared=8
 Will use up to    8 processors via shared memory.
 --------------------------------------------
 #p opt UM062X/6-311+G** nosymm int=superfine
 --------------------------------------------
 1/18=20,19=15,26=5,38=1/1,3;
 2/9=110,12=2,15=1,17=6,18=5,40=1/2;
 3/5=4,6=6,7=111,11=2,25=1,30=1,71=1,74=-55,75=-7,116=2/1,2,3;
 4//1;
 5/5=2,38=5/2;
 6/7=2,8=2,9=2,10=2,28=1/1;
 7/30=1/1,2,3,16;
 1/18=20,19=15,26=5/3(2);
 2/9=110,15=1/2;
 99//99;
 2/9=110,15=1/2;
 3/5=4,6=6,7=111,11=2,25=1,30=1,71=1,74=-55,75=-7,116=2/1,2,3;
 4/5=5,16=3,69=1/1;
 5/5=2,38=5/2;
 7/30=1/1,2,3,16;
 1/18=20,19=15,26=5/3(-5);
 2/9=110,15=1/2;
 6/7=2,8=2,9=2,10=2,19=2,28=1/1;
 99/9=1/99;
 Leave Link    1 at Mon Apr 21 17:18:30 2025, MaxMem=   536870912 cpu:               1.0 elap:               0.1
 (Enter /home/szhao/Apps/g16/l101.exe)
 -------------------
 Title Card Required
 -------------------
 Symbolic Z-matrix:
 Charge =  0 Multiplicity = 1
 B                    -1   -2.29561   0.        0. 
 B                    -1    2.29561   0.        0. 
 H                    0    -2.92358  -1.01314   0. 
 H                    0     2.92358   1.01312  -0.00522 
 H                    0    -2.92359   1.01313  0. 
 H                    0     2.92359  -1.01312   0.00521 
 
 Add virtual bond connecting atoms B2         and B1         Dist= 8.68D+00.
 ITRead=  2  2  0  0  0  0
 MicOpt= -2 -2 -1 -1 -1 -1
 NAtoms=      6 NQM=        4 NQMF=       2 NMMI=      0 NMMIF=      0
                NMic=       0 NMicF=      0.
                    Isotopes and Nuclear Properties:
 (Nuclear quadrupole moments (NQMom) in fm**2, nuclear magnetic moments (NMagM)
  in nuclear magnetons)

  Atom         1           2           3           4           5           6
 IAtWgt=          11          11           1           1           1           1
 AtmWgt=  11.0093053  11.0093053   1.0078250   1.0078250   1.0078250   1.0078250
 NucSpn=           3           3           1           1           1           1
 AtZEff=  -0.0000000  -0.0000000  -0.0000000  -0.0000000  -0.0000000  -0.0000000
 NQMom=    4.0590000   4.0590000   0.0000000   0.0000000   0.0000000   0.0000000
 NMagM=    2.6886370   2.6886370   2.7928460   2.7928460   2.7928460   2.7928460
 AtZNuc=   5.0000000   5.0000000   1.0000000   1.0000000   1.0000000   1.0000000
 Leave Link  101 at Mon Apr 21 17:18:31 2025, MaxMem=   536870912 cpu:               2.4 elap:               0.3
 (Enter /home/szhao/Apps/g16/l103.exe)

 GradGradGradGradGradGradGradGradGradGradGradGradGradGradGradGradGradGrad
 Berny optimization.
 Initialization pass.
                           ----------------------------
                           !    Initial Parameters    !
                           ! (Angstroms and Degrees)  !
 --------------------------                            --------------------------
 ! Name  Definition              Value          Derivative Info.                !
 --------------------------------------------------------------------------------
 ! X1    R(1,-1)                -2.2956         Frozen                          !
 ! Y1    R(1,-2)                 0.0            Frozen                          !
 ! Z1    R(1,-3)                 0.0            Frozen                          !
 ! X2    R(2,-1)                 2.2956         Frozen                          !
 ! Y2    R(2,-2)                 0.0            Frozen                          !
 ! Z2    R(2,-3)                 0.0            Frozen                          !
 ! R1    R(1,3)                  1.192          estimate D2E/DX2                !
 ! R2    R(1,5)                  1.192          estimate D2E/DX2                !
 ! R3    R(2,4)                  1.192          estimate D2E/DX2                !
 ! R4    R(2,6)                  1.192          estimate D2E/DX2                !
 ! A1    A(2,1,3)              121.7921         estimate D2E/DX2                !
 ! A2    A(2,1,5)              121.7923         estimate D2E/DX2                !
 ! A3    A(3,1,5)              116.4156         estimate D2E/DX2                !
 ! A4    A(1,2,4)              121.7921         estimate D2E/DX2                !
 ! A5    A(1,2,6)              121.7923         estimate D2E/DX2                !
 ! A6    A(4,2,6)              116.4156         estimate D2E/DX2                !
 ! D1    D(3,1,2,4)            179.7049         estimate D2E/DX2                !
 ! D2    D(3,1,2,6)             -0.2949         estimate D2E/DX2                !
 ! D3    D(5,1,2,4)             -0.2949         estimate D2E/DX2                !
 ! D4    D(5,1,2,6)            179.7054         estimate D2E/DX2                !
 --------------------------------------------------------------------------------
 Trust Radius=3.00D-01 FncErr=1.00D-07 GrdErr=1.00D-07 EigMax=2.50D+02 EigMin=1.00D-04
 Number of steps in this run=     30 maximum allowed number of steps=    100.
 GradGradGradGradGradGradGradGradGradGradGradGradGradGradGradGradGradGrad

 Leave Link  103 at Mon Apr 21 17:18:31 2025, MaxMem=   536870912 cpu:               0.3 elap:               0.1
 (Enter /home/szhao/Apps/g16/l202.exe)
                          Input orientation:                          
 ---------------------------------------------------------------------
 Center     Atomic      Atomic             Coordinates (Angstroms)
 Number     Number       Type             X           Y           Z
 ---------------------------------------------------------------------
      1          5           0       -2.295607    0.000000    0.000000
      2          5           0        2.295607    0.000000    0.000000
      3          1           0       -2.923584   -1.013136    0.000000
      4          1           0        2.923584    1.013123   -0.005219
      5          1           0       -2.923587    1.013133   -0.000005
      6          1           0        2.923587   -1.013119    0.005214
 ---------------------------------------------------------------------
                    Distance matrix (angstroms):
                    1          2          3          4          5
     1  B    0.000000
     2  B    4.591214   0.000000
     3  H    1.191973   5.316615   0.000000
     4  H    5.316615   1.191973   6.188306   0.000000
     5  H    1.191972   5.316618   2.026269   5.847173   0.000000
     6  H    5.316618   1.191972   5.847173   2.026269   6.188309
                    6
     6  H    0.000000
 Symmetry turned off by external request.
 Stoichiometry    B2H4
 Framework group  C2[X(B2H4)]
 Deg. of freedom     7
 Full point group                 C2      NOp   2
 Rotational constants (GHZ):         122.1343774           3.3582032           3.2683382
 Leave Link  202 at Mon Apr 21 17:18:31 2025, MaxMem=   536870912 cpu:               0.2 elap:               0.0
 (Enter /home/szhao/Apps/g16/l301.exe)
 Standard basis: 6-311+G(d,p) (5D, 7F)
 Ernie: Thresh=  0.10000D-02 Tol=  0.10000D-05 Strict=F.
    68 basis functions,   104 primitive gaussians,    70 cartesian basis functions
     7 alpha electrons        7 beta electrons
       nuclear repulsion energy        14.6254825860 Hartrees.
 IExCor= 4336 DFT=T Ex+Corr=M062X ExCW=0 ScaHFX=  0.540000
 ScaDFX=  1.000000  1.000000  1.000000  1.000000 ScalE2=  1.000000  1.000000
 IRadAn=      7 IRanWt=     -1 IRanGd=            0 ICorTp=0 IEmpDi=  4
 NAtoms=    6 NActive=    6 NUniq=    6 SFac= 1.00D+00 NAtFMM=   60 NAOKFM=F Big=F
 Integral buffers will be    131072 words long.
 Raffenetti 2 integral format.
 Two-electron integral symmetry is turned off.
 Leave Link  301 at Mon Apr 21 17:18:31 2025, MaxMem=   536870912 cpu:               0.6 elap:               0.2
 (Enter /home/szhao/Apps/g16/l302.exe)
 NPDir=0 NMtPBC=     1 NCelOv=     1 NCel=       1 NClECP=     1 NCelD=      1
         NCelK=      1 NCelE2=     1 NClLst=     1 CellRange=     0.0.
 One-electron integrals computed using PRISM.
 NBasis=    68 RedAO= T EigKep=  1.18D-02  NBF=    68
 NBsUse=    68 1.00D-06 EigRej= -1.00D+00 NBFU=    68
 Precomputing XC quadrature grid using
 IXCGrd= 4 IRadAn=           7 IRanWt=          -1 IRanGd=           0 AccXCQ= 0.00D+00.
 Generated NRdTot=       0 NPtTot=           0 NUsed=           0 NTot=          32
 NSgBfM=    70    70    70    70    70 MxSgAt=     6 MxSgA2=     6.
 Leave Link  302 at Mon Apr 21 17:18:32 2025, MaxMem=   536870912 cpu:               1.7 elap:               0.3
 (Enter /home/szhao/Apps/g16/l303.exe)
 DipDrv:  MaxL=1.
 Leave Link  303 at Mon Apr 21 17:18:32 2025, MaxMem=   536870912 cpu:               0.5 elap:               0.1
 (Enter /home/szhao/Apps/g16/l401.exe)
 ExpMin= 3.15D-02 ExpMax= 2.86D+03 ExpMxC= 4.28D+02 IAcc=3 IRadAn=         7 AccDes= 0.00D+00
 Harris functional with IExCor= 1009 and IRadAn=       7 diagonalized for initial guess.
 HarFok:  IExCor= 1009 AccDes= 0.00D+00 IRadAn=         7 IDoV= 1 UseB2=F ITyADJ=14
 ICtDFT=  3500011 ScaDFX=  1.000000  1.000000  1.000000  1.000000
 FoFCou: FMM=F IPFlag=           0 FMFlag=      100000 FMFlg1=           0
         NFxFlg=           0 DoJE=T BraDBF=F KetDBF=T FulRan=T
         wScrn=  0.000000 ICntrl=       500 IOpCl=  0 I1Cent=   200000004 NGrid=           0
         NMat0=    1 NMatS0=      1 NMatT0=    0 NMatD0=    1 NMtDS0=    0 NMtDT0=    0
 Symmetry not used in FoFCou.
 Harris En= -51.7660294267117    
 JPrj=0 DoOrth=F DoCkMO=F.
 Initial guess <Sx>= 0.0000 <Sy>= 0.0000 <Sz>= 0.0000 <S**2>=-0.0000 S=-0.0000
 Leave Link  401 at Mon Apr 21 17:18:33 2025, MaxMem=   536870912 cpu:               3.2 elap:               0.5
 (Enter /home/szhao/Apps/g16/l502.exe)
 Keep R1 and R2 ints in memory in canonical form, NReq=12681614.
 FoFCou: FMM=F IPFlag=           0 FMFlag=           0 FMFlg1=           0
         NFxFlg=           0 DoJE=F BraDBF=F KetDBF=F FulRan=T
         wScrn=  0.000000 ICntrl=       600 IOpCl=  0 I1Cent=           0 NGrid=           0
         NMat0=    1 NMatS0=   2346 NMatT0=    0 NMatD0=    1 NMtDS0=    0 NMtDT0=    0
 Symmetry not used in FoFCou.
 Two-electron integral symmetry not used.
 UHF open shell SCF:
 Using DIIS extrapolation, IDIIS=  1040.
 NGot=   536870912 LenX=   531353794 LenY=   531348453
 Requested convergence on RMS density matrix=1.00D-08 within 128 cycles.
 Requested convergence on MAX density matrix=1.00D-06.
 Requested convergence on             energy=1.00D-06.
 No special actions if energy rises.

 Cycle   1  Pass 1  IDiag  1:
 E= -51.7517105102310    
 DIIS: error= 1.71D-02 at cycle   1 NSaved=   1.
 NSaved= 1 IEnMin= 1 EnMin= -51.7517105102310     IErMin= 1 ErrMin= 1.71D-02
 ErrMax= 1.71D-02  0.00D+00 EMaxC= 1.00D-01 BMatC= 7.26D-02 BMatP= 7.26D-02
 IDIUse=3 WtCom= 8.29D-01 WtEn= 1.71D-01
 Coeff-Com:  0.100D+01
 Coeff-En:   0.100D+01
 Coeff:      0.100D+01
 Gap=     0.101 Goal=   None    Shift=    0.000
 Gap=     0.101 Goal=   None    Shift=    0.000
 GapD=    0.101 DampG=1.000 DampE=0.500 DampFc=0.5000 IDamp=-1.
 Damping current iteration by 5.00D-01
 RMSDP=2.48D-03 MaxDP=3.23D-02              OVMax= 1.01D-01

 Cycle   2  Pass 1  IDiag  1:
 E= -51.7634950472301     Delta-E=       -0.011784536999 Rises=F Damp=T
 DIIS: error= 7.35D-03 at cycle   2 NSaved=   2.
 NSaved= 2 IEnMin= 2 EnMin= -51.7634950472301     IErMin= 2 ErrMin= 7.35D-03
 ErrMax= 7.35D-03  0.00D+00 EMaxC= 1.00D-01 BMatC= 1.41D-02 BMatP= 7.26D-02
 IDIUse=3 WtCom= 9.26D-01 WtEn= 7.35D-02
 Coeff-Com: -0.711D+00 0.171D+01
 Coeff-En:   0.000D+00 0.100D+01
 Coeff:     -0.659D+00 0.166D+01
 Gap=     0.100 Goal=   None    Shift=    0.000
 Gap=     0.100 Goal=   None    Shift=    0.000
 RMSDP=1.02D-03 MaxDP=1.17D-02 DE=-1.18D-02 OVMax= 1.33D-02

 Cycle   3  Pass 1  IDiag  1:
 E= -51.7740858744785     Delta-E=       -0.010590827248 Rises=F Damp=F
 DIIS: error= 1.09D-03 at cycle   3 NSaved=   3.
 NSaved= 3 IEnMin= 3 EnMin= -51.7740858744785     IErMin= 3 ErrMin= 1.09D-03
 ErrMax= 1.09D-03  0.00D+00 EMaxC= 1.00D-01 BMatC= 1.10D-04 BMatP= 1.41D-02
 IDIUse=3 WtCom= 9.89D-01 WtEn= 1.09D-02
 Coeff-Com: -0.128D+00 0.278D+00 0.849D+00
 Coeff-En:   0.000D+00 0.000D+00 0.100D+01
 Coeff:     -0.126D+00 0.275D+00 0.851D+00
 Gap=     0.100 Goal=   None    Shift=    0.000
 Gap=     0.100 Goal=   None    Shift=    0.000
 RMSDP=1.05D-04 MaxDP=1.62D-03 DE=-1.06D-02 OVMax= 5.47D-03

 Cycle   4  Pass 1  IDiag  1:
 E= -51.7741300417853     Delta-E=       -0.000044167307 Rises=F Damp=F
 DIIS: error= 2.22D-04 at cycle   4 NSaved=   4.
 NSaved= 4 IEnMin= 4 EnMin= -51.7741300417853     IErMin= 4 ErrMin= 2.22D-04
 ErrMax= 2.22D-04  0.00D+00 EMaxC= 1.00D-01 BMatC= 4.73D-06 BMatP= 1.10D-04
 IDIUse=3 WtCom= 9.98D-01 WtEn= 2.22D-03
 Coeff-Com:  0.445D-02-0.129D-01 0.109D+00 0.899D+00
 Coeff-En:   0.000D+00 0.000D+00 0.000D+00 0.100D+01
 Coeff:      0.444D-02-0.128D-01 0.109D+00 0.900D+00
 Gap=     0.100 Goal=   None    Shift=    0.000
 Gap=     0.100 Goal=   None    Shift=    0.000
 RMSDP=3.22D-05 MaxDP=5.55D-04 DE=-4.42D-05 OVMax= 8.06D-04

 Cycle   5  Pass 1  IDiag  1:
 E= -51.7741323801617     Delta-E=       -0.000002338376 Rises=F Damp=F
 DIIS: error= 4.11D-05 at cycle   5 NSaved=   5.
 NSaved= 5 IEnMin= 5 EnMin= -51.7741323801617     IErMin= 5 ErrMin= 4.11D-05
 ErrMax= 4.11D-05  0.00D+00 EMaxC= 1.00D-01 BMatC= 1.16D-07 BMatP= 4.73D-06
 IDIUse=1 WtCom= 1.00D+00 WtEn= 0.00D+00
 Coeff-Com:  0.623D-02-0.131D-01-0.369D-01-0.251D-05 0.104D+01
 Coeff:      0.623D-02-0.131D-01-0.369D-01-0.251D-05 0.104D+01
 Gap=     0.100 Goal=   None    Shift=    0.000
 Gap=     0.100 Goal=   None    Shift=    0.000
 RMSDP=1.08D-05 MaxDP=1.52D-04 DE=-2.34D-06 OVMax= 4.94D-04

 Cycle   6  Pass 1  IDiag  1:
 E= -51.7741324834369     Delta-E=       -0.000000103275 Rises=F Damp=F
 DIIS: error= 3.69D-05 at cycle   6 NSaved=   6.
 NSaved= 6 IEnMin= 6 EnMin= -51.7741324834369     IErMin= 6 ErrMin= 3.69D-05
 ErrMax= 3.69D-05  0.00D+00 EMaxC= 1.00D-01 BMatC= 6.94D-08 BMatP= 1.16D-07
 IDIUse=1 WtCom= 1.00D+00 WtEn= 0.00D+00
 Coeff-Com:  0.369D-02-0.773D-02-0.225D-01-0.124D-01 0.611D+00 0.428D+00
 Coeff:      0.369D-02-0.773D-02-0.225D-01-0.124D-01 0.611D+00 0.428D+00
 Gap=     0.100 Goal=   None    Shift=    0.000
 Gap=     0.100 Goal=   None    Shift=    0.000
 RMSDP=4.65D-06 MaxDP=6.39D-05 DE=-1.03D-07 OVMax= 3.92D-04

 Cycle   7  Pass 1  IDiag  1:
 E= -51.7741324860672     Delta-E=       -0.000000002630 Rises=F Damp=F
 DIIS: error= 3.65D-05 at cycle   7 NSaved=   7.
 NSaved= 7 IEnMin= 7 EnMin= -51.7741324860672     IErMin= 7 ErrMin= 3.65D-05
 ErrMax= 3.65D-05  0.00D+00 EMaxC= 1.00D-01 BMatC= 6.64D-08 BMatP= 6.94D-08
 IDIUse=1 WtCom= 1.00D+00 WtEn= 0.00D+00
 Coeff-Com: -0.280D-03 0.645D-03 0.151D-02-0.179D-01-0.708D-01 0.532D+00
 Coeff-Com:  0.555D+00
 Coeff:     -0.280D-03 0.645D-03 0.151D-02-0.179D-01-0.708D-01 0.532D+00
 Coeff:      0.555D+00
 Gap=     0.100 Goal=   None    Shift=    0.000
 Gap=     0.100 Goal=   None    Shift=    0.000
 RMSDP=2.49D-06 MaxDP=3.81D-05 DE=-2.63D-09 OVMax= 1.99D-04

 Cycle   8  Pass 1  IDiag  1:
 E= -51.7741325268461     Delta-E=       -0.000000040779 Rises=F Damp=F
 DIIS: error= 2.98D-07 at cycle   8 NSaved=   8.
 NSaved= 8 IEnMin= 8 EnMin= -51.7741325268461     IErMin= 8 ErrMin= 2.98D-07
 ErrMax= 2.98D-07  0.00D+00 EMaxC= 1.00D-01 BMatC= 1.16D-11 BMatP= 6.64D-08
 IDIUse=1 WtCom= 1.00D+00 WtEn= 0.00D+00
 Coeff-Com:  0.122D-04-0.325D-04-0.522D-04 0.172D-02 0.475D-02-0.715D-01
 Coeff-Com: -0.689D-01 0.113D+01
 Coeff:      0.122D-04-0.325D-04-0.522D-04 0.172D-02 0.475D-02-0.715D-01
 Coeff:     -0.689D-01 0.113D+01
 Gap=     0.100 Goal=   None    Shift=    0.000
 Gap=     0.100 Goal=   None    Shift=    0.000
 RMSDP=1.18D-07 MaxDP=1.44D-06 DE=-4.08D-08 OVMax= 5.17D-06

 Cycle   9  Pass 1  IDiag  1:
 E= -51.7741325268618     Delta-E=       -0.000000000016 Rises=F Damp=F
 DIIS: error= 4.62D-08 at cycle   9 NSaved=   9.
 NSaved= 9 IEnMin= 9 EnMin= -51.7741325268618     IErMin= 9 ErrMin= 4.62D-08
 ErrMax= 4.62D-08  0.00D+00 EMaxC= 1.00D-01 BMatC= 1.79D-13 BMatP= 1.16D-11
 IDIUse=1 WtCom= 1.00D+00 WtEn= 0.00D+00
 Coeff-Com: -0.376D-05 0.819D-05-0.233D-05-0.144D-03 0.167D-03 0.571D-02
 Coeff-Com:  0.504D-02-0.167D+00 0.116D+01
 Coeff:     -0.376D-05 0.819D-05-0.233D-05-0.144D-03 0.167D-03 0.571D-02
 Coeff:      0.504D-02-0.167D+00 0.116D+01
 Gap=     0.100 Goal=   None    Shift=    0.000
 Gap=     0.100 Goal=   None    Shift=    0.000
 RMSDP=1.53D-08 MaxDP=1.75D-07 DE=-1.57D-11 OVMax= 7.14D-07

 Cycle  10  Pass 1  IDiag  1:
 E= -51.7741325268621     Delta-E=       -0.000000000000 Rises=F Damp=F
 DIIS: error= 5.89D-09 at cycle  10 NSaved=  10.
 NSaved=10 IEnMin=10 EnMin= -51.7741325268621     IErMin=10 ErrMin= 5.89D-09
 ErrMax= 5.89D-09  0.00D+00 EMaxC= 1.00D-01 BMatC= 2.94D-15 BMatP= 1.79D-13
 IDIUse=1 WtCom= 1.00D+00 WtEn= 0.00D+00
 Coeff-Com:  0.512D-06-0.979D-06 0.747D-06-0.180D-04-0.887D-04 0.319D-03
 Coeff-Com:  0.374D-03 0.684D-02-0.198D+00 0.119D+01
 Coeff:      0.512D-06-0.979D-06 0.747D-06-0.180D-04-0.887D-04 0.319D-03
 Coeff:      0.374D-03 0.684D-02-0.198D+00 0.119D+01
 Gap=     0.100 Goal=   None    Shift=    0.000
 Gap=     0.100 Goal=   None    Shift=    0.000
 RMSDP=2.83D-09 MaxDP=5.05D-08 DE=-2.70D-13 OVMax= 1.04D-07

 SCF Done:  E(UM062X) =  -51.7741325269     A.U. after   10 cycles
            NFock= 10  Conv=0.28D-08     -V/T= 2.0080
 <Sx>= 0.0000 <Sy>= 0.0000 <Sz>= 0.0000 <S**2>=-0.0000 S=-0.0000
 <L.S>=  0.00000000000    
 KE= 5.136401713279D+01 PE=-1.475516441502D+02 EE= 2.978801190463D+01
 Annihilation of the first spin contaminant:
 S**2 before annihilation    -0.0000,   after    -0.0000
 Leave Link  502 at Mon Apr 21 17:18:39 2025, MaxMem=   536870912 cpu:              45.3 elap:               5.8
 (Enter /home/szhao/Apps/g16/l601.exe)
 Copying SCF densities to generalized density rwf, IOpCl= 1 IROHF=0.

 **********************************************************************

            Population analysis using the SCF density.

 **********************************************************************

 Alpha  occ. eigenvalues --   -7.12014  -7.12013  -0.58352  -0.58206  -0.43154
 Alpha  occ. eigenvalues --   -0.43122  -0.21102
 Alpha virt. eigenvalues --   -0.11127  -0.05235  -0.04554   0.02101   0.02732
 Alpha virt. eigenvalues --    0.03891   0.05588   0.06014   0.07140   0.08198
 Alpha virt. eigenvalues --    0.10197   0.15502   0.17264   0.17755   0.19991
 Alpha virt. eigenvalues --    0.34389   0.34990   0.35266   0.36964   0.41139
 Alpha virt. eigenvalues --    0.42406   0.42407   0.49509   0.53631   0.58374
 Alpha virt. eigenvalues --    0.58514   0.58563   0.79404   0.79406   0.82238
 Alpha virt. eigenvalues --    0.82921   0.83020   0.83963   1.07633   1.07970
 Alpha virt. eigenvalues --    1.16045   1.16611   1.50610   1.51462   1.63269
 Alpha virt. eigenvalues --    1.63533   1.72717   1.72719   1.77741   1.82099
 Alpha virt. eigenvalues --    1.86059   1.87081   1.88881   1.92464   2.00750
 Alpha virt. eigenvalues --    2.02609   2.25317   2.25567   2.53338   2.55134
 Alpha virt. eigenvalues --    2.58798   2.59241   2.72042   2.72665  14.37634
 Alpha virt. eigenvalues --   14.37652
  Beta  occ. eigenvalues --   -7.12014  -7.12013  -0.58352  -0.58206  -0.43154
  Beta  occ. eigenvalues --   -0.43122  -0.21102
  Beta virt. eigenvalues --   -0.11127  -0.05235  -0.04554   0.02101   0.02732
  Beta virt. eigenvalues --    0.03891   0.05588   0.06014   0.07140   0.08198
  Beta virt. eigenvalues --    0.10197   0.15502   0.17264   0.17755   0.19991
  Beta virt. eigenvalues --    0.34389   0.34990   0.35266   0.36964   0.41139
  Beta virt. eigenvalues --    0.42406   0.42407   0.49509   0.53631   0.58374
  Beta virt. eigenvalues --    0.58514   0.58563   0.79404   0.79406   0.82238
  Beta virt. eigenvalues --    0.82921   0.83020   0.83963   1.07633   1.07970
  Beta virt. eigenvalues --    1.16045   1.16611   1.50610   1.51462   1.63269
  Beta virt. eigenvalues --    1.63533   1.72717   1.72719   1.77741   1.82099
  Beta virt. eigenvalues --    1.86059   1.87081   1.88881   1.92464   2.00750
  Beta virt. eigenvalues --    2.02609   2.25317   2.25567   2.53338   2.55134
  Beta virt. eigenvalues --    2.58798   2.59241   2.72042   2.72665  14.37634
  Beta virt. eigenvalues --   14.37652
          Condensed to atoms (all electrons):
               1          2          3          4          5          6
     1  B    4.197346   0.117899   0.372937  -0.003375   0.372937  -0.003375
     2  B    0.117899   4.197346  -0.003375   0.372937  -0.003375   0.372937
     3  H    0.372937  -0.003375   0.638235   0.000010  -0.035011   0.000019
     4  H   -0.003375   0.372937   0.000010   0.638235   0.000019  -0.035011
     5  H    0.372937  -0.003375  -0.035011   0.000019   0.638235   0.000010
     6  H   -0.003375   0.372937   0.000019  -0.035011   0.000010   0.638235
          Atomic-Atomic Spin Densities.
               1          2          3          4          5          6
     1  B   -0.000000   0.000000   0.000000  -0.000000   0.000000   0.000000
     2  B    0.000000   0.000000   0.000000   0.000000   0.000000  -0.000000
     3  H    0.000000   0.000000  -0.000000   0.000000   0.000000  -0.000000
     4  H   -0.000000   0.000000   0.000000   0.000000  -0.000000   0.000000
     5  H    0.000000   0.000000   0.000000  -0.000000   0.000000  -0.000000
     6  H    0.000000  -0.000000  -0.000000   0.000000  -0.000000   0.000000
 Mulliken charges and spin densities:
               1          2
     1  B   -0.054370  -0.000000
     2  B   -0.054370   0.000000
     3  H    0.027185   0.000000
     4  H    0.027185   0.000000
     5  H    0.027185   0.000000
     6  H    0.027185  -0.000000
 Sum of Mulliken charges =  -0.00000   0.00000
 Mulliken charges and spin densities with hydrogens summed into heavy atoms:
               1          2
     1  B    0.000000  -0.000000
     2  B   -0.000000   0.000000
 Electronic spatial extent (au):  <R**2>=            356.5344
 Charge=             -0.0000 electrons
 Dipole moment (field-independent basis, Debye):
    X=             -0.0000    Y=             -0.0000    Z=             -0.0000  Tot=              0.0000
 Quadrupole moment (field-independent basis, Debye-Ang):
   XX=            -10.1217   YY=            -17.8197   ZZ=            -14.5502
   XY=             -0.0000   XZ=              0.0000   YZ=              0.0084
 Traceless Quadrupole moment (field-independent basis, Debye-Ang):
   XX=              4.0422   YY=             -3.6558   ZZ=             -0.3863
   XY=             -0.0000   XZ=              0.0000   YZ=              0.0084
 Octapole moment (field-independent basis, Debye-Ang**2):
  XXX=              0.0000  YYY=              0.0000  ZZZ=              0.0000  XYY=              0.0001
  XXY=              0.0000  XXZ=              0.0001  XZZ=             -0.0001  YZZ=              0.0000
  YYZ=             -0.0000  XYZ=              0.0179
 Hexadecapole moment (field-independent basis, Debye-Ang**3):
 XXXX=           -581.9502 YYYY=            -50.5937 ZZZZ=            -21.3790 XXXY=             -0.0001
 XXXZ=              0.0000 YYYX=             -0.0000 YYYZ=              0.0330 ZZZX=              0.0000
 ZZZY=              0.0422 XXYY=           -105.9785 XXZZ=            -87.2116 YYZZ=            -12.5931
 XXYZ=              0.0483 YYXZ=             -0.0000 ZZXY=             -0.0000
 N-N= 1.462548258597D+01 E-N=-1.475516441600D+02  KE= 5.136401713279D+01
                          Isotropic Fermi Contact Couplings
        Atom                 a.u.       MegaHertz       Gauss      10(-4) cm-1
     1  B(11)              0.00000       0.00000       0.00000       0.00000
     2  B(11)              0.00000       0.00000       0.00000       0.00000
     3  H(1)               0.00000       0.00000       0.00000       0.00000
     4  H(1)              -0.00000      -0.00000      -0.00000      -0.00000
     5  H(1)              -0.00000      -0.00000      -0.00000      -0.00000
     6  H(1)              -0.00000      -0.00000      -0.00000      -0.00000
 --------------------------------------------------------
       Center         ----  Spin Dipole Couplings  ----
                      3XX-RR        3YY-RR        3ZZ-RR
 --------------------------------------------------------
     1   Atom        0.000000      0.000000      0.000000
     2   Atom        0.000000      0.000000      0.000000
     3   Atom        0.000000      0.000000      0.000000
     4   Atom        0.000000      0.000000      0.000000
     5   Atom        0.000000      0.000000      0.000000
     6   Atom        0.000000      0.000000      0.000000
 --------------------------------------------------------
                        XY            XZ            YZ
 --------------------------------------------------------
     1   Atom        0.000000      0.000000      0.000000
     2   Atom        0.000000      0.000000      0.000000
     3   Atom        0.000000      0.000000      0.000000
     4   Atom        0.000000      0.000000      0.000000
     5   Atom        0.000000      0.000000      0.000000
     6   Atom        0.000000      0.000000      0.000000
 --------------------------------------------------------


 ---------------------------------------------------------------------------------
              Anisotropic Spin Dipole Couplings in Principal Axis System
 ---------------------------------------------------------------------------------

       Atom             a.u.   MegaHertz   Gauss  10(-4) cm-1        Axes

              Baa     0.0000     0.000     0.000     0.000  1.0000  0.0000  0.0000
     1 B(11)  Bbb     0.0000     0.000     0.000     0.000 -0.0000  1.0000  0.0000
              Bcc     0.0000     0.000     0.000     0.000  0.0000  0.0000  1.0000
 
              Baa     0.0000     0.000     0.000     0.000  1.0000  0.0000  0.0000
     2 B(11)  Bbb     0.0000     0.000     0.000     0.000 -0.0000  1.0000  0.0000
              Bcc     0.0000     0.000     0.000     0.000  0.0000  0.0000  1.0000
 
              Baa     0.0000     0.000     0.000     0.000  1.0000  0.0000  0.0000
     3 H(1)   Bbb     0.0000     0.000     0.000     0.000 -0.0000  1.0000  0.0000
              Bcc     0.0000     0.000     0.000     0.000  0.0000  0.0000  1.0000
 
              Baa     0.0000     0.000     0.000     0.000  1.0000  0.0000  0.0000
     4 H(1)   Bbb     0.0000     0.000     0.000     0.000 -0.0000  1.0000  0.0000
              Bcc     0.0000     0.000     0.000     0.000  0.0000  0.0000  1.0000
 
              Baa     0.0000     0.000     0.000     0.000  1.0000  0.0000  0.0000
     5 H(1)   Bbb     0.0000     0.000     0.000     0.000 -0.0000  1.0000  0.0000
              Bcc     0.0000     0.000     0.000     0.000  0.0000  0.0000  1.0000
 
              Baa     0.0000     0.000     0.000     0.000  1.0000  0.0000  0.0000
     6 H(1)   Bbb     0.0000     0.000     0.000     0.000 -0.0000  1.0000  0.0000
              Bcc     0.0000     0.000     0.000     0.000  0.0000  0.0000  1.0000
 

 ---------------------------------------------------------------------------------

 No NMR shielding tensors so no spin-rotation constants.
 Leave Link  601 at Mon Apr 21 17:18:39 2025, MaxMem=   536870912 cpu:               1.2 elap:               0.2
 (Enter /home/szhao/Apps/g16/l701.exe)
 ... and contract with generalized density number  0.
 Compute integral first derivatives.
 Leave Link  701 at Mon Apr 21 17:18:39 2025, MaxMem=   536870912 cpu:               1.1 elap:               0.2
 (Enter /home/szhao/Apps/g16/l702.exe)
 L702 exits ... SP integral derivatives will be done elsewhere.
 Leave Link  702 at Mon Apr 21 17:18:40 2025, MaxMem=   536870912 cpu:               0.5 elap:               0.1
 (Enter /home/szhao/Apps/g16/l703.exe)
 Integral derivatives from FoFJK, PRISM(SPDF).
 Compute integral first derivatives, UseDBF=F ICtDFT=           0.
 Calling FoFJK, ICntrl=      2127 FMM=F ISym2X=0 I1Cent= 0 IOpClX= 1 NMat=1 NMatS=1 NMatT=0.
 FoFJK:  IHMeth= 1 ICntrl=    2127 DoSepK=F KAlg= 0 I1Cent=           0 FoldK=F
 IRaf=         0 NMat=       1 IRICut=       1 DoRegI=T DoRafI=F ISym2E= 0 IDoP0=0 IntGTp=1.
 FoFCou: FMM=F IPFlag=           0 FMFlag=      100000 FMFlg1=         800
         NFxFlg=           0 DoJE=F BraDBF=F KetDBF=F FulRan=T
         wScrn=  0.000000 ICntrl=      2127 IOpCl=  1 I1Cent=           0 NGrid=           0
         NMat0=    1 NMatS0=      1 NMatT0=    0 NMatD0=    1 NMtDS0=    0 NMtDT0=    0
 Symmetry not used in FoFCou.
 Leave Link  703 at Mon Apr 21 17:18:41 2025, MaxMem=   536870912 cpu:               6.7 elap:               0.9
 (Enter /home/szhao/Apps/g16/l716.exe)
 Dipole        =-7.03325123D-08-3.26382987D-09-1.65611698D-06
 -------------------------------------------------------------------
 Center     Atomic                   Forces (Hartrees/Bohr)
 Number     Number              X              Y              Z
 -------------------------------------------------------------------
      1        5          -0.000000000   -0.000000000   -0.000000000
      2        5          -0.000000000   -0.000000000   -0.000000000
      3        1           0.011952796   -0.005646097   -0.000000041
      4        1          -0.011952775    0.005646078   -0.000029123
      5        1           0.011952483    0.005646676    0.000000181
      6        1          -0.011952462   -0.005646655    0.000029266
 -------------------------------------------------------------------
 Cartesian Forces:  Max     0.011952796 RMS     0.006231592
 Leave Link  716 at Mon Apr 21 17:18:41 2025, MaxMem=   536870912 cpu:               0.6 elap:               0.1
 (Enter /home/szhao/Apps/g16/l103.exe)

 GradGradGradGradGradGradGradGradGradGradGradGradGradGradGradGradGradGrad
 Berny optimization.
 FormGI is forming the generalized inverse of G from B-inverse, IUseBI=4.
 Internal  Forces:  Max     0.023905280 RMS     0.010767748
 Search for a local minimum.
 Step number   1 out of a maximum of   30
 All quantities printed in internal units (Hartrees-Bohrs-Radians)
 RMS Force = .91650D-02 SwitMx=.10000D-02 MixMth= 1
 Mixed Optimization -- RFO/linear search
 Second derivative matrix not updated -- first step.
 The second derivative matrix:
                          X1        Y1        Z1        X2        Y2
           X1           0.50000
           Y1           0.00000   0.50000
           Z1           0.00000   0.00000   0.50000
           X2           0.00000   0.00000   0.00000   0.50000
           Y2           0.00000   0.00000   0.00000   0.00000   0.50000
           Z2           0.00000   0.00000   0.00000   0.00000   0.00000
           R1           0.00000   0.00000   0.00000   0.00000   0.00000
           R2           0.00000   0.00000   0.00000   0.00000   0.00000
           R3           0.00000   0.00000   0.00000   0.00000   0.00000
           R4           0.00000   0.00000   0.00000   0.00000   0.00000
           A1           0.00000   0.00000   0.00000   0.00000   0.00000
           A2           0.00000   0.00000   0.00000   0.00000   0.00000
           A3           0.00000   0.00000   0.00000   0.00000   0.00000
           A4           0.00000   0.00000   0.00000   0.00000   0.00000
           A5           0.00000   0.00000   0.00000   0.00000   0.00000
           A6           0.00000   0.00000   0.00000   0.00000   0.00000
           D1           0.00000   0.00000   0.00000   0.00000   0.00000
           D2           0.00000   0.00000   0.00000   0.00000   0.00000
           D3           0.00000   0.00000   0.00000   0.00000   0.00000
           D4           0.00000   0.00000   0.00000   0.00000   0.00000
                          Z2        R1        R2        R3        R4
           Z2           0.50000
           R1           0.00000   0.25261
           R2           0.00000   0.00000   0.25261
           R3           0.00000   0.00000   0.00000   0.25261
           R4           0.00000   0.00000   0.00000   0.00000   0.25261
           A1           0.00000   0.00000   0.00000   0.00000   0.00000
           A2           0.00000   0.00000   0.00000   0.00000   0.00000
           A3           0.00000   0.00000   0.00000   0.00000   0.00000
           A4           0.00000   0.00000   0.00000   0.00000   0.00000
           A5           0.00000   0.00000   0.00000   0.00000   0.00000
           A6           0.00000   0.00000   0.00000   0.00000   0.00000
           D1           0.00000   0.00000   0.00000   0.00000   0.00000
           D2           0.00000   0.00000   0.00000   0.00000   0.00000
           D3           0.00000   0.00000   0.00000   0.00000   0.00000
           D4           0.00000   0.00000   0.00000   0.00000   0.00000
                          A1        A2        A3        A4        A5
           A1           0.16000
           A2           0.00000   0.16000
           A3           0.00000   0.00000   0.16000
           A4           0.00000   0.00000   0.00000   0.16000
           A5           0.00000   0.00000   0.00000   0.00000   0.16000
           A6           0.00000   0.00000   0.00000   0.00000   0.00000
           D1           0.00000   0.00000   0.00000   0.00000   0.00000
           D2           0.00000   0.00000   0.00000   0.00000   0.00000
           D3           0.00000   0.00000   0.00000   0.00000   0.00000
           D4           0.00000   0.00000   0.00000   0.00000   0.00000
                          A6        D1        D2        D3        D4
           A6           0.16000
           D1           0.00000   0.00230
           D2           0.00000   0.00000   0.00230
           D3           0.00000   0.00000   0.00000   0.00230
           D4           0.00000   0.00000   0.00000   0.00000   0.00230
 ITU=  0
     Eigenvalues ---    0.00230   0.00230   0.00230   0.16000   0.16000
     Eigenvalues ---    0.16000   0.16000   0.25261   0.25261   0.25261
     Eigenvalues ---    0.252611000.000001000.000001000.000001000.00000
     Eigenvalues --- 1000.000001000.000001000.000001000.000001000.00000
 RFO step:  Lambda=-7.02163103D-03 EMin= 2.30000000D-03
 Linear search not attempted -- first point.
 Iteration  1 RMS(Cart)=  0.05949096 RMS(Int)=  0.00175845
 Iteration  2 RMS(Cart)=  0.00175865 RMS(Int)=  0.00000006
 Iteration  3 RMS(Cart)=  0.00000007 RMS(Int)=  0.00000000
 ITry= 1 IFail=0 DXMaxC= 1.18D-01 DCOld= 1.00D+10 DXMaxT= 3.00D-01 DXLimC= 3.00D+00 Rises=F
 Variable       Old X    -DE/DX   Delta X   Delta X   Delta X     New X
                                 (Linear)    (Quad)   (Total)
    X1       -4.33807   0.02391   0.00000   0.00000   0.00000  -4.33807
    Y1        0.00000   0.00000   0.00000   0.00000   0.00000   0.00000
    Z1        0.00000   0.00000   0.00000   0.00000   0.00000   0.00000
    X2        4.33807  -0.02391   0.00000   0.00000   0.00000   4.33807
    Y2        0.00000  -0.00000   0.00000   0.00000   0.00000   0.00000
    Z2        0.00000   0.00000   0.00000   0.00000   0.00000   0.00000
    R1        2.25250  -0.00150   0.00000  -0.00577  -0.00577   2.24673
    R2        2.25250  -0.00150   0.00000  -0.00577  -0.00577   2.24673
    R3        2.25250  -0.00150   0.00000  -0.00577  -0.00577   2.24673
    R4        2.25250  -0.00150   0.00000  -0.00577  -0.00577   2.24673
    A1        2.12567  -0.00986   0.00000  -0.05904  -0.05904   2.06663
    A2        2.12568  -0.00986   0.00000  -0.05904  -0.05904   2.06663
    A3        2.03184   0.01972   0.00000   0.11809   0.11809   2.14992
    A4        2.12567  -0.00986   0.00000  -0.05904  -0.05904   2.06663
    A5        2.12568  -0.00986   0.00000  -0.05904  -0.05904   2.06663
    A6        2.03184   0.01972   0.00000   0.11809   0.11809   2.14992
    D1        3.13644  -0.00000   0.00000  -0.00000  -0.00000   3.13644
    D2       -0.00515  -0.00000   0.00000  -0.00001  -0.00001  -0.00516
    D3       -0.00515  -0.00000   0.00000  -0.00001  -0.00001  -0.00516
    D4        3.13645  -0.00000   0.00000  -0.00002  -0.00002   3.13643
         Item               Value     Threshold  Converged?
 Maximum Force            0.019723     0.000450     NO 
 RMS     Force            0.009165     0.000300     NO 
 Maximum Displacement     0.117789     0.001800     NO 
 RMS     Displacement     0.059448     0.001200     NO 
 Predicted change in Energy=-3.658151D-03
 Lowest energy point so far.  Saving SCF results.
 GradGradGradGradGradGradGradGradGradGradGradGradGradGradGradGradGradGrad

 Leave Link  103 at Mon Apr 21 17:18:41 2025, MaxMem=   536870912 cpu:               1.2 elap:               0.3
 (Enter /home/szhao/Apps/g16/l202.exe)
                          Input orientation:                          
 ---------------------------------------------------------------------
 Center     Atomic      Atomic             Coordinates (Angstroms)
 Number     Number       Type             X           Y           Z
 ---------------------------------------------------------------------
      1          5           0       -2.295607    0.000000    0.000000
      2          5           0        2.295607    0.000000    0.000000
      3          1           0       -2.861253   -1.045741    0.000042
      4          1           0        2.861253    1.045727   -0.005433
      5          1           0       -2.861256    1.045739   -0.000038
      6          1           0        2.861256   -1.045725    0.005437
 ---------------------------------------------------------------------
                    Distance matrix (angstroms):
                    1          2          3          4          5
     1  B    0.000000
     2  B    4.591214   0.000000
     3  H    1.188920   5.261823   0.000000
     4  H    5.261823   1.188920   6.092729   0.000000
     5  H    1.188919   5.261826   2.091480   5.722512   0.000000
     6  H    5.261826   1.188919   5.722512   2.091480   6.092734
                    6
     6  H    0.000000
 Symmetry turned off by external request.
 Stoichiometry    B2H4
 Framework group  C1[X(B2H4)]
 Deg. of freedom    12
 Full point group                 C1      NOp   1
 Rotational constants (GHZ):         114.6369416           3.3909561           3.2935348
 Leave Link  202 at Mon Apr 21 17:18:41 2025, MaxMem=   536870912 cpu:               0.5 elap:               0.1
 (Enter /home/szhao/Apps/g16/l301.exe)
 Standard basis: 6-311+G(d,p) (5D, 7F)
 Ernie: Thresh=  0.10000D-02 Tol=  0.10000D-05 Strict=F.
    68 basis functions,   104 primitive gaussians,    70 cartesian basis functions
     7 alpha electrons        7 beta electrons
       nuclear repulsion energy        14.6593519587 Hartrees.
 IExCor= 4336 DFT=T Ex+Corr=M062X ExCW=0 ScaHFX=  0.540000
 ScaDFX=  1.000000  1.000000  1.000000  1.000000 ScalE2=  1.000000  1.000000
 IRadAn=      7 IRanWt=     -1 IRanGd=            0 ICorTp=0 IEmpDi=  4
 NAtoms=    6 NActive=    6 NUniq=    6 SFac= 1.00D+00 NAtFMM=   60 NAOKFM=F Big=F
 Integral buffers will be    131072 words long.
 Raffenetti 2 integral format.
 Two-electron integral symmetry is turned off.
 Leave Link  301 at Mon Apr 21 17:18:42 2025, MaxMem=   536870912 cpu:               0.7 elap:               0.1
 (Enter /home/szhao/Apps/g16/l302.exe)
 NPDir=0 NMtPBC=     1 NCelOv=     1 NCel=       1 NClECP=     1 NCelD=      1
         NCelK=      1 NCelE2=     1 NClLst=     1 CellRange=     0.0.
 One-electron integrals computed using PRISM.
 NBasis=    68 RedAO= T EigKep=  1.11D-02  NBF=    68
 NBsUse=    68 1.00D-06 EigRej= -1.00D+00 NBFU=    68
 Precomputing XC quadrature grid using
 IXCGrd= 4 IRadAn=           7 IRanWt=          -1 IRanGd=           0 AccXCQ= 0.00D+00.
 Generated NRdTot=       0 NPtTot=           0 NUsed=           0 NTot=          32
 NSgBfM=    70    70    70    70    70 MxSgAt=     6 MxSgA2=     6.
 Leave Link  302 at Mon Apr 21 17:18:42 2025, MaxMem=   536870912 cpu:               1.6 elap:               0.3
 (Enter /home/szhao/Apps/g16/l303.exe)
 DipDrv:  MaxL=1.
 Leave Link  303 at Mon Apr 21 17:18:42 2025, MaxMem=   536870912 cpu:               0.4 elap:               0.1
 (Enter /home/szhao/Apps/g16/l401.exe)
 Initial guess from the checkpoint file:  "opt.chk"
 B after Tr=     0.000000    0.000000    0.000002
         Rot=    1.000000    0.000021   -0.000000    0.000000 Ang=   0.00 deg.
 Guess basis will be translated and rotated to current coordinates.
 JPrj=2 DoOrth=T DoCkMO=T.
 Initial guess <Sx>= 0.0000 <Sy>= 0.0000 <Sz>= 0.0000 <S**2>= 0.0000 S= 0.0000
 Generating alternative initial guess.
 ExpMin= 3.15D-02 ExpMax= 2.86D+03 ExpMxC= 4.28D+02 IAcc=3 IRadAn=         5 AccDes= 0.00D+00
 Harris functional with IExCor= 1009 and IRadAn=       5 diagonalized for initial guess.
 HarFok:  IExCor= 1009 AccDes= 0.00D+00 IRadAn=         5 IDoV= 1 UseB2=F ITyADJ=14
 ICtDFT=  3500011 ScaDFX=  1.000000  1.000000  1.000000  1.000000
 FoFCou: FMM=F IPFlag=           0 FMFlag=      100000 FMFlg1=           0
         NFxFlg=           0 DoJE=T BraDBF=F KetDBF=T FulRan=T
         wScrn=  0.000000 ICntrl=       500 IOpCl=  0 I1Cent=   200000004 NGrid=           0
         NMat0=    1 NMatS0=      1 NMatT0=    0 NMatD0=    1 NMtDS0=    0 NMtDT0=    0
 Symmetry not used in FoFCou.
 Harris En= -51.7694071468773    
 Leave Link  401 at Mon Apr 21 17:18:43 2025, MaxMem=   536870912 cpu:               2.6 elap:               0.4
 (Enter /home/szhao/Apps/g16/l502.exe)
 Keep R1 and R2 ints in memory in canonical form, NReq=12681614.
 FoFCou: FMM=F IPFlag=           0 FMFlag=           0 FMFlg1=           0
         NFxFlg=           0 DoJE=F BraDBF=F KetDBF=F FulRan=T
         wScrn=  0.000000 ICntrl=       600 IOpCl=  0 I1Cent=           0 NGrid=           0
         NMat0=    1 NMatS0=   2346 NMatT0=    0 NMatD0=    1 NMtDS0=    0 NMtDT0=    0
 Symmetry not used in FoFCou.
 Two-electron integral symmetry not used.
 UHF open shell SCF:
 Using DIIS extrapolation, IDIIS=  1040.
 NGot=   536870912 LenX=   531353794 LenY=   531348453
 Requested convergence on RMS density matrix=1.00D-08 within 128 cycles.
 Requested convergence on MAX density matrix=1.00D-06.
 Requested convergence on             energy=1.00D-06.
 No special actions if energy rises.

 Cycle   1  Pass 1  IDiag  1:
 E= -51.7790678125227    
 DIIS: error= 3.37D-03 at cycle   1 NSaved=   1.
 NSaved= 1 IEnMin= 1 EnMin= -51.7790678125227     IErMin= 1 ErrMin= 3.37D-03
 ErrMax= 3.37D-03  0.00D+00 EMaxC= 1.00D-01 BMatC= 1.43D-03 BMatP= 1.43D-03
 IDIUse=3 WtCom= 9.66D-01 WtEn= 3.37D-02
 Coeff-Com:  0.100D+01
 Coeff-En:   0.100D+01
 Coeff:      0.100D+01
 Gap=     0.426 Goal=   None    Shift=    0.000
 Gap=     0.426 Goal=   None    Shift=    0.000
 GapD=    0.426 DampG=2.000 DampE=1.000 DampFc=2.0000 IDamp=-1.
 RMSDP=2.88D-04 MaxDP=2.36D-03              OVMax= 1.29D-02

 Cycle   2  Pass 1  IDiag  1:
 E= -51.7796650756283     Delta-E=       -0.000597263106 Rises=F Damp=F
 DIIS: error= 5.07D-04 at cycle   2 NSaved=   2.
 NSaved= 2 IEnMin= 2 EnMin= -51.7796650756283     IErMin= 2 ErrMin= 5.07D-04
 ErrMax= 5.07D-04  0.00D+00 EMaxC= 1.00D-01 BMatC= 2.90D-05 BMatP= 1.43D-03
 IDIUse=3 WtCom= 9.95D-01 WtEn= 5.07D-03
 Coeff-Com: -0.946D-01 0.109D+01
 Coeff-En:   0.000D+00 0.100D+01
 Coeff:     -0.942D-01 0.109D+01
 Gap=     0.100 Goal=   None    Shift=    0.000
 Gap=     0.100 Goal=   None    Shift=    0.000
 RMSDP=1.02D-04 MaxDP=1.70D-03 DE=-5.97D-04 OVMax= 4.03D-03

 Cycle   3  Pass 1  IDiag  1:
 E= -51.7796882374030     Delta-E=       -0.000023161775 Rises=F Damp=F
 DIIS: error= 1.02D-04 at cycle   3 NSaved=   3.
 NSaved= 3 IEnMin= 3 EnMin= -51.7796882374030     IErMin= 3 ErrMin= 1.02D-04
 ErrMax= 1.02D-04  0.00D+00 EMaxC= 1.00D-01 BMatC= 1.16D-06 BMatP= 2.90D-05
 IDIUse=3 WtCom= 9.99D-01 WtEn= 1.02D-03
 Coeff-Com: -0.126D-01 0.381D-01 0.974D+00
 Coeff-En:   0.000D+00 0.000D+00 0.100D+01
 Coeff:     -0.126D-01 0.381D-01 0.974D+00
 Gap=     0.100 Goal=   None    Shift=    0.000
 Gap=     0.100 Goal=   None    Shift=    0.000
 RMSDP=2.41D-05 MaxDP=4.74D-04 DE=-2.32D-05 OVMax= 5.17D-04

 Cycle   4  Pass 1  IDiag  1:
 E= -51.7796890789394     Delta-E=       -0.000000841536 Rises=F Damp=F
 DIIS: error= 3.97D-05 at cycle   4 NSaved=   4.
 NSaved= 4 IEnMin= 4 EnMin= -51.7796890789394     IErMin= 4 ErrMin= 3.97D-05
 ErrMax= 3.97D-05  0.00D+00 EMaxC= 1.00D-01 BMatC= 1.02D-07 BMatP= 1.16D-06
 IDIUse=1 WtCom= 1.00D+00 WtEn= 0.00D+00
 Coeff-Com:  0.291D-02-0.558D-01 0.141D+00 0.912D+00
 Coeff:      0.291D-02-0.558D-01 0.141D+00 0.912D+00
 Gap=     0.100 Goal=   None    Shift=    0.000
 Gap=     0.100 Goal=   None    Shift=    0.000
 RMSDP=7.06D-06 MaxDP=1.23D-04 DE=-8.42D-07 OVMax= 2.50D-04

 Cycle   5  Pass 1  IDiag  1:
 E= -51.7796891423831     Delta-E=       -0.000000063444 Rises=F Damp=F
 DIIS: error= 4.99D-06 at cycle   5 NSaved=   5.
 NSaved= 5 IEnMin= 5 EnMin= -51.7796891423831     IErMin= 5 ErrMin= 4.99D-06
 ErrMax= 4.99D-06  0.00D+00 EMaxC= 1.00D-01 BMatC= 3.11D-09 BMatP= 1.02D-07
 IDIUse=1 WtCom= 1.00D+00 WtEn= 0.00D+00
 Coeff-Com:  0.880D-03-0.122D-01-0.573D-02 0.168D+00 0.849D+00
 Coeff:      0.880D-03-0.122D-01-0.573D-02 0.168D+00 0.849D+00
 Gap=     0.100 Goal=   None    Shift=    0.000
 Gap=     0.100 Goal=   None    Shift=    0.000
 RMSDP=1.29D-06 MaxDP=2.43D-05 DE=-6.34D-08 OVMax= 2.14D-05

 Cycle   6  Pass 1  IDiag  1:
 E= -51.7796891438438     Delta-E=       -0.000000001461 Rises=F Damp=F
 DIIS: error= 8.67D-07 at cycle   6 NSaved=   6.
 NSaved= 6 IEnMin= 6 EnMin= -51.7796891438438     IErMin= 6 ErrMin= 8.67D-07
 ErrMax= 8.67D-07  0.00D+00 EMaxC= 1.00D-01 BMatC= 6.82D-11 BMatP= 3.11D-09
 IDIUse=1 WtCom= 1.00D+00 WtEn= 0.00D+00
 Coeff-Com: -0.890D-04 0.176D-02-0.532D-02-0.211D-01 0.158D-01 0.101D+01
 Coeff:     -0.890D-04 0.176D-02-0.532D-02-0.211D-01 0.158D-01 0.101D+01
 Gap=     0.100 Goal=   None    Shift=    0.000
 Gap=     0.100 Goal=   None    Shift=    0.000
 RMSDP=2.98D-07 MaxDP=4.72D-06 DE=-1.46D-09 OVMax= 2.19D-05

 Cycle   7  Pass 1  IDiag  1:
 E= -51.7796891436050     Delta-E=        0.000000000239 Rises=F Damp=F
 DIIS: error= 3.14D-06 at cycle   7 NSaved=   7.
 NSaved= 7 IEnMin= 6 EnMin= -51.7796891438438     IErMin= 6 ErrMin= 8.67D-07
 ErrMax= 3.14D-06  0.00D+00 EMaxC= 1.00D-01 BMatC= 4.73D-10 BMatP= 6.82D-11
 IDIUse=1 WtCom= 1.00D+00 WtEn= 0.00D+00
 Coeff-Com: -0.125D-03 0.217D-02-0.407D-02-0.270D-01-0.370D-01 0.829D+00
 Coeff-Com:  0.237D+00
 Coeff:     -0.125D-03 0.217D-02-0.407D-02-0.270D-01-0.370D-01 0.829D+00
 Coeff:      0.237D+00
 Gap=     0.100 Goal=   None    Shift=    0.000
 Gap=     0.100 Goal=   None    Shift=    0.000
 RMSDP=1.99D-07 MaxDP=2.42D-06 DE= 2.39D-10 OVMax= 1.70D-05

 Cycle   8  Pass 1  IDiag  1:
 E= -51.7796891438929     Delta-E=       -0.000000000288 Rises=F Damp=F
 DIIS: error= 6.17D-08 at cycle   8 NSaved=   8.
 NSaved= 8 IEnMin= 8 EnMin= -51.7796891438929     IErMin= 8 ErrMin= 6.17D-08
 ErrMax= 6.17D-08  0.00D+00 EMaxC= 1.00D-01 BMatC= 4.48D-13 BMatP= 6.82D-11
 IDIUse=1 WtCom= 1.00D+00 WtEn= 0.00D+00
 Coeff-Com:  0.865D-05-0.187D-03 0.482D-03 0.280D-02-0.458D-02-0.110D+00
 Coeff-Com: -0.777D-02 0.112D+01
 Coeff:      0.865D-05-0.187D-03 0.482D-03 0.280D-02-0.458D-02-0.110D+00
 Coeff:     -0.777D-02 0.112D+01
 Gap=     0.100 Goal=   None    Shift=    0.000
 Gap=     0.100 Goal=   None    Shift=    0.000
 RMSDP=1.70D-08 MaxDP=2.16D-07 DE=-2.88D-10 OVMax= 6.26D-07

 Cycle   9  Pass 1  IDiag  1:
 E= -51.7796891438933     Delta-E=       -0.000000000000 Rises=F Damp=F
 DIIS: error= 4.92D-09 at cycle   9 NSaved=   9.
 NSaved= 9 IEnMin= 9 EnMin= -51.7796891438933     IErMin= 9 ErrMin= 4.92D-09
 ErrMax= 4.92D-09  0.00D+00 EMaxC= 1.00D-01 BMatC= 3.38D-15 BMatP= 4.48D-13
 IDIUse=1 WtCom= 1.00D+00 WtEn= 0.00D+00
 Coeff-Com:  0.318D-06-0.239D-05-0.262D-04 0.458D-04 0.142D-02 0.241D-02
 Coeff-Com: -0.228D-02-0.137D+00 0.114D+01
 Coeff:      0.318D-06-0.239D-05-0.262D-04 0.458D-04 0.142D-02 0.241D-02
 Coeff:     -0.228D-02-0.137D+00 0.114D+01
 Gap=     0.100 Goal=   None    Shift=    0.000
 Gap=     0.100 Goal=   None    Shift=    0.000
 RMSDP=3.25D-09 MaxDP=3.10D-08 DE=-3.41D-13 OVMax= 1.11D-07

 SCF Done:  E(UM062X) =  -51.7796891439     A.U. after    9 cycles
            NFock=  9  Conv=0.32D-08     -V/T= 2.0080
 <Sx>= 0.0000 <Sy>= 0.0000 <Sz>= 0.0000 <S**2>=-0.0000 S=-0.0000
 <L.S>=  0.00000000000    
 KE= 5.136780016043D+01 PE=-1.476242735658D+02 EE= 2.981743230278D+01
 Annihilation of the first spin contaminant:
 S**2 before annihilation    -0.0000,   after    -0.0000
 Leave Link  502 at Mon Apr 21 17:18:49 2025, MaxMem=   536870912 cpu:              43.1 elap:               5.8
 (Enter /home/szhao/Apps/g16/l701.exe)
 ... and contract with generalized density number  0.
 Compute integral first derivatives.
 Leave Link  701 at Mon Apr 21 17:18:49 2025, MaxMem=   536870912 cpu:               0.9 elap:               0.2
 (Enter /home/szhao/Apps/g16/l702.exe)
 L702 exits ... SP integral derivatives will be done elsewhere.
 Leave Link  702 at Mon Apr 21 17:18:49 2025, MaxMem=   536870912 cpu:               0.3 elap:               0.0
 (Enter /home/szhao/Apps/g16/l703.exe)
 Integral derivatives from FoFJK, PRISM(SPDF).
 Compute integral first derivatives, UseDBF=F ICtDFT=           0.
 Calling FoFJK, ICntrl=      2127 FMM=F ISym2X=0 I1Cent= 0 IOpClX= 1 NMat=1 NMatS=1 NMatT=0.
 FoFJK:  IHMeth= 1 ICntrl=    2127 DoSepK=F KAlg= 0 I1Cent=           0 FoldK=F
 IRaf=         0 NMat=       1 IRICut=       1 DoRegI=T DoRafI=F ISym2E= 0 IDoP0=0 IntGTp=1.
 FoFCou: FMM=F IPFlag=           0 FMFlag=      100000 FMFlg1=         800
         NFxFlg=           0 DoJE=F BraDBF=F KetDBF=F FulRan=T
         wScrn=  0.000000 ICntrl=      2127 IOpCl=  1 I1Cent=           0 NGrid=           0
         NMat0=    1 NMatS0=      1 NMatT0=    0 NMatD0=    1 NMtDS0=    0 NMtDT0=    0
 Symmetry not used in FoFCou.
 Leave Link  703 at Mon Apr 21 17:18:51 2025, MaxMem=   536870912 cpu:               8.1 elap:               1.1
 (Enter /home/szhao/Apps/g16/l716.exe)
 Dipole        =-2.17896874D-08 3.68106368D-09 1.50359319D-06
 -------------------------------------------------------------------
 Center     Atomic                   Forces (Hartrees/Bohr)
 Number     Number              X              Y              Z
 -------------------------------------------------------------------
      1        5          -0.000000000   -0.000000000   -0.000000000
      2        5          -0.000000000   -0.000000000   -0.000000000
      3        1           0.007650717   -0.002130766   -0.000000074
      4        1          -0.007650704    0.002130757   -0.000011122
      5        1           0.007650715    0.002130820   -0.000000036
      6        1          -0.007650702   -0.002130812    0.000011013
 -------------------------------------------------------------------
 Cartesian Forces:  Max     0.007650717 RMS     0.003743845
 Leave Link  716 at Mon Apr 21 17:18:51 2025, MaxMem=   536870912 cpu:               0.7 elap:               0.2
 (Enter /home/szhao/Apps/g16/l103.exe)

 GradGradGradGradGradGradGradGradGradGradGradGradGradGradGradGradGradGrad
 Berny optimization.
 Using GEDIIS/GDIIS optimizer.
 FormGI is forming the generalized inverse of G from B-inverse, IUseBI=4.
 Internal  Forces:  Max     0.015301432 RMS     0.006649306
 Search for a local minimum.
 Step number   2 out of a maximum of   30
 All quantities printed in internal units (Hartrees-Bohrs-Radians)
 RMS Force = .54511D-02 SwitMx=.10000D-02 MixMth= 1
 Mixed Optimization -- RFO/linear search
 Update second derivatives using D2CorX and points    1    2
 DE= -5.56D-03 DEPred=-3.66D-03 R= 1.52D+00
 TightC=F SS=  1.41D+00  RLast= 2.05D-01 DXNew= 5.0454D-01 6.1457D-01
 Trust test= 1.52D+00 RLast= 2.05D-01 DXMaxT set to 5.05D-01
 The second derivative matrix:
                          X1        Y1        Z1        X2        Y2
           X1           0.52577
           Y1           0.00000   0.50000
           Z1           0.00000   0.00000   0.50000
           X2          -0.02577  -0.00000  -0.00000   0.52577
           Y2          -0.00000  -0.00000  -0.00000   0.00000   0.50000
           Z2           0.00000   0.00000   0.00000  -0.00000  -0.00000
           R1           0.00080   0.00000   0.00000  -0.00080  -0.00000
           R2           0.00080   0.00000   0.00000  -0.00080  -0.00000
           R3           0.00080   0.00000   0.00000  -0.00080  -0.00000
           R4           0.00080   0.00000   0.00000  -0.00080  -0.00000
           A1          -0.01217  -0.00000  -0.00000   0.01217   0.00000
           A2          -0.01217  -0.00000  -0.00000   0.01217   0.00000
           A3           0.02434   0.00000   0.00000  -0.02434  -0.00000
           A4          -0.01217  -0.00000  -0.00000   0.01217   0.00000
           A5          -0.01217  -0.00000  -0.00000   0.01217   0.00000
           A6           0.02434   0.00000   0.00000  -0.02434  -0.00000
           D1           0.00000   0.00000   0.00000  -0.00000  -0.00000
           D2          -0.00000  -0.00000  -0.00000   0.00000   0.00000
           D3          -0.00000  -0.00000  -0.00000   0.00000   0.00000
           D4          -0.00000  -0.00000  -0.00000   0.00000   0.00000
                          Z2        R1        R2        R3        R4
           Z2           0.50000
           R1           0.00000   0.25231
           R2           0.00000  -0.00029   0.25232
           R3           0.00000  -0.00029  -0.00029   0.25232
           R4           0.00000  -0.00029  -0.00029  -0.00029   0.25232
           A1          -0.00000  -0.00243  -0.00243  -0.00243  -0.00243
           A2          -0.00000  -0.00243  -0.00243  -0.00243  -0.00243
           A3           0.00000   0.00485   0.00485   0.00485   0.00485
           A4          -0.00000  -0.00243  -0.00243  -0.00243  -0.00243
           A5          -0.00000  -0.00243  -0.00243  -0.00243  -0.00243
           A6           0.00000   0.00485   0.00485   0.00485   0.00485
           D1           0.00000   0.00000   0.00000   0.00000   0.00000
           D2          -0.00000  -0.00000  -0.00000  -0.00000  -0.00000
           D3          -0.00000  -0.00000  -0.00000  -0.00000  -0.00000
           D4          -0.00000  -0.00000  -0.00000  -0.00000  -0.00000
                          A1        A2        A3        A4        A5
           A1           0.15248
           A2          -0.00752   0.15248
           A3           0.01504   0.01504   0.12992
           A4          -0.00752  -0.00752   0.01504   0.15248
           A5          -0.00752  -0.00752   0.01504  -0.00752   0.15248
           A6           0.01504   0.01504  -0.03008   0.01504   0.01504
           D1          -0.00000  -0.00000   0.00000  -0.00000  -0.00000
           D2           0.00000   0.00000  -0.00000   0.00000   0.00000
           D3           0.00000   0.00000  -0.00000   0.00000   0.00000
           D4           0.00000   0.00000  -0.00000   0.00000   0.00000
                          A6        D1        D2        D3        D4
           A6           0.12992
           D1           0.00000   0.00230
           D2          -0.00000  -0.00000   0.00230
           D3          -0.00000  -0.00000   0.00000   0.00230
           D4          -0.00000  -0.00000   0.00000   0.00000   0.00230
 ITU=  1  0
 Use linear search instead of GDIIS.
     Eigenvalues ---    0.00230   0.00230   0.00230   0.06821   0.16000
     Eigenvalues ---    0.16000   0.16000   0.25261   0.25261   0.25261
     Eigenvalues ---    0.252981000.000001000.000001000.000001000.00000
     Eigenvalues --- 1000.000001000.000001000.000001000.000001000.00000
 RFO step:  Lambda=-8.68216582D-05 EMin= 2.30000000D-03
 Quartic linear search produced a step of  1.71248.
 Iteration  1 RMS(Cart)=  0.10105263 RMS(Int)=  0.00511485
 Iteration  2 RMS(Cart)=  0.00512820 RMS(Int)=  0.00000232
 Iteration  3 RMS(Cart)=  0.00000298 RMS(Int)=  0.00000000
 Iteration  4 RMS(Cart)=  0.00000000 RMS(Int)=  0.00000000
 ITry= 1 IFail=0 DXMaxC= 2.13D-01 DCOld= 1.00D+10 DXMaxT= 5.05D-01 DXLimC= 3.00D+00 Rises=F
 Variable       Old X    -DE/DX   Delta X   Delta X   Delta X     New X
                                 (Linear)    (Quad)   (Total)
    X1       -4.33807   0.01530   0.00000   0.00000   0.00000  -4.33807
    Y1        0.00000   0.00000   0.00000   0.00000   0.00000   0.00000
    Z1        0.00000  -0.00000   0.00000   0.00000   0.00000   0.00000
    X2        4.33807  -0.01530   0.00000   0.00000   0.00000   4.33807
    Y2        0.00000  -0.00000   0.00000   0.00000   0.00000   0.00000
    Z2        0.00000  -0.00000   0.00000   0.00000   0.00000   0.00000
    R1        2.24673  -0.00177  -0.00988  -0.00929  -0.01917   2.22756
    R2        2.24673  -0.00177  -0.00988  -0.00929  -0.01917   2.22756
    R3        2.24673  -0.00177  -0.00988  -0.00929  -0.01917   2.22756
    R4        2.24673  -0.00177  -0.00988  -0.00929  -0.01917   2.22756
    A1        2.06663  -0.00580  -0.10111  -0.00020  -0.10131   1.96532
    A2        2.06663  -0.00580  -0.10111  -0.00020  -0.10131   1.96532
    A3        2.14992   0.01160   0.20222   0.00041   0.20263   2.35255
    A4        2.06663  -0.00580  -0.10111  -0.00020  -0.10131   1.96532
    A5        2.06663  -0.00580  -0.10111  -0.00020  -0.10131   1.96532
    A6        2.14992   0.01160   0.20222   0.00041   0.20263   2.35255
    D1        3.13644  -0.00000  -0.00001  -0.00014  -0.00015   3.13629
    D2       -0.00516  -0.00000  -0.00002  -0.00007  -0.00009  -0.00525
    D3       -0.00516  -0.00000  -0.00002  -0.00007  -0.00009  -0.00525
    D4        3.13643   0.00000  -0.00004   0.00001  -0.00003   3.13640
         Item               Value     Threshold  Converged?
 Maximum Force            0.011598     0.000450     NO 
 RMS     Force            0.005451     0.000300     NO 
 Maximum Displacement     0.212719     0.001800     NO 
 RMS     Displacement     0.101680     0.001200     NO 
 Predicted change in Energy=-2.930808D-03
 Lowest energy point so far.  Saving SCF results.
 GradGradGradGradGradGradGradGradGradGradGradGradGradGradGradGradGradGrad

 Leave Link  103 at Mon Apr 21 17:18:51 2025, MaxMem=   536870912 cpu:               0.8 elap:               0.2
 (Enter /home/szhao/Apps/g16/l202.exe)
                          Input orientation:                          
 ---------------------------------------------------------------------
 Center     Atomic      Atomic             Coordinates (Angstroms)
 Number     Number       Type             X           Y           Z
 ---------------------------------------------------------------------
      1          5           0       -2.295607    0.000000    0.000000
      2          5           0        2.295607    0.000000    0.000000
      3          1           0       -2.748687   -1.088224    0.000039
      4          1           0        2.748687    1.088209   -0.005809
      5          1           0       -2.748690    1.088223   -0.000100
      6          1           0        2.748690   -1.088208    0.005748
 ---------------------------------------------------------------------
                    Distance matrix (angstroms):
                    1          2          3          4          5
     1  B    0.000000
     2  B    4.591214   0.000000
     3  H    1.178776   5.160343   0.000000
     4  H    5.160343   1.178776   5.912531   0.000000
     5  H    1.178776   5.160345   2.176447   5.497380   0.000000
     6  H    5.160345   1.178777   5.497380   2.176447   5.912536
                    6
     6  H    0.000000
 Symmetry turned off by external request.
 Stoichiometry    B2H4
 Framework group  C1[X(B2H4)]
 Deg. of freedom    12
 Full point group                 C1      NOp   1
 Rotational constants (GHZ):         105.8609378           3.4498838           3.3410059
 Leave Link  202 at Mon Apr 21 17:18:51 2025, MaxMem=   536870912 cpu:               0.3 elap:               0.1
 (Enter /home/szhao/Apps/g16/l301.exe)
 Standard basis: 6-311+G(d,p) (5D, 7F)
 Ernie: Thresh=  0.10000D-02 Tol=  0.10000D-05 Strict=F.
    68 basis functions,   104 primitive gaussians,    70 cartesian basis functions
     7 alpha electrons        7 beta electrons
       nuclear repulsion energy        14.7686175687 Hartrees.
 IExCor= 4336 DFT=T Ex+Corr=M062X ExCW=0 ScaHFX=  0.540000
 ScaDFX=  1.000000  1.000000  1.000000  1.000000 ScalE2=  1.000000  1.000000
 IRadAn=      7 IRanWt=     -1 IRanGd=            0 ICorTp=0 IEmpDi=  4
 NAtoms=    6 NActive=    6 NUniq=    6 SFac= 1.00D+00 NAtFMM=   60 NAOKFM=F Big=F
 Integral buffers will be    131072 words long.
 Raffenetti 2 integral format.
 Two-electron integral symmetry is turned off.
 Leave Link  301 at Mon Apr 21 17:18:52 2025, MaxMem=   536870912 cpu:               0.8 elap:               0.1
 (Enter /home/szhao/Apps/g16/l302.exe)
 NPDir=0 NMtPBC=     1 NCelOv=     1 NCel=       1 NClECP=     1 NCelD=      1
         NCelK=      1 NCelE2=     1 NClLst=     1 CellRange=     0.0.
 One-electron integrals computed using PRISM.
 NBasis=    68 RedAO= T EigKep=  9.91D-03  NBF=    68
 NBsUse=    68 1.00D-06 EigRej= -1.00D+00 NBFU=    68
 Precomputing XC quadrature grid using
 IXCGrd= 4 IRadAn=           7 IRanWt=          -1 IRanGd=           0 AccXCQ= 0.00D+00.
 Generated NRdTot=       0 NPtTot=           0 NUsed=           0 NTot=          32
 NSgBfM=    70    70    70    70    70 MxSgAt=     6 MxSgA2=     6.
 Leave Link  302 at Mon Apr 21 17:18:52 2025, MaxMem=   536870912 cpu:               2.1 elap:               0.3
 (Enter /home/szhao/Apps/g16/l303.exe)
 DipDrv:  MaxL=1.
 Leave Link  303 at Mon Apr 21 17:18:52 2025, MaxMem=   536870912 cpu:               0.4 elap:               0.1
 (Enter /home/szhao/Apps/g16/l401.exe)
 Initial guess from the checkpoint file:  "opt.chk"
 B after Tr=     0.000000   -0.000000   -0.000018
         Rot=    1.000000    0.000035    0.000000    0.000000 Ang=   0.00 deg.
 Guess basis will be translated and rotated to current coordinates.
 JPrj=2 DoOrth=T DoCkMO=T.
 Initial guess <Sx>= 0.0000 <Sy>= 0.0000 <Sz>= 0.0000 <S**2>=-0.0000 S=-0.0000
 Generating alternative initial guess.
 ExpMin= 3.15D-02 ExpMax= 2.86D+03 ExpMxC= 4.28D+02 IAcc=3 IRadAn=         5 AccDes= 0.00D+00
 Harris functional with IExCor= 1009 and IRadAn=       5 diagonalized for initial guess.
 HarFok:  IExCor= 1009 AccDes= 0.00D+00 IRadAn=         5 IDoV= 1 UseB2=F ITyADJ=14
 ICtDFT=  3500011 ScaDFX=  1.000000  1.000000  1.000000  1.000000
 FoFCou: FMM=F IPFlag=           0 FMFlag=      100000 FMFlg1=           0
         NFxFlg=           0 DoJE=T BraDBF=F KetDBF=T FulRan=T
         wScrn=  0.000000 ICntrl=       500 IOpCl=  0 I1Cent=   200000004 NGrid=           0
         NMat0=    1 NMatS0=      1 NMatT0=    0 NMatD0=    1 NMtDS0=    0 NMtDT0=    0
 Symmetry not used in FoFCou.
 Harris En= -51.7711673386237    
 Leave Link  401 at Mon Apr 21 17:18:53 2025, MaxMem=   536870912 cpu:               3.1 elap:               0.4
 (Enter /home/szhao/Apps/g16/l502.exe)
 Keep R1 and R2 ints in memory in canonical form, NReq=12681614.
 FoFCou: FMM=F IPFlag=           0 FMFlag=           0 FMFlg1=           0
         NFxFlg=           0 DoJE=F BraDBF=F KetDBF=F FulRan=T
         wScrn=  0.000000 ICntrl=       600 IOpCl=  0 I1Cent=           0 NGrid=           0
         NMat0=    1 NMatS0=   2346 NMatT0=    0 NMatD0=    1 NMtDS0=    0 NMtDT0=    0
 Symmetry not used in FoFCou.
 Two-electron integral symmetry not used.
 UHF open shell SCF:
 Using DIIS extrapolation, IDIIS=  1040.
 NGot=   536870912 LenX=   531353794 LenY=   531348453
 Requested convergence on RMS density matrix=1.00D-08 within 128 cycles.
 Requested convergence on MAX density matrix=1.00D-06.
 Requested convergence on             energy=1.00D-06.
 No special actions if energy rises.

 Cycle   1  Pass 1  IDiag  1:
 E= -51.7811052833897    
 DIIS: error= 6.78D-03 at cycle   1 NSaved=   1.
 NSaved= 1 IEnMin= 1 EnMin= -51.7811052833897     IErMin= 1 ErrMin= 6.78D-03
 ErrMax= 6.78D-03  0.00D+00 EMaxC= 1.00D-01 BMatC= 4.61D-03 BMatP= 4.61D-03
 IDIUse=3 WtCom= 9.32D-01 WtEn= 6.78D-02
 Coeff-Com:  0.100D+01
 Coeff-En:   0.100D+01
 Coeff:      0.100D+01
 Gap=     0.409 Goal=   None    Shift=    0.000
 Gap=     0.409 Goal=   None    Shift=    0.000
 GapD=    0.409 DampG=2.000 DampE=1.000 DampFc=2.0000 IDamp=-1.
 RMSDP=5.92D-04 MaxDP=6.78D-03              OVMax= 2.63D-02

 Cycle   2  Pass 1  IDiag  1:
 E= -51.7831031580725     Delta-E=       -0.001997874683 Rises=F Damp=F
 DIIS: error= 9.93D-04 at cycle   2 NSaved=   2.
 NSaved= 2 IEnMin= 2 EnMin= -51.7831031580725     IErMin= 2 ErrMin= 9.93D-04
 ErrMax= 9.93D-04  0.00D+00 EMaxC= 1.00D-01 BMatC= 9.20D-05 BMatP= 4.61D-03
 IDIUse=3 WtCom= 9.90D-01 WtEn= 9.93D-03
 Coeff-Com: -0.103D+00 0.110D+01
 Coeff-En:   0.000D+00 0.100D+01
 Coeff:     -0.102D+00 0.110D+01
 Gap=     0.101 Goal=   None    Shift=    0.000
 Gap=     0.101 Goal=   None    Shift=    0.000
 RMSDP=2.61D-04 MaxDP=4.47D-03 DE=-2.00D-03 OVMax= 8.78D-03

 Cycle   3  Pass 1  IDiag  1:
 E= -51.7831913152818     Delta-E=       -0.000088157209 Rises=F Damp=F
 DIIS: error= 1.69D-04 at cycle   3 NSaved=   3.
 NSaved= 3 IEnMin= 3 EnMin= -51.7831913152818     IErMin= 3 ErrMin= 1.69D-04
 ErrMax= 1.69D-04  0.00D+00 EMaxC= 1.00D-01 BMatC= 3.41D-06 BMatP= 9.20D-05
 IDIUse=3 WtCom= 9.98D-01 WtEn= 1.69D-03
 Coeff-Com: -0.716D-02-0.329D-01 0.104D+01
 Coeff-En:   0.000D+00 0.000D+00 0.100D+01
 Coeff:     -0.715D-02-0.329D-01 0.104D+01
 Gap=     0.100 Goal=   None    Shift=    0.000
 Gap=     0.100 Goal=   None    Shift=    0.000
 RMSDP=6.96D-05 MaxDP=1.26D-03 DE=-8.82D-05 OVMax= 1.44D-03

 Cycle   4  Pass 1  IDiag  1:
 E= -51.7831945690002     Delta-E=       -0.000003253718 Rises=F Damp=F
 DIIS: error= 6.08D-05 at cycle   4 NSaved=   4.
 NSaved= 4 IEnMin= 4 EnMin= -51.7831945690002     IErMin= 4 ErrMin= 6.08D-05
 ErrMax= 6.08D-05  0.00D+00 EMaxC= 1.00D-01 BMatC= 2.77D-07 BMatP= 3.41D-06
 IDIUse=1 WtCom= 1.00D+00 WtEn= 0.00D+00
 Coeff-Com:  0.335D-02-0.603D-01 0.161D+00 0.896D+00
 Coeff:      0.335D-02-0.603D-01 0.161D+00 0.896D+00
 Gap=     0.100 Goal=   None    Shift=    0.000
 Gap=     0.100 Goal=   None    Shift=    0.000
 RMSDP=1.85D-05 MaxDP=3.11D-04 DE=-3.25D-06 OVMax= 4.85D-04

 Cycle   5  Pass 1  IDiag  1:
 E= -51.7831947634412     Delta-E=       -0.000000194441 Rises=F Damp=F
 DIIS: error= 7.70D-06 at cycle   5 NSaved=   5.
 NSaved= 5 IEnMin= 5 EnMin= -51.7831947634412     IErMin= 5 ErrMin= 7.70D-06
 ErrMax= 7.70D-06  0.00D+00 EMaxC= 1.00D-01 BMatC= 8.43D-09 BMatP= 2.77D-07
 IDIUse=1 WtCom= 1.00D+00 WtEn= 0.00D+00
 Coeff-Com:  0.663D-03-0.871D-02-0.865D-02 0.147D+00 0.870D+00
 Coeff:      0.663D-03-0.871D-02-0.865D-02 0.147D+00 0.870D+00
 Gap=     0.100 Goal=   None    Shift=    0.000
 Gap=     0.100 Goal=   None    Shift=    0.000
 RMSDP=3.59D-06 MaxDP=6.19D-05 DE=-1.94D-07 OVMax= 5.53D-05

 Cycle   6  Pass 1  IDiag  1:
 E= -51.7831947681205     Delta-E=       -0.000000004679 Rises=F Damp=F
 DIIS: error= 1.06D-06 at cycle   6 NSaved=   6.
 NSaved= 6 IEnMin= 6 EnMin= -51.7831947681205     IErMin= 6 ErrMin= 1.06D-06
 ErrMax= 1.06D-06  0.00D+00 EMaxC= 1.00D-01 BMatC= 2.10D-10 BMatP= 8.43D-09
 IDIUse=1 WtCom= 1.00D+00 WtEn= 0.00D+00
 Coeff-Com: -0.143D-03 0.263D-02-0.901D-02-0.268D-01 0.447D-01 0.989D+00
 Coeff:     -0.143D-03 0.263D-02-0.901D-02-0.268D-01 0.447D-01 0.989D+00
 Gap=     0.100 Goal=   None    Shift=    0.000
 Gap=     0.100 Goal=   None    Shift=    0.000
 RMSDP=7.00D-07 MaxDP=1.12D-05 DE=-4.68D-09 OVMax= 2.38D-05

 Cycle   7  Pass 1  IDiag  1:
 E= -51.7831947679880     Delta-E=        0.000000000132 Rises=F Damp=F
 DIIS: error= 3.08D-06 at cycle   7 NSaved=   7.
 NSaved= 7 IEnMin= 6 EnMin= -51.7831947681205     IErMin= 6 ErrMin= 1.06D-06
 ErrMax= 3.08D-06  0.00D+00 EMaxC= 1.00D-01 BMatC= 4.36D-10 BMatP= 2.10D-10
 IDIUse=1 WtCom= 1.00D+00 WtEn= 0.00D+00
 Coeff-Com: -0.124D-03 0.221D-02-0.688D-02-0.233D-01 0.176D-01 0.761D+00
 Coeff-Com:  0.250D+00
 Coeff:     -0.124D-03 0.221D-02-0.688D-02-0.233D-01 0.176D-01 0.761D+00
 Coeff:      0.250D+00
 Gap=     0.100 Goal=   None    Shift=    0.000
 Gap=     0.100 Goal=   None    Shift=    0.000
 RMSDP=2.04D-07 MaxDP=2.53D-06 DE= 1.32D-10 OVMax= 1.78D-05

 Cycle   8  Pass 1  IDiag  1:
 E= -51.7831947682533     Delta-E=       -0.000000000265 Rises=F Damp=F
 DIIS: error= 3.05D-07 at cycle   8 NSaved=   8.
 NSaved= 8 IEnMin= 8 EnMin= -51.7831947682533     IErMin= 8 ErrMin= 3.05D-07
 ErrMax= 3.05D-07  0.00D+00 EMaxC= 1.00D-01 BMatC= 5.40D-12 BMatP= 2.10D-10
 IDIUse=1 WtCom= 1.00D+00 WtEn= 0.00D+00
 Coeff-Com:  0.257D-05-0.969D-04 0.419D-03 0.154D-02-0.934D-02-0.747D-01
 Coeff-Com:  0.782D-01 0.100D+01
 Coeff:      0.257D-05-0.969D-04 0.419D-03 0.154D-02-0.934D-02-0.747D-01
 Coeff:      0.782D-01 0.100D+01
 Gap=     0.100 Goal=   None    Shift=    0.000
 Gap=     0.100 Goal=   None    Shift=    0.000
 RMSDP=5.35D-08 MaxDP=9.85D-07 DE=-2.65D-10 OVMax= 2.39D-06

 Cycle   9  Pass 1  IDiag  1:
 E= -51.7831947682577     Delta-E=       -0.000000000004 Rises=F Damp=F
 DIIS: error= 6.07D-08 at cycle   9 NSaved=   9.
 NSaved= 9 IEnMin= 9 EnMin= -51.7831947682577     IErMin= 9 ErrMin= 6.07D-08
 ErrMax= 6.07D-08  0.00D+00 EMaxC= 1.00D-01 BMatC= 1.10D-13 BMatP= 5.40D-12
 IDIUse=1 WtCom= 1.00D+00 WtEn= 0.00D+00
 Coeff-Com:  0.198D-05-0.244D-04 0.152D-04 0.290D-03 0.312D-02-0.200D-02
 Coeff-Com: -0.272D-01-0.258D+00 0.128D+01
 Coeff:      0.198D-05-0.244D-04 0.152D-04 0.290D-03 0.312D-02-0.200D-02
 Coeff:     -0.272D-01-0.258D+00 0.128D+01
 Gap=     0.100 Goal=   None    Shift=    0.000
 Gap=     0.100 Goal=   None    Shift=    0.000
 RMSDP=1.27D-08 MaxDP=1.08D-07 DE=-4.36D-12 OVMax= 1.22D-06

 Cycle  10  Pass 1  IDiag  1:
 E= -51.7831947682582     Delta-E=       -0.000000000001 Rises=F Damp=F
 DIIS: error= 3.62D-08 at cycle  10 NSaved=  10.
 NSaved=10 IEnMin=10 EnMin= -51.7831947682582     IErMin=10 ErrMin= 3.62D-08
 ErrMax= 3.62D-08  0.00D+00 EMaxC= 1.00D-01 BMatC= 3.16D-14 BMatP= 1.10D-13
 IDIUse=1 WtCom= 1.00D+00 WtEn= 0.00D+00
 Coeff-Com: -0.226D-05 0.367D-04-0.641D-04-0.515D-03-0.218D-02 0.126D-01
 Coeff-Com:  0.170D-01 0.124D+00-0.137D+01 0.222D+01
 Coeff:     -0.226D-05 0.367D-04-0.641D-04-0.515D-03-0.218D-02 0.126D-01
 Coeff:      0.170D-01 0.124D+00-0.137D+01 0.222D+01
 Gap=     0.100 Goal=   None    Shift=    0.000
 Gap=     0.100 Goal=   None    Shift=    0.000
 RMSDP=1.34D-08 MaxDP=1.25D-07 DE=-5.54D-13 OVMax= 1.38D-06

 Cycle  11  Pass 1  IDiag  1:
 E= -51.7831947682586     Delta-E=       -0.000000000000 Rises=F Damp=F
 DIIS: error= 7.91D-09 at cycle  11 NSaved=  11.
 NSaved=11 IEnMin=11 EnMin= -51.7831947682586     IErMin=11 ErrMin= 7.91D-09
 ErrMax= 7.91D-09  0.00D+00 EMaxC= 1.00D-01 BMatC= 1.98D-15 BMatP= 3.16D-14
 IDIUse=1 WtCom= 1.00D+00 WtEn= 0.00D+00
 Coeff-Com:  0.575D-06-0.100D-04 0.266D-04 0.119D-03 0.305D-03-0.358D-02
 Coeff-Com: -0.234D-02-0.107D-01 0.304D+00-0.782D+00 0.149D+01
 Coeff:      0.575D-06-0.100D-04 0.266D-04 0.119D-03 0.305D-03-0.358D-02
 Coeff:     -0.234D-02-0.107D-01 0.304D+00-0.782D+00 0.149D+01
 Gap=     0.100 Goal=   None    Shift=    0.000
 Gap=     0.100 Goal=   None    Shift=    0.000
 RMSDP=3.78D-09 MaxDP=3.40D-08 DE=-3.41D-13 OVMax= 3.80D-07

 SCF Done:  E(UM062X) =  -51.7831947683     A.U. after   11 cycles
            NFock= 11  Conv=0.38D-08     -V/T= 2.0076
 <Sx>= 0.0000 <Sy>= 0.0000 <Sz>= 0.0000 <S**2>=-0.0000 S=-0.0000
 <L.S>=  0.00000000000    
 KE= 5.139194214678D+01 PE=-1.478537244419D+02 EE= 2.990996995812D+01
 Annihilation of the first spin contaminant:
 S**2 before annihilation    -0.0000,   after    -0.0000
 Leave Link  502 at Mon Apr 21 17:18:59 2025, MaxMem=   536870912 cpu:              50.1 elap:               6.5
 (Enter /home/szhao/Apps/g16/l701.exe)
 ... and contract with generalized density number  0.
 Compute integral first derivatives.
 Leave Link  701 at Mon Apr 21 17:19:00 2025, MaxMem=   536870912 cpu:               1.5 elap:               0.3
 (Enter /home/szhao/Apps/g16/l702.exe)
 L702 exits ... SP integral derivatives will be done elsewhere.
 Leave Link  702 at Mon Apr 21 17:19:00 2025, MaxMem=   536870912 cpu:               0.4 elap:               0.1
 (Enter /home/szhao/Apps/g16/l703.exe)
 Integral derivatives from FoFJK, PRISM(SPDF).
 Compute integral first derivatives, UseDBF=F ICtDFT=           0.
 Calling FoFJK, ICntrl=      2127 FMM=F ISym2X=0 I1Cent= 0 IOpClX= 1 NMat=1 NMatS=1 NMatT=0.
 FoFJK:  IHMeth= 1 ICntrl=    2127 DoSepK=F KAlg= 0 I1Cent=           0 FoldK=F
 IRaf=         0 NMat=       1 IRICut=       1 DoRegI=T DoRafI=F ISym2E= 0 IDoP0=0 IntGTp=1.
 FoFCou: FMM=F IPFlag=           0 FMFlag=      100000 FMFlg1=         800
         NFxFlg=           0 DoJE=F BraDBF=F KetDBF=F FulRan=T
         wScrn=  0.000000 ICntrl=      2127 IOpCl=  1 I1Cent=           0 NGrid=           0
         NMat0=    1 NMatS0=      1 NMatT0=    0 NMatD0=    1 NMtDS0=    0 NMtDT0=    0
 Symmetry not used in FoFCou.
 Leave Link  703 at Mon Apr 21 17:19:01 2025, MaxMem=   536870912 cpu:               7.3 elap:               0.9
 (Enter /home/szhao/Apps/g16/l716.exe)
 Dipole        =-2.41273385D-07-8.75036079D-08-3.27690402D-05
 -------------------------------------------------------------------
 Center     Atomic                   Forces (Hartrees/Bohr)
 Number     Number              X              Y              Z
 -------------------------------------------------------------------
      1        5          -0.000000000   -0.000000000   -0.000000000
      2        5          -0.000000000   -0.000000000   -0.000000000
      3        1           0.000021938   -0.000474506    0.000000498
      4        1          -0.000021971    0.000474459   -0.000002201
      5        1           0.000021984    0.000474432    0.000000562
      6        1          -0.000022016   -0.000474380    0.000003258
 -------------------------------------------------------------------
 Cartesian Forces:  Max     0.000474506 RMS     0.000223897
 Leave Link  716 at Mon Apr 21 17:19:01 2025, MaxMem=   536870912 cpu:               0.4 elap:               0.1
 (Enter /home/szhao/Apps/g16/l103.exe)

 GradGradGradGradGradGradGradGradGradGradGradGradGradGradGradGradGradGrad
 Berny optimization.
 Using GEDIIS/GDIIS optimizer.
 FormGI is forming the generalized inverse of G from B-inverse, IUseBI=4.
 Internal  Forces:  Max     0.000429623 RMS     0.000225127
 Search for a local minimum.
 Step number   3 out of a maximum of   30
 All quantities printed in internal units (Hartrees-Bohrs-Radians)
 RMS Force = .26856D-03 SwitMx=.10000D-02 MixMth= 2
 Mixed Optimization -- En-DIIS/RFO-DIIS
 Update second derivatives using D2CorX and points    1    2    3
 DE= -3.51D-03 DEPred=-2.93D-03 R= 1.20D+00
 TightC=F SS=  1.41D+00  RLast= 3.53D-01 DXNew= 8.4853D-01 1.0591D+00
 Trust test= 1.20D+00 RLast= 3.53D-01 DXMaxT set to 8.49D-01
 The second derivative matrix:
                          X1        Y1        Z1        X2        Y2
           X1           0.53338
           Y1           0.00000   0.50000
           Z1          -0.00000  -0.00000   0.50000
           X2          -0.03338  -0.00000   0.00000   0.53338
           Y2          -0.00000  -0.00000   0.00000   0.00000   0.50000
           Z2          -0.00000  -0.00000   0.00000   0.00000   0.00000
           R1          -0.00050   0.00000   0.00000   0.00050  -0.00000
           R2          -0.00050   0.00000   0.00000   0.00050  -0.00000
           R3          -0.00050   0.00000   0.00000   0.00050  -0.00000
           R4          -0.00050   0.00000   0.00000   0.00050  -0.00000
           A1          -0.01252  -0.00000   0.00000   0.01252   0.00000
           A2          -0.01252  -0.00000   0.00000   0.01252   0.00000
           A3           0.02504   0.00000  -0.00000  -0.02504  -0.00000
           A4          -0.01252  -0.00000   0.00000   0.01252   0.00000
           A5          -0.01252  -0.00000   0.00000   0.01252   0.00000
           A6           0.02504   0.00000  -0.00000  -0.02504  -0.00000
           D1          -0.00000   0.00000   0.00000   0.00000  -0.00000
           D2           0.00000   0.00000  -0.00000  -0.00000  -0.00000
           D3           0.00000   0.00000  -0.00000  -0.00000  -0.00000
           D4           0.00000   0.00000  -0.00000  -0.00000  -0.00000
                          Z2        R1        R2        R3        R4
           Z2           0.50000
           R1           0.00000   0.25251
           R2           0.00000  -0.00010   0.25251
           R3           0.00000  -0.00010  -0.00010   0.25251
           R4           0.00000  -0.00010  -0.00010  -0.00010   0.25251
[...]
           Z2           0.50920
           R1          -0.00140   0.25632
           R2          -0.00140   0.00371   0.25632
           R3          -0.00140   0.00372   0.00372   0.25632
           R4          -0.00140   0.00372   0.00371   0.00372   0.25632
           A1          -0.00021  -0.00193  -0.00193  -0.00193  -0.00193
           A2          -0.00020  -0.00192  -0.00192  -0.00192  -0.00192
           A3           0.00043   0.00403   0.00403   0.00403   0.00403
           A4          -0.00021  -0.00193  -0.00193  -0.00193  -0.00193
           A5          -0.00020  -0.00192  -0.00192  -0.00192  -0.00192
           A6           0.00042   0.00403   0.00403   0.00403   0.00403
           D1           0.00946   0.00005   0.00005   0.00006   0.00005
           D2           0.00003   0.00005   0.00005   0.00005   0.00005
           D3           0.00001   0.00005   0.00005   0.00005   0.00005
           D4          -0.00942   0.00005   0.00005   0.00005   0.00005
                          A1        A2        A3        A4        A5
           A1           0.15077
           A2          -0.00923   0.15077
           A3           0.01847   0.01847   0.12300
           A4          -0.00923  -0.00923   0.01847   0.15077
           A5          -0.00923  -0.00923   0.01847  -0.00923   0.15077
           A6           0.01847   0.01847  -0.03700   0.01847   0.01847
           D1          -0.00004  -0.00004  -0.00004  -0.00004  -0.00003
           D2          -0.00000  -0.00000   0.00000  -0.00000  -0.00000
           D3          -0.00000  -0.00000   0.00000  -0.00000  -0.00000
           D4           0.00004   0.00003   0.00005   0.00004   0.00003
                          A6        D1        D2        D3        D4
           A6           0.12300
           D1          -0.00004   0.01089
           D2           0.00000   0.00001   0.00230
           D3           0.00000  -0.00001  -0.00000   0.00230
           D4           0.00005  -0.00859  -0.00001   0.00001   0.01089
 ITU=  0 -1  1  1  1  0
     Eigenvalues ---    0.00230   0.00230   0.01948   0.04825   0.16000
     Eigenvalues ---    0.16000   0.16000   0.25261   0.25261   0.25261
     Eigenvalues ---    0.268331000.000001000.000001000.000001000.00000
     Eigenvalues --- 1000.000001000.000001000.000001000.000001000.00000
 En-DIIS/RFO-DIIS/Sim-DIIS IScMMF=       -3 using points:     6    5    4    3
 RFO step:  Lambda=-4.11186480D-11.
 NNeg= 0 NGDIIS= 4 SimSw=  2.50D-03 Rises=F DC= -2.00D-07 SmlDif=  1.00D-05
 NRisDI= 0 DoIntr=F SqrtH=F CThrHd= 10.0 CDAdj=  3.0
 RMS Error=  0.3070537523D-04 NUsed= 4 OKEnD=F EnDIS=F
 InvSVX:  RCond= 2.92D-09 Info=           0 Equed=N FErr=  5.55D-15 BErr=  3.20D-17
 DIIS inversion failure, remove point   4.
 InvSVX:  RCond= 1.11D-08 Info=           0 Equed=N FErr=  3.40D-15 BErr=  4.90D-17
 DIIS inversion failure, remove point   3.
 InvSVX:  RCond= 5.12D-06 Info=           0 Equed=N FErr=  1.00D-15 BErr=  5.54D-17
 RFO-DIIS uses    2 points instead of    4
 DidBck=F Rises=F RFO-DIIS coefs:    1.00165   -0.00165    0.00000    0.00000
 Iteration  1 RMS(Cart)=  0.00003240 RMS(Int)=  0.00000000
 Iteration  2 RMS(Cart)=  0.00000000 RMS(Int)=  0.00000000
 ITry= 1 IFail=0 DXMaxC= 7.69D-05 DCOld= 1.00D+10 DXMaxT= 4.24D-01 DXLimC= 3.00D+00 Rises=F
 Variable       Old X    -DE/DX   Delta X   Delta X   Delta X     New X
                                 (Linear)    (Quad)   (Total)
    X1       -4.33807   0.00000   0.00000   0.00000   0.00000  -4.33807
    Y1        0.00000   0.00000   0.00000   0.00000   0.00000   0.00000
    Z1        0.00000   0.00000   0.00000   0.00000   0.00000   0.00000
    X2        4.33807  -0.00000  -0.00000   0.00000   0.00000   4.33807
    Y2        0.00000  -0.00000   0.00000   0.00000   0.00000   0.00000
    Z2        0.00000   0.00000   0.00000   0.00000   0.00000   0.00000
    R1        2.22892  -0.00000  -0.00000  -0.00000  -0.00000   2.22892
    R2        2.22892  -0.00000  -0.00000  -0.00000  -0.00000   2.22892
    R3        2.22892  -0.00000  -0.00000  -0.00000  -0.00000   2.22892
    R4        2.22892  -0.00000  -0.00000  -0.00000  -0.00000   2.22892
    A1        1.96248  -0.00000   0.00000  -0.00001  -0.00001   1.96247
    A2        1.96248  -0.00000   0.00000  -0.00001  -0.00001   1.96247
    A3        2.35822   0.00000  -0.00000   0.00002   0.00002   2.35824
    A4        1.96248  -0.00000   0.00000  -0.00001  -0.00001   1.96247
    A5        1.96248  -0.00000   0.00000  -0.00001  -0.00001   1.96247
    A6        2.35822   0.00000  -0.00000   0.00002   0.00002   2.35824
    D1        3.13620  -0.00000   0.00001  -0.00007  -0.00006   3.13614
    D2       -0.00539  -0.00000  -0.00000  -0.00007  -0.00007  -0.00546
    D3       -0.00539  -0.00000  -0.00000  -0.00006  -0.00006  -0.00545
    D4        3.13621  -0.00000  -0.00001  -0.00007  -0.00007   3.13614
         Item               Value     Threshold  Converged?
 Maximum Force            0.000001     0.000450     YES
 RMS     Force            0.000001     0.000300     YES
 Maximum Displacement     0.000077     0.001800     YES
 RMS     Displacement     0.000032     0.001200     YES
 Predicted change in Energy=-5.839076D-11
 Optimization completed.
    -- Stationary point found.
                           ----------------------------
                           !   Optimized Parameters   !
                           ! (Angstroms and Degrees)  !
 --------------------------                            --------------------------
 ! Name  Definition              Value          Derivative Info.                !
 --------------------------------------------------------------------------------
 ! X1    R(1,-1)                -2.2956         -DE/DX =    0.0                 !
 ! Y1    R(1,-2)                 0.0            -DE/DX =    0.0                 !
 ! Z1    R(1,-3)                 0.0            -DE/DX =    0.0                 !
 ! X2    R(2,-1)                 2.2956         -DE/DX =    0.0                 !
 ! Y2    R(2,-2)                 0.0            -DE/DX =    0.0                 !
 ! Z2    R(2,-3)                 0.0            -DE/DX =    0.0                 !
 ! R1    R(1,3)                  1.1795         -DE/DX =    0.0                 !
 ! R2    R(1,5)                  1.1795         -DE/DX =    0.0                 !
 ! R3    R(2,4)                  1.1795         -DE/DX =    0.0                 !
 ! R4    R(2,6)                  1.1795         -DE/DX =    0.0                 !
 ! A1    A(2,1,3)              112.4418         -DE/DX =    0.0                 !
 ! A2    A(2,1,5)              112.442          -DE/DX =    0.0                 !
 ! A3    A(3,1,5)              135.1162         -DE/DX =    0.0                 !
 ! A4    A(1,2,4)              112.4418         -DE/DX =    0.0                 !
 ! A5    A(1,2,6)              112.442          -DE/DX =    0.0                 !
 ! A6    A(4,2,6)              135.1162         -DE/DX =    0.0                 !
 ! D1    D(3,1,2,4)            179.6909         -DE/DX =    0.0                 !
 ! D2    D(3,1,2,6)             -0.3087         -DE/DX =    0.0                 !
 ! D3    D(5,1,2,4)             -0.3087         -DE/DX =    0.0                 !
 ! D4    D(5,1,2,6)            179.6916         -DE/DX =    0.0                 !
 --------------------------------------------------------------------------------
 Lowest energy point so far.  Saving SCF results.
 Largest change from initial coordinates is atom    6       0.194 Angstoms.
 GradGradGradGradGradGradGradGradGradGradGradGradGradGradGradGradGradGrad

 Leave Link  103 at Mon Apr 21 17:19:30 2025, MaxMem=   536870912 cpu:               1.0 elap:               0.2
 (Enter /home/szhao/Apps/g16/l202.exe)
                          Input orientation:                          
 ---------------------------------------------------------------------
 Center     Atomic      Atomic             Coordinates (Angstroms)
 Number     Number       Type             X           Y           Z
 ---------------------------------------------------------------------
      1          5           0       -2.295607    0.000000    0.000000
      2          5           0        2.295607    0.000000    0.000000
      3          1           0       -2.745873   -1.090167   -0.000006
      4          1           0        2.745873    1.090151   -0.005874
      5          1           0       -2.745875    1.090166    0.000000
      6          1           0        2.745875   -1.090150    0.005868
 ---------------------------------------------------------------------
                    Distance matrix (angstroms):
                    1          2          3          4          5
     1  B    0.000000
     2  B    4.591214   0.000000
     3  H    1.179493   5.158002   0.000000
     4  H    5.158002   1.179493   5.908730   0.000000
     5  H    1.179493   5.158004   2.180332   5.491751   0.000000
     6  H    5.158004   1.179493   5.491751   2.180332   5.908734
                    6
     6  H    0.000000
 Symmetry turned off by external request.
 Stoichiometry    B2H4
 Framework group  C1[X(B2H4)]
 Deg. of freedom    12
 Full point group                 C1      NOp   1
 Rotational constants (GHZ):         105.4840293           3.4513526           3.3420064
 Leave Link  202 at Mon Apr 21 17:19:30 2025, MaxMem=   536870912 cpu:               0.2 elap:               0.1
 (Enter /home/szhao/Apps/g16/l601.exe)
 Copying SCF densities to generalized density rwf, IOpCl= 1 IROHF=0.

 **********************************************************************

            Population analysis using the SCF density.

 **********************************************************************

 Alpha  occ. eigenvalues --   -7.11676  -7.11675  -0.58094  -0.57926  -0.45527
 Alpha  occ. eigenvalues --   -0.45495  -0.19004
 Alpha virt. eigenvalues --   -0.08959  -0.05168  -0.04509   0.02218   0.03022
 Alpha virt. eigenvalues --    0.03831   0.05299   0.06096   0.07118   0.08396
 Alpha virt. eigenvalues --    0.09934   0.15010   0.15614   0.17298   0.22921
 Alpha virt. eigenvalues --    0.34329   0.35188   0.35377   0.35981   0.41074
 Alpha virt. eigenvalues --    0.41236   0.42457   0.48808   0.55074   0.55890
 Alpha virt. eigenvalues --    0.58959   0.63407   0.78421   0.78422   0.84310
 Alpha virt. eigenvalues --    0.84415   0.84803   0.86267   1.04919   1.06039
 Alpha virt. eigenvalues --    1.12421   1.12750   1.57572   1.57760   1.65204
 Alpha virt. eigenvalues --    1.65450   1.75581   1.78417   1.82398   1.82400
 Alpha virt. eigenvalues --    1.84540   1.85629   1.87837   1.90446   1.90885
 Alpha virt. eigenvalues --    1.94967   2.41071   2.41426   2.51224   2.51860
 Alpha virt. eigenvalues --    2.63285   2.63892   2.66365   2.67691  14.45345
 Alpha virt. eigenvalues --   14.45688
  Beta  occ. eigenvalues --   -7.11676  -7.11675  -0.58094  -0.57926  -0.45527
  Beta  occ. eigenvalues --   -0.45495  -0.19004
  Beta virt. eigenvalues --   -0.08959  -0.05168  -0.04509   0.02218   0.03022
  Beta virt. eigenvalues --    0.03831   0.05299   0.06096   0.07118   0.08396
  Beta virt. eigenvalues --    0.09934   0.15010   0.15614   0.17298   0.22921
  Beta virt. eigenvalues --    0.34329   0.35188   0.35377   0.35981   0.41074
  Beta virt. eigenvalues --    0.41236   0.42457   0.48808   0.55074   0.55890
  Beta virt. eigenvalues --    0.58959   0.63407   0.78421   0.78422   0.84310
  Beta virt. eigenvalues --    0.84415   0.84803   0.86267   1.04919   1.06039
  Beta virt. eigenvalues --    1.12421   1.12750   1.57572   1.57760   1.65204
  Beta virt. eigenvalues --    1.65450   1.75581   1.78417   1.82398   1.82400
  Beta virt. eigenvalues --    1.84540   1.85629   1.87837   1.90446   1.90885
  Beta virt. eigenvalues --    1.94967   2.41071   2.41426   2.51224   2.51860
  Beta virt. eigenvalues --    2.63285   2.63892   2.66365   2.67691  14.45345
  Beta virt. eigenvalues --   14.45688
          Condensed to atoms (all electrons):
               1          2          3          4          5          6
     1  B    4.185761   0.135395   0.376802  -0.004746   0.376802  -0.004746
     2  B    0.135395   4.185761  -0.004746   0.376802  -0.004746   0.376802
     3  H    0.376802  -0.004746   0.616598   0.000018  -0.021350   0.000045
     4  H   -0.004746   0.376802   0.000018   0.616598   0.000045  -0.021350
     5  H    0.376802  -0.004746  -0.021350   0.000045   0.616598   0.000018
     6  H   -0.004746   0.376802   0.000045  -0.021350   0.000018   0.616598
          Atomic-Atomic Spin Densities.
               1          2          3          4          5          6
     1  B   -0.000000  -0.000000   0.000000   0.000000   0.000000   0.000000
     2  B   -0.000000   0.000000  -0.000000  -0.000000  -0.000000  -0.000000
     3  H    0.000000  -0.000000  -0.000000   0.000000  -0.000000  -0.000000
     4  H    0.000000  -0.000000   0.000000   0.000000   0.000000   0.000000
     5  H    0.000000  -0.000000  -0.000000   0.000000  -0.000000  -0.000000
     6  H    0.000000  -0.000000  -0.000000   0.000000  -0.000000   0.000000
 Mulliken charges and spin densities:
               1          2
     1  B   -0.065268  -0.000000
     2  B   -0.065268   0.000000
     3  H    0.032634  -0.000000
     4  H    0.032634   0.000000
     5  H    0.032634  -0.000000
     6  H    0.032634   0.000000
 Sum of Mulliken charges =  -0.00000  -0.00000
 Mulliken charges and spin densities with hydrogens summed into heavy atoms:
               1          2
     1  B   -0.000000  -0.000000
     2  B    0.000000   0.000000
 Electronic spatial extent (au):  <R**2>=            343.6526
 Charge=             -0.0000 electrons
 Dipole moment (field-independent basis, Debye):
    X=              0.0000    Y=             -0.0000    Z=             -0.0000  Tot=              0.0000
 Quadrupole moment (field-independent basis, Debye-Ang):
   XX=             -9.7374   YY=            -16.9852   ZZ=            -14.6871
   XY=             -0.0000   XZ=              0.0000   YZ=              0.0062
 Traceless Quadrupole moment (field-independent basis, Debye-Ang):
   XX=              4.0659   YY=             -3.1820   ZZ=             -0.8839
   XY=             -0.0000   XZ=              0.0000   YZ=              0.0062
 Octapole moment (field-independent basis, Debye-Ang**2):
  XXX=              0.0000  YYY=             -0.0000  ZZZ=             -0.0000  XYY=              0.0001
  XXY=              0.0000  XXZ=              0.0001  XZZ=             -0.0001  YZZ=              0.0000
  YYZ=             -0.0000  XYZ=              0.0129
 Hexadecapole moment (field-independent basis, Debye-Ang**3):
 XXXX=           -582.6041 YYYY=            -50.8092 ZZZZ=            -22.5893 XXXY=             -0.0001
 XXXZ=              0.0000 YYYX=              0.0000 YYYZ=              0.0300 ZZZX=              0.0000
 ZZZY=              0.0460 XXYY=            -98.3812 XXZZ=            -83.5680 YYZZ=            -13.2262
 XXYZ=              0.0399 YYXZ=              0.0000 ZZXY=              0.0000
 N-N= 1.476354312947D+01 E-N=-1.478406893558D+02  KE= 5.138832884284D+01
                          Isotropic Fermi Contact Couplings
        Atom                 a.u.       MegaHertz       Gauss      10(-4) cm-1
     1  B(11)             -0.00000      -0.00000      -0.00000      -0.00000
     2  B(11)              0.00000       0.00000       0.00000       0.00000
     3  H(1)              -0.00000      -0.00000      -0.00000      -0.00000
     4  H(1)               0.00000       0.00000       0.00000       0.00000
     5  H(1)              -0.00000      -0.00000      -0.00000      -0.00000
     6  H(1)               0.00000       0.00000       0.00000       0.00000
 --------------------------------------------------------
       Center         ----  Spin Dipole Couplings  ----
                      3XX-RR        3YY-RR        3ZZ-RR
 --------------------------------------------------------
     1   Atom       -0.000000      0.000000      0.000000
     2   Atom        0.000000     -0.000000     -0.000000
     3   Atom       -0.000000     -0.000000      0.000000
     4   Atom        0.000000      0.000000     -0.000000
     5   Atom       -0.000000     -0.000000      0.000000
     6   Atom        0.000000      0.000000     -0.000000
 --------------------------------------------------------
                        XY            XZ            YZ
 --------------------------------------------------------
     1   Atom       -0.000000     -0.000000      0.000000
     2   Atom       -0.000000     -0.000000     -0.000000
     3   Atom       -0.000000     -0.000000      0.000000
     4   Atom        0.000000     -0.000000      0.000000
     5   Atom        0.000000     -0.000000     -0.000000
     6   Atom       -0.000000     -0.000000     -0.000000
 --------------------------------------------------------


 ---------------------------------------------------------------------------------
              Anisotropic Spin Dipole Couplings in Principal Axis System
 ---------------------------------------------------------------------------------

       Atom             a.u.   MegaHertz   Gauss  10(-4) cm-1        Axes

              Baa    -0.0000    -0.000    -0.000    -0.000  0.9001  0.0000  0.4356
     1 B(11)  Bbb     0.0000     0.000     0.000     0.000  0.0000  1.0000 -0.0000
              Bcc     0.0000     0.000     0.000     0.000 -0.4356  0.0000  0.9001
 
              Baa    -0.0000    -0.000    -0.000    -0.000  0.4349  0.0048  0.9005
     2 B(11)  Bbb    -0.0000    -0.000    -0.000    -0.000  0.0000  1.0000 -0.0054
              Bcc     0.0000     0.000     0.000     0.000  0.9005 -0.0023 -0.4349
 
              Baa    -0.0000    -0.000    -0.000    -0.000  0.4847  0.8596  0.1615
     3 H(1)   Bbb    -0.0000    -0.000    -0.000    -0.000  0.7336 -0.5001  0.4601
              Bcc     0.0000     0.000     0.000     0.000 -0.4763  0.1045  0.8730
 
              Baa    -0.0000    -0.000    -0.000    -0.000  0.4757 -0.0998  0.8739
     4 H(1)   Bbb     0.0000     0.000     0.000     0.000  0.7344 -0.5018 -0.4570
              Bcc     0.0000     0.000     0.000     0.000  0.4842  0.8592 -0.1654
 
              Baa    -0.0000    -0.000    -0.000    -0.000 -0.4847  0.8596 -0.1615
     5 H(1)   Bbb    -0.0000    -0.000    -0.000    -0.000  0.7335  0.5001  0.4602
              Bcc     0.0000     0.000     0.000     0.000 -0.4764 -0.1046  0.8730
 
              Baa    -0.0000    -0.000    -0.000    -0.000  0.4757  0.1093  0.8728
     6 H(1)   Bbb     0.0000     0.000     0.000     0.000  0.7344  0.4968 -0.4624
              Bcc     0.0000     0.000     0.000     0.000 -0.4842  0.8609  0.1561
 

 ---------------------------------------------------------------------------------

 No NMR shielding tensors so no spin-rotation constants.
 Leave Link  601 at Mon Apr 21 17:19:30 2025, MaxMem=   536870912 cpu:               1.8 elap:               0.3
 (Enter /home/szhao/Apps/g16/l9999.exe)
 1\1\GINC-NODE06\FOpt\UM062X\6-311+G(d,p)\B2H4\SZHAO\21-Apr-2025\0\\#p 
 opt UM062X/6-311+G** nosymm int=superfine\\Title Card Required\\0,1\B,
 -2.295607,0.,0.\B,2.295607,0.,0.\H,-2.7458730369,-1.0901665707,-0.0000
 059015\H,2.7458729697,1.0901507824,-0.0058744369\H,-2.7458753751,1.090
 1656109,0.0000000346\H,2.7458753077,-1.0901498581,0.0058678672\\Versio
 n=ES64L-G16RevA.03\HF=-51.7831985\S2=0.\S2-1=0.\S2A=0.\RMSD=9.195e-10\
 RMSF=4.050e-07\Dipole=0.0000002,0.,-0.0000033\Quadrupole=3.0228683,-2.
 3657356,-0.6571327,-0.0000003,0.0000007,0.004599\PG=C01 [X(B2H4)]\\@


 Discoveries are often made by not following instructions,
 by going off the main road, by trying the untried.
 -- Frank Tyger
 Job cpu time:       0 days  0 hours  6 minutes 14.5 seconds.
 Elapsed time:       0 days  0 hours  0 minutes 51.7 seconds.
 File lengths (MBytes):  RWF=     22 Int=      0 D2E=      0 Chk=      2 Scr=      2
 Normal termination of Gaussian 16 at Mon Apr 21 17:19:31 2025.
