 Entering Gaussian System, Link 0=g16
 Initial command:
 /home/szhao/Apps/g16/l1.exe "/home/szhao/tmp/Gau-157639.inp" -scrdir="/home/szhao/tmp/"
 Default is to use a total of  16 processors:
                               16 via shared-memory
                                1 via Linda
 Entering Link 1 = /home/szhao/Apps/g16/l1.exe PID=    157640.
  
 Copyright (c) 1988,1990,1992,1993,1995,1998,2003,2009,2016,
            Gaussian, Inc.  All Rights Reserved.
  
 This is part of the Gaussian(R) 16 program.  It is based on
 the Gaussian(R) 09 system (copyright 2009, Gaussian, Inc.),
 the Gaussian(R) 03 system (copyright 2003, Gaussian, Inc.),
 the Gaussian(R) 98 system (copyright 1998, Gaussian, Inc.),
 the Gaussian(R) 94 system (copyright 1995, Gaussian, Inc.),
 the Gaussian 92(TM) system (copyright 1992, Gaussian, Inc.),
 the Gaussian 90(TM) system (copyright 1990, Gaussian, Inc.),
 the Gaussian 88(TM) system (copyright 1988, Gaussian, Inc.),
 the Gaussian 86(TM) system (copyright 1986, Carnegie Mellon
 University), and the Gaussian 82(TM) system (copyright 1983,
 Carnegie Mellon University). Gaussian is a federally registered
 trademark of Gaussian, Inc.
  
 This software contains proprietary and confidential information,
 including trade secrets, belonging to Gaussian, Inc.
  
 This software is provided under written license and may be
 used, copied, transmitted, or stored only in accord with that
 written license.
  
 The following legend is applicable only to US Government
 contracts under FAR:
  
                    RESTRICTED RIGHTS LEGEND
  
 Use, reproduction and disclosure by the US Government is
 subject to restrictions as set forth in subparagraphs (a)
 and (c) of the Commercial Computer Software - Restricted
 Rights clause in FAR 52.227-19.
  
 Gaussian, Inc.
 340 Quinnipiac St., Bldg. 40, Wallingford CT 06492
  
  
 ---------------------------------------------------------------
 Warning -- This program may not be used in any manner that
 competes with the business of Gaussian, Inc. or will provide
 assistance to any competitor of Gaussian, Inc.  The licensee
 of this program is prohibited from giving any competitor of
 Gaussian, Inc. access to this program.  By using this program,
 the user acknowledges that Gaussian, Inc. is engaged in the
 business of creating and licensing software in the field of
 computational chemistry and represents and warrants to the
 licensee that it is not a competitor of Gaussian, Inc. and that
 it will not use this program in any manner prohibited above.
 ---------------------------------------------------------------
  

 Cite this work as:
 Gaussian 16, Revision A.03,
 M. J. Frisch, G. W. Trucks, H. B. Schlegel, G. E. Scuseria, 
 M. A. Robb, J. R. Cheeseman, G. Scalmani, V. Barone, 
 G. A. Petersson, H. Nakatsuji, X. Li, M. Caricato, A. V. Marenich, 
 J. Bloino, B. G. Janesko, R. Gomperts, B. Mennucci, H. P. Hratchian, 
 J. V. Ortiz, A. F. Izmaylov, J. L. Sonnenberg, D. Williams-Young, 
 F. Ding, F. Lipparini, F. Egidi, J. Goings, B. Peng, A. Petrone, 
 T. Henderson, D. Ranasinghe, V. G. Zakrzewski, J. Gao, N. Rega, 
 G. Zheng, W. Liang, M. Hada, M. Ehara, K. Toyota, R. Fukuda, 
 J. Hasegawa, M. Ishida, T. Nakajima, Y. Honda, O. Kitao, H. Nakai, 
 T. Vreven, K. Throssell, J. A. Montgomery, Jr., J. E. Peralta, 
 F. Ogliaro, M. J. Bearpark, J. J. Heyd, E. N. Brothers, K. N. Kudin, 
 V. N. Staroverov, T. A. Keith, R. Kobayashi, J. Normand, 
 K. Raghavachari, A. P. Rendell, J. C. Burant, S. S. Iyengar, 
 J. Tomasi, M. Cossi, J. M. Millam, M. Klene, C. Adamo, R. Cammi, 
 J. W. Ochterski, R. L. Martin, K. Morokuma, O. Farkas, 
 J. B. Foresman, and D. J. Fox, Gaussian, Inc., Wallingford CT, 2016.
 
 ******************************************
 Gaussian 16:  ES64L-G16RevA.03 25-Dec-2016
                21-Apr-2025 
 ******************************************
 %chk=opt.chk
 %mem=4GB
 %nprocshared=8
 Will use up to    8 processors via shared memory.
 --------------------------------------------
 #p opt UM062X/6-311+G** nosymm int=superfine
 --------------------------------------------
 1/18=20,19=15,26=5,38=1/1,3;
 2/9=110,12=2,15=1,17=6,18=5,40=1/2;
 3/5=4,6=6,7=111,11=2,25=1,30=1,71=1,74=-55,75=-7,116=2/1,2,3;
 4//1;
 5/5=2,38=5/2;
 6/7=2,8=2,9=2,10=2,28=1/1;
 7/30=1/1,2,3,16;
 1/18=20,19=15,26=5/3(2);
 2/9=110,15=1/2;
 99//99;
 2/9=110,15=1/2;
 3/5=4,6=6,7=111,11=2,25=1,30=1,71=1,74=-55,75=-7,116=2/1,2,3;
 4/5=5,16=3,69=1/1;
 5/5=2,38=5/2;
 7/30=1/1,2,3,16;
 1/18=20,19=15,26=5/3(-5);
 2/9=110,15=1/2;
 6/7=2,8=2,9=2,10=2,19=2,28=1/1;
 99/9=1/99;
 Leave Link    1 at Mon Apr 21 20:33:32 2025, MaxMem=   536870912 cpu:               1.8 elap:               0.2
 (Enter /home/szhao/Apps/g16/l101.exe)
 -------------------
 Title Card Required
 -------------------
 Symbolic Z-matrix:
 Charge =  0 Multiplicity = 1
 Si                   -1   -2.23752   0.        0. 
 Si                   -1    2.23752   0.        0. 
 H                    0    -3.01841  -1.24877   0. 
 H                    0     3.01841   1.24877  -0.00078 
 H                    0    -3.01842   1.24878   0.00014 
 H                    0     3.01842  -1.24878   0.00093 
 
 Add virtual bond connecting atoms Si2        and Si1        Dist= 8.46D+00.
 ITRead=  2  2  0  0  0  0
 MicOpt= -2 -2 -1 -1 -1 -1
 NAtoms=      6 NQM=        4 NQMF=       2 NMMI=      0 NMMIF=      0
                NMic=       0 NMicF=      0.
                    Isotopes and Nuclear Properties:
 (Nuclear quadrupole moments (NQMom) in fm**2, nuclear magnetic moments (NMagM)
  in nuclear magnetons)

  Atom         1           2           3           4           5           6
 IAtWgt=          28          28           1           1           1           1
 AtmWgt=  27.9769284  27.9769284   1.0078250   1.0078250   1.0078250   1.0078250
 NucSpn=           0           0           1           1           1           1
 AtZEff=  -0.0000000  -0.0000000  -0.0000000  -0.0000000  -0.0000000  -0.0000000
 NQMom=    0.0000000   0.0000000   0.0000000   0.0000000   0.0000000   0.0000000
 NMagM=    0.0000000   0.0000000   2.7928460   2.7928460   2.7928460   2.7928460
 AtZNuc=  14.0000000  14.0000000   1.0000000   1.0000000   1.0000000   1.0000000
 Leave Link  101 at Mon Apr 21 20:33:32 2025, MaxMem=   536870912 cpu:               2.8 elap:               0.4
 (Enter /home/szhao/Apps/g16/l103.exe)

 GradGradGradGradGradGradGradGradGradGradGradGradGradGradGradGradGradGrad
 Berny optimization.
 Initialization pass.
                           ----------------------------
                           !    Initial Parameters    !
                           ! (Angstroms and Degrees)  !
 --------------------------                            --------------------------
 ! Name  Definition              Value          Derivative Info.                !
 --------------------------------------------------------------------------------
 ! X1    R(1,-1)                -2.2375         Frozen                          !
 ! Y1    R(1,-2)                 0.0            Frozen                          !
 ! Z1    R(1,-3)                 0.0            Frozen                          !
 ! X2    R(2,-1)                 2.2375         Frozen                          !
 ! Y2    R(2,-2)                 0.0            Frozen                          !
 ! Z2    R(2,-3)                 0.0            Frozen                          !
 ! R1    R(1,3)                  1.4728         estimate D2E/DX2                !
 ! R2    R(1,5)                  1.4728         estimate D2E/DX2                !
 ! R3    R(2,4)                  1.4728         estimate D2E/DX2                !
 ! R4    R(2,6)                  1.4728         estimate D2E/DX2                !
 ! A1    A(2,1,3)              122.019          estimate D2E/DX2                !
 ! A2    A(2,1,5)              122.0192         estimate D2E/DX2                !
 ! A3    A(3,1,5)              115.9618         estimate D2E/DX2                !
 ! A4    A(1,2,4)              122.019          estimate D2E/DX2                !
 ! A5    A(1,2,6)              122.0192         estimate D2E/DX2                !
 ! A6    A(4,2,6)              115.9617         estimate D2E/DX2                !
 ! D1    D(3,1,2,4)            179.9641         estimate D2E/DX2                !
 ! D2    D(3,1,2,6)             -0.0424         estimate D2E/DX2                !
 ! D3    D(5,1,2,4)             -0.0424         estimate D2E/DX2                !
 ! D4    D(5,1,2,6)            179.951          estimate D2E/DX2                !
 --------------------------------------------------------------------------------
 Trust Radius=3.00D-01 FncErr=1.00D-07 GrdErr=1.00D-07 EigMax=2.50D+02 EigMin=1.00D-04
 Number of steps in this run=     30 maximum allowed number of steps=    100.
 GradGradGradGradGradGradGradGradGradGradGradGradGradGradGradGradGradGrad

 Leave Link  103 at Mon Apr 21 20:33:33 2025, MaxMem=   536870912 cpu:               0.2 elap:               0.1
 (Enter /home/szhao/Apps/g16/l202.exe)
                          Input orientation:                          
 ---------------------------------------------------------------------
 Center     Atomic      Atomic             Coordinates (Angstroms)
 Number     Number       Type             X           Y           Z
 ---------------------------------------------------------------------
      1         14           0       -2.237518    0.000000    0.000000
      2         14           0        2.237518    0.000000    0.000000
      3          1           0       -3.018412   -1.248769    0.000000
      4          1           0        3.018412    1.248768   -0.000783
      5          1           0       -3.018423    1.248777    0.000142
      6          1           0        3.018423   -1.248776    0.000925
 ---------------------------------------------------------------------
                    Distance matrix (angstroms):
                    1          2          3          4          5
     1  Si   0.000000
     2  Si   4.475036   0.000000
     3  H    1.472827   5.402243   0.000000
     4  H    5.402243   1.472827   6.533065   0.000000
     5  H    1.472839   5.402255   2.497546   6.036835   0.000000
     6  H    5.402255   1.472839   6.036835   2.497545   6.533091
                    6
     6  H    0.000000
 Symmetry turned off by external request.
 Stoichiometry    H4Si2
 Framework group  C2[X(H4Si2)]
 Deg. of freedom     7
 Full point group                 C2      NOp   2
 Rotational constants (GHZ):          80.3906046           1.5949560           1.5639275
 Leave Link  202 at Mon Apr 21 20:33:33 2025, MaxMem=   536870912 cpu:               0.2 elap:               0.0
 (Enter /home/szhao/Apps/g16/l301.exe)
 Standard basis: 6-311+G(d,p) (5D, 7F)
 Ernie: Thresh=  0.10000D-02 Tol=  0.10000D-05 Strict=F.
    84 basis functions,   132 primitive gaussians,    86 cartesian basis functions
    16 alpha electrons       16 beta electrons
       nuclear repulsion energy        49.5440916293 Hartrees.
 IExCor= 4336 DFT=T Ex+Corr=M062X ExCW=0 ScaHFX=  0.540000
 ScaDFX=  1.000000  1.000000  1.000000  1.000000 ScalE2=  1.000000  1.000000
 IRadAn=      7 IRanWt=     -1 IRanGd=            0 ICorTp=0 IEmpDi=  4
 NAtoms=    6 NActive=    6 NUniq=    6 SFac= 1.00D+00 NAtFMM=   60 NAOKFM=F Big=F
 Integral buffers will be    131072 words long.
 Raffenetti 2 integral format.
 Two-electron integral symmetry is turned off.
 Leave Link  301 at Mon Apr 21 20:33:33 2025, MaxMem=   536870912 cpu:               0.6 elap:               0.2
 (Enter /home/szhao/Apps/g16/l302.exe)
 NPDir=0 NMtPBC=     1 NCelOv=     1 NCel=       1 NClECP=     1 NCelD=      1
         NCelK=      1 NCelE2=     1 NClLst=     1 CellRange=     0.0.
 One-electron integrals computed using PRISM.
 NBasis=    84 RedAO= T EigKep=  1.34D-02  NBF=    84
 NBsUse=    84 1.00D-06 EigRej= -1.00D+00 NBFU=    84
 Precomputing XC quadrature grid using
 IXCGrd= 4 IRadAn=           7 IRanWt=          -1 IRanGd=           0 AccXCQ= 0.00D+00.
 Generated NRdTot=       0 NPtTot=           0 NUsed=           0 NTot=          32
 NSgBfM=    76    76    76    76    76 MxSgAt=     6 MxSgA2=     6.
 Leave Link  302 at Mon Apr 21 20:33:33 2025, MaxMem=   536870912 cpu:               2.0 elap:               0.3
 (Enter /home/szhao/Apps/g16/l303.exe)
 DipDrv:  MaxL=1.
 Leave Link  303 at Mon Apr 21 20:33:34 2025, MaxMem=   536870912 cpu:               0.5 elap:               0.1
 (Enter /home/szhao/Apps/g16/l401.exe)
 ExpMin= 3.31D-02 ExpMax= 6.94D+04 ExpMxC= 2.33D+03 IAcc=3 IRadAn=         7 AccDes= 0.00D+00
 Harris functional with IExCor= 1009 and IRadAn=       7 diagonalized for initial guess.
 HarFok:  IExCor= 1009 AccDes= 0.00D+00 IRadAn=         7 IDoV= 1 UseB2=F ITyADJ=14
 ICtDFT=  3500011 ScaDFX=  1.000000  1.000000  1.000000  1.000000
 FoFCou: FMM=F IPFlag=           0 FMFlag=      100000 FMFlg1=           0
         NFxFlg=           0 DoJE=T BraDBF=F KetDBF=T FulRan=T
         wScrn=  0.000000 ICntrl=       500 IOpCl=  0 I1Cent=   200000004 NGrid=           0
         NMat0=    1 NMatS0=      1 NMatT0=    0 NMatD0=    1 NMtDS0=    0 NMtDT0=    0
 Symmetry not used in FoFCou.
 Harris En= -580.834129532963    
 JPrj=0 DoOrth=F DoCkMO=F.
 Initial guess <Sx>= 0.0000 <Sy>= 0.0000 <Sz>= 0.0000 <S**2>= 0.0000 S= 0.0000
 Leave Link  401 at Mon Apr 21 20:33:34 2025, MaxMem=   536870912 cpu:               4.0 elap:               0.6
 (Enter /home/szhao/Apps/g16/l502.exe)
 Keep R1 and R2 ints in memory in canonical form, NReq=20057634.
 FoFCou: FMM=F IPFlag=           0 FMFlag=           0 FMFlg1=           0
         NFxFlg=           0 DoJE=F BraDBF=F KetDBF=F FulRan=T
         wScrn=  0.000000 ICntrl=       600 IOpCl=  0 I1Cent=           0 NGrid=           0
         NMat0=    1 NMatS0=   3570 NMatT0=    0 NMatD0=    1 NMtDS0=    0 NMtDT0=    0
 Symmetry not used in FoFCou.
 Two-electron integral symmetry not used.
 UHF open shell SCF:
 Using DIIS extrapolation, IDIIS=  1040.
 NGot=   536870912 LenX=   524106186 LenY=   524098349
 Requested convergence on RMS density matrix=1.00D-08 within 128 cycles.
 Requested convergence on MAX density matrix=1.00D-06.
 Requested convergence on             energy=1.00D-06.
 No special actions if energy rises.

 Cycle   1  Pass 1  IDiag  1:
 E= -581.119861491822    
 DIIS: error= 2.92D-02 at cycle   1 NSaved=   1.
 NSaved= 1 IEnMin= 1 EnMin= -581.119861491822     IErMin= 1 ErrMin= 2.92D-02
 ErrMax= 2.92D-02  0.00D+00 EMaxC= 1.00D-01 BMatC= 1.80D-01 BMatP= 1.80D-01
 IDIUse=3 WtCom= 7.08D-01 WtEn= 2.92D-01
 Coeff-Com:  0.100D+01
 Coeff-En:   0.100D+01
 Coeff:      0.100D+01
 Gap=     0.149 Goal=   None    Shift=    0.000
 Gap=     0.149 Goal=   None    Shift=    0.000
 GapD=    0.149 DampG=1.000 DampE=0.500 DampFc=0.5000 IDamp=-1.
 Damping current iteration by 5.00D-01
 RMSDP=2.48D-03 MaxDP=4.71D-02              OVMax= 4.36D-02

 Cycle   2  Pass 1  IDiag  1:
 E= -581.131196077745     Delta-E=       -0.011334585922 Rises=F Damp=T
 DIIS: error= 1.48D-02 at cycle   2 NSaved=   2.
 NSaved= 2 IEnMin= 2 EnMin= -581.131196077745     IErMin= 2 ErrMin= 1.48D-02
 ErrMax= 1.48D-02  0.00D+00 EMaxC= 1.00D-01 BMatC= 3.86D-02 BMatP= 1.80D-01
 IDIUse=3 WtCom= 8.52D-01 WtEn= 1.48D-01
 Coeff-Com: -0.749D+00 0.175D+01
 Coeff-En:   0.000D+00 0.100D+01
 Coeff:     -0.638D+00 0.164D+01
 Gap=     0.151 Goal=   None    Shift=    0.000
 Gap=     0.151 Goal=   None    Shift=    0.000
 RMSDP=1.18D-03 MaxDP=1.90D-02 DE=-1.13D-02 OVMax= 7.64D-03

 Cycle   3  Pass 1  IDiag  1:
 E= -581.141841263496     Delta-E=       -0.010645185751 Rises=F Damp=F
 DIIS: error= 9.20D-04 at cycle   3 NSaved=   3.
 NSaved= 3 IEnMin= 3 EnMin= -581.141841263496     IErMin= 3 ErrMin= 9.20D-04
 ErrMax= 9.20D-04  0.00D+00 EMaxC= 1.00D-01 BMatC= 3.21D-04 BMatP= 3.86D-02
 IDIUse=3 WtCom= 9.91D-01 WtEn= 9.20D-03
 Coeff-Com: -0.140D+00 0.273D+00 0.867D+00
 Coeff-En:   0.000D+00 0.000D+00 0.100D+01
 Coeff:     -0.139D+00 0.271D+00 0.868D+00
 Gap=     0.152 Goal=   None    Shift=    0.000
 Gap=     0.152 Goal=   None    Shift=    0.000
 RMSDP=1.14D-04 MaxDP=3.53D-03 DE=-1.06D-02 OVMax= 1.77D-03

 Cycle   4  Pass 1  IDiag  1:
 E= -581.141865912281     Delta-E=       -0.000024648785 Rises=F Damp=F
 DIIS: error= 5.21D-05 at cycle   4 NSaved=   4.
 NSaved= 4 IEnMin= 4 EnMin= -581.141865912281     IErMin= 4 ErrMin= 5.21D-05
 ErrMax= 5.21D-05  0.00D+00 EMaxC= 1.00D-01 BMatC= 9.70D-07 BMatP= 3.21D-04
 IDIUse=1 WtCom= 1.00D+00 WtEn= 0.00D+00
 Coeff-Com: -0.505D-02 0.795D-02 0.584D-01 0.939D+00
 Coeff:     -0.505D-02 0.795D-02 0.584D-01 0.939D+00
 Gap=     0.152 Goal=   None    Shift=    0.000
 Gap=     0.152 Goal=   None    Shift=    0.000
 RMSDP=1.22D-05 MaxDP=1.66D-04 DE=-2.46D-05 OVMax= 3.45D-04

 Cycle   5  Pass 1  IDiag  1:
 E= -581.141866285990     Delta-E=       -0.000000373709 Rises=F Damp=F
 DIIS: error= 1.03D-05 at cycle   5 NSaved=   5.
 NSaved= 5 IEnMin= 5 EnMin= -581.141866285990     IErMin= 5 ErrMin= 1.03D-05
 ErrMax= 1.03D-05  0.00D+00 EMaxC= 1.00D-01 BMatC= 2.28D-08 BMatP= 9.70D-07
 IDIUse=1 WtCom= 1.00D+00 WtEn= 0.00D+00
 Coeff-Com:  0.121D-02-0.210D-02-0.163D-01-0.142D+00 0.116D+01
 Coeff:      0.121D-02-0.210D-02-0.163D-01-0.142D+00 0.116D+01
 Gap=     0.152 Goal=   None    Shift=    0.000
 Gap=     0.152 Goal=   None    Shift=    0.000
 RMSDP=5.88D-06 MaxDP=9.14D-05 DE=-3.74D-07 OVMax= 1.29D-04

 Cycle   6  Pass 1  IDiag  1:
 E= -581.141866308359     Delta-E=       -0.000000022369 Rises=F Damp=F
 DIIS: error= 1.42D-06 at cycle   6 NSaved=   6.
 NSaved= 6 IEnMin= 6 EnMin= -581.141866308359     IErMin= 6 ErrMin= 1.42D-06
 ErrMax= 1.42D-06  0.00D+00 EMaxC= 1.00D-01 BMatC= 7.62D-10 BMatP= 2.28D-08
 IDIUse=1 WtCom= 1.00D+00 WtEn= 0.00D+00
 Coeff-Com:  0.162D-03-0.299D-03-0.127D-03-0.112D-01-0.141D-01 0.103D+01
 Coeff:      0.162D-03-0.299D-03-0.127D-03-0.112D-01-0.141D-01 0.103D+01
 Gap=     0.152 Goal=   None    Shift=    0.000
 Gap=     0.152 Goal=   None    Shift=    0.000
 RMSDP=8.46D-07 MaxDP=1.45D-05 DE=-2.24D-08 OVMax= 1.95D-05

 Cycle   7  Pass 1  IDiag  1:
 E= -581.141866308946     Delta-E=       -0.000000000587 Rises=F Damp=F
 DIIS: error= 3.00D-07 at cycle   7 NSaved=   7.
 NSaved= 7 IEnMin= 7 EnMin= -581.141866308946     IErMin= 7 ErrMin= 3.00D-07
 ErrMax= 3.00D-07  0.00D+00 EMaxC= 1.00D-01 BMatC= 2.34D-11 BMatP= 7.62D-10
 IDIUse=1 WtCom= 1.00D+00 WtEn= 0.00D+00
 Coeff-Com: -0.499D-04 0.870D-04 0.586D-03 0.740D-02-0.501D-01-0.498D-01
 Coeff-Com:  0.109D+01
 Coeff:     -0.499D-04 0.870D-04 0.586D-03 0.740D-02-0.501D-01-0.498D-01
 Coeff:      0.109D+01
 Gap=     0.152 Goal=   None    Shift=    0.000
 Gap=     0.152 Goal=   None    Shift=    0.000
 RMSDP=2.72D-07 MaxDP=4.47D-06 DE=-5.87D-10 OVMax= 5.14D-06

 Cycle   8  Pass 1  IDiag  1:
 E= -581.141866308977     Delta-E=       -0.000000000031 Rises=F Damp=F
 DIIS: error= 5.56D-08 at cycle   8 NSaved=   8.
 NSaved= 8 IEnMin= 8 EnMin= -581.141866308977     IErMin= 8 ErrMin= 5.56D-08
 ErrMax= 5.56D-08  0.00D+00 EMaxC= 1.00D-01 BMatC= 6.30D-13 BMatP= 2.34D-11
 IDIUse=1 WtCom= 1.00D+00 WtEn= 0.00D+00
 Coeff-Com: -0.152D-05 0.335D-05-0.343D-04 0.246D-03 0.253D-02-0.424D-01
 Coeff-Com:  0.477D-02 0.103D+01
 Coeff:     -0.152D-05 0.335D-05-0.343D-04 0.246D-03 0.253D-02-0.424D-01
 Coeff:      0.477D-02 0.103D+01
 Gap=     0.152 Goal=   None    Shift=    0.000
 Gap=     0.152 Goal=   None    Shift=    0.000
 RMSDP=2.99D-08 MaxDP=4.12D-07 DE=-3.14D-11 OVMax= 6.45D-07

 Cycle   9  Pass 1  IDiag  1:
 E= -581.141866308978     Delta-E=       -0.000000000001 Rises=F Damp=F
 DIIS: error= 3.16D-09 at cycle   9 NSaved=   9.
 NSaved= 9 IEnMin= 9 EnMin= -581.141866308978     IErMin= 9 ErrMin= 3.16D-09
 ErrMax= 3.16D-09  0.00D+00 EMaxC= 1.00D-01 BMatC= 2.61D-15 BMatP= 6.30D-13
 IDIUse=1 WtCom= 1.00D+00 WtEn= 0.00D+00
 Coeff-Com:  0.821D-06-0.159D-05-0.960D-06-0.615D-04 0.886D-04 0.480D-02
 Coeff-Com: -0.924D-02-0.959D-01 0.110D+01
 Coeff:      0.821D-06-0.159D-05-0.960D-06-0.615D-04 0.886D-04 0.480D-02
 Coeff:     -0.924D-02-0.959D-01 0.110D+01
 Gap=     0.152 Goal=   None    Shift=    0.000
 Gap=     0.152 Goal=   None    Shift=    0.000
 RMSDP=2.94D-09 MaxDP=1.03D-07 DE=-9.09D-13 OVMax= 5.32D-08

 SCF Done:  E(UM062X) =  -581.141866309     A.U. after    9 cycles
            NFock=  9  Conv=0.29D-08     -V/T= 2.0012
 <Sx>= 0.0000 <Sy>= 0.0000 <Sz>= 0.0000 <S**2>=-0.0000 S=-0.0000
 <L.S>=  0.00000000000    
 KE= 5.804585412040D+02 PE=-1.483769441892D+03 EE= 2.726249427498D+02
 Annihilation of the first spin contaminant:
 S**2 before annihilation    -0.0000,   after     0.0000
 Leave Link  502 at Mon Apr 21 20:33:43 2025, MaxMem=   536870912 cpu:              63.1 elap:               8.4
 (Enter /home/szhao/Apps/g16/l601.exe)
 Copying SCF densities to generalized density rwf, IOpCl= 1 IROHF=0.

 **********************************************************************

            Population analysis using the SCF density.

 **********************************************************************

 Alpha  occ. eigenvalues --  -67.00190 -67.00190  -5.55108  -5.55107  -3.86360
 Alpha  occ. eigenvalues --   -3.86360  -3.85817  -3.85817  -3.85677  -3.85677
 Alpha  occ. eigenvalues --   -0.57671  -0.57575  -0.41582  -0.41548  -0.25752
 Alpha  occ. eigenvalues --   -0.22998
 Alpha virt. eigenvalues --   -0.07780  -0.07080   0.02427   0.03203   0.03211
 Alpha virt. eigenvalues --    0.04886   0.05484   0.06182   0.06499   0.08191
 Alpha virt. eigenvalues --    0.09056   0.09471   0.10347   0.12663   0.28490
 Alpha virt. eigenvalues --    0.29931   0.30336   0.30776   0.30858   0.33369
 Alpha virt. eigenvalues --    0.37240   0.41477   0.42168   0.46859   0.47254
 Alpha virt. eigenvalues --    0.49537   0.59521   0.59521   0.63013   0.63024
 Alpha virt. eigenvalues --    0.63410   0.63977   0.81488   0.81608   0.90333
 Alpha virt. eigenvalues --    0.91016   1.22321   1.22459   1.23026   1.23897
 Alpha virt. eigenvalues --    1.24797   1.27290   1.39756   1.40549   1.48939
 Alpha virt. eigenvalues --    1.48968   1.49195   1.49195   1.61086   1.61289
 Alpha virt. eigenvalues --    1.92185   1.92368   2.09873   2.11383   2.59797
 Alpha virt. eigenvalues --    2.62148   2.62994   2.64112   5.53663   5.56254
 Alpha virt. eigenvalues --   11.45928  11.47157  11.51643  11.54101  11.60858
 Alpha virt. eigenvalues --   11.61762 141.11043 141.13847
  Beta  occ. eigenvalues --  -67.00190 -67.00190  -5.55108  -5.55107  -3.86360
  Beta  occ. eigenvalues --   -3.86360  -3.85817  -3.85817  -3.85677  -3.85677
  Beta  occ. eigenvalues --   -0.57671  -0.57575  -0.41582  -0.41548  -0.25752
  Beta  occ. eigenvalues --   -0.22998
  Beta virt. eigenvalues --   -0.07780  -0.07080   0.02427   0.03203   0.03211
  Beta virt. eigenvalues --    0.04886   0.05484   0.06182   0.06499   0.08191
  Beta virt. eigenvalues --    0.09056   0.09471   0.10347   0.12663   0.28490
  Beta virt. eigenvalues --    0.29931   0.30336   0.30776   0.30858   0.33369
  Beta virt. eigenvalues --    0.37240   0.41477   0.42168   0.46859   0.47254
  Beta virt. eigenvalues --    0.49537   0.59521   0.59521   0.63013   0.63024
  Beta virt. eigenvalues --    0.63410   0.63977   0.81488   0.81608   0.90333
  Beta virt. eigenvalues --    0.91016   1.22321   1.22459   1.23026   1.23897
  Beta virt. eigenvalues --    1.24797   1.27290   1.39756   1.40549   1.48939
  Beta virt. eigenvalues --    1.48968   1.49195   1.49195   1.61086   1.61289
  Beta virt. eigenvalues --    1.92185   1.92368   2.09873   2.11383   2.59797
  Beta virt. eigenvalues --    2.62148   2.62994   2.64112   5.53663   5.56254
  Beta virt. eigenvalues --   11.45928  11.47157  11.51643  11.54101  11.60858
  Beta virt. eigenvalues --   11.61762 141.11043 141.13847
          Condensed to atoms (all electrons):
               1          2          3          4          5          6
     1  Si  13.399443  -0.128206   0.211944   0.005063   0.211946   0.005063
     2  Si  -0.128206  13.399443   0.005063   0.211944   0.005063   0.211946
     3  H    0.211944   0.005063   0.936161  -0.000003  -0.005780  -0.000011
     4  H    0.005063   0.211944  -0.000003   0.936161  -0.000011  -0.005780
     5  H    0.211946   0.005063  -0.005780  -0.000011   0.936160  -0.000003
     6  H    0.005063   0.211946  -0.000011  -0.005780  -0.000003   0.936160
          Atomic-Atomic Spin Densities.
               1          2          3          4          5          6
     1  Si   0.000000  -0.000000   0.000000   0.000000  -0.000000   0.000000
     2  Si  -0.000000   0.000000  -0.000000  -0.000000  -0.000000  -0.000000
     3  H    0.000000  -0.000000  -0.000000   0.000000  -0.000000   0.000000
     4  H    0.000000  -0.000000   0.000000   0.000000  -0.000000   0.000000
     5  H   -0.000000  -0.000000  -0.000000  -0.000000   0.000000   0.000000
     6  H    0.000000  -0.000000   0.000000   0.000000   0.000000   0.000000
 Mulliken charges and spin densities:
               1          2
     1  Si   0.294747   0.000000
     2  Si   0.294747  -0.000000
     3  H   -0.147373  -0.000000
     4  H   -0.147373   0.000000
     5  H   -0.147374  -0.000000
     6  H   -0.147374   0.000000
 Sum of Mulliken charges =  -0.00000  -0.00000
 Mulliken charges and spin densities with hydrogens summed into heavy atoms:
               1          2
     1  Si   0.000000  -0.000000
     2  Si  -0.000000  -0.000000
 Electronic spatial extent (au):  <R**2>=            716.8018
 Charge=             -0.0000 electrons
 Dipole moment (field-independent basis, Debye):
    X=              0.0000    Y=              0.0000    Z=              0.0002  Tot=              0.0002
 Quadrupole moment (field-independent basis, Debye-Ang):
   XX=            -29.3424   YY=            -31.9927   ZZ=            -24.4608
   XY=              0.0001   XZ=             -0.0000   YZ=              0.0024
 Traceless Quadrupole moment (field-independent basis, Debye-Ang):
   XX=             -0.7437   YY=             -3.3941   ZZ=              4.1378
   XY=              0.0001   XZ=             -0.0000   YZ=              0.0024
 Octapole moment (field-independent basis, Debye-Ang**2):
  XXX=              0.0000  YYY=              0.0000  ZZZ=              0.0001  XYY=              0.0000
  XXY=              0.0000  XXZ=             -0.0048  XZZ=             -0.0000  YZZ=              0.0000
  YYZ=             -0.0004  XYZ=              0.0081
 Hexadecapole moment (field-independent basis, Debye-Ang**3):
 XXXX=          -1193.1797 YYYY=            -94.0129 ZZZZ=            -34.6312 XXXY=              0.0017
 XXXZ=             -0.0000 YYYX=              0.0007 YYYZ=              0.0095 ZZZX=             -0.0000
 ZZZY=              0.0091 XXYY=           -217.0997 XXZZ=           -144.2248 YYZZ=            -21.2559
 XXYZ=              0.0228 YYXZ=             -0.0000 ZZXY=              0.0002
 N-N= 4.954409162931D+01 E-N=-1.483769441955D+03  KE= 5.804585412040D+02
                          Isotropic Fermi Contact Couplings
        Atom                 a.u.       MegaHertz       Gauss      10(-4) cm-1
     1  Si(29)            -0.00000       0.00000       0.00000       0.00000
     2  Si(29)             0.00000      -0.00000      -0.00000      -0.00000
     3  H(1)              -0.00000      -0.00000      -0.00000      -0.00000
     4  H(1)               0.00000       0.00000       0.00000       0.00000
     5  H(1)               0.00000       0.00000       0.00000       0.00000
     6  H(1)               0.00000       0.00000       0.00000       0.00000
 --------------------------------------------------------
       Center         ----  Spin Dipole Couplings  ----
                      3XX-RR        3YY-RR        3ZZ-RR
 --------------------------------------------------------
     1   Atom        0.000000      0.000000      0.000000
     2   Atom        0.000000      0.000000      0.000000
     3   Atom        0.000000      0.000000      0.000000
     4   Atom        0.000000      0.000000      0.000000
     5   Atom        0.000000      0.000000      0.000000
     6   Atom        0.000000      0.000000      0.000000
 --------------------------------------------------------
                        XY            XZ            YZ
 --------------------------------------------------------
     1   Atom        0.000000      0.000000      0.000000
     2   Atom        0.000000      0.000000      0.000000
     3   Atom        0.000000      0.000000      0.000000
     4   Atom        0.000000      0.000000      0.000000
     5   Atom        0.000000      0.000000      0.000000
     6   Atom        0.000000      0.000000      0.000000
 --------------------------------------------------------


 ---------------------------------------------------------------------------------
              Anisotropic Spin Dipole Couplings in Principal Axis System
 ---------------------------------------------------------------------------------

       Atom             a.u.   MegaHertz   Gauss  10(-4) cm-1        Axes

              Baa     0.0000    -0.000    -0.000    -0.000  1.0000  0.0000  0.0000
     1 Si(29) Bbb     0.0000    -0.000    -0.000    -0.000 -0.0000  1.0000  0.0000
              Bcc     0.0000    -0.000    -0.000    -0.000  0.0000  0.0000  1.0000
 
              Baa     0.0000    -0.000    -0.000    -0.000  1.0000  0.0000  0.0000
     2 Si(29) Bbb     0.0000    -0.000    -0.000    -0.000 -0.0000  1.0000  0.0000
              Bcc     0.0000    -0.000    -0.000    -0.000  0.0000  0.0000  1.0000
 
              Baa     0.0000     0.000     0.000     0.000  1.0000  0.0000  0.0000
     3 H(1)   Bbb     0.0000     0.000     0.000     0.000 -0.0000  1.0000  0.0000
              Bcc     0.0000     0.000     0.000     0.000  0.0000  0.0000  1.0000
 
              Baa     0.0000     0.000     0.000     0.000  1.0000  0.0000  0.0000
     4 H(1)   Bbb     0.0000     0.000     0.000     0.000 -0.0000  1.0000  0.0000
              Bcc     0.0000     0.000     0.000     0.000  0.0000  0.0000  1.0000
 
              Baa     0.0000     0.000     0.000     0.000  1.0000  0.0000  0.0000
     5 H(1)   Bbb     0.0000     0.000     0.000     0.000 -0.0000  1.0000  0.0000
              Bcc     0.0000     0.000     0.000     0.000  0.0000  0.0000  1.0000
 
              Baa     0.0000     0.000     0.000     0.000  1.0000  0.0000  0.0000
     6 H(1)   Bbb     0.0000     0.000     0.000     0.000 -0.0000  1.0000  0.0000
              Bcc     0.0000     0.000     0.000     0.000  0.0000  0.0000  1.0000
 

 ---------------------------------------------------------------------------------

 No NMR shielding tensors so no spin-rotation constants.
 Leave Link  601 at Mon Apr 21 20:33:44 2025, MaxMem=   536870912 cpu:               2.5 elap:               0.4
 (Enter /home/szhao/Apps/g16/l701.exe)
 ... and contract with generalized density number  0.
 Compute integral first derivatives.
 Leave Link  701 at Mon Apr 21 20:33:44 2025, MaxMem=   536870912 cpu:               1.6 elap:               0.4
 (Enter /home/szhao/Apps/g16/l702.exe)
 L702 exits ... SP integral derivatives will be done elsewhere.
 Leave Link  702 at Mon Apr 21 20:33:45 2025, MaxMem=   536870912 cpu:               0.5 elap:               0.2
 (Enter /home/szhao/Apps/g16/l703.exe)
 Integral derivatives from FoFJK, PRISM(SPDF).
 Compute integral first derivatives, UseDBF=F ICtDFT=           0.
 Calling FoFJK, ICntrl=      2127 FMM=F ISym2X=0 I1Cent= 0 IOpClX= 1 NMat=1 NMatS=1 NMatT=0.
 FoFJK:  IHMeth= 1 ICntrl=    2127 DoSepK=F KAlg= 0 I1Cent=           0 FoldK=F
 IRaf=         0 NMat=       1 IRICut=       1 DoRegI=T DoRafI=F ISym2E= 0 IDoP0=0 IntGTp=1.
 FoFCou: FMM=F IPFlag=           0 FMFlag=      100000 FMFlg1=         800
         NFxFlg=           0 DoJE=F BraDBF=F KetDBF=F FulRan=T
         wScrn=  0.000000 ICntrl=      2127 IOpCl=  1 I1Cent=           0 NGrid=           0
         NMat0=    1 NMatS0=      1 NMatT0=    0 NMatD0=    1 NMtDS0=    0 NMtDT0=    0
 Symmetry not used in FoFCou.
 Leave Link  703 at Mon Apr 21 20:33:46 2025, MaxMem=   536870912 cpu:               9.4 elap:               1.2
 (Enter /home/szhao/Apps/g16/l716.exe)
 Dipole        = 5.28185344D-07 7.56507887D-08 7.97531542D-05
 -------------------------------------------------------------------
 Center     Atomic                   Forces (Hartrees/Bohr)
 Number     Number              X              Y              Z
 -------------------------------------------------------------------
      1       14          -0.000000000   -0.000000000   -0.000000000
      2       14          -0.000000000   -0.000000000   -0.000000000
      3        1          -0.027871529    0.000101910    0.000002630
      4        1           0.027871635   -0.000101715    0.000002746
      5        1          -0.027869058   -0.000105648    0.000002654
      6        1           0.027869144    0.000105484    0.000002535
 -------------------------------------------------------------------
 Cartesian Forces:  Max     0.027871635 RMS     0.013138296
 Leave Link  716 at Mon Apr 21 20:33:47 2025, MaxMem=   536870912 cpu:               0.7 elap:               0.6
 (Enter /home/szhao/Apps/g16/l103.exe)

 GradGradGradGradGradGradGradGradGradGradGradGradGradGradGradGradGradGrad
 Berny optimization.
 FormGI is forming the generalized inverse of G from B-inverse, IUseBI=4.
 Internal  Forces:  Max     0.055740779 RMS     0.025368766
 Search for a local minimum.
 Step number   1 out of a maximum of   30
 All quantities printed in internal units (Hartrees-Bohrs-Radians)
 RMS Force = .21807D-01 SwitMx=.10000D-02 MixMth= 1
 Mixed Optimization -- RFO/linear search
 Second derivative matrix not updated -- first step.
 The second derivative matrix:
                          X1        Y1        Z1        X2        Y2
           X1           0.50000
           Y1           0.00000   0.50000
           Z1           0.00000   0.00000   0.50000
           X2           0.00000   0.00000   0.00000   0.50000
           Y2           0.00000   0.00000   0.00000   0.00000   0.50000
           Z2           0.00000   0.00000   0.00000   0.00000   0.00000
           R1           0.00000   0.00000   0.00000   0.00000   0.00000
           R2           0.00000   0.00000   0.00000   0.00000   0.00000
           R3           0.00000   0.00000   0.00000   0.00000   0.00000
           R4           0.00000   0.00000   0.00000   0.00000   0.00000
           A1           0.00000   0.00000   0.00000   0.00000   0.00000
           A2           0.00000   0.00000   0.00000   0.00000   0.00000
           A3           0.00000   0.00000   0.00000   0.00000   0.00000
           A4           0.00000   0.00000   0.00000   0.00000   0.00000
           A5           0.00000   0.00000   0.00000   0.00000   0.00000
           A6           0.00000   0.00000   0.00000   0.00000   0.00000
           D1           0.00000   0.00000   0.00000   0.00000   0.00000
           D2           0.00000   0.00000   0.00000   0.00000   0.00000
           D3           0.00000   0.00000   0.00000   0.00000   0.00000
           D4           0.00000   0.00000   0.00000   0.00000   0.00000
                          Z2        R1        R2        R3        R4
           Z2           0.50000
           R1           0.00000   0.18116
           R2           0.00000   0.00000   0.18115
           R3           0.00000   0.00000   0.00000   0.18116
           R4           0.00000   0.00000   0.00000   0.00000   0.18115
           A1           0.00000   0.00000   0.00000   0.00000   0.00000
           A2           0.00000   0.00000   0.00000   0.00000   0.00000
           A3           0.00000   0.00000   0.00000   0.00000   0.00000
           A4           0.00000   0.00000   0.00000   0.00000   0.00000
           A5           0.00000   0.00000   0.00000   0.00000   0.00000
           A6           0.00000   0.00000   0.00000   0.00000   0.00000
           D1           0.00000   0.00000   0.00000   0.00000   0.00000
           D2           0.00000   0.00000   0.00000   0.00000   0.00000
           D3           0.00000   0.00000   0.00000   0.00000   0.00000
           D4           0.00000   0.00000   0.00000   0.00000   0.00000
                          A1        A2        A3        A4        A5
           A1           0.16000
           A2           0.00000   0.16000
           A3           0.00000   0.00000   0.16000
           A4           0.00000   0.00000   0.00000   0.16000
           A5           0.00000   0.00000   0.00000   0.00000   0.16000
           A6           0.00000   0.00000   0.00000   0.00000   0.00000
           D1           0.00000   0.00000   0.00000   0.00000   0.00000
           D2           0.00000   0.00000   0.00000   0.00000   0.00000
           D3           0.00000   0.00000   0.00000   0.00000   0.00000
           D4           0.00000   0.00000   0.00000   0.00000   0.00000
                          A6        D1        D2        D3        D4
           A6           0.16000
           D1           0.00000   0.00230
           D2           0.00000   0.00000   0.00230
           D3           0.00000   0.00000   0.00000   0.00230
           D4           0.00000   0.00000   0.00000   0.00000   0.00230
 ITU=  0
     Eigenvalues ---    0.00230   0.00230   0.00230   0.16000   0.16000
     Eigenvalues ---    0.16000   0.16000   0.18115   0.18115   0.18116
     Eigenvalues ---    0.181161000.000001000.000001000.000001000.00000
     Eigenvalues --- 1000.000001000.000001000.000001000.000001000.00000
 RFO step:  Lambda=-3.38970847D-02 EMin= 2.30000000D-03
 Linear search not attempted -- first point.
 Maximum step size (   0.300) exceeded in Quadratic search.
    -- Step size scaled by   0.722
 Iteration  1 RMS(Cart)=  0.10348012 RMS(Int)=  0.00421667
 Iteration  2 RMS(Cart)=  0.00472343 RMS(Int)=  0.00000577
 Iteration  3 RMS(Cart)=  0.00000869 RMS(Int)=  0.00000000
 Iteration  4 RMS(Cart)=  0.00000000 RMS(Int)=  0.00000000
 ITry= 1 IFail=0 DXMaxC= 2.17D-01 DCOld= 1.00D+10 DXMaxT= 3.00D-01 DXLimC= 3.00D+00 Rises=F
 Variable       Old X    -DE/DX   Delta X   Delta X   Delta X     New X
                                 (Linear)    (Quad)   (Total)
    X1       -4.22830  -0.05574   0.00000   0.00000   0.00000  -4.22830
    Y1        0.00000  -0.00000   0.00000   0.00000   0.00000   0.00000
    Z1        0.00000   0.00001   0.00000   0.00000   0.00000   0.00000
    X2        4.22830   0.05574   0.00000   0.00000   0.00000   4.22830
    Y2        0.00000   0.00000   0.00000   0.00000   0.00000   0.00000
    Z2        0.00000   0.00001   0.00000   0.00000   0.00000   0.00000
    R1        2.78324   0.01469   0.00000   0.04930   0.04930   2.83254
    R2        2.78326   0.01469   0.00000   0.04929   0.04929   2.83255
    R3        2.78324   0.01469   0.00000   0.04930   0.04930   2.83254
    R4        2.78326   0.01469   0.00000   0.04929   0.04929   2.83255
    A1        2.12963   0.02197   0.00000   0.08179   0.08179   2.21143
    A2        2.12964   0.02197   0.00000   0.08179   0.08179   2.21143
    A3        2.02391  -0.04395   0.00000  -0.16358  -0.16358   1.86033
    A4        2.12963   0.02197   0.00000   0.08179   0.08179   2.21143
    A5        2.12964   0.02197   0.00000   0.08179   0.08179   2.21143
    A6        2.02391  -0.04395   0.00000  -0.16358  -0.16358   1.86033
    D1        3.14097   0.00000   0.00000   0.00005   0.00005   3.14101
    D2       -0.00074   0.00000   0.00000   0.00000   0.00000  -0.00074
    D3       -0.00074   0.00000   0.00000   0.00000   0.00000  -0.00074
    D4        3.14074  -0.00000   0.00000  -0.00004  -0.00004   3.14069
         Item               Value     Threshold  Converged?
 Maximum Force            0.043948     0.000450     NO 
 RMS     Force            0.021807     0.000300     NO 
 Maximum Displacement     0.217336     0.001800     NO 
 RMS     Displacement     0.105016     0.001200     NO 
 Predicted change in Energy=-1.716143D-02
 Lowest energy point so far.  Saving SCF results.
 GradGradGradGradGradGradGradGradGradGradGradGradGradGradGradGradGradGrad

 Leave Link  103 at Mon Apr 21 20:33:48 2025, MaxMem=   536870912 cpu:               2.0 elap:               0.5
 (Enter /home/szhao/Apps/g16/l202.exe)
                          Input orientation:                          
 ---------------------------------------------------------------------
 Center     Atomic      Atomic             Coordinates (Angstroms)
 Number     Number       Type             X           Y           Z
 ---------------------------------------------------------------------
      1         14           0       -2.237518    0.000000    0.000000
      2         14           0        2.237518    0.000000    0.000000
      3          1           0       -3.133421   -1.201712    0.000010
      4          1           0        3.133421    1.201712   -0.000709
      5          1           0       -3.133429    1.201712    0.000181
      6          1           0        3.133429   -1.201712    0.000899
 ---------------------------------------------------------------------
                    Distance matrix (angstroms):
                    1          2          3          4          5
     1  Si   0.000000
     2  Si   4.475036   0.000000
     3  H    1.498918   5.503735   0.000000
     4  H    5.503735   1.498918   6.711912   0.000000
     5  H    1.498922   5.503742   2.403425   6.266850   0.000000
     6  H    5.503742   1.498922   6.266850   2.403424   6.711926
                    6
     6  H    0.000000
 Symmetry turned off by external request.
 Stoichiometry    H4Si2
 Framework group  C1[X(H4Si2)]
 Deg. of freedom    12
 Full point group                 C1      NOp   1
 Rotational constants (GHZ):          86.8102741           1.5807273           1.5524586
 Leave Link  202 at Mon Apr 21 20:33:48 2025, MaxMem=   536870912 cpu:               0.2 elap:               0.1
 (Enter /home/szhao/Apps/g16/l301.exe)
 Standard basis: 6-311+G(d,p) (5D, 7F)
 Ernie: Thresh=  0.10000D-02 Tol=  0.10000D-05 Strict=F.
    84 basis functions,   132 primitive gaussians,    86 cartesian basis functions
    16 alpha electrons       16 beta electrons
       nuclear repulsion energy        49.0986104104 Hartrees.
 IExCor= 4336 DFT=T Ex+Corr=M062X ExCW=0 ScaHFX=  0.540000
 ScaDFX=  1.000000  1.000000  1.000000  1.000000 ScalE2=  1.000000  1.000000
 IRadAn=      7 IRanWt=     -1 IRanGd=            0 ICorTp=0 IEmpDi=  4
 NAtoms=    6 NActive=    6 NUniq=    6 SFac= 1.00D+00 NAtFMM=   60 NAOKFM=F Big=F
 Integral buffers will be    131072 words long.
 Raffenetti 2 integral format.
 Two-electron integral symmetry is turned off.
 Leave Link  301 at Mon Apr 21 20:33:49 2025, MaxMem=   536870912 cpu:               0.5 elap:               0.1
 (Enter /home/szhao/Apps/g16/l302.exe)
 NPDir=0 NMtPBC=     1 NCelOv=     1 NCel=       1 NClECP=     1 NCelD=      1
         NCelK=      1 NCelE2=     1 NClLst=     1 CellRange=     0.0.
 One-electron integrals computed using PRISM.
 NBasis=    84 RedAO= T EigKep=  1.31D-02  NBF=    84
 NBsUse=    84 1.00D-06 EigRej= -1.00D+00 NBFU=    84
 Precomputing XC quadrature grid using
 IXCGrd= 4 IRadAn=           7 IRanWt=          -1 IRanGd=           0 AccXCQ= 0.00D+00.
 Generated NRdTot=       0 NPtTot=           0 NUsed=           0 NTot=          32
 NSgBfM=    76    76    76    76    76 MxSgAt=     6 MxSgA2=     6.
 Leave Link  302 at Mon Apr 21 20:33:49 2025, MaxMem=   536870912 cpu:               2.6 elap:               0.4
 (Enter /home/szhao/Apps/g16/l303.exe)
 DipDrv:  MaxL=1.
 Leave Link  303 at Mon Apr 21 20:33:50 2025, MaxMem=   536870912 cpu:               0.8 elap:               0.3
 (Enter /home/szhao/Apps/g16/l401.exe)
 Initial guess from the checkpoint file:  "opt.chk"
 B after Tr=     0.000000    0.000000    0.000006
         Rot=    1.000000   -0.000007   -0.000000   -0.000000 Ang=  -0.00 deg.
 Guess basis will be translated and rotated to current coordinates.
 JPrj=2 DoOrth=T DoCkMO=T.
 Initial guess <Sx>= 0.0000 <Sy>= 0.0000 <Sz>= 0.0000 <S**2>= 0.0000 S= 0.0000
 Generating alternative initial guess.
 ExpMin= 3.31D-02 ExpMax= 6.94D+04 ExpMxC= 2.33D+03 IAcc=3 IRadAn=         5 AccDes= 0.00D+00
 Harris functional with IExCor= 1009 and IRadAn=       5 diagonalized for initial guess.
 HarFok:  IExCor= 1009 AccDes= 0.00D+00 IRadAn=         5 IDoV= 1 UseB2=F ITyADJ=14
 ICtDFT=  3500011 ScaDFX=  1.000000  1.000000  1.000000  1.000000
 FoFCou: FMM=F IPFlag=           0 FMFlag=      100000 FMFlg1=           0
         NFxFlg=           0 DoJE=T BraDBF=F KetDBF=T FulRan=T
         wScrn=  0.000000 ICntrl=       500 IOpCl=  0 I1Cent=   200000004 NGrid=           0
         NMat0=    1 NMatS0=      1 NMatT0=    0 NMatD0=    1 NMtDS0=    0 NMtDT0=    0
 Symmetry not used in FoFCou.
 Harris En= -580.851596443459    
 Leave Link  401 at Mon Apr 21 20:33:51 2025, MaxMem=   536870912 cpu:               3.5 elap:               0.5
 (Enter /home/szhao/Apps/g16/l502.exe)
 Keep R1 and R2 ints in memory in canonical form, NReq=20057634.
 FoFCou: FMM=F IPFlag=           0 FMFlag=           0 FMFlg1=           0
         NFxFlg=           0 DoJE=F BraDBF=F KetDBF=F FulRan=T
         wScrn=  0.000000 ICntrl=       600 IOpCl=  0 I1Cent=           0 NGrid=           0
         NMat0=    1 NMatS0=   3570 NMatT0=    0 NMatD0=    1 NMtDS0=    0 NMtDT0=    0
 Symmetry not used in FoFCou.
 Two-electron integral symmetry not used.
 UHF open shell SCF:
 Using DIIS extrapolation, IDIIS=  1040.
 NGot=   536870912 LenX=   524106186 LenY=   524098349
 Requested convergence on RMS density matrix=1.00D-08 within 128 cycles.
 Requested convergence on MAX density matrix=1.00D-06.
 Requested convergence on             energy=1.00D-06.
 No special actions if energy rises.

 Cycle   1  Pass 1  IDiag  1:
 E= -581.160205668356    
 DIIS: error= 3.92D-03 at cycle   1 NSaved=   1.
 NSaved= 1 IEnMin= 1 EnMin= -581.160205668356     IErMin= 1 ErrMin= 3.92D-03
 ErrMax= 3.92D-03  0.00D+00 EMaxC= 1.00D-01 BMatC= 3.49D-03 BMatP= 3.49D-03
 IDIUse=3 WtCom= 9.61D-01 WtEn= 3.92D-02
 Coeff-Com:  0.100D+01
 Coeff-En:   0.100D+01
 Coeff:      0.100D+01
 Gap=     0.476 Goal=   None    Shift=    0.000
 Gap=     0.476 Goal=   None    Shift=    0.000
 GapD=    0.476 DampG=2.000 DampE=1.000 DampFc=2.0000 IDamp=-1.
 RMSDP=5.21D-04 MaxDP=5.63D-03              OVMax= 1.53D-02

 Cycle   2  Pass 1  IDiag  1:
 E= -581.161614788584     Delta-E=       -0.001409120229 Rises=F Damp=F
 DIIS: error= 4.58D-04 at cycle   2 NSaved=   2.
 NSaved= 2 IEnMin= 2 EnMin= -581.161614788584     IErMin= 2 ErrMin= 4.58D-04
 ErrMax= 4.58D-04  0.00D+00 EMaxC= 1.00D-01 BMatC= 8.48D-05 BMatP= 3.49D-03
 IDIUse=3 WtCom= 9.95D-01 WtEn= 4.58D-03
 Coeff-Com: -0.543D-01 0.105D+01
 Coeff-En:   0.000D+00 0.100D+01
 Coeff:     -0.541D-01 0.105D+01
 Gap=     0.166 Goal=   None    Shift=    0.000
 Gap=     0.166 Goal=   None    Shift=    0.000
 RMSDP=1.67D-04 MaxDP=4.42D-03 DE=-1.41D-03 OVMax= 3.80D-03

 Cycle   3  Pass 1  IDiag  1:
 E= -581.161667274691     Delta-E=       -0.000052486106 Rises=F Damp=F
 DIIS: error= 1.60D-04 at cycle   3 NSaved=   3.
 NSaved= 3 IEnMin= 3 EnMin= -581.161667274691     IErMin= 3 ErrMin= 1.60D-04
 ErrMax= 1.60D-04  0.00D+00 EMaxC= 1.00D-01 BMatC= 1.10D-05 BMatP= 8.48D-05
 IDIUse=3 WtCom= 9.98D-01 WtEn= 1.60D-03
 Coeff-Com: -0.302D-01 0.224D+00 0.807D+00
 Coeff-En:   0.000D+00 0.000D+00 0.100D+01
 Coeff:     -0.302D-01 0.223D+00 0.807D+00
 Gap=     0.166 Goal=   None    Shift=    0.000
 Gap=     0.166 Goal=   None    Shift=    0.000
 RMSDP=3.62D-05 MaxDP=5.19D-04 DE=-5.25D-05 OVMax= 9.45D-04

 Cycle   4  Pass 1  IDiag  1:
 E= -581.161670429371     Delta-E=       -0.000003154680 Rises=F Damp=F
 DIIS: error= 3.58D-05 at cycle   4 NSaved=   4.
 NSaved= 4 IEnMin= 4 EnMin= -581.161670429371     IErMin= 4 ErrMin= 3.58D-05
 ErrMax= 3.58D-05  0.00D+00 EMaxC= 1.00D-01 BMatC= 4.31D-07 BMatP= 1.10D-05
 IDIUse=1 WtCom= 1.00D+00 WtEn= 0.00D+00
 Coeff-Com:  0.210D-02-0.621D-01 0.426D-01 0.102D+01
 Coeff:      0.210D-02-0.621D-01 0.426D-01 0.102D+01
 Gap=     0.166 Goal=   None    Shift=    0.000
 Gap=     0.166 Goal=   None    Shift=    0.000
 RMSDP=1.87D-05 MaxDP=5.20D-04 DE=-3.15D-06 OVMax= 3.36D-04

 Cycle   5  Pass 1  IDiag  1:
 E= -581.161670663919     Delta-E=       -0.000000234549 Rises=F Damp=F
 DIIS: error= 6.40D-06 at cycle   5 NSaved=   5.
 NSaved= 5 IEnMin= 5 EnMin= -581.161670663919     IErMin= 5 ErrMin= 6.40D-06
 ErrMax= 6.40D-06  0.00D+00 EMaxC= 1.00D-01 BMatC= 6.58D-09 BMatP= 4.31D-07
 IDIUse=1 WtCom= 1.00D+00 WtEn= 0.00D+00
 Coeff-Com:  0.915D-03-0.107D-01-0.461D-02 0.587D-01 0.956D+00
 Coeff:      0.915D-03-0.107D-01-0.461D-02 0.587D-01 0.956D+00
 Gap=     0.166 Goal=   None    Shift=    0.000
 Gap=     0.166 Goal=   None    Shift=    0.000
 RMSDP=3.44D-06 MaxDP=1.03D-04 DE=-2.35D-07 OVMax= 5.05D-05

 Cycle   6  Pass 1  IDiag  1:
 E= -581.161670669045     Delta-E=       -0.000000005126 Rises=F Damp=F
 DIIS: error= 1.06D-06 at cycle   6 NSaved=   6.
 NSaved= 6 IEnMin= 6 EnMin= -581.161670669045     IErMin= 6 ErrMin= 1.06D-06
 ErrMax= 1.06D-06  0.00D+00 EMaxC= 1.00D-01 BMatC= 2.69D-10 BMatP= 6.58D-09
 IDIUse=1 WtCom= 1.00D+00 WtEn= 0.00D+00
 Coeff-Com: -0.130D-03 0.292D-02-0.265D-02-0.366D-01 0.498D-03 0.104D+01
 Coeff:     -0.130D-03 0.292D-02-0.265D-02-0.366D-01 0.498D-03 0.104D+01
 Gap=     0.166 Goal=   None    Shift=    0.000
 Gap=     0.166 Goal=   None    Shift=    0.000
 RMSDP=7.63D-07 MaxDP=1.99D-05 DE=-5.13D-09 OVMax= 1.04D-05

 Cycle   7  Pass 1  IDiag  1:
 E= -581.161670669254     Delta-E=       -0.000000000208 Rises=F Damp=F
 DIIS: error= 1.47D-07 at cycle   7 NSaved=   7.
 NSaved= 7 IEnMin= 7 EnMin= -581.161670669254     IErMin= 7 ErrMin= 1.47D-07
 ErrMax= 1.47D-07  0.00D+00 EMaxC= 1.00D-01 BMatC= 4.53D-12 BMatP= 2.69D-10
 IDIUse=1 WtCom= 1.00D+00 WtEn= 0.00D+00
 Coeff-Com: -0.189D-05-0.111D-03 0.251D-03 0.216D-02-0.111D-01-0.171D+00
 Coeff-Com:  0.118D+01
 Coeff:     -0.189D-05-0.111D-03 0.251D-03 0.216D-02-0.111D-01-0.171D+00
 Coeff:      0.118D+01
 Gap=     0.166 Goal=   None    Shift=    0.000
 Gap=     0.166 Goal=   None    Shift=    0.000
 RMSDP=1.41D-07 MaxDP=3.96D-06 DE=-2.08D-10 OVMax= 2.05D-06

 Cycle   8  Pass 1  IDiag  1:
 E= -581.161670669259     Delta-E=       -0.000000000005 Rises=F Damp=F
 DIIS: error= 1.20D-08 at cycle   8 NSaved=   8.
 NSaved= 8 IEnMin= 8 EnMin= -581.161670669259     IErMin= 8 ErrMin= 1.20D-08
 ErrMax= 1.20D-08  0.00D+00 EMaxC= 1.00D-01 BMatC= 4.61D-14 BMatP= 4.53D-12
 IDIUse=1 WtCom= 1.00D+00 WtEn= 0.00D+00
 Coeff-Com:  0.183D-05-0.236D-04-0.109D-04 0.331D-03 0.116D-02 0.767D-03
 Coeff-Com: -0.717D-01 0.107D+01
 Coeff:      0.183D-05-0.236D-04-0.109D-04 0.331D-03 0.116D-02 0.767D-03
 Coeff:     -0.717D-01 0.107D+01
 Gap=     0.166 Goal=   None    Shift=    0.000
 Gap=     0.166 Goal=   None    Shift=    0.000
 RMSDP=4.23D-09 MaxDP=9.89D-08 DE=-5.46D-12 OVMax= 1.27D-07

 SCF Done:  E(UM062X) =  -581.161670669     A.U. after    8 cycles
            NFock=  8  Conv=0.42D-08     -V/T= 2.0014
 <Sx>= 0.0000 <Sy>= 0.0000 <Sz>= 0.0000 <S**2>=-0.0000 S=-0.0000
 <L.S>=  0.00000000000    
 KE= 5.803773904648D+02 PE=-1.482770724358D+03 EE= 2.721330528132D+02
 Annihilation of the first spin contaminant:
 S**2 before annihilation    -0.0000,   after    -0.0000
 Leave Link  502 at Mon Apr 21 20:33:58 2025, MaxMem=   536870912 cpu:              53.3 elap:               7.1
 (Enter /home/szhao/Apps/g16/l701.exe)
 ... and contract with generalized density number  0.
 Compute integral first derivatives.
 Leave Link  701 at Mon Apr 21 20:33:59 2025, MaxMem=   536870912 cpu:               1.4 elap:               0.2
 (Enter /home/szhao/Apps/g16/l702.exe)
 L702 exits ... SP integral derivatives will be done elsewhere.
 Leave Link  702 at Mon Apr 21 20:33:59 2025, MaxMem=   536870912 cpu:               0.4 elap:               0.1
 (Enter /home/szhao/Apps/g16/l703.exe)
 Integral derivatives from FoFJK, PRISM(SPDF).
 Compute integral first derivatives, UseDBF=F ICtDFT=           0.
 Calling FoFJK, ICntrl=      2127 FMM=F ISym2X=0 I1Cent= 0 IOpClX= 1 NMat=1 NMatS=1 NMatT=0.
 FoFJK:  IHMeth= 1 ICntrl=    2127 DoSepK=F KAlg= 0 I1Cent=           0 FoldK=F
 IRaf=         0 NMat=       1 IRICut=       1 DoRegI=T DoRafI=F ISym2E= 0 IDoP0=0 IntGTp=1.
 FoFCou: FMM=F IPFlag=           0 FMFlag=      100000 FMFlg1=         800
         NFxFlg=           0 DoJE=F BraDBF=F KetDBF=F FulRan=T
         wScrn=  0.000000 ICntrl=      2127 IOpCl=  1 I1Cent=           0 NGrid=           0
         NMat0=    1 NMatS0=      1 NMatT0=    0 NMatD0=    1 NMtDS0=    0 NMtDT0=    0
 Symmetry not used in FoFCou.
 Leave Link  703 at Mon Apr 21 20:34:00 2025, MaxMem=   536870912 cpu:               8.6 elap:               1.1
 (Enter /home/szhao/Apps/g16/l716.exe)
 Dipole        = 1.54243678D-07 3.69707651D-08 5.96743084D-05
 -------------------------------------------------------------------
 Center     Atomic                   Forces (Hartrees/Bohr)
 Number     Number              X              Y              Z
 -------------------------------------------------------------------
      1       14          -0.000000000   -0.000000000   -0.000000000
      2       14          -0.000000000   -0.000000000   -0.000000000
      3        1          -0.015469701    0.004408064    0.000002018
      4        1           0.015469740   -0.004407989    0.000004739
      5        1          -0.015468739   -0.004409334    0.000001422
      6        1           0.015468771    0.004409271   -0.000001300
 -------------------------------------------------------------------
 Cartesian Forces:  Max     0.015469740 RMS     0.007582636
 Leave Link  716 at Mon Apr 21 20:34:00 2025, MaxMem=   536870912 cpu:               0.6 elap:               0.1
 (Enter /home/szhao/Apps/g16/l103.exe)

 GradGradGradGradGradGradGradGradGradGradGradGradGradGradGradGradGradGrad
 Berny optimization.
 Using GEDIIS/GDIIS optimizer.
 FormGI is forming the generalized inverse of G from B-inverse, IUseBI=4.
 Internal  Forces:  Max     0.030938512 RMS     0.014939486
 Search for a local minimum.
 Step number   2 out of a maximum of   30
 All quantities printed in internal units (Hartrees-Bohrs-Radians)
 RMS Force = .13494D-01 SwitMx=.10000D-02 MixMth= 1
 Mixed Optimization -- RFO/linear search
 Update second derivatives using D2CorX and points    1    2
 DE= -1.98D-02 DEPred=-1.72D-02 R= 1.15D+00
 TightC=F SS=  1.41D+00  RLast= 3.00D-01 DXNew= 5.0454D-01 9.0000D-01
 Trust test= 1.15D+00 RLast= 3.00D-01 DXMaxT set to 5.05D-01
 The second derivative matrix:
                          X1        Y1        Z1        X2        Y2
           X1           0.56542
           Y1           0.00001   0.50000
           Z1          -0.00000  -0.00000   0.50000
           X2          -0.06542  -0.00001   0.00000   0.56542
           Y2          -0.00001  -0.00000   0.00000   0.00001   0.50000
           Z2          -0.00000  -0.00000   0.00000   0.00000   0.00000
           R1          -0.02368  -0.00000   0.00000   0.02368   0.00000
           R2          -0.02368  -0.00000   0.00000   0.02368   0.00000
           R3          -0.02368  -0.00000   0.00000   0.02368   0.00000
           R4          -0.02368  -0.00000   0.00000   0.02368   0.00000
           A1          -0.02051  -0.00000   0.00000   0.02051   0.00000
           A2          -0.02051  -0.00000   0.00000   0.02051   0.00000
           A3           0.04102   0.00000  -0.00000  -0.04102  -0.00000
           A4          -0.02051  -0.00000   0.00000   0.02051   0.00000
           A5          -0.02051  -0.00000   0.00000   0.02051   0.00000
           A6           0.04102   0.00000  -0.00000  -0.04102  -0.00000
           D1          -0.00000  -0.00000   0.00000   0.00000   0.00000
           D2           0.00000   0.00000  -0.00000  -0.00000  -0.00000
           D3           0.00000   0.00000  -0.00000  -0.00000  -0.00000
           D4           0.00000   0.00000  -0.00000  -0.00000  -0.00000
                          Z2        R1        R2        R3        R4
           Z2           0.50000
           R1           0.00000   0.18427
           R2           0.00000   0.00311   0.18426
           R3           0.00000   0.00311   0.00311   0.18427
           R4           0.00000   0.00311   0.00311   0.00311   0.18426
           A1           0.00000  -0.00058  -0.00058  -0.00058  -0.00058
           A2           0.00000  -0.00058  -0.00058  -0.00058  -0.00058
           A3          -0.00000   0.00115   0.00115   0.00115   0.00115
           A4           0.00000  -0.00058  -0.00058  -0.00058  -0.00058
           A5           0.00000  -0.00058  -0.00058  -0.00058  -0.00058
           A6          -0.00000   0.00115   0.00115   0.00115   0.00115
           D1           0.00000   0.00000   0.00000   0.00000   0.00000
           D2          -0.00000  -0.00000  -0.00000  -0.00000  -0.00000
           D3          -0.00000  -0.00000  -0.00000  -0.00000  -0.00000
           D4          -0.00000  -0.00000  -0.00000  -0.00000  -0.00000
                          A1        A2        A3        A4        A5
           A1           0.15471
           A2          -0.00529   0.15471
           A3           0.01059   0.01059   0.13882
           A4          -0.00529  -0.00529   0.01059   0.15471
           A5          -0.00529  -0.00529   0.01059  -0.00529   0.15471
           A6           0.01059   0.01059  -0.02118   0.01059   0.01059
           D1           0.00000   0.00000  -0.00000   0.00000   0.00000
           D2          -0.00000  -0.00000   0.00000  -0.00000  -0.00000
           D3          -0.00000  -0.00000   0.00000  -0.00000  -0.00000
           D4          -0.00000  -0.00000   0.00000  -0.00000  -0.00000
                          A6        D1        D2        D3        D4
           A6           0.13882
           D1          -0.00000   0.00230
           D2           0.00000  -0.00000   0.00230
           D3           0.00000  -0.00000   0.00000   0.00230
           D4           0.00000  -0.00000   0.00000   0.00000   0.00230
 ITU=  1  0
 Use linear search instead of GDIIS.
     Eigenvalues ---    0.00230   0.00230   0.00230   0.09630   0.16000
     Eigenvalues ---    0.16000   0.16000   0.18115   0.18115   0.18116
     Eigenvalues ---    0.193761000.000001000.000001000.000001000.00000
     Eigenvalues --- 1000.000001000.000001000.000001000.000001000.00000
 RFO step:  Lambda=-1.70717406D-03 EMin= 2.30000000D-03
 Quartic linear search produced a step of  1.50051.
 Iteration  1 RMS(Cart)=  0.14259834 RMS(Int)=  0.02330139
 Iteration  2 RMS(Cart)=  0.03738704 RMS(Int)=  0.00053726
 Iteration  3 RMS(Cart)=  0.00056254 RMS(Int)=  0.00000005
 Iteration  4 RMS(Cart)=  0.00000009 RMS(Int)=  0.00000000
 ITry= 1 IFail=0 DXMaxC= 3.20D-01 DCOld= 1.00D+10 DXMaxT= 5.05D-01 DXLimC= 3.00D+00 Rises=F
 Variable       Old X    -DE/DX   Delta X   Delta X   Delta X     New X
                                 (Linear)    (Quad)   (Total)
    X1       -4.22830  -0.03094   0.00000   0.00000   0.00000  -4.22830
    Y1        0.00000  -0.00000   0.00000   0.00000   0.00000   0.00000
    Z1        0.00000   0.00000   0.00000   0.00000   0.00000   0.00000
    X2        4.22830   0.03094   0.00000   0.00000   0.00000   4.22830
    Y2        0.00000   0.00000   0.00000   0.00000   0.00000   0.00000
    Z2        0.00000   0.00000   0.00000   0.00000   0.00000   0.00000
    R1        2.83254   0.00571   0.07398  -0.04184   0.03214   2.86468
    R2        2.83255   0.00571   0.07396  -0.04183   0.03213   2.86469
    R3        2.83254   0.00571   0.07398  -0.04184   0.03214   2.86468
    R4        2.83255   0.00571   0.07396  -0.04183   0.03213   2.86469
    A1        2.21143   0.01420   0.12273   0.01596   0.13869   2.35012
    A2        2.21143   0.01420   0.12273   0.01596   0.13869   2.35012
    A3        1.86033  -0.02840  -0.24546  -0.03193  -0.27738   1.58295
    A4        2.21143   0.01420   0.12273   0.01596   0.13869   2.35012
    A5        2.21143   0.01420   0.12273   0.01596   0.13869   2.35012
    A6        1.86033  -0.02840  -0.24546  -0.03193  -0.27738   1.58295
    D1        3.14101   0.00000   0.00007   0.00010   0.00017   3.14118
    D2       -0.00074   0.00000   0.00000   0.00001   0.00001  -0.00073
    D3       -0.00074   0.00000   0.00000   0.00001   0.00001  -0.00073
    D4        3.14069  -0.00000  -0.00007  -0.00007  -0.00014   3.14055
         Item               Value     Threshold  Converged?
 Maximum Force            0.028395     0.000450     NO 
 RMS     Force            0.013494     0.000300     NO 
 Maximum Displacement     0.320279     0.001800     NO 
 RMS     Displacement     0.177125     0.001200     NO 
 Predicted change in Energy=-1.295354D-02
 Lowest energy point so far.  Saving SCF results.
 GradGradGradGradGradGradGradGradGradGradGradGradGradGradGradGradGradGrad

 Leave Link  103 at Mon Apr 21 20:34:01 2025, MaxMem=   536870912 cpu:               0.7 elap:               0.2
 (Enter /home/szhao/Apps/g16/l202.exe)
                          Input orientation:                          
 ---------------------------------------------------------------------
 Center     Atomic      Atomic             Coordinates (Angstroms)
 Number     Number       Type             X           Y           Z
 ---------------------------------------------------------------------
      1         14           0       -2.237518    0.000000    0.000000
      2         14           0        2.237518    0.000000    0.000000
      3          1           0       -3.302906   -1.078415    0.000069
      4          1           0        3.302906    1.078415   -0.000513
      5          1           0       -3.302911    1.078411    0.000270
      6          1           0        3.302911   -1.078411    0.000851
 ---------------------------------------------------------------------
                    Distance matrix (angstroms):
                    1          2          3          4          5
     1  Si   0.000000
     2  Si   4.475036   0.000000
     3  H    1.515925   5.644402   0.000000
     4  H    5.644402   1.515925   6.949004   0.000000
     5  H    1.515927   5.644406   2.156826   6.605817   0.000000
     6  H    5.644406   1.515926   6.605817   2.156826   6.949012
                    6
     6  H    0.000000
 Symmetry turned off by external request.
 Stoichiometry    H4Si2
 Framework group  C1[X(H4Si2)]
 Deg. of freedom    12
 Full point group                 C1      NOp   1
 Rotational constants (GHZ):         107.7957534           1.5592799           1.5370463
 Leave Link  202 at Mon Apr 21 20:34:01 2025, MaxMem=   536870912 cpu:               0.2 elap:               0.0
 (Enter /home/szhao/Apps/g16/l301.exe)
 Standard basis: 6-311+G(d,p) (5D, 7F)
 Ernie: Thresh=  0.10000D-02 Tol=  0.10000D-05 Strict=F.
    84 basis functions,   132 primitive gaussians,    86 cartesian basis functions
    16 alpha electrons       16 beta electrons
       nuclear repulsion energy        48.7789423518 Hartrees.
 IExCor= 4336 DFT=T Ex+Corr=M062X ExCW=0 ScaHFX=  0.540000
 ScaDFX=  1.000000  1.000000  1.000000  1.000000 ScalE2=  1.000000  1.000000
 IRadAn=      7 IRanWt=     -1 IRanGd=            0 ICorTp=0 IEmpDi=  4
 NAtoms=    6 NActive=    6 NUniq=    6 SFac= 1.00D+00 NAtFMM=   60 NAOKFM=F Big=F
 Integral buffers will be    131072 words long.
 Raffenetti 2 integral format.
 Two-electron integral symmetry is turned off.
 Leave Link  301 at Mon Apr 21 20:34:01 2025, MaxMem=   536870912 cpu:               0.5 elap:               0.1
 (Enter /home/szhao/Apps/g16/l302.exe)
 NPDir=0 NMtPBC=     1 NCelOv=     1 NCel=       1 NClECP=     1 NCelD=      1
         NCelK=      1 NCelE2=     1 NClLst=     1 CellRange=     0.0.
 One-electron integrals computed using PRISM.
 NBasis=    84 RedAO= T EigKep=  1.18D-02  NBF=    84
 NBsUse=    84 1.00D-06 EigRej= -1.00D+00 NBFU=    84
 Precomputing XC quadrature grid using
 IXCGrd= 4 IRadAn=           7 IRanWt=          -1 IRanGd=           0 AccXCQ= 0.00D+00.
 Generated NRdTot=       0 NPtTot=           0 NUsed=           0 NTot=          32
 NSgBfM=    76    76    76    76    76 MxSgAt=     6 MxSgA2=     6.
 Leave Link  302 at Mon Apr 21 20:34:02 2025, MaxMem=   536870912 cpu:               2.3 elap:               0.3
 (Enter /home/szhao/Apps/g16/l303.exe)
 DipDrv:  MaxL=1.
 Leave Link  303 at Mon Apr 21 20:34:02 2025, MaxMem=   536870912 cpu:               0.9 elap:               0.2
 (Enter /home/szhao/Apps/g16/l401.exe)
 Initial guess from the checkpoint file:  "opt.chk"
 B after Tr=    -0.000000    0.000000    0.000017
         Rot=    1.000000   -0.000015   -0.000000   -0.000000 Ang=  -0.00 deg.
 Guess basis will be translated and rotated to current coordinates.
 JPrj=2 DoOrth=T DoCkMO=T.
 Initial guess <Sx>= 0.0000 <Sy>= 0.0000 <Sz>= 0.0000 <S**2>=-0.0000 S=-0.0000
 Generating alternative initial guess.
 ExpMin= 3.31D-02 ExpMax= 6.94D+04 ExpMxC= 2.33D+03 IAcc=3 IRadAn=         5 AccDes= 0.00D+00
 Harris functional with IExCor= 1009 and IRadAn=       5 diagonalized for initial guess.
 HarFok:  IExCor= 1009 AccDes= 0.00D+00 IRadAn=         5 IDoV= 1 UseB2=F ITyADJ=14
 ICtDFT=  3500011 ScaDFX=  1.000000  1.000000  1.000000  1.000000
 FoFCou: FMM=F IPFlag=           0 FMFlag=      100000 FMFlg1=           0
         NFxFlg=           0 DoJE=T BraDBF=F KetDBF=T FulRan=T
         wScrn=  0.000000 ICntrl=       500 IOpCl=  0 I1Cent=   200000004 NGrid=           0
         NMat0=    1 NMatS0=      1 NMatT0=    0 NMatD0=    1 NMtDS0=    0 NMtDT0=    0
 Symmetry not used in FoFCou.
 Harris En= -580.866408852475    
 Leave Link  401 at Mon Apr 21 20:34:02 2025, MaxMem=   536870912 cpu:               3.1 elap:               0.5
 (Enter /home/szhao/Apps/g16/l502.exe)
 Keep R1 and R2 ints in memory in canonical form, NReq=20057634.
 FoFCou: FMM=F IPFlag=           0 FMFlag=           0 FMFlg1=           0
         NFxFlg=           0 DoJE=F BraDBF=F KetDBF=F FulRan=T
         wScrn=  0.000000 ICntrl=       600 IOpCl=  0 I1Cent=           0 NGrid=           0
         NMat0=    1 NMatS0=   3570 NMatT0=    0 NMatD0=    1 NMtDS0=    0 NMtDT0=    0
 Symmetry not used in FoFCou.
 Two-electron integral symmetry not used.
 UHF open shell SCF:
 Using DIIS extrapolation, IDIIS=  1040.
 NGot=   536870912 LenX=   524106186 LenY=   524098349
 Requested convergence on RMS density matrix=1.00D-08 within 128 cycles.
 Requested convergence on MAX density matrix=1.00D-06.
 Requested convergence on             energy=1.00D-06.
 No special actions if energy rises.

 Cycle   1  Pass 1  IDiag  1:
 E= -581.170206937981    
 DIIS: error= 5.78D-03 at cycle   1 NSaved=   1.
 NSaved= 1 IEnMin= 1 EnMin= -581.170206937981     IErMin= 1 ErrMin= 5.78D-03
 ErrMax= 5.78D-03  0.00D+00 EMaxC= 1.00D-01 BMatC= 8.30D-03 BMatP= 8.30D-03
 IDIUse=3 WtCom= 9.42D-01 WtEn= 5.78D-02
 Coeff-Com:  0.100D+01
 Coeff-En:   0.100D+01
 Coeff:      0.100D+01
 Gap=     0.492 Goal=   None    Shift=    0.000
 Gap=     0.492 Goal=   None    Shift=    0.000
 GapD=    0.492 DampG=2.000 DampE=1.000 DampFc=2.0000 IDamp=-1.
 RMSDP=7.30D-04 MaxDP=7.81D-03              OVMax= 2.21D-02

 Cycle   2  Pass 1  IDiag  1:
 E= -581.173723845380     Delta-E=       -0.003516907399 Rises=F Damp=F
 DIIS: error= 6.99D-04 at cycle   2 NSaved=   2.
 NSaved= 2 IEnMin= 2 EnMin= -581.173723845380     IErMin= 2 ErrMin= 6.99D-04
 ErrMax= 6.99D-04  0.00D+00 EMaxC= 1.00D-01 BMatC= 1.93D-04 BMatP= 8.30D-03
 IDIUse=3 WtCom= 9.93D-01 WtEn= 6.99D-03
 Coeff-Com: -0.605D-01 0.106D+01
 Coeff-En:   0.000D+00 0.100D+01
 Coeff:     -0.601D-01 0.106D+01
 Gap=     0.187 Goal=   None    Shift=    0.000
 Gap=     0.187 Goal=   None    Shift=    0.000
 RMSDP=2.19D-04 MaxDP=5.16D-03 DE=-3.52D-03 OVMax= 5.34D-03

 Cycle   3  Pass 1  IDiag  1:
 E= -581.173845569275     Delta-E=       -0.000121723895 Rises=F Damp=F
 DIIS: error= 2.41D-04 at cycle   3 NSaved=   3.
 NSaved= 3 IEnMin= 3 EnMin= -581.173845569275     IErMin= 3 ErrMin= 2.41D-04
 ErrMax= 2.41D-04  0.00D+00 EMaxC= 1.00D-01 BMatC= 2.30D-05 BMatP= 1.93D-04
 IDIUse=3 WtCom= 9.98D-01 WtEn= 2.41D-03
 Coeff-Com: -0.286D-01 0.213D+00 0.815D+00
 Coeff-En:   0.000D+00 0.000D+00 0.100D+01
 Coeff:     -0.285D-01 0.213D+00 0.816D+00
 Gap=     0.187 Goal=   None    Shift=    0.000
 Gap=     0.187 Goal=   None    Shift=    0.000
 RMSDP=4.73D-05 MaxDP=8.75D-04 DE=-1.22D-04 OVMax= 1.27D-03

 Cycle   4  Pass 1  IDiag  1:
 E= -581.173853053809     Delta-E=       -0.000007484534 Rises=F Damp=F
 DIIS: error= 6.27D-05 at cycle   4 NSaved=   4.
 NSaved= 4 IEnMin= 4 EnMin= -581.173853053809     IErMin= 4 ErrMin= 6.27D-05
 ErrMax= 6.27D-05  0.00D+00 EMaxC= 1.00D-01 BMatC= 1.28D-06 BMatP= 2.30D-05
 IDIUse=1 WtCom= 1.00D+00 WtEn= 0.00D+00
 Coeff-Com:  0.165D-02-0.589D-01 0.974D-01 0.960D+00
 Coeff:      0.165D-02-0.589D-01 0.974D-01 0.960D+00
 Gap=     0.187 Goal=   None    Shift=    0.000
 Gap=     0.187 Goal=   None    Shift=    0.000
 RMSDP=1.49D-05 MaxDP=3.61D-04 DE=-7.48D-06 OVMax= 3.73D-04

 Cycle   5  Pass 1  IDiag  1:
 E= -581.173853472121     Delta-E=       -0.000000418312 Rises=F Damp=F
 DIIS: error= 9.89D-06 at cycle   5 NSaved=   5.
 NSaved= 5 IEnMin= 5 EnMin= -581.173853472121     IErMin= 5 ErrMin= 9.89D-06
 ErrMax= 9.89D-06  0.00D+00 EMaxC= 1.00D-01 BMatC= 1.89D-08 BMatP= 1.28D-06
 IDIUse=1 WtCom= 1.00D+00 WtEn= 0.00D+00
 Coeff-Com:  0.939D-03-0.140D-01 0.855D-02 0.989D-01 0.906D+00
 Coeff:      0.939D-03-0.140D-01 0.855D-02 0.989D-01 0.906D+00
 Gap=     0.187 Goal=   None    Shift=    0.000
 Gap=     0.187 Goal=   None    Shift=    0.000
 RMSDP=2.77D-06 MaxDP=7.95D-05 DE=-4.18D-07 OVMax= 5.25D-05

 Cycle   6  Pass 1  IDiag  1:
 E= -581.173853481300     Delta-E=       -0.000000009179 Rises=F Damp=F
 DIIS: error= 7.57D-07 at cycle   6 NSaved=   6.
 NSaved= 6 IEnMin= 6 EnMin= -581.173853481300     IErMin= 6 ErrMin= 7.57D-07
 ErrMax= 7.57D-07  0.00D+00 EMaxC= 1.00D-01 BMatC= 1.67D-10 BMatP= 1.89D-08
 IDIUse=1 WtCom= 1.00D+00 WtEn= 0.00D+00
 Coeff-Com: -0.245D-04 0.107D-02-0.216D-02-0.162D-01 0.224D-01 0.995D+00
 Coeff:     -0.245D-04 0.107D-02-0.216D-02-0.162D-01 0.224D-01 0.995D+00
 Gap=     0.187 Goal=   None    Shift=    0.000
 Gap=     0.187 Goal=   None    Shift=    0.000
 RMSDP=3.48D-07 MaxDP=7.92D-06 DE=-9.18D-09 OVMax= 7.71D-06

 Cycle   7  Pass 1  IDiag  1:
 E= -581.173853481420     Delta-E=       -0.000000000121 Rises=F Damp=F
 DIIS: error= 9.38D-08 at cycle   7 NSaved=   7.
 NSaved= 7 IEnMin= 7 EnMin= -581.173853481420     IErMin= 7 ErrMin= 9.38D-08
 ErrMax= 9.38D-08  0.00D+00 EMaxC= 1.00D-01 BMatC= 2.26D-12 BMatP= 1.67D-10
 IDIUse=1 WtCom= 1.00D+00 WtEn= 0.00D+00
 Coeff-Com: -0.598D-05 0.521D-04-0.317D-06 0.127D-03-0.113D-01-0.101D+00
 Coeff-Com:  0.111D+01
 Coeff:     -0.598D-05 0.521D-04-0.317D-06 0.127D-03-0.113D-01-0.101D+00
 Coeff:      0.111D+01
 Gap=     0.187 Goal=   None    Shift=    0.000
 Gap=     0.187 Goal=   None    Shift=    0.000
 RMSDP=7.97D-08 MaxDP=2.25D-06 DE=-1.21D-10 OVMax= 1.49D-06

 Cycle   8  Pass 1  IDiag  1:
 E= -581.173853481423     Delta-E=       -0.000000000003 Rises=F Damp=F
 DIIS: error= 1.03D-08 at cycle   8 NSaved=   8.
 NSaved= 8 IEnMin= 8 EnMin= -581.173853481423     IErMin= 8 ErrMin= 1.03D-08
 ErrMax= 1.03D-08  0.00D+00 EMaxC= 1.00D-01 BMatC= 5.38D-14 BMatP= 2.26D-12
 IDIUse=1 WtCom= 1.00D+00 WtEn= 0.00D+00
 Coeff-Com:  0.479D-06-0.202D-04 0.415D-04 0.258D-03 0.344D-03-0.159D-01
 Coeff-Com:  0.767D-02 0.101D+01
 Coeff:      0.479D-06-0.202D-04 0.415D-04 0.258D-03 0.344D-03-0.159D-01
 Coeff:      0.767D-02 0.101D+01
 Gap=     0.187 Goal=   None    Shift=    0.000
 Gap=     0.187 Goal=   None    Shift=    0.000
 RMSDP=7.30D-09 MaxDP=2.28D-07 DE=-2.50D-12 OVMax= 1.50D-07

 SCF Done:  E(UM062X) =  -581.173853481     A.U. after    8 cycles
            NFock=  8  Conv=0.73D-08     -V/T= 2.0014
 <Sx>= 0.0000 <Sy>= 0.0000 <Sz>= 0.0000 <S**2>=-0.0000 S=-0.0000
 <L.S>=  0.00000000000    
 KE= 5.803330987496D+02 PE=-1.482039431573D+03 EE= 2.717535369896D+02
 Annihilation of the first spin contaminant:
 S**2 before annihilation    -0.0000,   after    -0.0000
 Leave Link  502 at Mon Apr 21 20:34:10 2025, MaxMem=   536870912 cpu:              55.8 elap:               7.5
 (Enter /home/szhao/Apps/g16/l701.exe)
 ... and contract with generalized density number  0.
 Compute integral first derivatives.
 Leave Link  701 at Mon Apr 21 20:34:11 2025, MaxMem=   536870912 cpu:               1.6 elap:               0.3
 (Enter /home/szhao/Apps/g16/l702.exe)
 L702 exits ... SP integral derivatives will be done elsewhere.
 Leave Link  702 at Mon Apr 21 20:34:11 2025, MaxMem=   536870912 cpu:               0.4 elap:               0.1
 (Enter /home/szhao/Apps/g16/l703.exe)
 Integral derivatives from FoFJK, PRISM(SPDF).
 Compute integral first derivatives, UseDBF=F ICtDFT=           0.
 Calling FoFJK, ICntrl=      2127 FMM=F ISym2X=0 I1Cent= 0 IOpClX= 1 NMat=1 NMatS=1 NMatT=0.
 FoFJK:  IHMeth= 1 ICntrl=    2127 DoSepK=F KAlg= 0 I1Cent=           0 FoldK=F
 IRaf=         0 NMat=       1 IRICut=       1 DoRegI=T DoRafI=F ISym2E= 0 IDoP0=0 IntGTp=1.
 FoFCou: FMM=F IPFlag=           0 FMFlag=      100000 FMFlg1=         800
         NFxFlg=           0 DoJE=F BraDBF=F KetDBF=F FulRan=T
         wScrn=  0.000000 ICntrl=      2127 IOpCl=  1 I1Cent=           0 NGrid=           0
         NMat0=    1 NMatS0=      1 NMatT0=    0 NMatD0=    1 NMtDS0=    0 NMtDT0=    0
 Symmetry not used in FoFCou.
 Leave Link  703 at Mon Apr 21 20:34:12 2025, MaxMem=   536870912 cpu:              10.0 elap:               1.3
 (Enter /home/szhao/Apps/g16/l716.exe)
 Dipole        = 2.03014086D-08 1.02398232D-08 2.13361728D-05
 -------------------------------------------------------------------
 Center     Atomic                   Forces (Hartrees/Bohr)
 Number     Number              X              Y              Z
 -------------------------------------------------------------------
      1       14          -0.000000000   -0.000000000   -0.000000000
      2       14          -0.000000000   -0.000000000   -0.000000000
      3        1          -0.000533427   -0.001040885    0.000000001
      4        1           0.000533434    0.001040895   -0.000000583
      5        1          -0.000533209    0.001040648    0.000000276
      6        1           0.000533214   -0.001040657    0.000000860
 -------------------------------------------------------------------
 Cartesian Forces:  Max     0.001040895 RMS     0.000551289
 Leave Link  716 at Mon Apr 21 20:34:13 2025, MaxMem=   536870912 cpu:               0.8 elap:               0.2
 (Enter /home/szhao/Apps/g16/l103.exe)

 GradGradGradGradGradGradGradGradGradGradGradGradGradGradGradGradGradGrad
 Berny optimization.
 Using GEDIIS/GDIIS optimizer.
 FormGI is forming the generalized inverse of G from B-inverse, IUseBI=4.
 Internal  Forces:  Max     0.001115379 RMS     0.000655987
 Search for a local minimum.
 Step number   3 out of a maximum of   30
 All quantities printed in internal units (Hartrees-Bohrs-Radians)
 RMS Force = .67247D-03 SwitMx=.10000D-02 MixMth= 2
 Mixed Optimization -- En-DIIS/RFO-DIIS
 Update second derivatives using D2CorX and points    2    3
 DE= -1.22D-02 DEPred=-1.30D-02 R= 9.41D-01
 TightC=F SS=  1.41D+00  RLast= 4.85D-01 DXNew= 8.4853D-01 1.4542D+00
 Trust test= 9.41D-01 RLast= 4.85D-01 DXMaxT set to 8.49D-01
 The second derivative matrix:
                          X1        Y1        Z1        X2        Y2
           X1           0.54085
           Y1           0.00000   0.50000
           Z1          -0.00000  -0.00000   0.50000
           X2          -0.04085  -0.00000   0.00000   0.54085
           Y2          -0.00000  -0.00000   0.00000   0.00000   0.50000
           Z2          -0.00000  -0.00000   0.00000   0.00000   0.00000
           R1          -0.02065  -0.00000   0.00000   0.02065   0.00000
           R2          -0.02064  -0.00000   0.00000   0.02064   0.00000
           R3          -0.02065  -0.00000   0.00000   0.02065   0.00000
           R4          -0.02065  -0.00000   0.00000   0.02065   0.00000
           A1          -0.01635  -0.00000   0.00000   0.01635   0.00000
           A2          -0.01635  -0.00000   0.00000   0.01635   0.00000
           A3           0.03271   0.00000  -0.00000  -0.03271  -0.00000
           A4          -0.01635  -0.00000   0.00000   0.01635   0.00000
           A5          -0.01635  -0.00000   0.00000   0.01635   0.00000
           A6           0.03271   0.00000  -0.00000  -0.03271  -0.00000
           D1          -0.00000  -0.00000   0.00000   0.00000   0.00000
           D2          -0.00000   0.00000   0.00000   0.00000  -0.00000
           D3          -0.00000   0.00000   0.00000   0.00000  -0.00000
           D4           0.00000   0.00000  -0.00000  -0.00000  -0.00000
                          Z2        R1        R2        R3        R4
           Z2           0.50000
           R1           0.00000   0.18391
           R2           0.00000   0.00275   0.18390
           R3           0.00000   0.00275   0.00275   0.18391
           R4           0.00000   0.00275   0.00275   0.00275   0.18390
           A1           0.00000  -0.00095  -0.00095  -0.00095  -0.00095
           A2           0.00000  -0.00095  -0.00095  -0.00095  -0.00095
           A3          -0.00000   0.00190   0.00190   0.00190   0.00190
           A4           0.00000  -0.00095  -0.00095  -0.00095  -0.00095
           A5           0.00000  -0.00095  -0.00095  -0.00095  -0.00095
           A6          -0.00000   0.00190   0.00190   0.00190   0.00190
           D1           0.00000   0.00000   0.00000   0.00000   0.00000
           D2           0.00000  -0.00000  -0.00000  -0.00000  -0.00000
           D3           0.00000  -0.00000  -0.00000  -0.00000  -0.00000
           D4          -0.00000  -0.00000  -0.00000  -0.00000  -0.00000
                          A1        A2        A3        A4        A5
           A1           0.15547
           A2          -0.00453   0.15547
           A3           0.00905   0.00905   0.14189
           A4          -0.00453  -0.00453   0.00905   0.15547
           A5          -0.00453  -0.00453   0.00905  -0.00453   0.15547
           A6           0.00905   0.00905  -0.01811   0.00905   0.00905
           D1           0.00000   0.00000  -0.00000   0.00000   0.00000
           D2           0.00000   0.00000  -0.00000   0.00000   0.00000
           D3           0.00000   0.00000  -0.00000   0.00000   0.00000
           D4          -0.00000  -0.00000   0.00000  -0.00000  -0.00000
                          A6        D1        D2        D3        D4
           A6           0.14189
           D1          -0.00000   0.00230
           D2          -0.00000   0.00000   0.00230
           D3          -0.00000   0.00000   0.00000   0.00230
           D4           0.00000  -0.00000  -0.00000  -0.00000   0.00230
 ITU=  1  1  0
 Use linear search instead of GDIIS.
     Eigenvalues ---    0.00230   0.00230   0.00230   0.10517   0.16000
     Eigenvalues ---    0.16000   0.16000   0.18115   0.18115   0.18116
     Eigenvalues ---    0.192651000.000001000.000001000.000001000.00000
     Eigenvalues --- 1000.000001000.000001000.000001000.000001000.00000
 RFO step:  Lambda=-3.00834382D-05 EMin= 2.30000000D-03
 Quartic linear search produced a step of -0.01599.
 Iteration  1 RMS(Cart)=  0.00445622 RMS(Int)=  0.00000675
 Iteration  2 RMS(Cart)=  0.00000952 RMS(Int)=  0.00000000
 Iteration  3 RMS(Cart)=  0.00000000 RMS(Int)=  0.00000000
 ITry= 1 IFail=0 DXMaxC= 9.79D-03 DCOld= 1.00D+10 DXMaxT= 8.49D-01 DXLimC= 3.00D+00 Rises=F
 Variable       Old X    -DE/DX   Delta X   Delta X   Delta X     New X
                                 (Linear)    (Quad)   (Total)
    X1       -4.22830  -0.00107   0.00000   0.00000   0.00000  -4.22830
    Y1        0.00000  -0.00000   0.00000   0.00000   0.00000   0.00000
    Z1        0.00000   0.00000   0.00000   0.00000   0.00000   0.00000
    X2        4.22830   0.00107   0.00000   0.00000   0.00000   4.22830
    Y2        0.00000   0.00000   0.00000   0.00000   0.00000   0.00000
    Z2        0.00000   0.00000   0.00000   0.00000   0.00000   0.00000
    R1        2.86468   0.00112  -0.00051   0.00616   0.00565   2.87033
    R2        2.86469   0.00112  -0.00051   0.00616   0.00565   2.87033
[...]
           R3           0.00001  -0.00391  -0.00391   0.17725
           R4           0.00001  -0.00391  -0.00390  -0.00391   0.17725
           A1           0.00000  -0.00083  -0.00083  -0.00083  -0.00083
           A2           0.00000  -0.00084  -0.00084  -0.00084  -0.00084
           A3          -0.00000   0.00167   0.00167   0.00167   0.00167
           A4           0.00000  -0.00083  -0.00083  -0.00083  -0.00083
           A5           0.00000  -0.00084  -0.00084  -0.00084  -0.00084
           A6          -0.00000   0.00167   0.00167   0.00167   0.00167
           D1          -0.00000  -0.00000  -0.00000  -0.00000  -0.00000
           D2          -0.00000   0.00000   0.00000   0.00000   0.00000
           D3          -0.00000   0.00000   0.00000   0.00000   0.00000
           D4           0.00000   0.00001   0.00001   0.00001   0.00001
                          A1        A2        A3        A4        A5
           A1           0.15602
           A2          -0.00398   0.15602
           A3           0.00796   0.00796   0.14408
           A4          -0.00398  -0.00398   0.00796   0.15602
           A5          -0.00398  -0.00398   0.00796  -0.00398   0.15602
           A6           0.00796   0.00796  -0.01592   0.00796   0.00796
           D1           0.00000   0.00000  -0.00000   0.00000   0.00000
           D2          -0.00000  -0.00000   0.00000  -0.00000  -0.00000
           D3          -0.00000  -0.00000   0.00000  -0.00000  -0.00000
           D4          -0.00000  -0.00000   0.00000  -0.00000  -0.00000
                          A6        D1        D2        D3        D4
           A6           0.14408
           D1          -0.00000   0.00230
           D2           0.00000   0.00000   0.00230
           D3           0.00000   0.00000  -0.00000   0.00230
           D4           0.00000  -0.00000  -0.00000  -0.00000   0.00230
 ITU=  1  1  1  0
     Eigenvalues ---    0.00230   0.00230   0.00230   0.11161   0.16000
     Eigenvalues ---    0.16000   0.16000   0.16615   0.18115   0.18115
     Eigenvalues ---    0.181161000.000001000.000001000.000001000.00000
     Eigenvalues --- 1000.000001000.000001000.000001000.000001000.00000
 En-DIIS/RFO-DIIS/Sim-DIIS IScMMF=       -3 using points:     4    3
 RFO step:  Lambda=-5.62501308D-07.
 NNeg= 0 NGDIIS= 2 SimSw=  2.50D-01 Rises=F DC= -2.00D-05 SmlDif=  1.00D-05
 NRisDI= 0 DoIntr=F SqrtH=F CThrHd= 10.0 CDAdj=  3.0
 RMS Error=  0.4156824198D-03 NUsed= 2 OKEnD=T EnDIS=F
 InvSVX:  RCond= 5.65D-05 Info=           0 Equed=N FErr=  1.08D-15 BErr=  9.03D-17
 DidBck=F Rises=F RFO-DIIS coefs:    1.08172   -0.08172
 Iteration  1 RMS(Cart)=  0.00042186 RMS(Int)=  0.00000002
 Iteration  2 RMS(Cart)=  0.00000003 RMS(Int)=  0.00000000
 ITry= 1 IFail=0 DXMaxC= 7.83D-04 DCOld= 1.00D+10 DXMaxT= 8.49D-01 DXLimC= 3.00D+00 Rises=F
 Variable       Old X    -DE/DX   Delta X   Delta X   Delta X     New X
                                 (Linear)    (Quad)   (Total)
    X1       -4.22830  -0.00022   0.00000   0.00000   0.00000  -4.22830
    Y1        0.00000  -0.00000   0.00000   0.00000   0.00000   0.00000
    Z1        0.00000   0.00000   0.00000   0.00000   0.00000   0.00000
    X2        4.22830   0.00022   0.00000   0.00000   0.00000   4.22830
    Y2        0.00000   0.00000   0.00000   0.00000   0.00000   0.00000
    Z2        0.00000   0.00000   0.00000   0.00000   0.00000   0.00000
    R1        2.87033   0.00015   0.00046   0.00046   0.00092   2.87125
    R2        2.87033   0.00015   0.00046   0.00046   0.00092   2.87125
    R3        2.87033   0.00015   0.00046   0.00046   0.00092   2.87125
    R4        2.87033   0.00015   0.00046   0.00046   0.00092   2.87125
    A1        2.34725   0.00000  -0.00023   0.00030   0.00007   2.34732
    A2        2.34725   0.00000  -0.00023   0.00030   0.00007   2.34732
    A3        1.58868  -0.00001   0.00047  -0.00060  -0.00013   1.58855
    A4        2.34725   0.00000  -0.00023   0.00030   0.00007   2.34732
    A5        2.34725   0.00000  -0.00023   0.00030   0.00007   2.34732
    A6        1.58868  -0.00001   0.00047  -0.00060  -0.00013   1.58855
    D1        3.14119   0.00000   0.00000   0.00003   0.00003   3.14123
    D2       -0.00075  -0.00000  -0.00000  -0.00003  -0.00003  -0.00078
    D3       -0.00075  -0.00000  -0.00000  -0.00003  -0.00003  -0.00078
    D4        3.14050  -0.00000  -0.00000  -0.00009  -0.00009   3.14041
         Item               Value     Threshold  Converged?
 Maximum Force            0.000152     0.000450     YES
 RMS     Force            0.000081     0.000300     YES
 Maximum Displacement     0.000783     0.001800     YES
 RMS     Displacement     0.000422     0.001200     YES
 Predicted change in Energy=-2.812033D-07
 Optimization completed.
    -- Stationary point found.
                           ----------------------------
                           !   Optimized Parameters   !
                           ! (Angstroms and Degrees)  !
 --------------------------                            --------------------------
 ! Name  Definition              Value          Derivative Info.                !
 --------------------------------------------------------------------------------
 ! X1    R(1,-1)                -2.2375         -DE/DX =   -0.0002              !
 ! Y1    R(1,-2)                 0.0            -DE/DX =    0.0                 !
 ! Z1    R(1,-3)                 0.0            -DE/DX =    0.0                 !
 ! X2    R(2,-1)                 2.2375         -DE/DX =    0.0002              !
 ! Y2    R(2,-2)                 0.0            -DE/DX =    0.0                 !
 ! Z2    R(2,-3)                 0.0            -DE/DX =    0.0                 !
 ! R1    R(1,3)                  1.5189         -DE/DX =    0.0002              !
 ! R2    R(1,5)                  1.5189         -DE/DX =    0.0002              !
 ! R3    R(2,4)                  1.5189         -DE/DX =    0.0002              !
 ! R4    R(2,6)                  1.5189         -DE/DX =    0.0002              !
 ! A1    A(2,1,3)              134.4875         -DE/DX =    0.0                 !
 ! A2    A(2,1,5)              134.4878         -DE/DX =    0.0                 !
 ! A3    A(3,1,5)               91.0247         -DE/DX =    0.0                 !
 ! A4    A(1,2,4)              134.4876         -DE/DX =    0.0                 !
 ! A5    A(1,2,6)              134.4878         -DE/DX =    0.0                 !
 ! A6    A(4,2,6)               91.0247         -DE/DX =    0.0                 !
 ! D1    D(3,1,2,4)            179.9772         -DE/DX =    0.0                 !
 ! D2    D(3,1,2,6)             -0.0428         -DE/DX =    0.0                 !
 ! D3    D(5,1,2,4)             -0.0428         -DE/DX =    0.0                 !
 ! D4    D(5,1,2,6)            179.9372         -DE/DX =    0.0                 !
 --------------------------------------------------------------------------------
 Lowest energy point so far.  Saving SCF results.
 Largest change from initial coordinates is atom    5       0.328 Angstoms.
 GradGradGradGradGradGradGradGradGradGradGradGradGradGradGradGradGradGrad

 Leave Link  103 at Mon Apr 21 20:34:23 2025, MaxMem=   536870912 cpu:               0.6 elap:               0.1
 (Enter /home/szhao/Apps/g16/l202.exe)
                          Input orientation:                          
 ---------------------------------------------------------------------
 Center     Atomic      Atomic             Coordinates (Angstroms)
 Number     Number       Type             X           Y           Z
 ---------------------------------------------------------------------
      1         14           0       -2.237518    0.000000    0.000000
      2         14           0        2.237518    0.000000    0.000000
      3          1           0       -3.301904   -1.083597    0.000077
      4          1           0        3.301904    1.083597   -0.000509
      5          1           0       -3.301908    1.083593    0.000301
      6          1           0        3.301908   -1.083593    0.000886
 ---------------------------------------------------------------------
                    Distance matrix (angstroms):
                    1          2          3          4          5
     1  Si   0.000000
     2  Si   4.475036   0.000000
     3  H    1.518914   5.644411   0.000000
     4  H    5.644411   1.518914   6.950324   0.000000
     5  H    1.518914   5.644415   2.167191   6.603812   0.000000
     6  H    5.644415   1.518914   6.603812   2.167191   6.950330
                    6
     6  H    0.000000
 Symmetry turned off by external request.
 Stoichiometry    H4Si2
 Framework group  C1[X(H4Si2)]
 Deg. of freedom    12
 Full point group                 C1      NOp   1
 Rotational constants (GHZ):         106.7672000           1.5594083           1.5369599
 Leave Link  202 at Mon Apr 21 20:34:23 2025, MaxMem=   536870912 cpu:               0.1 elap:               0.0
 (Enter /home/szhao/Apps/g16/l601.exe)
 Copying SCF densities to generalized density rwf, IOpCl= 1 IROHF=0.

 **********************************************************************

            Population analysis using the SCF density.

 **********************************************************************

 Alpha  occ. eigenvalues --  -67.01217 -67.01217  -5.55942  -5.55941  -3.87186
 Alpha  occ. eigenvalues --   -3.87186  -3.86645  -3.86645  -3.86505  -3.86505
 Alpha  occ. eigenvalues --   -0.57221  -0.57115  -0.37773  -0.37733  -0.29310
 Alpha  occ. eigenvalues --   -0.26909
 Alpha virt. eigenvalues --   -0.08232  -0.07443   0.02088   0.02365   0.03068
 Alpha virt. eigenvalues --    0.04570   0.05734   0.06096   0.06363   0.07015
 Alpha virt. eigenvalues --    0.08440   0.09179   0.11412   0.14098   0.29045
 Alpha virt. eigenvalues --    0.29397   0.30576   0.30925   0.31535   0.33178
 Alpha virt. eigenvalues --    0.37143   0.39828   0.42473   0.45109   0.49575
 Alpha virt. eigenvalues --    0.50800   0.60370   0.60370   0.60966   0.61371
 Alpha virt. eigenvalues --    0.61416   0.62313   0.77769   0.78169   0.88429
 Alpha virt. eigenvalues --    0.89202   1.20689   1.20910   1.22006   1.23117
 Alpha virt. eigenvalues --    1.23381   1.25372   1.44104   1.44104   1.44961
 Alpha virt. eigenvalues --    1.45269   1.52774   1.52869   1.59062   1.59095
 Alpha virt. eigenvalues --    1.93610   1.93822   2.00774   2.02154   2.56223
 Alpha virt. eigenvalues --    2.60068   2.65250   2.65466   5.56634   5.57456
 Alpha virt. eigenvalues --   11.45151  11.46390  11.52824  11.52886  11.53902
 Alpha virt. eigenvalues --   11.55020 141.12985 141.14141
  Beta  occ. eigenvalues --  -67.01217 -67.01217  -5.55942  -5.55941  -3.87186
  Beta  occ. eigenvalues --   -3.87186  -3.86645  -3.86645  -3.86505  -3.86505
  Beta  occ. eigenvalues --   -0.57221  -0.57115  -0.37773  -0.37733  -0.29310
  Beta  occ. eigenvalues --   -0.26909
  Beta virt. eigenvalues --   -0.08232  -0.07443   0.02088   0.02365   0.03068
  Beta virt. eigenvalues --    0.04570   0.05734   0.06096   0.06363   0.07015
  Beta virt. eigenvalues --    0.08440   0.09179   0.11412   0.14098   0.29045
  Beta virt. eigenvalues --    0.29397   0.30576   0.30925   0.31535   0.33178
  Beta virt. eigenvalues --    0.37143   0.39828   0.42473   0.45109   0.49575
  Beta virt. eigenvalues --    0.50800   0.60370   0.60370   0.60966   0.61371
  Beta virt. eigenvalues --    0.61416   0.62313   0.77769   0.78169   0.88429
  Beta virt. eigenvalues --    0.89202   1.20689   1.20910   1.22006   1.23117
  Beta virt. eigenvalues --    1.23381   1.25372   1.44104   1.44104   1.44961
  Beta virt. eigenvalues --    1.45269   1.52774   1.52869   1.59062   1.59095
  Beta virt. eigenvalues --    1.93610   1.93822   2.00774   2.02154   2.56223
  Beta virt. eigenvalues --    2.60068   2.65250   2.65466   5.56634   5.57456
  Beta virt. eigenvalues --   11.45151  11.46390  11.52824  11.52886  11.53902
  Beta virt. eigenvalues --   11.55020 141.12985 141.14141
          Condensed to atoms (all electrons):
               1          2          3          4          5          6
     1  Si  13.275086  -0.075355   0.236680   0.002620   0.236680   0.002620
     2  Si  -0.075355  13.275086   0.002620   0.236680   0.002620   0.236680
     3  H    0.236680   0.002620   0.943149  -0.000001  -0.021614  -0.000001
     4  H    0.002620   0.236680  -0.000001   0.943149  -0.000001  -0.021614
     5  H    0.236680   0.002620  -0.021614  -0.000001   0.943149  -0.000001
     6  H    0.002620   0.236680  -0.000001  -0.021614  -0.000001   0.943149
          Atomic-Atomic Spin Densities.
               1          2          3          4          5          6
     1  Si  -0.000000  -0.000000   0.000000  -0.000000  -0.000000   0.000000
     2  Si  -0.000000  -0.000000  -0.000000   0.000000   0.000000  -0.000000
     3  H    0.000000  -0.000000   0.000000   0.000000  -0.000000   0.000000
     4  H   -0.000000   0.000000   0.000000  -0.000000   0.000000  -0.000000
     5  H   -0.000000   0.000000  -0.000000   0.000000   0.000000  -0.000000
     6  H    0.000000  -0.000000   0.000000  -0.000000  -0.000000  -0.000000
 Mulliken charges and spin densities:
               1          2
     1  Si   0.321668  -0.000000
     2  Si   0.321668  -0.000000
     3  H   -0.160834   0.000000
     4  H   -0.160834  -0.000000
     5  H   -0.160834   0.000000
     6  H   -0.160834  -0.000000
 Sum of Mulliken charges =  -0.00000  -0.00000
 Mulliken charges and spin densities with hydrogens summed into heavy atoms:
               1          2
     1  Si   0.000000  -0.000000
     2  Si  -0.000000  -0.000000
 Electronic spatial extent (au):  <R**2>=            742.2294
 Charge=             -0.0000 electrons
 Dipole moment (field-independent basis, Debye):
    X=              0.0000    Y=              0.0000    Z=              0.0001  Tot=              0.0001
 Quadrupole moment (field-independent basis, Debye-Ang):
   XX=            -35.8224   YY=            -32.7578   ZZ=            -24.3942
   XY=             -0.0000   XZ=              0.0000   YZ=              0.0023
 Traceless Quadrupole moment (field-independent basis, Debye-Ang):
   XX=             -4.8309   YY=             -1.7663   ZZ=              6.5973
   XY=             -0.0000   XZ=              0.0000   YZ=              0.0023
 Octapole moment (field-independent basis, Debye-Ang**2):
  XXX=              0.0000  YYY=             -0.0000  ZZZ=             -0.0011  XYY=              0.0000
  XXY=             -0.0000  XXZ=             -0.0109  XZZ=             -0.0000  YZZ=              0.0000
  YYZ=             -0.0012  XYZ=              0.0089
 Hexadecapole moment (field-independent basis, Debye-Ang**3):
 XXXX=          -1317.5466 YYYY=            -88.7592 ZZZZ=            -33.4756 XXXY=             -0.0001
 XXXZ=              0.0000 YYYX=             -0.0001 YYYZ=              0.0078 ZZZX=              0.0000
 ZZZY=              0.0072 XXYY=           -230.8904 XXZZ=           -155.1314 YYZZ=            -19.9882
 XXYZ=              0.0205 YYXZ=              0.0000 ZZXY=             -0.0000
 N-N= 4.873814825203D+01 E-N=-1.481942690848D+03  KE= 5.803225509424D+02
                          Isotropic Fermi Contact Couplings
        Atom                 a.u.       MegaHertz       Gauss      10(-4) cm-1
     1  Si(29)             0.00000      -0.00000      -0.00000      -0.00000
     2  Si(29)            -0.00000       0.00000       0.00000       0.00000
     3  H(1)              -0.00000      -0.00000      -0.00000      -0.00000
     4  H(1)              -0.00000      -0.00000      -0.00000      -0.00000
     5  H(1)              -0.00000      -0.00000      -0.00000      -0.00000
     6  H(1)              -0.00000      -0.00000      -0.00000      -0.00000
 --------------------------------------------------------
       Center         ----  Spin Dipole Couplings  ----
                      3XX-RR        3YY-RR        3ZZ-RR
 --------------------------------------------------------
     1   Atom        0.000000      0.000000      0.000000
     2   Atom        0.000000      0.000000      0.000000
     3   Atom        0.000000      0.000000      0.000000
     4   Atom        0.000000      0.000000      0.000000
     5   Atom        0.000000      0.000000      0.000000
     6   Atom        0.000000      0.000000      0.000000
 --------------------------------------------------------
                        XY            XZ            YZ
 --------------------------------------------------------
     1   Atom        0.000000      0.000000      0.000000
     2   Atom        0.000000      0.000000      0.000000
     3   Atom        0.000000      0.000000      0.000000
     4   Atom        0.000000      0.000000      0.000000
     5   Atom        0.000000      0.000000      0.000000
     6   Atom        0.000000      0.000000      0.000000
 --------------------------------------------------------


 ---------------------------------------------------------------------------------
              Anisotropic Spin Dipole Couplings in Principal Axis System
 ---------------------------------------------------------------------------------

       Atom             a.u.   MegaHertz   Gauss  10(-4) cm-1        Axes

              Baa     0.0000    -0.000    -0.000    -0.000  1.0000  0.0000  0.0000
     1 Si(29) Bbb     0.0000    -0.000    -0.000    -0.000 -0.0000  1.0000  0.0000
              Bcc     0.0000    -0.000    -0.000    -0.000  0.0000  0.0000  1.0000
 
              Baa     0.0000    -0.000    -0.000    -0.000  1.0000  0.0000  0.0000
     2 Si(29) Bbb     0.0000    -0.000    -0.000    -0.000 -0.0000  1.0000  0.0000
              Bcc     0.0000    -0.000    -0.000    -0.000  0.0000  0.0000  1.0000
 
              Baa     0.0000     0.000     0.000     0.000  1.0000  0.0000  0.0000
     3 H(1)   Bbb     0.0000     0.000     0.000     0.000 -0.0000  1.0000  0.0000
              Bcc     0.0000     0.000     0.000     0.000  0.0000  0.0000  1.0000
 
              Baa     0.0000     0.000     0.000     0.000  1.0000  0.0000  0.0000
     4 H(1)   Bbb     0.0000     0.000     0.000     0.000 -0.0000  1.0000  0.0000
              Bcc     0.0000     0.000     0.000     0.000  0.0000  0.0000  1.0000
 
              Baa     0.0000     0.000     0.000     0.000  1.0000  0.0000  0.0000
     5 H(1)   Bbb     0.0000     0.000     0.000     0.000 -0.0000  1.0000  0.0000
              Bcc     0.0000     0.000     0.000     0.000  0.0000  0.0000  1.0000
 
              Baa     0.0000     0.000     0.000     0.000  1.0000  0.0000  0.0000
     6 H(1)   Bbb     0.0000     0.000     0.000     0.000 -0.0000  1.0000  0.0000
              Bcc     0.0000     0.000     0.000     0.000  0.0000  0.0000  1.0000
 

 ---------------------------------------------------------------------------------

 No NMR shielding tensors so no spin-rotation constants.
 Leave Link  601 at Mon Apr 21 20:34:23 2025, MaxMem=   536870912 cpu:               1.4 elap:               0.2
 (Enter /home/szhao/Apps/g16/l9999.exe)
 1\1\GINC-NODE06\FOpt\UM062X\6-311+G(d,p)\H4Si2\SZHAO\21-Apr-2025\0\\#p
  opt UM062X/6-311+G** nosymm int=superfine\\Title Card Required\\0,1\S
 i,-2.237518,0.,0.\Si,2.237518,0.,0.\H,-3.3019035281,-1.0835974779,0.00
 00765153\H,3.3019035375,1.0835973381,-0.0005086133\H,-3.3019084013,1.0
 835930542,0.0003013205\H,3.3019083864,-1.0835927393,0.0008864204\\Vers
 ion=ES64L-G16RevA.03\HF=-581.1738735\S2=0.\S2-1=0.\S2A=0.\RMSD=4.813e-
 09\RMSF=7.156e-05\Dipole=0.,0.,0.0000237\Quadrupole=-3.5916827,-1.3132
 252,4.9049079,-0.0000014,0.,0.0016795\PG=C01 [X(H4Si2)]\\@


 TO DRY ONE'S EYES AND LAUGH AT A FALL
 AND BAFFLED, GET UP AND BEGIN AGAIN.
           R. BROWNING
 Job cpu time:       0 days  0 hours  5 minutes  5.6 seconds.
 Elapsed time:       0 days  0 hours  0 minutes 43.8 seconds.
 File lengths (MBytes):  RWF=     22 Int=      0 D2E=      0 Chk=      2 Scr=      2
 Normal termination of Gaussian 16 at Mon Apr 21 20:34:24 2025.
