Title Card Required                                                     
Force     UM062X                                                      6-311+G(d,p)        
Number of atoms                            I                4
Info1-9                                    I   N=           9
          13          13           0           0           0         100
           5          18        -502
Full Title                                 C   N=           2
Title Card Required     
Route                                      C   N=           4
#p UM062X/6-311+G** force int=superfine         
Charge                                     I                1
Multiplicity                               I                2
Number of electrons                        I               13
Number of alpha electrons                  I                7
Number of beta electrons                   I                6
Number of basis functions                  I               56
Number of independent functions            I               56
Number of point charges in /Mol/           I                0
Number of translation vectors              I                0
Atomic numbers                             I   N=           4
           6           6           1           1
Nuclear charges                            R   N=           4
  6.00000000E+00  6.00000000E+00  1.00000000E+00  1.00000000E+00
Current cartesian coordinates              R   N=          12
  0.00000000E+00  0.00000000E+00  1.30332521E+00  1.59611305E-16  0.00000000E+00
 -1.30332521E+00  0.00000000E+00  0.00000000E+00  3.35413726E+00  4.10763346E-16
  0.00000000E+00 -3.35413726E+00
Number of symbols in /Mol/                 I                0
Force Field                                I                0
Atom Types                                 C   N=           4
                                                
Int Atom Types                             I   N=           4
           0           0           0           0
MM charges                                 R   N=           4
  0.00000000E+00  0.00000000E+00  0.00000000E+00  0.00000000E+00
Integer atomic weights                     I   N=           4
          12          12           1           1
Real atomic weights                        R   N=           4
  1.20000000E+01  1.20000000E+01  1.00782504E+00  1.00782504E+00
Atom fragment info                         I   N=           4
           0           0           0           0
Atom residue num                           I   N=           4
           0           0           0           0
Nuclear spins                              I   N=           4
           0           0           1           1
Nuclear ZEff                               R   N=           4
 -3.60000000E+00 -3.60000000E+00 -1.00000000E+00 -1.00000000E+00
Nuclear ZNuc                               R   N=           4
  6.00000000E+00  6.00000000E+00  1.00000000E+00  1.00000000E+00
Nuclear QMom                               R   N=           4
  0.00000000E+00  0.00000000E+00  0.00000000E+00  0.00000000E+00
Nuclear GFac                               R   N=           4
  0.00000000E+00  0.00000000E+00  2.79284600E+00  2.79284600E+00
MicOpt                                     I   N=           4
          -1          -1          -1          -1
Number of residues                         I                0
Number of secondary structures             I                0
SymInf integers                            I   N=          26
           2           8           1           1           1          -1
           1          -1          -1          -1           1           1
          -1          -1          -1           1           1           1
          -1           1           1           1          -1          -1
          -1          -1
RotTr to input orientation                 R   N=          12
  0.00000000E+00  0.00000000E+00  1.00000000E+00  0.00000000E+00  1.00000000E+00
  0.00000000E+00 -1.00000000E+00 -0.00000000E+00 -0.00000000E+00 -3.17206578E-17
  0.00000000E+00  0.00000000E+00
Number of contracted shells                I               20
Number of primitive shells                 I               38
Pure/Cartesian d shells                    I                0
Pure/Cartesian f shells                    I                0
Highest angular momentum                   I                2
Largest degree of contraction              I                6
Shell types                                I   N=          20
           0          -1          -1          -1          -1          -2
           0          -1          -1          -1          -1          -2
           0           0           0           1           0           0
           0           1
Number of primitives per shell             I   N=          20
           6           3           1           1           1           1
           6           3           1           1           1           1
           3           1           1           1           3           1
           1           1
Shell to atom map                          I   N=          20
           1           1           1           1           1           1
           2           2           2           2           2           2
           3           3           3           3           4           4
           4           4
Primitive exponents                        R   N=          38
  4.56324000E+03  6.82024000E+02  1.54973000E+02  4.44553000E+01  1.30290000E+01
  1.82773000E+00  2.09642000E+01  4.80331000E+00  1.45933000E+00  4.83456000E-01
  1.45585000E-01  4.38000000E-02  6.26000000E-01  4.56324000E+03  6.82024000E+02
  1.54973000E+02  4.44553000E+01  1.30290000E+01  1.82773000E+00  2.09642000E+01
  4.80331000E+00  1.45933000E+00  4.83456000E-01  1.45585000E-01  4.38000000E-02
  6.26000000E-01  3.38650000E+01  5.09479000E+00  1.15879000E+00  3.25840000E-01
  1.02741000E-01  7.50000000E-01  3.38650000E+01  5.09479000E+00  1.15879000E+00
  3.25840000E-01  1.02741000E-01  7.50000000E-01
Contraction coefficients                   R   N=          38
  1.96665025E-03  1.52306019E-02  7.61269097E-02  2.60801033E-01  6.16462078E-01
  2.21006028E-01  1.14660081E-01  9.19999648E-01 -3.03068213E-03  1.00000000E+00
  1.00000000E+00  1.00000000E+00  1.00000000E+00  1.96665025E-03  1.52306019E-02
  7.61269097E-02  2.60801033E-01  6.16462078E-01  2.21006028E-01  1.14660081E-01
  9.19999648E-01 -3.03068213E-03  1.00000000E+00  1.00000000E+00  1.00000000E+00
  1.00000000E+00  2.54938145E-02  1.90373109E-01  8.52161486E-01  1.00000000E+00
  1.00000000E+00  1.00000000E+00  2.54938145E-02  1.90373109E-01  8.52161486E-01
  1.00000000E+00  1.00000000E+00  1.00000000E+00
P(S=P) Contraction coefficients            R   N=          38
  0.00000000E+00  0.00000000E+00  0.00000000E+00  0.00000000E+00  0.00000000E+00
  0.00000000E+00  4.02486927E-02  2.37593957E-01  8.15853851E-01  1.00000000E+00
  1.00000000E+00  1.00000000E+00  0.00000000E+00  0.00000000E+00  0.00000000E+00
  0.00000000E+00  0.00000000E+00  0.00000000E+00  0.00000000E+00  4.02486927E-02
  2.37593957E-01  8.15853851E-01  1.00000000E+00  1.00000000E+00  1.00000000E+00
  0.00000000E+00  0.00000000E+00  0.00000000E+00  0.00000000E+00  0.00000000E+00
  0.00000000E+00  0.00000000E+00  0.00000000E+00  0.00000000E+00  0.00000000E+00
  0.00000000E+00  0.00000000E+00  0.00000000E+00
Coordinates of each shell                  R   N=          60
  0.00000000E+00  0.00000000E+00  1.30332521E+00  0.00000000E+00  0.00000000E+00
  1.30332521E+00  0.00000000E+00  0.00000000E+00  1.30332521E+00  0.00000000E+00
  0.00000000E+00  1.30332521E+00  0.00000000E+00  0.00000000E+00  1.30332521E+00
  0.00000000E+00  0.00000000E+00  1.30332521E+00  1.59611305E-16  0.00000000E+00
 -1.30332521E+00  1.59611305E-16  0.00000000E+00 -1.30332521E+00  1.59611305E-16
  0.00000000E+00 -1.30332521E+00  1.59611305E-16  0.00000000E+00 -1.30332521E+00
  1.59611305E-16  0.00000000E+00 -1.30332521E+00  1.59611305E-16  0.00000000E+00
 -1.30332521E+00  0.00000000E+00  0.00000000E+00  3.35413726E+00  0.00000000E+00
  0.00000000E+00  3.35413726E+00  0.00000000E+00  0.00000000E+00  3.35413726E+00
  0.00000000E+00  0.00000000E+00  3.35413726E+00  4.10763346E-16  0.00000000E+00
 -3.35413726E+00  4.10763346E-16  0.00000000E+00 -3.35413726E+00  4.10763346E-16
  0.00000000E+00 -3.35413726E+00  4.10763346E-16  0.00000000E+00 -3.35413726E+00
Num ILSW                                   I              100
ILSW                                       I   N=         100
           1           0           0           0           2           0
           0           0           0           0        4336          -1
           7           0           0           0           2           0
           0           0           0           0           1           0
           1           0           0           0           0           0
           0           0      100000           0          -1           0
           0           0           0           0           0           0
           0           0           0           1           0           0
           0 -2000000000           1           0           0           0
           0           0           4          52           0           0
           0           0          55           0           0           0
           0           0           0           4           0           1
           0           0           0           0           0           0
           0           0           0           0           0           0
           0           0           0           0           0           0
           0           0           0           0           0           0
           0           0           0           0
Num RLSW                                   I               52
RLSW                                       R   N=          52
  1.00000000E+00  1.00000000E+00  1.00000000E+00  1.00000000E+00  5.40000000E-01
  0.00000000E+00  0.00000000E+00  1.00000000E+00  0.00000000E+00  0.00000000E+00
  0.00000000E+00  0.00000000E+00  1.00000000E+00  0.00000000E+00  0.00000000E+00
  0.00000000E+00  0.00000000E+00  1.00000000E+00  0.00000000E+00  0.00000000E+00
  0.00000000E+00  0.00000000E+00  1.00000000E+00  0.00000000E+00  0.00000000E+00
  0.00000000E+00  0.00000000E+00  1.00000000E+00  0.00000000E+00  0.00000000E+00
  0.00000000E+00  0.00000000E+00  1.00000000E+00  0.00000000E+00  0.00000000E+00
  0.00000000E+00  0.00000000E+00  0.00000000E+00  1.00000000E+00  1.00000000E+00
  0.00000000E+00  1.00000000E+00  0.00000000E+00  0.00000000E+00  0.00000000E+00
  0.00000000E+00  0.00000000E+00  0.00000000E+00  0.00000000E+00  0.00000000E+00
  0.00000000E+00  0.00000000E+00
MxBond                                     I                2
NBond                                      I   N=           4
           2           2           1           1
IBond                                      I   N=           8
           2           3           1           4           1           0
           2           0
RBond                                      R   N=           8
  1.50000000E+00  1.00000000E+00  1.50000000E+00  1.00000000E+00  1.00000000E+00
  0.00000000E+00  1.00000000E+00  0.00000000E+00
Virial Ratio                               R      2.009347154345919E+00
SCF Energy                                 R     -7.687574077710659E+01
Total Energy                               R     -7.687574077710659E+01
S**2                                       R      7.522596302456446E-01
S**2 after annihilation                    R      7.500036039468190E-01
RMS Force                                  R      7.099618616725634E-02
RMS Density                                R      1.869781079732394E-09
Job Status                                 I                1
Nuclear derivative order                   I                1
External E-field                           R   N=          35
  0.00000000E+00  0.00000000E+00  0.00000000E+00  0.00000000E+00  0.00000000E+00
  0.00000000E+00  0.00000000E+00  0.00000000E+00  0.00000000E+00  0.00000000E+00
  0.00000000E+00  0.00000000E+00  0.00000000E+00  0.00000000E+00  0.00000000E+00
  0.00000000E+00  0.00000000E+00  0.00000000E+00  0.00000000E+00  0.00000000E+00
  0.00000000E+00  0.00000000E+00  0.00000000E+00  0.00000000E+00  0.00000000E+00
  0.00000000E+00  0.00000000E+00  0.00000000E+00  0.00000000E+00  0.00000000E+00
  0.00000000E+00  0.00000000E+00  0.00000000E+00  0.00000000E+00  0.00000000E+00
IOpCl                                      I                1
IROHF                                      I                0
Alpha Orbital Energies                     R   N=          56
 -1.09640924E+01 -1.09630802E+01 -1.18127683E+00 -9.79268615E-01 -8.83487428E-01
 -6.94222895E-01 -6.69656947E-01 -3.07182032E-01 -2.86968703E-01 -1.76494041E-01
 -1.44040805E-01 -1.12769581E-01 -9.87593308E-02 -9.63534611E-02 -8.51057991E-02
 -5.04156802E-02 -4.65647070E-02  2.15230752E-02  4.43747498E-02  1.28128698E-01
  1.98872665E-01  3.04823278E-01  3.17057137E-01  3.67185437E-01  3.73153038E-01
  4.65273991E-01  4.85970732E-01  5.16687668E-01  5.51353365E-01  7.24461290E-01
  7.39418217E-01  8.12157905E-01  8.82000042E-01  8.83650019E-01  1.14408350E+00
  1.15048465E+00  1.18293975E+00  1.18419098E+00  1.39170051E+00  1.47401493E+00
  1.48559817E+00  1.67338331E+00  2.03011291E+00  2.04972829E+00  2.25409619E+00
  2.39714541E+00  2.42049114E+00  2.42554045E+00  2.55134708E+00  2.55659484E+00
  2.58896237E+00  2.89794510E+00  2.95971764E+00  3.35308500E+00  2.32037686E+01
  2.41204147E+01
Beta Orbital Energies                      R   N=          56
 -1.09617103E+01 -1.09608940E+01 -1.13617390E+00 -9.62937850E-01 -8.77965151E-01
 -6.46129591E-01 -4.42437581E-01 -2.70236236E-01 -2.36581996E-01 -1.62016380E-01
 -1.55502368E-01 -1.14945894E-01 -1.01820879E-01 -9.92972566E-02 -8.29113946E-02
 -4.65690398E-02 -4.16579649E-02  1.70234986E-02  4.61849696E-02  1.33983058E-01
  2.07881893E-01  2.92505985E-01  3.16441905E-01  3.56977159E-01  3.72219859E-01
  4.44209047E-01  4.84846411E-01  5.41843461E-01  5.64726672E-01  7.58286760E-01
  7.65648329E-01  7.83326433E-01  9.19108402E-01  9.40913302E-01  1.15901803E+00
  1.16955785E+00  1.21196026E+00  1.23265006E+00  1.40792058E+00  1.49451712E+00
  1.50241100E+00  1.69788720E+00  2.05594898E+00  2.06367369E+00  2.27552094E+00
  2.43035130E+00  2.43659389E+00  2.44040737E+00  2.59642164E+00  2.60206886E+00
  2.60577921E+00  2.92620402E+00  3.05423943E+00  3.36443213E+00  2.32137649E+01
  2.41404452E+01
Alpha MO coefficients                      R   N=        3136
  3.98935963E-01  3.28154971E-01  0.00000000E+00  0.00000000E+00 -6.19924414E-04
  7.58522370E-03  0.00000000E+00  0.00000000E+00  2.05374352E-03 -3.07943923E-03
  0.00000000E+00  0.00000000E+00 -3.57058754E-04 -4.15683000E-04  0.00000000E+00
  0.00000000E+00 -1.55779357E-03  8.52229630E-04  0.00000000E+00  0.00000000E+00
  3.53774570E-05  0.00000000E+00  3.98935963E-01  3.28154971E-01  0.00000000E+00
  0.00000000E+00  6.19924414E-04  7.58522370E-03  0.00000000E+00  0.00000000E+00
 -2.05374352E-03 -3.07943923E-03  0.00000000E+00  0.00000000E+00  3.57058754E-04
 -4.15683000E-04  0.00000000E+00  0.00000000E+00  1.55779357E-03  8.52229630E-04
  0.00000000E+00  0.00000000E+00  3.53774570E-05  0.00000000E+00  1.43122909E-04
 -2.87709865E-03  2.84128054E-03  0.00000000E+00  0.00000000E+00  1.67559490E-03
  1.43122909E-04 -2.87709865E-03  2.84128054E-03  0.00000000E+00  0.00000000E+00
 -1.67559490E-03  3.99106972E-01  3.27701476E-01  0.00000000E+00  0.00000000E+00
  1.91877337E-04  9.68784511E-03  0.00000000E+00  0.00000000E+00 -1.58894988E-03
 -1.00255849E-02  0.00000000E+00  0.00000000E+00  1.03115334E-02 -8.99296639E-03
  0.00000000E+00  0.00000000E+00  2.50900748E-03  3.81035096E-03  0.00000000E+00
  0.00000000E+00  4.40982119E-05  0.00000000E+00 -3.99106972E-01 -3.27701476E-01
  0.00000000E+00  0.00000000E+00  1.91877337E-04 -9.68784511E-03  0.00000000E+00
  0.00000000E+00 -1.58894988E-03  1.00255849E-02  0.00000000E+00  0.00000000E+00
  1.03115334E-02  8.99296639E-03  0.00000000E+00  0.00000000E+00  2.50900748E-03
 -3.81035096E-03  0.00000000E+00  0.00000000E+00 -4.40982119E-05  0.00000000E+00
 -6.29453234E-05 -5.27168314E-03 -1.77734588E-03  0.00000000E+00  0.00000000E+00
  2.27185452E-03  6.29453234E-05  5.27168314E-03  1.77734588E-03  0.00000000E+00
  0.00000000E+00  2.27185452E-03 -8.93616315E-02 -1.45193819E-01  0.00000000E+00
  0.00000000E+00 -6.35516606E-02  4.02012675E-01  0.00000000E+00  0.00000000E+00
 -8.30699310E-02  2.12050484E-01  0.00000000E+00  0.00000000E+00 -1.54344472E-02
 -4.28065932E-03  0.00000000E+00  0.00000000E+00  2.04090265E-02  2.26457140E-02
  0.00000000E+00  0.00000000E+00  5.26067606E-03  0.00000000E+00 -8.93616315E-02
 -1.45193819E-01  0.00000000E+00  0.00000000E+00  6.35516606E-02  4.02012675E-01
  0.00000000E+00  0.00000000E+00  8.30699310E-02  2.12050484E-01  0.00000000E+00
  0.00000000E+00  1.54344472E-02 -4.28065932E-03  0.00000000E+00  0.00000000E+00
 -2.04090265E-02  2.26457140E-02  0.00000000E+00  0.00000000E+00  5.26067606E-03
  0.00000000E+00  4.17453157E-02  4.38419141E-02 -1.83875262E-02  0.00000000E+00
  0.00000000E+00 -4.29705887E-03  4.17453157E-02  4.38419141E-02 -1.83875262E-02
  0.00000000E+00  0.00000000E+00  4.29705887E-03 -6.79600423E-02 -1.12407426E-01
  0.00000000E+00  0.00000000E+00  9.43149240E-02  3.20647121E-01  0.00000000E+00
  0.00000000E+00  1.26608605E-01  2.74255798E-01  0.00000000E+00  0.00000000E+00
  2.72850447E-02 -2.64825764E-01  0.00000000E+00  0.00000000E+00  7.66506344E-02
  1.22559436E-02  0.00000000E+00  0.00000000E+00  3.87879967E-03  0.00000000E+00
  6.79600423E-02  1.12407426E-01  0.00000000E+00  0.00000000E+00  9.43149240E-02
 -3.20647121E-01  0.00000000E+00  0.00000000E+00  1.26608605E-01 -2.74255798E-01
  0.00000000E+00  0.00000000E+00  2.72850447E-02  2.64825764E-01  0.00000000E+00
  0.00000000E+00  7.66506344E-02 -1.22559436E-02  0.00000000E+00  0.00000000E+00
 -3.87879967E-03  0.00000000E+00  1.22414741E-01  1.57082842E-01 -4.00101476E-03
  0.00000000E+00  0.00000000E+00 -2.01773810E-02 -1.22414741E-01 -1.57082842E-01
  4.00101476E-03  0.00000000E+00  0.00000000E+00 -2.01773810E-02 -7.83875198E-03
 -1.24819138E-02  0.00000000E+00  0.00000000E+00  1.88373560E-01  3.16812740E-02
  0.00000000E+00  0.00000000E+00  2.58204796E-01  7.76313859E-02  0.00000000E+00
  0.00000000E+00  1.08234136E-01  8.12356297E-03  0.00000000E+00  0.00000000E+00
  6.57514907E-03 -6.52501555E-03  0.00000000E+00  0.00000000E+00  1.07284928E-04
  0.00000000E+00 -7.83875198E-03 -1.24819138E-02  0.00000000E+00  0.00000000E+00
 -1.88373560E-01  3.16812740E-02  0.00000000E+00  0.00000000E+00 -2.58204796E-01
  7.76313859E-02  0.00000000E+00  0.00000000E+00 -1.08234136E-01  8.12356297E-03
  0.00000000E+00  0.00000000E+00 -6.57514907E-03 -6.52501555E-03  0.00000000E+00
  0.00000000E+00  1.07284928E-04  0.00000000E+00  1.30779491E-01  1.81317036E-01
 -2.24133638E-03  0.00000000E+00  0.00000000E+00 -2.51790722E-02  1.30779491E-01
  1.81317036E-01 -2.24133638E-03  0.00000000E+00  0.00000000E+00  2.51790722E-02
  0.00000000E+00  0.00000000E+00  1.97359941E-01  0.00000000E+00  0.00000000E+00
  0.00000000E+00  3.25543147E-01  0.00000000E+00  0.00000000E+00  0.00000000E+00
  2.16207666E-01  0.00000000E+00  0.00000000E+00  0.00000000E+00 -6.16308762E-03
  0.00000000E+00  0.00000000E+00  0.00000000E+00 -3.13726265E-02  0.00000000E+00
  0.00000000E+00  0.00000000E+00  0.00000000E+00  0.00000000E+00  1.97359941E-01
  0.00000000E+00  0.00000000E+00  0.00000000E+00  3.25543147E-01  0.00000000E+00
  0.00000000E+00  0.00000000E+00  2.16207666E-01  0.00000000E+00  0.00000000E+00
  0.00000000E+00 -6.16308762E-03  0.00000000E+00  0.00000000E+00  0.00000000E+00
  3.13726265E-02  0.00000000E+00  0.00000000E+00  0.00000000E+00  0.00000000E+00
  0.00000000E+00  0.00000000E+00  1.29676793E-02  0.00000000E+00  0.00000000E+00
  0.00000000E+00  0.00000000E+00  0.00000000E+00  1.29676793E-02  0.00000000E+00
  0.00000000E+00  0.00000000E+00  0.00000000E+00  0.00000000E+00  1.96515717E-01
  0.00000000E+00  0.00000000E+00  0.00000000E+00  3.24310544E-01  0.00000000E+00
  0.00000000E+00  0.00000000E+00  2.15888510E-01  0.00000000E+00  0.00000000E+00
  0.00000000E+00 -2.43693597E-03  0.00000000E+00  0.00000000E+00  0.00000000E+00
 -3.04737968E-02  0.00000000E+00  0.00000000E+00  0.00000000E+00  0.00000000E+00
  0.00000000E+00  1.96515717E-01  0.00000000E+00  0.00000000E+00  0.00000000E+00
  3.24310544E-01  0.00000000E+00  0.00000000E+00  0.00000000E+00  2.15888510E-01
  0.00000000E+00  0.00000000E+00  0.00000000E+00 -2.43693597E-03  0.00000000E+00
  0.00000000E+00  0.00000000E+00  3.04737968E-02  0.00000000E+00  0.00000000E+00
  0.00000000E+00  0.00000000E+00  0.00000000E+00  0.00000000E+00  1.43444511E-02
  0.00000000E+00  0.00000000E+00  0.00000000E+00  0.00000000E+00  0.00000000E+00
  1.43444511E-02  0.00000000E+00  0.00000000E+00  0.00000000E+00  2.14951869E-01
  0.00000000E+00  0.00000000E+00  0.00000000E+00  3.49379882E-01  0.00000000E+00
  0.00000000E+00  0.00000000E+00  4.55440879E-01  0.00000000E+00  0.00000000E+00
  0.00000000E+00  1.34537754E-01  0.00000000E+00  0.00000000E+00  0.00000000E+00
  3.06879638E-02  0.00000000E+00  0.00000000E+00  0.00000000E+00  0.00000000E+00
  0.00000000E+00 -2.14951869E-01  0.00000000E+00  0.00000000E+00  0.00000000E+00
 -3.49379882E-01  0.00000000E+00  0.00000000E+00  0.00000000E+00 -4.55440879E-01
  0.00000000E+00  0.00000000E+00  0.00000000E+00 -1.34537754E-01  0.00000000E+00
  0.00000000E+00  0.00000000E+00  3.06879638E-02  0.00000000E+00  0.00000000E+00
  0.00000000E+00  0.00000000E+00  0.00000000E+00  0.00000000E+00  2.53108625E-02
  0.00000000E+00  0.00000000E+00  0.00000000E+00  0.00000000E+00  0.00000000E+00
 -2.53108625E-02  0.00000000E+00  0.00000000E+00  0.00000000E+00  0.00000000E+00
  0.00000000E+00  2.11027539E-01  0.00000000E+00  0.00000000E+00  0.00000000E+00
  3.38375480E-01  0.00000000E+00  0.00000000E+00  0.00000000E+00  4.65416461E-01
  0.00000000E+00  0.00000000E+00  0.00000000E+00  1.70677336E-01  0.00000000E+00
  0.00000000E+00  0.00000000E+00  3.24921982E-02  0.00000000E+00  0.00000000E+00
  0.00000000E+00  0.00000000E+00  0.00000000E+00 -2.11027539E-01  0.00000000E+00
  0.00000000E+00  0.00000000E+00 -3.38375480E-01  0.00000000E+00  0.00000000E+00
  0.00000000E+00 -4.65416461E-01  0.00000000E+00  0.00000000E+00  0.00000000E+00
 -1.70677336E-01  0.00000000E+00  0.00000000E+00  0.00000000E+00  3.24921982E-02
  0.00000000E+00  0.00000000E+00  0.00000000E+00  0.00000000E+00  0.00000000E+00
  0.00000000E+00  2.68521794E-02  0.00000000E+00  0.00000000E+00  0.00000000E+00
  0.00000000E+00  0.00000000E+00 -2.68521794E-02  0.00000000E+00 -5.93016063E-02
 -1.01998406E-01  0.00000000E+00  0.00000000E+00 -1.81635285E-02  3.17803369E-01
  0.00000000E+00  0.00000000E+00 -1.85948263E-02  1.00530375E+00  0.00000000E+00
  0.00000000E+00 -8.27810970E-02  5.29697869E+00  0.00000000E+00  0.00000000E+00
 -1.70516363E+00 -4.78276437E-02  0.00000000E+00  0.00000000E+00  5.40712876E-03
  0.00000000E+00  5.93016063E-02  1.01998406E-01  0.00000000E+00  0.00000000E+00
 -1.81635285E-02 -3.17803369E-01  0.00000000E+00  0.00000000E+00 -1.85948263E-02
 -1.00530375E+00  0.00000000E+00  0.00000000E+00 -8.27810970E-02 -5.29697869E+00
  0.00000000E+00  0.00000000E+00 -1.70516363E+00  4.78276437E-02  0.00000000E+00
  0.00000000E+00 -5.40712876E-03  0.00000000E+00 -9.15618020E-02 -2.82218281E-01
 -4.78963483E-01  0.00000000E+00  0.00000000E+00 -1.80682431E-02  9.15618020E-02
  2.82218281E-01  4.78963483E-01  0.00000000E+00  0.00000000E+00 -1.80682431E-02
  2.38149172E-02  4.15748699E-02  0.00000000E+00  0.00000000E+00 -3.17967557E-02
 -1.53380695E-01  0.00000000E+00  0.00000000E+00 -6.20846162E-02 -3.08727257E-01
  0.00000000E+00  0.00000000E+00 -6.13681907E-02  9.46546778E-01  0.00000000E+00
  0.00000000E+00  5.36517157E-01 -2.04559027E-02  0.00000000E+00  0.00000000E+00
  8.95257366E-04  0.00000000E+00  2.38149172E-02  4.15748699E-02  0.00000000E+00
  0.00000000E+00  3.17967557E-02 -1.53380695E-01  0.00000000E+00  0.00000000E+00
  6.20846162E-02 -3.08727257E-01  0.00000000E+00  0.00000000E+00  6.13681907E-02
  9.46546778E-01  0.00000000E+00  0.00000000E+00 -5.36517157E-01 -2.04559027E-02
  0.00000000E+00  0.00000000E+00  8.95257366E-04  0.00000000E+00 -2.35608354E-02
  3.86932115E-02 -2.73886937E-01  0.00000000E+00  0.00000000E+00  8.76996160E-03
 -2.35608354E-02  3.86932115E-02 -2.73886937E-01  0.00000000E+00  0.00000000E+00
 -8.76996160E-03  1.15037696E-03  1.31455133E-03  0.00000000E+00  0.00000000E+00
 -9.81330398E-02  3.12664262E-02  0.00000000E+00  0.00000000E+00 -1.45142861E-01
 -2.53071133E-01  0.00000000E+00  0.00000000E+00 -2.58358700E-01 -2.75223733E-01
  0.00000000E+00  0.00000000E+00  8.05068111E-01  4.65246097E-02  0.00000000E+00
  0.00000000E+00 -3.59992476E-03  0.00000000E+00  1.15037696E-03  1.31455133E-03
  0.00000000E+00  0.00000000E+00  9.81330398E-02  3.12664262E-02  0.00000000E+00
  0.00000000E+00  1.45142861E-01 -2.53071133E-01  0.00000000E+00  0.00000000E+00
  2.58358700E-01 -2.75223733E-01  0.00000000E+00  0.00000000E+00 -8.05068111E-01
  4.65246097E-02  0.00000000E+00  0.00000000E+00 -3.59992476E-03  0.00000000E+00
  5.81101772E-02  2.01957549E-01  6.36836540E-01  0.00000000E+00  0.00000000E+00
  2.39720073E-02  5.81101772E-02  2.01957549E-01  6.36836540E-01  0.00000000E+00
  0.00000000E+00 -2.39720073E-02  0.00000000E+00  0.00000000E+00 -6.97193865E-02
  0.00000000E+00  0.00000000E+00  0.00000000E+00 -8.26013475E-02  0.00000000E+00
  0.00000000E+00  0.00000000E+00 -2.03364148E-01  0.00000000E+00  0.00000000E+00
  0.00000000E+00  6.19214377E-01  0.00000000E+00  0.00000000E+00  0.00000000E+00
  1.76385411E-02  0.00000000E+00  0.00000000E+00  0.00000000E+00  0.00000000E+00
  0.00000000E+00 -6.97193865E-02  0.00000000E+00  0.00000000E+00  0.00000000E+00
 -8.26013475E-02  0.00000000E+00  0.00000000E+00  0.00000000E+00 -2.03364148E-01
  0.00000000E+00  0.00000000E+00  0.00000000E+00  6.19214377E-01  0.00000000E+00
  0.00000000E+00  0.00000000E+00 -1.76385411E-02  0.00000000E+00  0.00000000E+00
  0.00000000E+00  0.00000000E+00  0.00000000E+00  0.00000000E+00  7.49569690E-03
  0.00000000E+00  0.00000000E+00  0.00000000E+00  0.00000000E+00  0.00000000E+00
  7.49569690E-03  0.00000000E+00  0.00000000E+00  0.00000000E+00  0.00000000E+00
  0.00000000E+00 -6.93464977E-02  0.00000000E+00  0.00000000E+00  0.00000000E+00
 -8.98424583E-02  0.00000000E+00  0.00000000E+00  0.00000000E+00 -2.00003326E-01
  0.00000000E+00  0.00000000E+00  0.00000000E+00  6.17355937E-01  0.00000000E+00
  0.00000000E+00  0.00000000E+00  1.72804647E-02  0.00000000E+00  0.00000000E+00
  0.00000000E+00  0.00000000E+00  0.00000000E+00 -6.93464977E-02  0.00000000E+00
  0.00000000E+00  0.00000000E+00 -8.98424583E-02  0.00000000E+00  0.00000000E+00
  0.00000000E+00 -2.00003326E-01  0.00000000E+00  0.00000000E+00  0.00000000E+00
  6.17355937E-01  0.00000000E+00  0.00000000E+00  0.00000000E+00 -1.72804647E-02
  0.00000000E+00  0.00000000E+00  0.00000000E+00  0.00000000E+00  0.00000000E+00
  0.00000000E+00  6.95000874E-03  0.00000000E+00  0.00000000E+00  0.00000000E+00
  0.00000000E+00  0.00000000E+00  6.95000874E-03  0.00000000E+00  2.62438466E-02
  4.45870789E-02  0.00000000E+00  0.00000000E+00  6.55085090E-02 -1.21193139E-01
  0.00000000E+00  0.00000000E+00  1.03849960E-01 -6.04179305E-01  0.00000000E+00
  0.00000000E+00 -2.02653163E-03  1.81680828E+00  0.00000000E+00  0.00000000E+00
 -1.46468295E+00  5.55440340E-02  0.00000000E+00  0.00000000E+00 -4.37514159E-03
  0.00000000E+00 -2.62438466E-02 -4.45870789E-02  0.00000000E+00  0.00000000E+00
  6.55085090E-02  1.21193139E-01  0.00000000E+00  0.00000000E+00  1.03849960E-01
  6.04179305E-01  0.00000000E+00  0.00000000E+00 -2.02653163E-03 -1.81680828E+00
  0.00000000E+00  0.00000000E+00 -1.46468295E+00 -5.55440340E-02  0.00000000E+00
  0.00000000E+00  4.37514159E-03  0.00000000E+00  9.57062884E-02  2.25354191E-01
  9.55130133E-01  0.00000000E+00  0.00000000E+00 -2.81827536E-03 -9.57062884E-02
 -2.25354191E-01 -9.55130133E-01  0.00000000E+00  0.00000000E+00 -2.81827536E-03
  0.00000000E+00  0.00000000E+00 -8.39384896E-02  0.00000000E+00  0.00000000E+00
  0.00000000E+00 -1.11247153E-01  0.00000000E+00  0.00000000E+00  0.00000000E+00
 -3.22570141E-01  0.00000000E+00  0.00000000E+00  0.00000000E+00  2.10163262E+00
  0.00000000E+00  0.00000000E+00  0.00000000E+00 -3.08091257E-04  0.00000000E+00
  0.00000000E+00  0.00000000E+00  0.00000000E+00  0.00000000E+00  8.39384896E-02
  0.00000000E+00  0.00000000E+00  0.00000000E+00  1.11247153E-01  0.00000000E+00
  0.00000000E+00  0.00000000E+00  3.22570141E-01  0.00000000E+00  0.00000000E+00
  0.00000000E+00 -2.10163262E+00  0.00000000E+00  0.00000000E+00  0.00000000E+00
 -3.08091257E-04  0.00000000E+00  0.00000000E+00  0.00000000E+00  0.00000000E+00
  0.00000000E+00  0.00000000E+00  9.48270493E-03  0.00000000E+00  0.00000000E+00
  0.00000000E+00  0.00000000E+00  0.00000000E+00 -9.48270493E-03  0.00000000E+00
  0.00000000E+00  0.00000000E+00  0.00000000E+00  0.00000000E+00 -8.75877180E-02
  0.00000000E+00  0.00000000E+00  0.00000000E+00 -1.21377383E-01  0.00000000E+00
  0.00000000E+00  0.00000000E+00 -3.29845187E-01  0.00000000E+00  0.00000000E+00
  0.00000000E+00  2.09614350E+00  0.00000000E+00  0.00000000E+00  0.00000000E+00
 -2.55581594E-03  0.00000000E+00  0.00000000E+00  0.00000000E+00  0.00000000E+00
  0.00000000E+00  8.75877180E-02  0.00000000E+00  0.00000000E+00  0.00000000E+00
  1.21377383E-01  0.00000000E+00  0.00000000E+00  0.00000000E+00  3.29845187E-01
  0.00000000E+00  0.00000000E+00  0.00000000E+00 -2.09614350E+00  0.00000000E+00
  0.00000000E+00  0.00000000E+00 -2.55581594E-03  0.00000000E+00  0.00000000E+00
  0.00000000E+00  0.00000000E+00  0.00000000E+00  0.00000000E+00  7.84746153E-03