Title Card Required                                                     
FOpt      UM062X                                                      6-311+G(d,p)        
Number of atoms                            I                4
Info1-9                                    I   N=           9
          13          13           0           0           0         110
           2          18        -502
Full Title                                 C   N=           2
Title Card Required     
Route                                      C   N=           4
#p opt UM062X/6-311+G** nosymm int=superfine    
Charge                                     I                1
Multiplicity                               I                2
Number of electrons                        I               13
Number of alpha electrons                  I                7
Number of beta electrons                   I                6
Number of basis functions                  I               56
Number of independent functions            I               56
Number of point charges in /Mol/           I                0
Number of translation vectors              I                0
Atomic numbers                             I   N=           4
           6           6           1           1
Nuclear charges                            R   N=           4
  6.00000000E+00  6.00000000E+00  1.00000000E+00  1.00000000E+00
Current cartesian coordinates              R   N=          12
 -3.60401008E+00  0.00000000E+00  0.00000000E+00  3.60401008E+00  0.00000000E+00
  0.00000000E+00 -5.71603339E+00  3.48448829E-11  1.00523610E-10  5.71603173E+00
  7.51517957E-12  3.72030211E-11
Number of symbols in /Mol/                 I                0
Force Field                                I                0
Atom Types                                 C   N=           4
                                                
Int Atom Types                             I   N=           4
           0           0           0           0
MM charges                                 R   N=           4
  0.00000000E+00  0.00000000E+00  0.00000000E+00  0.00000000E+00
Integer atomic weights                     I   N=           4
          12          12           1           1
Real atomic weights                        R   N=           4
  1.20000000E+01  1.20000000E+01  1.00782504E+00  1.00782504E+00
Atom fragment info                         I   N=           4
           0           0           0           0
Atom residue num                           I   N=           4
           0           0           0           0
Nuclear spins                              I   N=           4
           0           0           1           1
Nuclear ZEff                               R   N=           4
 -3.60000000E+00 -3.60000000E+00 -1.00000000E+00 -1.00000000E+00
Nuclear ZNuc                               R   N=           4
  6.00000000E+00  6.00000000E+00  1.00000000E+00  1.00000000E+00
Nuclear QMom                               R   N=           4
  0.00000000E+00  0.00000000E+00  0.00000000E+00  0.00000000E+00
Nuclear GFac                               R   N=           4
  0.00000000E+00  0.00000000E+00  2.79284600E+00  2.79284600E+00
MicOpt                                     I   N=           4
          -2          -2          -1          -1
Number of residues                         I                0
Number of secondary structures             I                0
Redundant internal dimensions              I   N=           4
          12           8           4           0
Redundant internal coordinate indices      I   N=          48
           1          -1           0           0           1          -2
           0           0           1          -3           0           0
           2          -1           0           0           2          -2
           0           0           2          -3           0           0
           1           3           0           0           2           4
           0           0           2           1           3          -4
           1           2           4          -4           2           1
           3          -8           1           2           4          -8
Redundant internal coordinates             R   N=          12
 -3.60401008E+00  0.00000000E+00  0.00000000E+00  3.60401008E+00  0.00000000E+00
  0.00000000E+00  2.11202331E+00  2.11202165E+00  3.14159265E+00  3.14159265E+00
  3.14159265E+00  3.14159265E+00
ZRed-IntVec                                I   N=          12
          -1          -1          -1          -1          -1          -1
           0           0           0           0           0           0
ZRed-FPVec                                 R   N=          12
  0.00000000E+00  0.00000000E+00  0.00000000E+00  0.00000000E+00  0.00000000E+00
  0.00000000E+00  0.00000000E+00  0.00000000E+00  0.00000000E+00  0.00000000E+00
  0.00000000E+00  0.00000000E+00
ZRed-Constraint1                           R   N=          12
 -3.60401008E+00  0.00000000E+00  0.00000000E+00  3.60401008E+00  0.00000000E+00
  0.00000000E+00  2.08057524E+00  2.08053366E+00  3.14159265E+00  3.14159265E+00
  3.14159265E+00  3.14159265E+00
ZRed-Constraint2                           R   N=          12
 -3.60401008E+00  0.00000000E+00  0.00000000E+00  3.60401008E+00  0.00000000E+00
  0.00000000E+00  0.00000000E+00  0.00000000E+00  0.00000000E+00  0.00000000E+00
  0.00000000E+00  0.00000000E+00
Number of contracted shells                I               20
Number of primitive shells                 I               38
Pure/Cartesian d shells                    I                0
Pure/Cartesian f shells                    I                0
Highest angular momentum                   I                2
Largest degree of contraction              I                6
Shell types                                I   N=          20
           0          -1          -1          -1          -1          -2
           0          -1          -1          -1          -1          -2
           0           0           0           1           0           0
           0           1
Number of primitives per shell             I   N=          20
           6           3           1           1           1           1
           6           3           1           1           1           1
           3           1           1           1           3           1
           1           1
Shell to atom map                          I   N=          20
           1           1           1           1           1           1
           2           2           2           2           2           2
           3           3           3           3           4           4
           4           4
Primitive exponents                        R   N=          38
  4.56324000E+03  6.82024000E+02  1.54973000E+02  4.44553000E+01  1.30290000E+01
  1.82773000E+00  2.09642000E+01  4.80331000E+00  1.45933000E+00  4.83456000E-01
  1.45585000E-01  4.38000000E-02  6.26000000E-01  4.56324000E+03  6.82024000E+02
  1.54973000E+02  4.44553000E+01  1.30290000E+01  1.82773000E+00  2.09642000E+01
  4.80331000E+00  1.45933000E+00  4.83456000E-01  1.45585000E-01  4.38000000E-02
  6.26000000E-01  3.38650000E+01  5.09479000E+00  1.15879000E+00  3.25840000E-01
  1.02741000E-01  7.50000000E-01  3.38650000E+01  5.09479000E+00  1.15879000E+00
  3.25840000E-01  1.02741000E-01  7.50000000E-01
Contraction coefficients                   R   N=          38
  1.96665025E-03  1.52306019E-02  7.61269097E-02  2.60801033E-01  6.16462078E-01
  2.21006028E-01  1.14660081E-01  9.19999648E-01 -3.03068213E-03  1.00000000E+00
  1.00000000E+00  1.00000000E+00  1.00000000E+00  1.96665025E-03  1.52306019E-02
  7.61269097E-02  2.60801033E-01  6.16462078E-01  2.21006028E-01  1.14660081E-01
  9.19999648E-01 -3.03068213E-03  1.00000000E+00  1.00000000E+00  1.00000000E+00
  1.00000000E+00  2.54938145E-02  1.90373109E-01  8.52161486E-01  1.00000000E+00
  1.00000000E+00  1.00000000E+00  2.54938145E-02  1.90373109E-01  8.52161486E-01
  1.00000000E+00  1.00000000E+00  1.00000000E+00
P(S=P) Contraction coefficients            R   N=          38
  0.00000000E+00  0.00000000E+00  0.00000000E+00  0.00000000E+00  0.00000000E+00
  0.00000000E+00  4.02486927E-02  2.37593957E-01  8.15853851E-01  1.00000000E+00
  1.00000000E+00  1.00000000E+00  0.00000000E+00  0.00000000E+00  0.00000000E+00
  0.00000000E+00  0.00000000E+00  0.00000000E+00  0.00000000E+00  4.02486927E-02
  2.37593957E-01  8.15853851E-01  1.00000000E+00  1.00000000E+00  1.00000000E+00
  0.00000000E+00  0.00000000E+00  0.00000000E+00  0.00000000E+00  0.00000000E+00
  0.00000000E+00  0.00000000E+00  0.00000000E+00  0.00000000E+00  0.00000000E+00
  0.00000000E+00  0.00000000E+00  0.00000000E+00
Coordinates of each shell                  R   N=          60
 -3.60401008E+00  0.00000000E+00  0.00000000E+00 -3.60401008E+00  0.00000000E+00
  0.00000000E+00 -3.60401008E+00  0.00000000E+00  0.00000000E+00 -3.60401008E+00
  0.00000000E+00  0.00000000E+00 -3.60401008E+00  0.00000000E+00  0.00000000E+00
 -3.60401008E+00  0.00000000E+00  0.00000000E+00  3.60401008E+00  0.00000000E+00
  0.00000000E+00  3.60401008E+00  0.00000000E+00  0.00000000E+00  3.60401008E+00
  0.00000000E+00  0.00000000E+00  3.60401008E+00  0.00000000E+00  0.00000000E+00
  3.60401008E+00  0.00000000E+00  0.00000000E+00  3.60401008E+00  0.00000000E+00
  0.00000000E+00 -5.71603339E+00  3.48448829E-11  1.00523610E-10 -5.71603339E+00
  3.48448829E-11  1.00523610E-10 -5.71603339E+00  3.48448829E-11  1.00523610E-10
 -5.71603339E+00  3.48448829E-11  1.00523610E-10  5.71603173E+00  7.51517957E-12
  3.72030211E-11  5.71603173E+00  7.51517957E-12  3.72030211E-11  5.71603173E+00
  7.51517957E-12  3.72030211E-11  5.71603173E+00  7.51517957E-12  3.72030211E-11
Num ILSW                                   I              100
ILSW                                       I   N=         100
           1           0           0           0           2           0
           0           0           0           0        4336          -1
           7           0           0           0           2           0
           0           0           0           0           1           0
           1           1           0           0           0           0
           0           0      100000           0          -1           0
           0           0           0           0           0           0
           0           0           0           1           0           0
           0 -2000000000           1           0           0           0
           0           0           4          52           0           0
           0           0          55           0           0           0
           0           0           0           4           0           1
           0           0           0           0           0           0
           0           0           0           0           0           0
           0           0           0           0           0           0
           0           0           0           0           0           0
           0           0           0           0
Num RLSW                                   I               52
RLSW                                       R   N=          52
  1.00000000E+00  1.00000000E+00  1.00000000E+00  1.00000000E+00  5.40000000E-01
  0.00000000E+00  0.00000000E+00  1.00000000E+00  0.00000000E+00  0.00000000E+00
  0.00000000E+00  0.00000000E+00  1.00000000E+00  0.00000000E+00  0.00000000E+00
  0.00000000E+00  0.00000000E+00  1.00000000E+00  0.00000000E+00  0.00000000E+00
  0.00000000E+00  0.00000000E+00  1.00000000E+00  0.00000000E+00  0.00000000E+00
  0.00000000E+00  0.00000000E+00  1.00000000E+00  0.00000000E+00  0.00000000E+00
  0.00000000E+00  0.00000000E+00  1.00000000E+00  0.00000000E+00  0.00000000E+00
  0.00000000E+00  0.00000000E+00  0.00000000E+00  1.00000000E+00  1.00000000E+00
  0.00000000E+00  1.00000000E+00  0.00000000E+00  0.00000000E+00  0.00000000E+00
  0.00000000E+00  0.00000000E+00  0.00000000E+00  0.00000000E+00  0.00000000E+00
  0.00000000E+00  0.00000000E+00
MxBond                                     I                2
NBond                                      I   N=           4
           2           2           1           1
IBond                                      I   N=           8
           2           3           1           4           1           0
           2           0
RBond                                      R   N=           8
  1.00000000E-01  1.00000000E+00  1.00000000E-01  1.00000000E+00  1.00000000E+00
  0.00000000E+00  1.00000000E+00  0.00000000E+00
Virial Ratio                               R      2.002947121276158E+00
SCF Energy                                 R     -7.658507511922244E+01
Total Energy                               R     -7.658507511922244E+01
S**2                                       R      7.513211315105206E-01
S**2 after annihilation                    R      7.500012512519851E-01
RMS Force                                  R      1.220583554390888E-04
RMS Density                                R      3.628802992378029E-10
Job Status                                 I                1
Nuclear derivative order                   I                1
External E-field                           R   N=          35
  0.00000000E+00  0.00000000E+00  0.00000000E+00  0.00000000E+00  0.00000000E+00
  0.00000000E+00  0.00000000E+00  0.00000000E+00  0.00000000E+00  0.00000000E+00
  0.00000000E+00  0.00000000E+00  0.00000000E+00  0.00000000E+00  0.00000000E+00
  0.00000000E+00  0.00000000E+00  0.00000000E+00  0.00000000E+00  0.00000000E+00
  0.00000000E+00  0.00000000E+00  0.00000000E+00  0.00000000E+00  0.00000000E+00
  0.00000000E+00  0.00000000E+00  0.00000000E+00  0.00000000E+00  0.00000000E+00
  0.00000000E+00  0.00000000E+00  0.00000000E+00  0.00000000E+00  0.00000000E+00
IOpCl                                      I                1
IROHF                                      I                0
Alpha Orbital Energies                     R   N=          56
 -1.09444702E+01 -1.09444638E+01 -9.81323998E-01 -9.79962093E-01 -6.40081558E-01
 -6.27061368E-01 -4.80460650E-01 -4.05730979E-01 -3.33092280E-01 -3.29603284E-01
 -1.22857625E-01 -1.13403427E-01 -7.69059925E-02 -7.24708248E-02 -5.40974243E-02
 -4.75304954E-02 -4.40750697E-02 -1.58987183E-02 -5.08156531E-03  5.84731654E-02
  2.55268558E-01  2.97181819E-01  3.56618755E-01  3.62927839E-01  3.71630506E-01
  3.80021446E-01  3.88955896E-01  4.92458820E-01  5.23900005E-01  5.95254903E-01
  8.95896394E-01  8.95919495E-01  8.97508046E-01  8.98490101E-01  1.07762392E+00
  1.07818044E+00  1.08816444E+00  1.08871345E+00  1.35397590E+00  1.36107065E+00
  1.62888888E+00  1.62936941E+00  1.63188910E+00  1.63217173E+00  2.16309847E+00
  2.17934760E+00  2.26992417E+00  2.32085704E+00  2.43320352E+00  2.44763913E+00
  2.45101782E+00  2.46526401E+00  2.90724692E+00  2.99880533E+00  2.32542500E+01
  2.32712958E+01
Beta Orbital Energies                      R   N=          56
 -1.09403503E+01 -1.09403479E+01 -9.57376397E-01 -9.56779795E-01 -6.26730587E-01
 -6.12930238E-01 -3.14805785E-01 -3.10375407E-01 -2.98904356E-01 -2.93829812E-01
 -1.27606888E-01 -1.12650210E-01 -7.08092768E-02 -6.30240192E-02 -6.08190037E-02
 -4.01218205E-02 -3.08042673E-02 -2.06616323E-02  1.05542073E-02  7.47042621E-02
  2.47065727E-01  2.99653795E-01  3.66780888E-01  3.69314598E-01  3.86449213E-01
  3.88146449E-01  3.88185986E-01  5.04928862E-01  5.47931457E-01  6.20610045E-01
  9.68533817E-01  9.68819194E-01  9.77597981E-01  9.77871330E-01  1.11057681E+00
  1.11058251E+00  1.11068393E+00  1.11068479E+00  1.35745690E+00  1.36562821E+00
  1.64661385E+00  1.64716946E+00  1.65327849E+00  1.65381876E+00  2.30697404E+00
  2.32814056E+00  2.32937866E+00  2.38445419E+00  2.45940931E+00  2.47678162E+00
  2.48295063E+00  2.49984014E+00  3.01410283E+00  3.09277918E+00  2.32675047E+01
  2.32845904E+01
Alpha MO coefficients                      R   N=        3136
  4.02827798E-01  3.31855888E-01 -1.40392015E-03  1.97596084E-14  6.24866368E-14
  6.79323911E-03 -8.75643044E-04  3.77071591E-15  3.69665031E-14 -3.21665194E-03
 -7.08221659E-05 -9.95962643E-15 -2.15592132E-15  2.59871818E-05  7.48838704E-04
 -8.68243856E-15 -2.92786493E-14 -3.46716630E-04 -7.12194610E-14  1.03170793E-05
  5.86829665E-04 -2.00472960E-14  3.94787234E-01  3.25232310E-01  1.37543323E-03
 -1.77762755E-15  2.94299106E-14  6.65421855E-03  8.60169172E-04  2.38539844E-15
  4.64087891E-15 -3.13546675E-03  7.36286901E-05 -4.88191434E-15 -1.48842482E-14
 -5.22799326E-06 -7.10959720E-04  2.31769950E-15  1.04607727E-15 -3.40169917E-04
  2.84113102E-15  1.00417932E-05  5.75856138E-04  8.25400376E-15  2.95090955E-04
 -2.02074544E-03  2.13545112E-03 -1.30514123E-03  6.85179739E-14  5.99776352E-14
  2.89354951E-04 -1.98446072E-03  2.08492226E-03  1.28068767E-03  1.36486543E-14
  7.81086630E-14 -3.94788084E-01 -3.25214463E-01  1.39892894E-03 -1.89851631E-14
 -6.14192385E-14 -6.82792551E-03  7.59167822E-04 -3.73901052E-15 -3.23097345E-14
  3.99465565E-03 -1.39948158E-04  1.36176115E-14  8.72177437E-15 -1.54797900E-03
 -1.87144054E-03  1.11969689E-14  4.25572504E-14  3.21356396E-04  6.45096557E-14
 -1.35495268E-05 -5.38602522E-04  1.71887128E-14  4.02828630E-01  3.31838394E-01
  1.42694692E-03 -1.68520800E-16  3.08294979E-14  6.96349275E-03  7.76674049E-04
  1.50631016E-18 -9.50663460E-16 -4.05868929E-03 -1.38492357E-04 -7.07222556E-16
 -1.01685974E-14  1.54818576E-03 -1.88615723E-03 -6.78854107E-15 -2.40629467E-14
 -3.28282739E-04  2.03962856E-15  1.37547200E-05  5.50326749E-04  7.83570086E-15
 -2.81491040E-04  1.78008463E-03 -2.48524714E-03  1.20017562E-03 -6.52865791E-14
 -5.24436001E-14  2.87381348E-04 -1.82047064E-03  2.52779776E-03  1.22624900E-03
  1.38238273E-14  7.73452485E-14 -8.00264845E-02 -1.30599181E-01 -5.53150451E-02
  6.06191447E-13  2.22822634E-12  3.84516095E-01 -8.52754680E-02  8.73397392E-13
  3.12411953E-12  2.46785606E-01 -2.81096728E-02  4.72284636E-13  1.06864528E-12
 -2.66417571E-03 -4.71489033E-03 -2.43315670E-13  3.20868801E-13 -3.91858459E-03
 -4.98036627E-13 -4.08400564E-04  7.33073602E-03 -3.78897639E-13 -8.00378795E-02
 -1.30617764E-01  5.53231915E-02 -5.66235364E-14  8.30793676E-13  3.84570573E-01
  8.52879262E-02 -2.34582924E-13  1.26799449E-12  2.46822275E-01  2.81146527E-02
 -2.28491306E-13  8.01716912E-13 -2.66716136E-03  4.71796030E-03  9.37491697E-14
 -3.81127867E-13 -3.91920727E-03  1.58657541E-13 -4.08432778E-04  7.33185893E-03
  3.21772643E-14  9.75320001E-02  1.22714832E-01 -6.83592973E-03  1.69104493E-02
 -2.44589622E-13 -6.15194681E-13  9.75461630E-02  1.22732245E-01 -6.83824944E-03
 -1.69127954E-02  1.81452857E-13 -2.70363660E-13 -7.99161390E-02 -1.30352583E-01
 -5.64149471E-02  6.41096558E-13  2.23023101E-12  3.82473423E-01 -8.66350060E-02
  9.44446257E-13  3.10430706E-12  2.58184107E-01 -3.48556081E-02  5.47692938E-13
  1.24672178E-12 -2.10895525E-02 -2.16337898E-02 -1.45011032E-13  3.34984351E-13
 -4.29935122E-03 -5.74651866E-13 -2.15590835E-04  7.73367448E-03 -3.97082662E-13
  7.99046919E-02  1.30333899E-01 -5.64071397E-02 -1.10127797E-14 -7.19915205E-13
 -3.82418364E-01 -8.66229207E-02  1.35173516E-13 -1.15547288E-12 -2.58148681E-01
 -3.48516062E-02  1.13975147E-13 -5.63226054E-13  2.10891683E-02 -2.16331113E-02
 -6.20995735E-14  1.18257990E-14  4.29880156E-03 -1.93628964E-13  2.15533836E-04
 -7.73264806E-03 -3.34403088E-14  9.83114842E-02  1.21378385E-01 -1.62232853E-02
  1.63697431E-02 -2.32182186E-13 -5.74377422E-13 -9.82976807E-02 -1.21360929E-01
  1.62223201E-02  1.63673346E-02 -1.89695425E-13  2.61329038E-13 -4.05188110E-02
 -6.74827740E-02  1.65369681E-01 -3.97189107E-12 -9.78593649E-12  2.07869194E-01
  2.45675832E-01 -6.02489544E-12 -1.46839507E-11  2.50764592E-01  1.46163822E-01
 -4.03897549E-12 -8.52276577E-12  1.83332341E-02 -1.46814963E-03  8.88548689E-13
 -3.51687122E-14  1.42248928E-02  2.35001651E-12 -1.13035441E-04 -2.44879640E-02
  5.44182494E-13 -4.05189025E-02 -6.74829282E-02 -1.65369949E-01 -1.59199154E-12
 -2.80448589E-12  2.07869660E-01 -2.45676181E-01 -2.50420810E-12 -3.97607293E-12
  2.50765283E-01 -1.46163967E-01 -1.25205732E-12 -2.95081545E-12  1.83332730E-02
  1.46816881E-03 -2.31169195E-13  1.19695382E-12  1.42249202E-02 -8.18100818E-13
 -1.13035824E-04 -2.44880109E-02  1.10184687E-13 -9.48206500E-02 -1.65837512E-01
 -6.96106483E-02 -8.16811997E-03 -1.44958167E-13  2.08020325E-13 -9.48207677E-02
 -1.65837691E-01 -6.96107652E-02  8.16812063E-03 -2.55927924E-13 -3.34773970E-14
 -4.34510008E-02 -7.24908880E-02  1.69031987E-01 -4.05966085E-12 -1.07193641E-11
  2.26019871E-01  2.47683076E-01 -6.16955302E-12 -1.60744959E-11  2.56834550E-01
  1.52185782E-01 -4.20411892E-12 -9.97272190E-12  2.01176229E-02  5.42546026E-03
  8.71340229E-13  1.42368393E-13  1.53884258E-02  2.48212613E-12  1.22661498E-04
 -2.68169046E-02  5.78331990E-13  4.34509635E-02  7.24908275E-02  1.69031755E-01
  1.43750374E-12  3.42847753E-12 -2.26019673E-01  2.47682684E-01  2.22141076E-12
  5.02323859E-12 -2.56834441E-01  1.52185499E-01  1.13616715E-12  3.62913933E-12
 -2.01176208E-02  5.42545838E-03 -2.01232026E-13 -7.37769877E-13 -1.53884095E-02
  8.85598187E-13 -1.22660871E-04  2.68168755E-02 -1.03759633E-13 -9.61106826E-02
 -1.70214599E-01 -6.44941112E-02 -7.62638696E-03 -1.60570214E-13  1.36257601E-13
  9.61105129E-02  1.70214262E-01  6.44939930E-02 -7.62636340E-03  2.48218821E-13
  8.81461709E-14 -1.31647474E-13 -1.98082739E-13  7.61491167E-12 -9.79324356E-02
  1.82788077E-01  9.91152777E-13  1.30799197E-11 -1.53900628E-01  2.87250433E-01
 -6.10274623E-12  1.53259845E-11 -1.40406514E-01  2.62063986E-01  1.23638893E-12
  5.78113865E-12 -1.04002073E-02  1.94118896E-02  1.53421732E-12 -1.42794528E-02
 -2.09333156E-13 -1.39127541E-12  7.65042138E-03  2.73204741E-13  5.38313887E-13
 -1.96782570E-12 -9.79323069E-02  1.82788178E-01 -2.53833809E-12 -4.76275117E-12
 -1.53900430E-01  2.87250600E-01  2.21487765E-12 -2.22252958E-12 -1.40406338E-01
  2.62064141E-01  1.07023565E-12  5.33889266E-12 -1.04001939E-02  1.94119020E-02
  5.61863304E-13  1.42794757E-02 -2.23818879E-13 -5.28648396E-13 -7.65041859E-03
 -1.50428522E-13  2.73930643E-12  8.14488712E-12  1.70444107E-12 -7.22512913E-03
  1.34854120E-02  1.81517309E-13  3.87310001E-12 -9.11166636E-12 -8.88082680E-13
 -7.22512568E-03  1.34854310E-02 -3.96467703E-13 -6.51081834E-13  8.24062039E-12
 -9.86202269E-02  1.84072669E-01  2.64033057E-12  1.41081575E-11 -1.55433085E-01
  2.90112117E-01 -5.26851111E-12  1.56244799E-11 -1.39827279E-01  2.60984156E-01
 -2.64050556E-13  5.87956427E-12 -1.40225501E-02  2.61728139E-02  1.68156989E-12
 -1.75451080E-02 -2.05027578E-13 -1.65866972E-12  9.40003380E-03  1.15742675E-13
  1.48943343E-13  2.94131235E-12  9.86200555E-02 -1.84072708E-01 -4.17256959E-13
  5.91141391E-12  1.55432820E-01 -2.90112186E-01  3.28612171E-13  4.35534554E-12
  1.39827040E-01 -2.60984225E-01 -6.46774295E-12  9.95209116E-13  1.40225299E-02
 -2.61728182E-02 -8.16232171E-13 -1.75451258E-02  2.09469089E-13  9.94509070E-13
  9.40002572E-03 -3.91145330E-13  2.14190860E-12  8.55280667E-12  1.77742327E-12
 -7.87460039E-03  1.46976989E-02  3.24694983E-13 -3.32015136E-12  5.90283911E-12
  1.09707381E-12  7.87459281E-03 -1.46977132E-02 -4.17437466E-13 -6.62614200E-13
  7.86658586E-12  1.71083136E-01  9.16616157E-02  1.67071588E-12  1.32656615E-11
  2.75911829E-01  1.47825589E-01  2.26855337E-12  1.29933362E-11  2.65740196E-01
  1.42375841E-01  6.44693793E-12  2.86865562E-12  4.74786485E-02  2.54378897E-02
  1.00075534E-12 -7.65120469E-03  6.09693134E-13 -1.29674938E-12 -1.42805565E-02
 -3.83008691E-14 -5.84159811E-14 -2.01879647E-12  1.71081567E-01  9.16605911E-02
 -7.66647684E-13 -2.53465012E-12  2.75909294E-01  1.47823933E-01  6.62615176E-12
 -5.29105920E-13  2.65737811E-01  1.42374283E-01  2.53022633E-12  3.93931291E-12
  4.74781688E-02  2.54375768E-02 -4.93041555E-14  7.65111910E-03  2.05174631E-13
  5.16929202E-13  1.42804275E-02 -8.71934592E-13  1.25998777E-12 -5.91767094E-12
  9.82532719E-13  1.46437381E-02  7.84566526E-03 -2.14047565E-13 -1.47684683E-12
 -9.92224308E-12  8.89155138E-13  1.46436130E-02  7.84558232E-03  5.25348727E-13
  8.36361523E-13 -8.16866668E-12 -1.73688939E-01 -9.30572863E-02 -2.06038041E-12
 -1.38293319E-11 -2.80986595E-01 -1.50543812E-01 -4.65343361E-12 -1.27132386E-11
 -2.66575301E-01 -1.42822639E-01 -4.08879201E-12 -3.00563221E-13 -5.47819842E-02
 -2.93505116E-02 -1.02425034E-12  8.27770861E-03 -6.21620756E-13  1.34553818E-12
  1.54500010E-02 -4.31572766E-13 -7.40173406E-13 -2.84295582E-12  1.73690608E-01
  9.30580114E-02  1.78577166E-12 -3.60973576E-12  2.80989289E-01  1.50544983E-01
  7.79668465E-12 -8.60624173E-13  2.66577919E-01  1.42823778E-01  4.30778153E-12
  1.53574868E-12  5.47824621E-02  2.93507214E-02  1.23504053E-13  8.27777468E-03
  2.14744637E-13  1.92127394E-13  1.54501506E-02  9.76344246E-13 -9.71420623E-13
  7.79327593E-12 -9.50290773E-13 -1.51034735E-02 -8.09194001E-03 -7.16060830E-13
 -2.88596347E-12 -9.83790309E-12  8.45708820E-13  1.51036276E-02  8.09200812E-03
  2.98430679E-02  5.05113657E-02  3.28058641E-02 -1.01936303E-12 -2.70229877E-12
 -1.57949482E-01  8.10335526E-02 -1.81256634E-12 -5.61257297E-12 -5.16702632E-01
  9.69382318E-02 -2.49973215E-12 -7.21833881E-12  9.65345390E-01 -2.96785802E-01
  4.65832837E-12  1.57285380E-11  4.86663273E-03  9.73686869E-13 -1.73092354E-03
 -6.12590777E-03  3.08324431E-13  2.98429622E-02  5.05111889E-02 -3.28054182E-02
 -3.13402784E-13 -1.44965647E-12 -1.57948910E-01 -8.10329115E-02 -5.49986895E-13
 -2.37317646E-12 -5.16701114E-01 -9.69370304E-02 -9.91858409E-13 -3.19674197E-12
  9.65343937E-01  2.96782344E-01  1.73071418E-12  5.27703779E-12  4.86663284E-03
 -4.04884206E-13 -1.73091685E-03 -6.12590955E-03 -1.11204094E-13  5.69107272E-03
  1.52053626E-01 -1.13108745E-01 -3.60932659E-03  4.80229519E-13  1.04043440E-12
  5.69097097E-03  1.52052973E-01 -1.13108891E-01  3.60921729E-03 -1.26883760E-13
  3.92743177E-13 -2.10363875E-02 -3.64344787E-02 -6.25726898E-02  8.27707424E-13
  1.48731690E-12  1.30873177E-01 -1.10688449E-01  7.30463669E-13  3.38164705E-12
  2.54175429E-01 -1.49929423E-01  2.88965840E-12  4.02654290E-12 -4.87495136E-01
  8.63895191E-01 -1.00784861E-11 -1.95186289E-11 -5.74900409E-03 -9.20078430E-13
  1.15400893E-03  8.42201174E-03 -2.31230531E-13  2.10365015E-02  3.64346756E-02
 -6.25726541E-02  1.47851116E-14 -7.31845157E-13 -1.30873849E-01 -1.10688619E-01
 -2.26716496E-14 -5.02156492E-13 -2.54177061E-01 -1.49929046E-01  9.70280660E-16
 -3.02366689E-12  4.87500329E-01  8.63896762E-01  2.26240381E-12  1.08325825E-11
  5.74904787E-03 -1.59786906E-13 -1.15401599E-03 -8.42207274E-03  1.72192642E-14
  4.40428915E-03 -1.24926689E-01  2.44187220E-01  1.23173284E-02 -6.08520490E-13
 -1.57803624E-12 -4.40440754E-03  1.24927067E-01 -2.44189223E-01  1.23173036E-02
 -6.41384674E-14  6.04899052E-13 -7.79302791E-13 -1.32317935E-12 -5.00323862E-12
 -7.90134862E-02 -4.23365589E-02  2.67341522E-12 -7.63937722E-12 -9.26571018E-02
 -4.96466995E-02  3.48748030E-11 -3.31965246E-11 -2.63128053E-01 -1.40986974E-01
  2.48229527E-11 -3.81969461E-12  6.44988180E-01  3.45594821E-01 -4.70569097E-13
  4.95968020E-03 -2.67450580E-13  6.78870541E-13  9.25619556E-03 -4.32126967E-13
 -7.16298301E-13  2.35588324E-12 -7.90134565E-02 -4.23365313E-02  1.53129033E-12
  2.52946085E-12 -9.26570737E-02 -4.96466606E-02  1.89663043E-11  1.92575557E-11
 -2.63127965E-01 -1.40986894E-01  1.76941848E-11  7.92570318E-12  6.44987816E-01
  3.45594562E-01  3.17620065E-15 -4.95968331E-03 -9.39806738E-14 -1.28324211E-13
 -9.25620270E-03 -2.67910663E-12 -1.02703813E-11 -6.74652084E-11 -1.61316281E-12
  2.76490305E-05  1.48624678E-05 -1.59746899E-12 -4.98276684E-12 -4.30604600E-11
  2.08616368E-13  2.76358225E-05  1.48562403E-05 -2.79426386E-13 -5.59009621E-13
 -1.02945286E-12  3.88689222E-02 -7.25413161E-02  2.97075461E-12 -2.32153242E-12
  3.95568281E-02 -7.38246090E-02 -3.44600747E-12 -1.98319771E-12  1.33882508E-01
 -2.49864333E-01 -1.06390404E-11  2.25990511E-11 -3.46745002E-01  6.47134194E-01
 -3.69955845E-13  8.68237619E-03  7.36417850E-14  1.59876192E-13 -4.65209618E-03
 -4.83843145E-13 -7.96185737E-13  3.97842915E-12  3.88689139E-02 -7.25412753E-02
  4.60850102E-13  6.07296245E-12  3.95568312E-02 -7.38245650E-02  3.22941914E-11
  2.84873211E-11  1.33882482E-01 -2.49864210E-01  1.91664937E-11  1.25778449E-11
 -3.46744867E-01  6.47133788E-01 -5.24344042E-13 -8.68238287E-03  3.99372994E-14
  7.77757295E-13  4.65210060E-03 -1.36089750E-13 -2.59680314E-12  1.70559766E-11
 -7.21038065E-13 -7.45008808E-04  1.39050181E-03 -2.08342170E-12 -9.79333672E-12
 -6.33145179E-11  1.37478829E-12 -7.45001468E-04  1.39048964E-03  1.01506516E-02
  1.72696319E-02 -9.78269423E-02 -2.88378279E-14  7.18256988E-12 -6.30567209E-02
 -9.55903793E-02  1.51136818E-12  6.35795499E-12 -1.12153576E-02 -4.90003982E-01
 -2.34508699E-12  3.08102595E-11  2.90359596E-01  6.47499419E-01  6.46511928E-12
 -7.33537892E-11 -5.00236351E-03 -4.48034660E-13 -9.21688187E-04  9.89109332E-03
 -2.85875430E-13  1.01506510E-02  1.72696307E-02  9.78267446E-02  8.86792806E-13
 -3.35452170E-12 -6.30566961E-02  9.55901276E-02  5.52572213E-13 -1.90386473E-12
 -1.12153272E-02  4.90003214E-01  3.94506162E-12 -1.48357991E-11  2.90357240E-01
 -6.47499580E-01 -1.26641546E-11  5.22188226E-11 -5.00238948E-03  4.06501886E-13
 -9.21684562E-04  9.89113702E-03  8.48450211E-15  5.69240093E-03 -7.59091097E-02
 -3.89830684E-01  1.20073155E-02 -3.25702128E-13 -1.00926379E-12  5.69257826E-03
 -7.59088772E-02 -3.89828842E-01 -1.20072961E-02 -3.53751776E-14  7.77894704E-14
  4.59214855E-15 -2.71250999E-14 -4.97910670E-12 -7.53971365E-02 -4.03973952E-02
 -8.10216273E-13 -7.27672345E-12 -8.36442235E-02 -4.48158797E-02  1.50920831E-11
 -2.84048052E-11 -2.86395812E-01 -1.53448988E-01  2.59775820E-11  2.29203042E-11
  9.13065012E-01  4.89215859E-01 -7.14510693E-13  5.56975949E-04 -2.86441876E-13