Title Card Required                                                     
FOpt      UM062X                                                      6-311+G(d,p)        
Number of atoms                            I                6
Info1-9                                    I   N=           9
          15          15           0           0           0         110
           2          18        -502
Full Title                                 C   N=           2
Title Card Required     
Route                                      C   N=           4
#p opt UM062X/6-311+G** nosymm int=superfine    
Charge                                     I                0
Multiplicity                               I                1
Number of electrons                        I               16
Number of alpha electrons                  I                8
Number of beta electrons                   I                8
Number of basis functions                  I               68
Number of independent functions            I               68
Number of point charges in /Mol/           I                0
Number of translation vectors              I                0
Atomic numbers                             I   N=           6
           6           6           1           1           1           1
Nuclear charges                            R   N=           6
  6.00000000E+00  6.00000000E+00  1.00000000E+00  1.00000000E+00  1.00000000E+00
  1.00000000E+00
Current cartesian coordinates              R   N=          18
 -1.26517300E+00  0.00000000E+00  0.00000000E+00  1.26517300E+00  0.00000000E+00
  0.00000000E+00 -2.33417272E+00 -1.74707964E+00  1.19714532E-10 -2.33438477E+00
  1.74683365E+00  1.93110690E-10  2.33417272E+00  1.74707964E+00 -1.92315440E-10
  2.33438477E+00 -1.74683365E+00 -1.19218548E-10
Number of symbols in /Mol/                 I                0
Force Field                                I                0
Atom Types                                 C   N=           6
                                                            
            
Int Atom Types                             I   N=           6
           0           0           0           0           0           0
MM charges                                 R   N=           6
  0.00000000E+00  0.00000000E+00  0.00000000E+00  0.00000000E+00  0.00000000E+00
  0.00000000E+00
Integer atomic weights                     I   N=           6
          12          12           1           1           1           1
Real atomic weights                        R   N=           6
  1.20000000E+01  1.20000000E+01  1.00782504E+00  1.00782504E+00  1.00782504E+00
  1.00782504E+00
Atom fragment info                         I   N=           6
           0           0           0           0           0           0
Atom residue num                           I   N=           6
           0           0           0           0           0           0
Nuclear spins                              I   N=           6
           0           0           1           1           1           1
Nuclear ZEff                               R   N=           6
 -3.60000000E+00 -3.60000000E+00 -1.00000000E+00 -1.00000000E+00 -1.00000000E+00
 -1.00000000E+00
Nuclear ZNuc                               R   N=           6
  6.00000000E+00  6.00000000E+00  1.00000000E+00  1.00000000E+00  1.00000000E+00
  1.00000000E+00
Nuclear QMom                               R   N=           6
  0.00000000E+00  0.00000000E+00  0.00000000E+00  0.00000000E+00  0.00000000E+00
  0.00000000E+00
Nuclear GFac                               R   N=           6
  0.00000000E+00  0.00000000E+00  2.79284600E+00  2.79284600E+00  2.79284600E+00
  2.79284600E+00
MicOpt                                     I   N=           6
          -2          -2          -1          -1          -1          -1
Number of residues                         I                0
Number of secondary structures             I                0
Redundant internal dimensions              I   N=           4
          20          10           6           4
Redundant internal coordinate indices      I   N=          80
           1          -1           0           0           1          -2
           0           0           1          -3           0           0
           2          -1           0           0           2          -2
           0           0           2          -3           0           0
           1           3           0           0           1           4
           0           0           2           5           0           0
           2           6           0           0           2           1
           3           0           2           1           4           0
           3           1           4           0           1           2
           5           0           1           2           6           0
           5           2           6           0           3           1
           2           5           3           1           2           6
           4           1           2           5           4           1
           2           6
Redundant internal coordinates             R   N=          20
 -1.26517300E+00  0.00000000E+00  0.00000000E+00  1.26517300E+00  0.00000000E+00
  0.00000000E+00  2.04818156E+00  2.04808242E+00  2.04818156E+00  2.04808242E+00
  2.11990395E+00  2.12005496E+00  2.04322640E+00  2.11990395E+00  2.12005496E+00
  2.04322640E+00  3.14159265E+00  0.00000000E+00 -0.00000000E+00  3.14159265E+00
ZRed-IntVec                                I   N=          20
          -1          -1          -1          -1          -1          -1
           0           0           0           0           0           0
           0           0           0           0           0           0
           0           0
ZRed-FPVec                                 R   N=          20
  0.00000000E+00  0.00000000E+00  0.00000000E+00  0.00000000E+00  0.00000000E+00
  0.00000000E+00  0.00000000E+00  0.00000000E+00  0.00000000E+00  0.00000000E+00
  0.00000000E+00  0.00000000E+00  0.00000000E+00  0.00000000E+00  0.00000000E+00
  0.00000000E+00  0.00000000E+00  0.00000000E+00  0.00000000E+00  0.00000000E+00
ZRed-Constraint1                           R   N=          20
 -1.26517300E+00  0.00000000E+00  0.00000000E+00  1.26517300E+00  0.00000000E+00
  0.00000000E+00  2.05266267E+00  2.05634788E+00  2.05266267E+00  2.05634788E+00
  2.12893112E+00  2.12428461E+00  2.02996958E+00  2.12893112E+00  2.12428461E+00
  2.02996958E+00  3.14159265E+00  0.00000000E+00  0.00000000E+00  3.14159265E+00
ZRed-Constraint2                           R   N=          20
 -1.26517300E+00  0.00000000E+00  0.00000000E+00  1.26517300E+00  0.00000000E+00
  0.00000000E+00  0.00000000E+00  0.00000000E+00  0.00000000E+00  0.00000000E+00
  0.00000000E+00  0.00000000E+00  0.00000000E+00  0.00000000E+00  0.00000000E+00
  0.00000000E+00  0.00000000E+00  0.00000000E+00  0.00000000E+00  0.00000000E+00
Number of contracted shells                I               28
Number of primitive shells                 I               50
Pure/Cartesian d shells                    I                0
Pure/Cartesian f shells                    I                0
Highest angular momentum                   I                2
Largest degree of contraction              I                6
Shell types                                I   N=          28
           0          -1          -1          -1          -1          -2
           0          -1          -1          -1          -1          -2
           0           0           0           1           0           0
           0           1           0           0           0           1
           0           0           0           1
Number of primitives per shell             I   N=          28
           6           3           1           1           1           1
           6           3           1           1           1           1
           3           1           1           1           3           1
           1           1           3           1           1           1
           3           1           1           1
Shell to atom map                          I   N=          28
           1           1           1           1           1           1
           2           2           2           2           2           2
           3           3           3           3           4           4
           4           4           5           5           5           5
           6           6           6           6
Primitive exponents                        R   N=          50
  4.56324000E+03  6.82024000E+02  1.54973000E+02  4.44553000E+01  1.30290000E+01
  1.82773000E+00  2.09642000E+01  4.80331000E+00  1.45933000E+00  4.83456000E-01
  1.45585000E-01  4.38000000E-02  6.26000000E-01  4.56324000E+03  6.82024000E+02
  1.54973000E+02  4.44553000E+01  1.30290000E+01  1.82773000E+00  2.09642000E+01
  4.80331000E+00  1.45933000E+00  4.83456000E-01  1.45585000E-01  4.38000000E-02
  6.26000000E-01  3.38650000E+01  5.09479000E+00  1.15879000E+00  3.25840000E-01
  1.02741000E-01  7.50000000E-01  3.38650000E+01  5.09479000E+00  1.15879000E+00
  3.25840000E-01  1.02741000E-01  7.50000000E-01  3.38650000E+01  5.09479000E+00
  1.15879000E+00  3.25840000E-01  1.02741000E-01  7.50000000E-01  3.38650000E+01
  5.09479000E+00  1.15879000E+00  3.25840000E-01  1.02741000E-01  7.50000000E-01
Contraction coefficients                   R   N=          50
  1.96665025E-03  1.52306019E-02  7.61269097E-02  2.60801033E-01  6.16462078E-01
  2.21006028E-01  1.14660081E-01  9.19999648E-01 -3.03068213E-03  1.00000000E+00
  1.00000000E+00  1.00000000E+00  1.00000000E+00  1.96665025E-03  1.52306019E-02
  7.61269097E-02  2.60801033E-01  6.16462078E-01  2.21006028E-01  1.14660081E-01
  9.19999648E-01 -3.03068213E-03  1.00000000E+00  1.00000000E+00  1.00000000E+00
  1.00000000E+00  2.54938145E-02  1.90373109E-01  8.52161486E-01  1.00000000E+00
  1.00000000E+00  1.00000000E+00  2.54938145E-02  1.90373109E-01  8.52161486E-01
  1.00000000E+00  1.00000000E+00  1.00000000E+00  2.54938145E-02  1.90373109E-01
  8.52161486E-01  1.00000000E+00  1.00000000E+00  1.00000000E+00  2.54938145E-02
  1.90373109E-01  8.52161486E-01  1.00000000E+00  1.00000000E+00  1.00000000E+00
P(S=P) Contraction coefficients            R   N=          50
  0.00000000E+00  0.00000000E+00  0.00000000E+00  0.00000000E+00  0.00000000E+00
  0.00000000E+00  4.02486927E-02  2.37593957E-01  8.15853851E-01  1.00000000E+00
  1.00000000E+00  1.00000000E+00  0.00000000E+00  0.00000000E+00  0.00000000E+00
  0.00000000E+00  0.00000000E+00  0.00000000E+00  0.00000000E+00  4.02486927E-02
  2.37593957E-01  8.15853851E-01  1.00000000E+00  1.00000000E+00  1.00000000E+00
  0.00000000E+00  0.00000000E+00  0.00000000E+00  0.00000000E+00  0.00000000E+00
  0.00000000E+00  0.00000000E+00  0.00000000E+00  0.00000000E+00  0.00000000E+00
  0.00000000E+00  0.00000000E+00  0.00000000E+00  0.00000000E+00  0.00000000E+00
  0.00000000E+00  0.00000000E+00  0.00000000E+00  0.00000000E+00  0.00000000E+00
  0.00000000E+00  0.00000000E+00  0.00000000E+00  0.00000000E+00  0.00000000E+00
Coordinates of each shell                  R   N=          84
 -1.26517300E+00  0.00000000E+00  0.00000000E+00 -1.26517300E+00  0.00000000E+00
  0.00000000E+00 -1.26517300E+00  0.00000000E+00  0.00000000E+00 -1.26517300E+00
  0.00000000E+00  0.00000000E+00 -1.26517300E+00  0.00000000E+00  0.00000000E+00
 -1.26517300E+00  0.00000000E+00  0.00000000E+00  1.26517300E+00  0.00000000E+00
  0.00000000E+00  1.26517300E+00  0.00000000E+00  0.00000000E+00  1.26517300E+00
  0.00000000E+00  0.00000000E+00  1.26517300E+00  0.00000000E+00  0.00000000E+00
  1.26517300E+00  0.00000000E+00  0.00000000E+00  1.26517300E+00  0.00000000E+00
  0.00000000E+00 -2.33417272E+00 -1.74707964E+00  1.19714532E-10 -2.33417272E+00
 -1.74707964E+00  1.19714532E-10 -2.33417272E+00 -1.74707964E+00  1.19714532E-10
 -2.33417272E+00 -1.74707964E+00  1.19714532E-10 -2.33438477E+00  1.74683365E+00
  1.93110690E-10 -2.33438477E+00  1.74683365E+00  1.93110690E-10 -2.33438477E+00
  1.74683365E+00  1.93110690E-10 -2.33438477E+00  1.74683365E+00  1.93110690E-10
  2.33417272E+00  1.74707964E+00 -1.92315440E-10  2.33417272E+00  1.74707964E+00
 -1.92315440E-10  2.33417272E+00  1.74707964E+00 -1.92315440E-10  2.33417272E+00
  1.74707964E+00 -1.92315440E-10  2.33438477E+00 -1.74683365E+00 -1.19218548E-10
  2.33438477E+00 -1.74683365E+00 -1.19218548E-10  2.33438477E+00 -1.74683365E+00
 -1.19218548E-10  2.33438477E+00 -1.74683365E+00 -1.19218548E-10
Num ILSW                                   I              100
ILSW                                       I   N=         100
           1           0           0           1           2           0
           0           0           0           0        4336          -1
           7           0           0           0           2           0
           0           0           0           0           1           0
           1           1           0           0           0           0
           0           0      100000           0          -1           0
           0           0           0           0           0           0
           0           0           0           1           0           0
           0 -2000000000           1           0           0           0
           0           0           4          52           0           0
           0           0          55           0           0           0
           0           0           0           6           0           1
           0           0           0           0           0           0
           0           0           0           0           0           0
           0           0           0           0           0           0
           0           0           0           0           0           0
           0           0           0           0
Num RLSW                                   I               52
RLSW                                       R   N=          52
  1.00000000E+00  1.00000000E+00  1.00000000E+00  1.00000000E+00  5.40000000E-01
  0.00000000E+00  0.00000000E+00  1.00000000E+00  0.00000000E+00  0.00000000E+00
  0.00000000E+00  0.00000000E+00  1.00000000E+00  0.00000000E+00  0.00000000E+00
  0.00000000E+00  0.00000000E+00  1.00000000E+00  0.00000000E+00  0.00000000E+00
  0.00000000E+00  0.00000000E+00  1.00000000E+00  0.00000000E+00  0.00000000E+00
  0.00000000E+00  0.00000000E+00  1.00000000E+00  0.00000000E+00  0.00000000E+00
  0.00000000E+00  0.00000000E+00  1.00000000E+00  0.00000000E+00  0.00000000E+00
  0.00000000E+00  0.00000000E+00  0.00000000E+00  1.00000000E+00  1.00000000E+00
  0.00000000E+00  1.00000000E+00  0.00000000E+00  0.00000000E+00  0.00000000E+00
  0.00000000E+00  0.00000000E+00  0.00000000E+00  0.00000000E+00  0.00000000E+00
  0.00000000E+00  0.00000000E+00
MxBond                                     I                3
NBond                                      I   N=           6
           3           3           1           1           1           1
IBond                                      I   N=          18
           2           3           4           1           5           6
           1           0           0           1           0           0
           2           0           0           2           0           0
RBond                                      R   N=          18
  2.00000000E+00  1.00000000E+00  1.00000000E+00  2.00000000E+00  1.00000000E+00
  1.00000000E+00  1.00000000E+00  0.00000000E+00  0.00000000E+00  1.00000000E+00
  0.00000000E+00  0.00000000E+00  1.00000000E+00  0.00000000E+00  0.00000000E+00
  1.00000000E+00  0.00000000E+00  0.00000000E+00
Virial Ratio                               R      2.005010679098711E+00
SCF Energy                                 R     -7.856336325485546E+01
Total Energy                               R     -7.856336325485546E+01
S**2                                       R     -1.953992523340276E-14
S**2 after annihilation                    R     -1.776356839400224E-15
RMS Force                                  R      3.245433091987874E-05
RMS Density                                R      3.113300116536162E-09
Job Status                                 I                1
Nuclear derivative order                   I                1
External E-field                           R   N=          35
  0.00000000E+00  0.00000000E+00  0.00000000E+00  0.00000000E+00  0.00000000E+00
  0.00000000E+00  0.00000000E+00  0.00000000E+00  0.00000000E+00  0.00000000E+00
  0.00000000E+00  0.00000000E+00  0.00000000E+00  0.00000000E+00  0.00000000E+00
  0.00000000E+00  0.00000000E+00  0.00000000E+00  0.00000000E+00  0.00000000E+00
  0.00000000E+00  0.00000000E+00  0.00000000E+00  0.00000000E+00  0.00000000E+00
  0.00000000E+00  0.00000000E+00  0.00000000E+00  0.00000000E+00  0.00000000E+00
  0.00000000E+00  0.00000000E+00  0.00000000E+00  0.00000000E+00  0.00000000E+00
IOpCl                                      I                1
IROHF                                      I                0
Alpha Orbital Energies                     R   N=          68
 -1.05406221E+01 -1.05395461E+01 -8.58737839E-01 -6.64192234E-01 -5.42700489E-01
 -4.84916948E-01 -4.20190015E-01 -3.33498725E-01  2.55321577E-02  3.39804757E-02
  4.06885175E-02  5.12914900E-02  7.74441325E-02  8.18100794E-02  9.72553854E-02
  1.33844042E-01  1.60400213E-01  1.73474044E-01  2.00525265E-01  2.30859230E-01
  3.13048544E-01  3.57750225E-01  4.38927889E-01  4.44806556E-01  5.50950164E-01
  5.60060575E-01  5.79892503E-01  6.42661844E-01  6.58169598E-01  7.42240559E-01
  7.52666277E-01  7.62266355E-01  7.98053658E-01  9.08040028E-01  1.05187467E+00
  1.15055879E+00  1.16883261E+00  1.42209134E+00  1.46756894E+00  1.47522768E+00
  1.62030345E+00  1.63969844E+00  1.64484255E+00  1.65847071E+00  1.80156591E+00
  1.83045756E+00  1.99919975E+00  2.06395017E+00  2.12707667E+00  2.17531602E+00
  2.18586062E+00  2.24846608E+00  2.39866287E+00  2.47317760E+00  2.57281214E+00
  2.58318221E+00  2.66739394E+00  2.71274220E+00  2.78948020E+00  2.83810385E+00
  2.95032361E+00  3.16878901E+00  3.47254763E+00  3.69601419E+00  3.87428438E+00
  4.15844835E+00  2.38364520E+01  2.43146862E+01
Beta Orbital Energies                      R   N=          68
 -1.05406221E+01 -1.05395461E+01 -8.58737839E-01 -6.64192234E-01 -5.42700489E-01
 -4.84916948E-01 -4.20190015E-01 -3.33498725E-01  2.55321577E-02  3.39804757E-02
  4.06885175E-02  5.12914900E-02  7.74441325E-02  8.18100794E-02  9.72553854E-02
  1.33844042E-01  1.60400213E-01  1.73474044E-01  2.00525265E-01  2.30859230E-01
  3.13048544E-01  3.57750225E-01  4.38927889E-01  4.44806556E-01  5.50950164E-01
  5.60060575E-01  5.79892503E-01  6.42661844E-01  6.58169598E-01  7.42240559E-01
  7.52666277E-01  7.62266355E-01  7.98053658E-01  9.08040028E-01  1.05187467E+00
  1.15055879E+00  1.16883261E+00  1.42209134E+00  1.46756894E+00  1.47522768E+00
  1.62030345E+00  1.63969844E+00  1.64484255E+00  1.65847071E+00  1.80156591E+00
  1.83045756E+00  1.99919975E+00  2.06395017E+00  2.12707667E+00  2.17531602E+00
  2.18586062E+00  2.24846608E+00  2.39866287E+00  2.47317760E+00  2.57281214E+00
  2.58318221E+00  2.66739394E+00  2.71274220E+00  2.78948020E+00  2.83810385E+00
  2.95032361E+00  3.16878901E+00  3.47254763E+00  3.69601419E+00  3.87428438E+00
  4.15844835E+00  2.38364520E+01  2.43146862E+01
Alpha MO coefficients                      R   N=        4624
  3.98796019E-01  3.27991515E-01  3.28584503E-04 -3.24589888E-08  9.28736592E-15
  8.91072681E-03 -1.66132038E-03  4.69161629E-07  2.36882329E-13 -2.26885937E-03
 -2.41380016E-04  4.41078484E-07  3.21915139E-14 -6.22146912E-04  7.63774071E-04
 -3.20223263E-07 -1.50042189E-13 -7.21836522E-04 -1.50551311E-13  5.72677579E-14
 -7.53443707E-04 -5.33959352E-07  3.98796019E-01  3.27991515E-01 -3.28584503E-04
  3.24589888E-08 -1.10244931E-14  8.91072681E-03  1.66132038E-03 -4.69161624E-07
 -2.33992623E-13 -2.26885937E-03  2.41380016E-04 -4.41078478E-07 -3.36875459E-14
 -6.22146913E-04 -7.63774071E-04  3.20223267E-07  1.50182256E-13 -7.21836522E-04
 -1.49949137E-13 -5.74642184E-14 -7.53443706E-04 -5.33959349E-07  1.65173334E-04
 -2.42498127E-03  1.60340578E-03 -7.20403351E-04 -1.28797482E-03  7.94704891E-14
  1.65040975E-04 -2.42646820E-03  1.60402937E-03 -7.20902037E-04  1.28838797E-03
  1.24781112E-13  1.65173334E-04 -2.42498127E-03  1.60340578E-03  7.20403351E-04
  1.28797482E-03 -1.24285645E-13  1.65040975E-04 -2.42646820E-03  1.60402938E-03
  7.20902037E-04 -1.28838797E-03 -7.90732411E-14  3.98948814E-01  3.27805805E-01
 -8.64805440E-04 -4.17056681E-08  3.74957181E-14  9.60693373E-03  3.82435345E-03
  3.20477234E-07  1.12948580E-13 -2.46113958E-03 -1.10386670E-03 -6.36892266E-08
 -7.92942192E-15  2.67565084E-03  1.02786061E-03 -2.65619582E-08 -1.88226137E-14
 -1.57603531E-03 -6.01976411E-14  1.79221848E-14  1.83057590E-03 -2.06044559E-07
 -3.98948814E-01 -3.27805805E-01 -8.64805440E-04 -4.17056688E-08  3.90666424E-14
 -9.60693373E-03  3.82435345E-03  3.20477231E-07  1.09109353E-13  2.46113958E-03
 -1.10386670E-03 -6.36893028E-08 -3.31606240E-15 -2.67565084E-03  1.02786061E-03
 -2.65620009E-08 -2.49176773E-14  1.57603531E-03  6.03691857E-14  1.84473244E-14
 -1.83057590E-03  2.06044554E-07  3.92206203E-04 -1.12706077E-03  7.09729284E-04
 -2.55337392E-04 -6.53577922E-04  3.91552425E-14  3.92098723E-04 -1.12756996E-03
  7.10054497E-04 -2.55486381E-04  6.53895229E-04  6.49763547E-14 -3.92206203E-04
  1.12706076E-03 -7.09729283E-04 -2.55337392E-04 -6.53577922E-04  6.40566322E-14
 -3.92098723E-04  1.12756996E-03 -7.10054497E-04 -2.55486380E-04  6.53895228E-04
  3.94084378E-14 -8.54325542E-02 -1.36816197E-01  4.87375456E-02  1.35231827E-06
  2.15390036E-12  3.51850328E-01  6.39569214E-02  1.76135660E-06  2.25575565E-12
  1.91939455E-01  1.57503338E-02  2.42275009E-06  9.89090375E-13  9.93691772E-04
 -7.67712479E-03  1.07110205E-06  5.97507836E-14 -1.08159673E-02 -2.46736206E-13
  1.88456791E-13  8.21752032E-03 -1.59608599E-06 -8.54325542E-02 -1.36816197E-01
 -4.87375456E-02 -1.35231826E-06 -2.14178242E-12  3.51850328E-01 -6.39569214E-02
 -1.76135664E-06 -2.24214453E-12  1.91939455E-01 -1.57503338E-02 -2.42275006E-06
 -9.81355322E-13  9.93691742E-04  7.67712479E-03 -1.07110200E-06 -6.02688492E-14
 -1.08159673E-02 -2.45170129E-13 -1.87779630E-13  8.21752032E-03 -1.59608600E-06
  5.31784250E-02  5.86749539E-02 -4.40319174E-04  6.49756791E-03  7.41079618E-03
 -1.85064021E-13  5.31817420E-02  5.86758721E-02 -4.42851145E-04  6.49837895E-03
 -7.40906313E-03 -4.82710824E-13  5.31784250E-02  5.86749539E-02 -4.40319173E-04
 -6.49756791E-03 -7.41079618E-03  4.81037653E-13  5.31817420E-02  5.86758721E-02
 -4.42851143E-04 -6.49837895E-03  7.40906313E-03  1.84379385E-13 -6.61757178E-02
 -1.07473784E-01 -7.38205331E-02  9.93064874E-06  8.03189491E-12  2.82944248E-01
 -1.09193297E-01  1.16610618E-05  1.05111120E-11  2.22035348E-01 -5.09509377E-02
  5.29161963E-06  5.21128806E-12 -7.50183422E-02 -2.32301956E-02  2.42335347E-07
 -1.62545763E-13 -5.39238257E-03 -6.00007789E-13  3.12251174E-13 -9.05092375E-03
 -1.31587406E-06  6.61757178E-02  1.07473784E-01 -7.38205331E-02  9.93064874E-06
  8.01010702E-12 -2.82944248E-01 -1.09193297E-01  1.16610618E-05  1.04830339E-11
 -2.22035348E-01 -5.09509377E-02  5.29161952E-06  5.19581191E-12  7.50183422E-02
 -2.32301956E-02  2.42335219E-07 -1.59418184E-13  5.39238257E-03  5.94097805E-13
  3.10398041E-13  9.05092375E-03  1.31587406E-06  9.09667855E-02  1.12911793E-01
  1.72547446E-02  4.14312300E-03  1.26879670E-02 -5.65541486E-13  9.09899959E-02
  1.12938220E-01  1.72570888E-02  4.14697706E-03 -1.26898982E-02 -8.85278119E-13
 -9.09667855E-02 -1.12911793E-01 -1.72547446E-02  4.14312300E-03  1.26879670E-02
 -8.80289476E-13 -9.09899959E-02 -1.12938220E-01 -1.72570888E-02  4.14697706E-03
 -1.26898982E-02 -5.63217264E-13  3.87196586E-06  6.42936341E-06  4.00675119E-07
  1.48942938E-01  1.70559218E-12 -1.77633268E-05  6.04635491E-06  2.11868716E-01
  2.30054488E-12 -2.12241848E-05  2.63085699E-06  1.23909255E-01  1.06859422E-12
 -9.47510540E-06 -1.91742179E-06  5.75483235E-03  5.47182435E-13  3.80983740E-07
 -4.83090588E-13  2.20407858E-12  3.46525000E-06  3.42208176E-03 -3.87196586E-06
 -6.42936341E-06  4.00675112E-07  1.48942938E-01 -1.69086712E-12  1.77633268E-05
  6.04635490E-06  2.11868716E-01 -2.28152680E-12  2.12241848E-05  2.63085699E-06
  1.23909255E-01 -1.05666653E-12  9.47510543E-06 -1.91742179E-06  5.75483235E-03
 -5.44749932E-13 -3.80983739E-07 -4.83880437E-13 -2.19538589E-12 -3.46525000E-06
 -3.42208176E-03 -9.74337123E-02 -1.32639646E-01 -3.09680040E-02 -9.48467155E-03
 -9.09274963E-03  1.17690591E-12  9.74187706E-02  1.32617659E-01  3.09621432E-02
  9.48660849E-03 -9.09010682E-03 -1.86585775E-12  9.74337123E-02  1.32639646E-01
  3.09680040E-02 -9.48467155E-03 -9.09274963E-03  1.85940134E-12 -9.74187706E-02
 -1.32617659E-01 -3.09621432E-02  9.48660849E-03 -9.09010682E-03 -1.17193767E-12
 -7.26209198E-03 -1.19782414E-02  1.92410424E-01 -3.41697086E-05 -7.09177693E-12
  3.59569737E-02  2.68094114E-01 -4.41623844E-05 -1.00796771E-11 -2.40403899E-02
  1.52034401E-01 -3.30440069E-05 -6.82342377E-12 -5.93509937E-03  2.14879111E-03
 -7.19178369E-06 -1.02545513E-12 -1.30989471E-03  1.94434765E-12 -3.32322180E-13
  1.67604300E-02  8.04871901E-06 -7.26209198E-03 -1.19782414E-02 -1.92410424E-01
  3.41697086E-05  7.02802156E-12  3.59569737E-02 -2.68094114E-01  4.41623844E-05
  9.98386383E-12 -2.40403899E-02 -1.52034401E-01  3.30440069E-05  6.76380454E-12
 -5.93509936E-03 -2.14879111E-03  7.19178369E-06  1.02309891E-12 -1.30989471E-03
  1.94535330E-12  3.29230562E-13  1.67604300E-02  8.04871901E-06 -7.70508348E-02
 -1.09852660E-01 -4.01086231E-02  3.47506405E-03 -1.14015421E-02  5.51329641E-13
 -7.71209999E-02 -1.09950265E-01 -4.01353010E-02  3.46776647E-03  1.14079049E-02
  1.07754962E-12 -7.70508348E-02 -1.09852660E-01 -4.01086231E-02 -3.47506405E-03
  1.14015421E-02 -1.07462105E-12 -7.71209999E-02 -1.09950265E-01 -4.01353010E-02
 -3.46776647E-03 -1.14079049E-02 -5.52503299E-13 -3.57637273E-06 -5.82273711E-06
  4.64266269E-05  1.40242812E-01  8.60975425E-12  1.72254991E-05  6.65231562E-05
  2.02300028E-01  1.34127511E-11 -1.42842742E-06  4.23378231E-05  1.63694118E-01
  9.28009303E-12 -3.12363066E-06  1.11226800E-06  2.29852915E-02  5.72690380E-13
 -1.13807238E-07  6.18341650E-13  3.60876116E-12  7.53077059E-06 -3.32297627E-02
 -3.57637273E-06 -5.82273711E-06 -4.64266269E-05 -1.40242812E-01  8.60082852E-12
  1.72254990E-05 -6.65231562E-05 -2.02300028E-01  1.34018406E-11 -1.42842623E-06
 -4.23378238E-05 -1.63694118E-01  9.27073183E-12 -3.12365416E-06 -1.11226197E-06
 -2.29852915E-02  5.69965017E-13 -1.13807283E-07 -6.21779838E-13  3.59642707E-12
  7.53077058E-06 -3.32297627E-02 -1.17551029E-01 -1.71466658E-01 -7.87895104E-02
 -7.48019147E-03 -4.84010347E-03  1.48489267E-12  1.17507467E-01  1.71396551E-01
  7.87547633E-02  7.48381617E-03 -4.83150584E-03 -8.64152816E-13 -1.17551029E-01
 -1.71466658E-01 -7.87895104E-02  7.48019147E-03  4.84010347E-03 -8.59099811E-13
  1.17507467E-01  1.71396551E-01  7.87547633E-02 -7.48381617E-03  4.83150584E-03
  1.48015290E-12  4.66062132E-12  7.88216136E-12  5.33346739E-12 -7.98663396E-12
  1.76662107E-01 -2.57240336E-11  7.42051384E-12 -1.06826795E-11  2.82434919E-01
  2.71820748E-11  4.51190667E-11 -2.58781852E-11  2.46162673E-01 -4.02132777E-10
 -9.82327842E-11 -2.11472049E-11  2.78144651E-02 -4.32520497E-13  2.21386092E-02
 -8.29215944E-08  3.86771141E-13  1.93928397E-12 -4.65193470E-12 -7.86764575E-12
  5.25696612E-12  7.97023048E-12  1.76662107E-01  2.56846745E-11  7.31407422E-12
  1.06612580E-11  2.82434919E-01 -2.72908446E-11  4.50177420E-11  2.58368282E-11
  2.46162673E-01  4.02078880E-10 -9.82531668E-11  2.11257625E-11  2.78144651E-02
  4.32587942E-13 -2.21386092E-02  8.29215942E-08 -3.84084307E-13  1.94168716E-12
  7.79032022E-12  4.08823971E-12  1.14618918E-11 -2.11148982E-13  1.51559408E-13
  1.26555681E-02 -1.28537908E-12 -8.91191739E-12  3.40434335E-11 -2.05862916E-14
 -7.75613756E-13  1.26565017E-02  1.28596676E-12  8.88951933E-12 -3.39619621E-11
 -2.64210454E-14  7.74244558E-13  1.26555681E-02 -7.79085990E-12 -4.09905880E-12
 -1.14770714E-11 -2.16228875E-13 -1.52731099E-13  1.26565017E-02 -2.21294699E-12
 -3.86766285E-12  1.11102158E-12 -2.68041023E-12  1.47006647E-01  1.53664415E-11
  6.00818210E-13 -6.46471811E-12  2.38551265E-01 -2.09811611E-11  1.39225194E-11
 -1.07472449E-11  3.81688721E-01 -4.58438106E-10  2.28617991E-10 -7.46033859E-12
  9.45855335E-01 -3.36132255E-12 -2.80557210E-02 -1.66278169E-07 -2.02058377E-12
  1.59866278E-13 -2.23513590E-12 -3.90617076E-12 -1.08325321E-12 -2.66929831E-12
 -1.47006647E-01  1.55038531E-11 -5.65995030E-13 -6.44061698E-12 -2.38551265E-01
 -2.12796987E-11 -1.33338023E-11 -1.06223887E-11 -3.81688721E-01 -4.50028135E-10
 -2.30675711E-10 -7.27753039E-12 -9.45855335E-01 -3.35030266E-12 -2.80557210E-02
 -1.66278169E-07 -2.02417413E-12 -1.52133417E-13  1.32537735E-11 -1.42781845E-11
  2.00362873E-10  2.06438077E-12  1.48061532E-12  2.00740778E-02  1.71369914E-11
  5.92831629E-13  2.15655202E-10  2.73384747E-12 -4.12702447E-12  2.00762874E-02
  1.70972316E-11  5.42648436E-13  2.15045219E-10 -2.73496782E-12 -4.11416537E-12
 -2.00740778E-02  1.32126894E-11 -1.42780199E-11  1.99902229E-10 -2.07388486E-12
  1.48005949E-12 -2.00762874E-02  1.75055218E-02  2.98874657E-02  4.00137141E-02
  2.58209509E-06  4.43991683E-11 -8.35706040E-02  6.18753986E-02 -5.62691046E-06
  7.00477231E-11 -2.96308840E-01  1.42528587E-01  7.97853915E-05  1.10971185E-10
  1.20158600E+00 -6.75125369E-01  2.47793138E-04  4.33703266E-10  1.27486488E-02
 -7.60221162E-12 -7.52100260E-13  6.90762763E-03  3.79710533E-06  1.75055218E-02
  2.98874657E-02 -4.00137141E-02 -2.58209511E-06 -4.44061082E-11 -8.35706040E-02
 -6.18753986E-02  5.62691049E-06 -7.00650921E-11 -2.96308840E-01 -1.42528587E-01