Title Card Required                                                     
FOpt      UM062X                                                      6-311+G(d,p)        
Number of atoms                            I                6
Info1-9                                    I   N=           9
          15          15           0           0           0         110
           2          18        -502
Full Title                                 C   N=           2
Title Card Required     
Route                                      C   N=           5
#p opt UM062X/6-311+G** nosymm int=superfine SCF=NoVarAcc   
Charge                                     I                0
Multiplicity                               I                1
Number of electrons                        I               16
Number of alpha electrons                  I                8
Number of beta electrons                   I                8
Number of basis functions                  I               68
Number of independent functions            I               68
Number of point charges in /Mol/           I                0
Number of translation vectors              I                0
Atomic numbers                             I   N=           6
           6           6           1           1           1           1
Nuclear charges                            R   N=           6
  6.00000000E+00  6.00000000E+00  1.00000000E+00  1.00000000E+00  1.00000000E+00
  1.00000000E+00
Current cartesian coordinates              R   N=          18
 -8.57103236E+00  0.00000000E+00  0.00000000E+00  8.57103236E+00  0.00000000E+00
  0.00000000E+00 -9.89151543E+00 -1.62702268E+00  3.54644286E-10 -9.89146049E+00
  1.62705435E+00  1.69068199E-10  9.89151543E+00  1.62702268E+00  3.68907038E-10
  9.89146049E+00 -1.62705435E+00  1.83288887E-10
Number of symbols in /Mol/                 I                0
Force Field                                I                0
Atom Types                                 C   N=           6
                                                            
            
Int Atom Types                             I   N=           6
           0           0           0           0           0           0
MM charges                                 R   N=           6
  0.00000000E+00  0.00000000E+00  0.00000000E+00  0.00000000E+00  0.00000000E+00
  0.00000000E+00
Integer atomic weights                     I   N=           6
          12          12           1           1           1           1
Real atomic weights                        R   N=           6
  1.20000000E+01  1.20000000E+01  1.00782504E+00  1.00782504E+00  1.00782504E+00
  1.00782504E+00
Atom fragment info                         I   N=           6
           0           0           0           0           0           0
Atom residue num                           I   N=           6
           0           0           0           0           0           0
Nuclear spins                              I   N=           6
           0           0           1           1           1           1
Nuclear ZEff                               R   N=           6
 -3.60000000E+00 -3.60000000E+00 -1.00000000E+00 -1.00000000E+00 -1.00000000E+00
 -1.00000000E+00
Nuclear ZNuc                               R   N=           6
  6.00000000E+00  6.00000000E+00  1.00000000E+00  1.00000000E+00  1.00000000E+00
  1.00000000E+00
Nuclear QMom                               R   N=           6
  0.00000000E+00  0.00000000E+00  0.00000000E+00  0.00000000E+00  0.00000000E+00
  0.00000000E+00
Nuclear GFac                               R   N=           6
  0.00000000E+00  0.00000000E+00  2.79284600E+00  2.79284600E+00  2.79284600E+00
  2.79284600E+00
MicOpt                                     I   N=           6
          -2          -2          -1          -1          -1          -1
Number of residues                         I                0
Number of secondary structures             I                0
Redundant internal dimensions              I   N=           4
          20          10           6           4
Redundant internal coordinate indices      I   N=          80
           1          -1           0           0           1          -2
           0           0           1          -3           0           0
           2          -1           0           0           2          -2
           0           0           2          -3           0           0
           1           3           0           0           1           4
           0           0           2           5           0           0
           2           6           0           0           2           1
           3           0           2           1           4           0
           3           1           4           0           1           2
           5           0           1           2           6           0
           5           2           6           0           3           1
           2           5           3           1           2           6
           4           1           2           5           4           1
           2           6
Redundant internal coordinates             R   N=          20
 -8.57103236E+00  0.00000000E+00  0.00000000E+00  8.57103236E+00  0.00000000E+00
  0.00000000E+00  2.09544228E+00  2.09543225E+00  2.09544228E+00  2.09543225E+00
  2.25256736E+00  2.25253748E+00  1.77808047E+00  2.25256736E+00  2.25253748E+00
  1.77808047E+00  3.14159265E+00  0.00000000E+00  0.00000000E+00  3.14159265E+00
ZRed-IntVec                                I   N=          20
          -1          -1          -1          -1          -1          -1
           0           0           0           0           0           0
           0           0           0           0           0           0
           0           0
ZRed-FPVec                                 R   N=          20
  0.00000000E+00  0.00000000E+00  0.00000000E+00  0.00000000E+00  0.00000000E+00
  0.00000000E+00  0.00000000E+00  0.00000000E+00  0.00000000E+00  0.00000000E+00
  0.00000000E+00  0.00000000E+00  0.00000000E+00  0.00000000E+00  0.00000000E+00
  0.00000000E+00  0.00000000E+00  0.00000000E+00  0.00000000E+00  0.00000000E+00
ZRed-Constraint1                           R   N=          20
 -8.57103236E+00  0.00000000E+00  0.00000000E+00  8.57103236E+00  0.00000000E+00
  0.00000000E+00  2.03694512E+00  2.03669844E+00  2.03694512E+00  2.03669844E+00
  2.00316847E+00  2.00313852E+00  2.27687832E+00  2.00316847E+00  2.00313852E+00
  2.27687832E+00  3.14159265E+00  0.00000000E+00  0.00000000E+00  3.14159265E+00
ZRed-Constraint2                           R   N=          20
 -8.57103236E+00  0.00000000E+00  0.00000000E+00  8.57103236E+00  0.00000000E+00
  0.00000000E+00  0.00000000E+00  0.00000000E+00  0.00000000E+00  0.00000000E+00
  0.00000000E+00  0.00000000E+00  0.00000000E+00  0.00000000E+00  0.00000000E+00
  0.00000000E+00  0.00000000E+00  0.00000000E+00  0.00000000E+00  0.00000000E+00
Number of contracted shells                I               28
Number of primitive shells                 I               50
Pure/Cartesian d shells                    I                0
Pure/Cartesian f shells                    I                0
Highest angular momentum                   I                2
Largest degree of contraction              I                6
Shell types                                I   N=          28
           0          -1          -1          -1          -1          -2
           0          -1          -1          -1          -1          -2
           0           0           0           1           0           0
           0           1           0           0           0           1
           0           0           0           1
Number of primitives per shell             I   N=          28
           6           3           1           1           1           1
           6           3           1           1           1           1
           3           1           1           1           3           1
           1           1           3           1           1           1
           3           1           1           1
Shell to atom map                          I   N=          28
           1           1           1           1           1           1
           2           2           2           2           2           2
           3           3           3           3           4           4
           4           4           5           5           5           5
           6           6           6           6
Primitive exponents                        R   N=          50
  4.56324000E+03  6.82024000E+02  1.54973000E+02  4.44553000E+01  1.30290000E+01
  1.82773000E+00  2.09642000E+01  4.80331000E+00  1.45933000E+00  4.83456000E-01
  1.45585000E-01  4.38000000E-02  6.26000000E-01  4.56324000E+03  6.82024000E+02
  1.54973000E+02  4.44553000E+01  1.30290000E+01  1.82773000E+00  2.09642000E+01
  4.80331000E+00  1.45933000E+00  4.83456000E-01  1.45585000E-01  4.38000000E-02
  6.26000000E-01  3.38650000E+01  5.09479000E+00  1.15879000E+00  3.25840000E-01
  1.02741000E-01  7.50000000E-01  3.38650000E+01  5.09479000E+00  1.15879000E+00
  3.25840000E-01  1.02741000E-01  7.50000000E-01  3.38650000E+01  5.09479000E+00
  1.15879000E+00  3.25840000E-01  1.02741000E-01  7.50000000E-01  3.38650000E+01
  5.09479000E+00  1.15879000E+00  3.25840000E-01  1.02741000E-01  7.50000000E-01
Contraction coefficients                   R   N=          50
  1.96665025E-03  1.52306019E-02  7.61269097E-02  2.60801033E-01  6.16462078E-01
  2.21006028E-01  1.14660081E-01  9.19999648E-01 -3.03068213E-03  1.00000000E+00
  1.00000000E+00  1.00000000E+00  1.00000000E+00  1.96665025E-03  1.52306019E-02
  7.61269097E-02  2.60801033E-01  6.16462078E-01  2.21006028E-01  1.14660081E-01
  9.19999648E-01 -3.03068213E-03  1.00000000E+00  1.00000000E+00  1.00000000E+00
  1.00000000E+00  2.54938145E-02  1.90373109E-01  8.52161486E-01  1.00000000E+00
  1.00000000E+00  1.00000000E+00  2.54938145E-02  1.90373109E-01  8.52161486E-01
  1.00000000E+00  1.00000000E+00  1.00000000E+00  2.54938145E-02  1.90373109E-01
  8.52161486E-01  1.00000000E+00  1.00000000E+00  1.00000000E+00  2.54938145E-02
  1.90373109E-01  8.52161486E-01  1.00000000E+00  1.00000000E+00  1.00000000E+00
P(S=P) Contraction coefficients            R   N=          50
  0.00000000E+00  0.00000000E+00  0.00000000E+00  0.00000000E+00  0.00000000E+00
  0.00000000E+00  4.02486927E-02  2.37593957E-01  8.15853851E-01  1.00000000E+00
  1.00000000E+00  1.00000000E+00  0.00000000E+00  0.00000000E+00  0.00000000E+00
  0.00000000E+00  0.00000000E+00  0.00000000E+00  0.00000000E+00  4.02486927E-02
  2.37593957E-01  8.15853851E-01  1.00000000E+00  1.00000000E+00  1.00000000E+00
  0.00000000E+00  0.00000000E+00  0.00000000E+00  0.00000000E+00  0.00000000E+00
  0.00000000E+00  0.00000000E+00  0.00000000E+00  0.00000000E+00  0.00000000E+00
  0.00000000E+00  0.00000000E+00  0.00000000E+00  0.00000000E+00  0.00000000E+00
  0.00000000E+00  0.00000000E+00  0.00000000E+00  0.00000000E+00  0.00000000E+00
  0.00000000E+00  0.00000000E+00  0.00000000E+00  0.00000000E+00  0.00000000E+00
Coordinates of each shell                  R   N=          84
 -8.57103236E+00  0.00000000E+00  0.00000000E+00 -8.57103236E+00  0.00000000E+00
  0.00000000E+00 -8.57103236E+00  0.00000000E+00  0.00000000E+00 -8.57103236E+00
  0.00000000E+00  0.00000000E+00 -8.57103236E+00  0.00000000E+00  0.00000000E+00
 -8.57103236E+00  0.00000000E+00  0.00000000E+00  8.57103236E+00  0.00000000E+00
  0.00000000E+00  8.57103236E+00  0.00000000E+00  0.00000000E+00  8.57103236E+00
  0.00000000E+00  0.00000000E+00  8.57103236E+00  0.00000000E+00  0.00000000E+00
  8.57103236E+00  0.00000000E+00  0.00000000E+00  8.57103236E+00  0.00000000E+00
  0.00000000E+00 -9.89151543E+00 -1.62702268E+00  3.54644286E-10 -9.89151543E+00
 -1.62702268E+00  3.54644286E-10 -9.89151543E+00 -1.62702268E+00  3.54644286E-10
 -9.89151543E+00 -1.62702268E+00  3.54644286E-10 -9.89146049E+00  1.62705435E+00
  1.69068199E-10 -9.89146049E+00  1.62705435E+00  1.69068199E-10 -9.89146049E+00
  1.62705435E+00  1.69068199E-10 -9.89146049E+00  1.62705435E+00  1.69068199E-10
  9.89151543E+00  1.62702268E+00  3.68907038E-10  9.89151543E+00  1.62702268E+00
  3.68907038E-10  9.89151543E+00  1.62702268E+00  3.68907038E-10  9.89151543E+00
  1.62702268E+00  3.68907038E-10  9.89146049E+00 -1.62705435E+00  1.83288887E-10
  9.89146049E+00 -1.62705435E+00  1.83288887E-10  9.89146049E+00 -1.62705435E+00
  1.83288887E-10  9.89146049E+00 -1.62705435E+00  1.83288887E-10
Num ILSW                                   I              100
ILSW                                       I   N=         100
           1           0           0           0           2           0
           0           0           0           0        4336          -1
           7           0           0           0           2           0
           0           0           0           0           1           0
           1           1           0           0           0           0
           0           0      100000           0          -1           0
           0           0           0           0           0           0
           0           0           0           1           0           0
           0 -2000000000           1           0           0           0
           0           0           4          52           0           0
           0           0          55           0           0           0
           0           0           0           6           0           1
           0           0           0           0           0           0
           0           0           0           0           0           0
           0           0           0           0           0           0
           0           0           0           0           0           0
           0           0           0           0
Num RLSW                                   I               52
RLSW                                       R   N=          52
  1.00000000E+00  1.00000000E+00  1.00000000E+00  1.00000000E+00  5.40000000E-01
  0.00000000E+00  0.00000000E+00  1.00000000E+00  0.00000000E+00  0.00000000E+00
  0.00000000E+00  0.00000000E+00  1.00000000E+00  0.00000000E+00  0.00000000E+00
  0.00000000E+00  0.00000000E+00  1.00000000E+00  0.00000000E+00  0.00000000E+00
  0.00000000E+00  0.00000000E+00  1.00000000E+00  0.00000000E+00  0.00000000E+00
  0.00000000E+00  0.00000000E+00  1.00000000E+00  0.00000000E+00  0.00000000E+00
  0.00000000E+00  0.00000000E+00  1.00000000E+00  0.00000000E+00  0.00000000E+00
  0.00000000E+00  0.00000000E+00  0.00000000E+00  1.00000000E+00  1.00000000E+00
  0.00000000E+00  1.00000000E+00  0.00000000E+00  0.00000000E+00  0.00000000E+00
  0.00000000E+00  0.00000000E+00  0.00000000E+00  0.00000000E+00  0.00000000E+00
  0.00000000E+00  0.00000000E+00
MxBond                                     I                3
NBond                                      I   N=           6
           3           3           1           1           1           1
IBond                                      I   N=          18
           2           3           4           1           5           6
           1           0           0           1           0           0
           2           0           0           2           0           0
RBond                                      R   N=          18
  1.00000000E-01  1.00000000E+00  1.00000000E+00  1.00000000E-01  1.00000000E+00
  1.00000000E+00  1.00000000E+00  0.00000000E+00  0.00000000E+00  1.00000000E+00
  0.00000000E+00  0.00000000E+00  1.00000000E+00  0.00000000E+00  0.00000000E+00
  1.00000000E+00  0.00000000E+00  0.00000000E+00
Virial Ratio                               R      2.003506357930678E+00
SCF Energy                                 R     -7.823739419196525E+01
Total Energy                               R     -7.823739419196525E+01
S**2                                       R     -2.486899575160351E-14
S**2 after annihilation                    R     -1.882938249764249E-13
RMS Force                                  R      1.529894642910156E-04
RMS Density                                R      1.725306021602965E-09
Job Status                                 I                1
Nuclear derivative order                   I                1
External E-field                           R   N=          35
  0.00000000E+00  0.00000000E+00  0.00000000E+00  0.00000000E+00  0.00000000E+00
  0.00000000E+00  0.00000000E+00  0.00000000E+00  0.00000000E+00  0.00000000E+00
  0.00000000E+00  0.00000000E+00  0.00000000E+00  0.00000000E+00  0.00000000E+00
  0.00000000E+00  0.00000000E+00  0.00000000E+00  0.00000000E+00  0.00000000E+00
  0.00000000E+00  0.00000000E+00  0.00000000E+00  0.00000000E+00  0.00000000E+00
  0.00000000E+00  0.00000000E+00  0.00000000E+00  0.00000000E+00  0.00000000E+00
  0.00000000E+00  0.00000000E+00  0.00000000E+00  0.00000000E+00  0.00000000E+00
IOpCl                                      I                1
IROHF                                      I                0
Alpha Orbital Energies                     R   N=          68
 -1.06063517E+01 -1.06063516E+01 -7.55665700E-01 -7.55665536E-01 -4.74418493E-01
 -4.74418486E-01 -3.12469895E-01 -3.12458072E-01 -8.08027003E-02 -8.07749381E-02
  2.48018058E-02  2.50619418E-02  6.70334005E-02  6.85037059E-02  8.65120421E-02
  8.73323504E-02  8.76998433E-02  1.02104706E-01  1.77491452E-01  1.78133800E-01
  1.96319226E-01  1.96483148E-01  4.41981982E-01  4.44035710E-01  4.85273411E-01
  4.88005546E-01  5.88937727E-01  5.89867354E-01  6.24888224E-01  6.24939065E-01
  6.34448748E-01  6.39986261E-01  7.29442794E-01  7.34283006E-01  1.09313582E+00
  1.09323723E+00  1.10559192E+00  1.10559192E+00  1.19406678E+00  1.19407571E+00
  1.55482701E+00  1.55522230E+00  1.56882885E+00  1.56915048E+00  1.63036115E+00
  1.63101005E+00  1.86750173E+00  1.86750173E+00  1.88038329E+00  1.88045398E+00
  2.13640962E+00  2.13690770E+00  2.36740248E+00  2.36741770E+00  2.45396193E+00
  2.45514517E+00  2.50293212E+00  2.50309348E+00  2.55804432E+00  2.55885630E+00
  2.75206469E+00  2.75261089E+00  3.06662547E+00  3.07196837E+00  3.59283639E+00
  3.59283643E+00  2.37707842E+01  2.37716717E+01
Beta Orbital Energies                      R   N=          68
 -1.06063517E+01 -1.06063516E+01 -7.55665700E-01 -7.55665536E-01 -4.74418493E-01
 -4.74418486E-01 -3.12469895E-01 -3.12458072E-01 -8.08027003E-02 -8.07749381E-02
  2.48018058E-02  2.50619418E-02  6.70334005E-02  6.85037059E-02  8.65120421E-02
  8.73323504E-02  8.76998433E-02  1.02104706E-01  1.77491452E-01  1.78133800E-01
  1.96319226E-01  1.96483148E-01  4.41981982E-01  4.44035710E-01  4.85273411E-01
  4.88005546E-01  5.88937727E-01  5.89867354E-01  6.24888224E-01  6.24939065E-01
  6.34448748E-01  6.39986261E-01  7.29442794E-01  7.34283006E-01  1.09313582E+00
  1.09323723E+00  1.10559192E+00  1.10559192E+00  1.19406678E+00  1.19407571E+00
  1.55482701E+00  1.55522230E+00  1.56882885E+00  1.56915048E+00  1.63036115E+00
  1.63101005E+00  1.86750173E+00  1.86750173E+00  1.88038329E+00  1.88045398E+00
  2.13640962E+00  2.13690770E+00  2.36740248E+00  2.36741770E+00  2.45396193E+00
  2.45514517E+00  2.50293212E+00  2.50309348E+00  2.55804432E+00  2.55885630E+00
  2.75206469E+00  2.75261089E+00  3.06662547E+00  3.07196837E+00  3.59283639E+00
  3.59283643E+00  2.37707842E+01  2.37716717E+01
Alpha MO coefficients                      R   N=        4624
  3.98868263E-01  3.28257510E-01 -1.51192010E-03  1.96388554E-08  2.89870287E-13
  7.74918868E-03 -1.17724207E-03  6.35894177E-08  2.33187307E-13 -2.72336874E-03
 -5.01634087E-05 -1.27575728E-09  8.74192648E-15 -4.96202623E-04  6.09083635E-04
 -1.50897719E-08 -1.17957588E-13 -7.01117933E-04 -2.11680496E-13 -9.91861557E-14
 -2.52446945E-04 -1.66793932E-08 -3.98868318E-01 -3.28257556E-01 -1.51192030E-03
  1.96388615E-08 -2.54264329E-13 -7.74918975E-03 -1.17724223E-03  6.35894152E-08
 -2.68639311E-13  2.72336911E-03 -5.01634121E-05 -1.27576455E-09  9.19941008E-18
  4.96202692E-04  6.09083714E-04 -1.50897752E-08  1.20762709E-13  7.01118029E-04
 -2.24475586E-13 -9.91264069E-14  2.52446979E-04  1.66793878E-08  2.45266169E-04
 -1.93872177E-03  1.64528442E-03 -7.83280665E-04 -1.01170730E-03  2.03357505E-13
  2.45255908E-04 -1.93879871E-03  1.64532942E-03 -7.83279974E-04  1.01176402E-03
  9.73405467E-14 -2.45266203E-04  1.93872204E-03 -1.64528465E-03 -7.83280774E-04
 -1.01170744E-03 -2.08972222E-13 -2.45255942E-04  1.93879898E-03 -1.64532964E-03
 -7.83280082E-04  1.01176416E-03 -1.03222978E-13  3.98868266E-01  3.28258649E-01
 -1.50865259E-03  1.95692094E-08  2.90080364E-13  7.74068652E-03 -1.18896497E-03
  6.39924969E-08  2.32818362E-13 -2.69852559E-03 -2.46560503E-05 -1.45792312E-09
  8.19232405E-15 -4.98383526E-04  5.72539076E-04 -1.56759999E-08 -1.15770228E-13
 -7.01095955E-04 -2.11624589E-13 -9.87604954E-14 -2.53170504E-04 -1.68562721E-08
  3.98868211E-01  3.28258604E-01  1.50865239E-03 -1.95692074E-08  2.53726409E-13
  7.74068545E-03  1.18896480E-03 -6.39924892E-08  2.69731523E-13 -2.69852522E-03
  2.46560433E-05  1.45792518E-09 -8.36108071E-16 -4.98383457E-04 -5.72538992E-04
  1.56760001E-08 -1.18292717E-13 -7.01095859E-04  2.24717539E-13  1.00016758E-13
 -2.53170469E-04 -1.68562699E-08  2.43126660E-04 -1.93101795E-03  1.62926045E-03
 -7.85037131E-04 -1.01234542E-03  2.04426362E-13  2.43116609E-04 -1.93109645E-03
  1.62930825E-03 -7.85036601E-04  1.01240234E-03  9.70817702E-14  2.43126626E-04
 -1.93101769E-03  1.62926022E-03  7.85037023E-04  1.01234528E-03  2.09008519E-13
  2.43116575E-04 -1.93109618E-03  1.62930802E-03  7.85036493E-04 -1.01240220E-03
  1.02632882E-13 -7.40860822E-02 -1.19233940E-01 -4.81399646E-02  1.28566339E-06
  9.53983022E-12  3.25375664E-01 -7.18322932E-02  1.72771205E-06  1.37680049E-11
  2.22335204E-01 -3.19903528E-02  6.93350972E-07  6.37260734E-12  4.29329414E-03
 -2.22758870E-03  2.64803792E-08 -3.04311282E-14 -5.16459354E-03 -1.72339853E-12
 -2.77536166E-13 -6.92935184E-05 -1.20690199E-07  7.40860836E-02  1.19233942E-01
 -4.81399655E-02  1.28566342E-06 -9.80254792E-12 -3.25375670E-01 -7.18322944E-02
  1.72771209E-06 -1.38705094E-11 -2.22335208E-01 -3.19903534E-02  6.93351010E-07
 -6.50768244E-12 -4.29329422E-03 -2.22758874E-03  2.64803952E-08  7.35835509E-14
  5.16459363E-03 -1.85901688E-12 -2.67843201E-13  6.92935196E-05  1.20690204E-07
  8.08192240E-02  9.78656804E-02  5.90037538E-03  6.69388549E-03  1.18027321E-02
 -1.89181845E-12  8.08203163E-02  9.78667354E-02  5.90046384E-03  6.69361236E-03
 -1.18030063E-02 -6.72420075E-13 -8.08192254E-02 -9.78656822E-02 -5.90037548E-03
  6.69388561E-03  1.18027323E-02  1.97165856E-12 -8.08203178E-02 -9.78667372E-02
 -5.90046394E-03  6.69361248E-03 -1.18030065E-02  8.07619653E-13 -7.40862645E-02
 -1.19235311E-01 -4.81436307E-02  1.28573756E-06  9.53894963E-12  3.25393311E-01
 -7.18144219E-02  1.72717965E-06  1.37696928E-11  2.22268783E-01 -3.20498712E-02
  6.93846568E-07  6.36746599E-12  4.28033821E-03 -2.10976056E-03  2.78164982E-08
 -3.22869428E-14 -5.16551873E-03 -1.72400603E-12 -2.76880408E-13 -6.85196303E-05
 -1.20443358E-07 -7.40862632E-02 -1.19235309E-01  4.81436298E-02 -1.28573754E-06
  9.80197848E-12  3.25393306E-01  7.18144206E-02 -1.72717963E-06  1.38716379E-11
  2.22268779E-01  3.20498707E-02 -6.93846587E-07  6.50582528E-12  4.28033813E-03
  2.10976052E-03 -2.78165141E-08 -7.85173434E-14 -5.16551863E-03  1.85946424E-12
  2.67809368E-13 -6.85196290E-05 -1.20443360E-07  8.08225456E-02  9.78435841E-02
  5.95948994E-03  6.69651966E-03  1.18030714E-02 -1.89154797E-12  8.08236377E-02
  9.78446418E-02  5.95957174E-03  6.69624674E-03 -1.18033459E-02 -6.72853827E-13
  8.08225442E-02  9.78435823E-02  5.95948983E-03 -6.69651954E-03 -1.18030712E-02
 -1.97159741E-12  8.08236362E-02  9.78446400E-02  5.95957163E-03 -6.69624662E-03
  1.18033457E-02 -8.07551853E-13  2.11523908E-07  3.53748322E-07  1.97935324E-06
  1.46280036E-01 -8.21594238E-12 -9.97910339E-07  3.12932820E-06  2.18127140E-01
 -1.17267347E-11 -1.89947652E-06  1.92374555E-06  1.18488864E-01 -6.61930285E-12
 -2.49788734E-07  1.28285414E-08 -1.22360673E-03  3.41842809E-13 -2.72738334E-08
  1.66971266E-12  6.30189891E-12 -9.85316635E-07 -3.24048560E-02  2.11523537E-07
  3.53747700E-07 -1.97934977E-06 -1.46279778E-01 -8.21194826E-12 -9.97908584E-07
 -3.12932273E-06 -2.18126756E-01 -1.17377304E-11 -1.89947319E-06 -1.92374218E-06
 -1.18488656E-01 -6.63856251E-12 -2.49788303E-07 -1.28285305E-08  1.22360461E-03
  3.47766899E-13 -2.72737855E-08 -1.68534668E-12 -6.32779540E-12 -9.85314909E-07
 -3.24047990E-02 -1.03853939E-01 -1.59866651E-01 -8.10405021E-02 -8.20571733E-03
 -3.20555993E-03  1.72577209E-12  1.03853692E-01  1.59866073E-01  8.10404960E-02
  8.20560711E-03 -3.20572389E-03 -1.43250548E-12 -1.03853756E-01 -1.59866369E-01
 -8.10403595E-02  8.20570288E-03  3.20555428E-03  1.78933547E-12  1.03853510E-01
  1.59865791E-01  8.10403534E-02 -8.20559267E-03  3.20571824E-03 -1.39063334E-12
  2.11532584E-07  3.53793066E-07  1.97942144E-06  1.46279838E-01 -8.21558268E-12
 -9.98442060E-07  3.12886003E-06  2.18125373E-01 -1.17247595E-11 -1.89746836E-06
  1.92529555E-06  1.18485953E-01 -6.61944066E-12 -2.48876358E-07  9.36921191E-09
 -1.20178148E-03  3.42449233E-13 -2.72359356E-08  1.66949913E-12  6.30171965E-12
 -9.85281308E-07 -3.24032848E-02 -2.11532958E-07 -3.53793689E-07  1.97942495E-06
  1.46280096E-01  8.21234620E-12  9.98443820E-07  3.12886557E-06  2.18125757E-01
  1.17368199E-11  1.89747172E-06  1.92529895E-06  1.18486161E-01  6.64017441E-12
  2.48876793E-07  9.36923650E-09 -1.20178363E-03 -3.48253394E-13  2.72359831E-08
  1.68557893E-12  6.32817004E-12  9.85283050E-07  3.24033419E-02 -1.03852895E-01
 -1.59874364E-01 -8.10181172E-02 -8.20631018E-03 -3.20598320E-03  1.72557955E-12
  1.03852649E-01  1.59873788E-01  8.10181068E-02  8.20619983E-03 -3.20614719E-03
 -1.43270796E-12  1.03853078E-01  1.59874646E-01  8.10182598E-02 -8.20632463E-03
 -3.20598884E-03 -1.78950004E-12 -1.03852831E-01 -1.59874069E-01 -8.10182494E-02
  8.20621428E-03 -3.20615283E-03  1.39116449E-12 -3.90775256E-02 -6.49050059E-02
  1.62003352E-01 -2.44317541E-06 -3.14892400E-11  1.88894408E-01  2.33523153E-01
 -3.37149674E-06 -4.54713319E-11  2.96093676E-01  2.12703008E-01 -3.02072405E-06
 -4.15293473E-11  4.20577327E-02  3.68640329E-02 -5.24166245E-07 -7.30252613E-12
  1.76559012E-02  9.07482599E-12  7.65618995E-13 -1.66577901E-02  4.99236676E-07
 -3.90775256E-02 -6.49050060E-02 -1.62003352E-01  2.44317544E-06 -3.15821769E-11
  1.88894408E-01 -2.33523154E-01  3.37149676E-06 -4.56831024E-11  2.96093677E-01
 -2.12703008E-01  3.02072407E-06 -4.11013757E-11  4.20577327E-02 -3.68640329E-02
  5.24166245E-07 -7.34010437E-12  1.76559012E-02 -8.92622403E-12 -7.61684399E-13
 -1.66577902E-02  4.99236678E-07 -4.88274636E-02 -9.03971234E-02 -6.11072928E-02
  7.29162942E-03 -9.90328437E-03 -8.36713235E-13 -4.88272987E-02 -9.03967615E-02
 -6.11068604E-02  7.29194788E-03  9.90309522E-03 -1.92590440E-12 -4.88274637E-02
 -9.03971235E-02 -6.11072928E-02 -7.29162942E-03  9.90328438E-03 -7.74056792E-13
 -4.88272988E-02 -9.03967616E-02 -6.11068605E-02 -7.29194789E-03 -9.90309523E-03
 -1.80500525E-12 -3.90826413E-02 -6.49164480E-02  1.62007093E-01 -2.44315103E-06
 -3.14921488E-11  1.88966474E-01  2.33589108E-01 -3.37288537E-06 -4.54731541E-11
  2.95917721E-01  2.12528120E-01 -3.01979946E-06 -4.15401789E-11  4.18829308E-02
  3.73340614E-02 -5.20546080E-07 -7.32802032E-12  1.76525654E-02  9.07378942E-12
  7.65242417E-13 -1.66585372E-02  4.99948904E-07  3.90826413E-02  6.49164479E-02
  1.62007092E-01 -2.44315105E-06  3.15853632E-11 -1.88966474E-01  2.33589108E-01
 -3.37288539E-06  4.56838892E-11 -2.95917721E-01  2.12528119E-01 -3.01979948E-06
  4.11112729E-11 -4.18829308E-02  3.73340614E-02 -5.20546085E-07  7.36824081E-12
 -1.76525654E-02  8.92517078E-12  7.61241939E-13  1.66585372E-02 -4.99948904E-07
 -4.88196491E-02 -9.04963732E-02 -6.08393713E-02  7.29976692E-03 -9.90544070E-03
 -8.36843700E-13 -4.88194848E-02 -9.04960034E-02 -6.08389592E-02  7.30008606E-03
  9.90525091E-03 -1.92679937E-12  4.88196490E-02  9.04963731E-02  6.08393712E-02
  7.29976691E-03 -9.90544069E-03  7.74478996E-13  4.88194847E-02  9.04960033E-02
  6.08389592E-02  7.30008606E-03  9.90525090E-03  1.80569020E-12  5.53024482E-14
  1.06626997E-13  3.16769265E-11  8.81558036E-12  1.62036638E-01 -9.59974382E-14
  5.03880689E-11  1.69025705E-11  2.56265978E-01 -8.58935808E-12  6.26474054E-11
  1.95976351E-11  3.02087573E-01 -2.46564889E-11  4.73153662E-11  1.45144210E-11
  1.81070312E-01  6.26379966E-12 -1.73038303E-02  3.01588616E-07 -3.24671330E-12
 -2.41115485E-12  2.92716348E-13  5.16194514E-13 -3.24522388E-11 -8.81547062E-12
  1.62036638E-01 -1.24470362E-12 -5.14065293E-11 -1.68679271E-11  2.56265978E-01
 -1.28707344E-11 -6.59214843E-11 -1.95673350E-11  3.02087573E-01 -3.13087291E-11
 -4.99919850E-11 -1.46236442E-11  1.81070312E-01  6.18344376E-12  1.73038303E-02
 -3.01588619E-07 -3.55239486E-12 -2.39089471E-12  9.83466482E-13  1.11832378E-12
  2.41941474E-11  4.38397780E-12  2.19493387E-12  1.63308086E-02  2.84298693E-13
 -3.52911487E-12  1.33094930E-11  2.63425673E-12  1.49173075E-12  1.63308751E-02
  1.58763744E-12  1.75845128E-12  2.96283246E-11 -4.47777964E-12 -2.31409523E-12
  1.63308086E-02  8.63360312E-13 -2.67958252E-12  1.84278679E-11 -2.74064550E-12
 -1.36148170E-12  1.63308751E-02  3.26798709E-14  7.13132754E-14  3.17704506E-11
  8.81747216E-12  1.62114955E-01 -4.59460605E-14  5.03791617E-11  1.68992088E-11
  2.56303622E-01 -8.09462048E-12  6.32059482E-11  1.96014930E-11  3.02499885E-01
 -2.55342749E-11  4.65295902E-11  1.46369906E-11  1.80493983E-01  6.26952577E-12
 -1.73133121E-02  3.01763793E-07 -3.26077102E-12 -2.40584450E-12 -2.70439319E-13
 -4.81325030E-13  3.25456126E-11  8.81805149E-12 -1.62114955E-01  1.19486827E-12
  5.13966990E-11  1.68632996E-11 -2.56303622E-01  1.23808326E-11  6.64795981E-11