 Entering Gaussian System, Link 0=g16
 Initial command:
 /home/szhao/Apps/g16/l1.exe "/home/szhao/tmp/Gau-79450.inp" -scrdir="/home/szhao/tmp/"
 Default is to use a total of  16 processors:
                               16 via shared-memory
                                1 via Linda
 Entering Link 1 = /home/szhao/Apps/g16/l1.exe PID=     79458.
  
 Copyright (c) 1988,1990,1992,1993,1995,1998,2003,2009,2016,
            Gaussian, Inc.  All Rights Reserved.
  
 This is part of the Gaussian(R) 16 program.  It is based on
 the Gaussian(R) 09 system (copyright 2009, Gaussian, Inc.),
 the Gaussian(R) 03 system (copyright 2003, Gaussian, Inc.),
 the Gaussian(R) 98 system (copyright 1998, Gaussian, Inc.),
 the Gaussian(R) 94 system (copyright 1995, Gaussian, Inc.),
 the Gaussian 92(TM) system (copyright 1992, Gaussian, Inc.),
 the Gaussian 90(TM) system (copyright 1990, Gaussian, Inc.),
 the Gaussian 88(TM) system (copyright 1988, Gaussian, Inc.),
 the Gaussian 86(TM) system (copyright 1986, Carnegie Mellon
 University), and the Gaussian 82(TM) system (copyright 1983,
 Carnegie Mellon University). Gaussian is a federally registered
 trademark of Gaussian, Inc.
  
 This software contains proprietary and confidential information,
 including trade secrets, belonging to Gaussian, Inc.
  
 This software is provided under written license and may be
 used, copied, transmitted, or stored only in accord with that
 written license.
  
 The following legend is applicable only to US Government
 contracts under FAR:
  
                    RESTRICTED RIGHTS LEGEND
  
 Use, reproduction and disclosure by the US Government is
 subject to restrictions as set forth in subparagraphs (a)
 and (c) of the Commercial Computer Software - Restricted
 Rights clause in FAR 52.227-19.
  
 Gaussian, Inc.
 340 Quinnipiac St., Bldg. 40, Wallingford CT 06492
  
  
 ---------------------------------------------------------------
 Warning -- This program may not be used in any manner that
 competes with the business of Gaussian, Inc. or will provide
 assistance to any competitor of Gaussian, Inc.  The licensee
 of this program is prohibited from giving any competitor of
 Gaussian, Inc. access to this program.  By using this program,
 the user acknowledges that Gaussian, Inc. is engaged in the
 business of creating and licensing software in the field of
 computational chemistry and represents and warrants to the
 licensee that it is not a competitor of Gaussian, Inc. and that
 it will not use this program in any manner prohibited above.
 ---------------------------------------------------------------
  

 Cite this work as:
 Gaussian 16, Revision A.03,
 M. J. Frisch, G. W. Trucks, H. B. Schlegel, G. E. Scuseria, 
 M. A. Robb, J. R. Cheeseman, G. Scalmani, V. Barone, 
 G. A. Petersson, H. Nakatsuji, X. Li, M. Caricato, A. V. Marenich, 
 J. Bloino, B. G. Janesko, R. Gomperts, B. Mennucci, H. P. Hratchian, 
 J. V. Ortiz, A. F. Izmaylov, J. L. Sonnenberg, D. Williams-Young, 
 F. Ding, F. Lipparini, F. Egidi, J. Goings, B. Peng, A. Petrone, 
 T. Henderson, D. Ranasinghe, V. G. Zakrzewski, J. Gao, N. Rega, 
 G. Zheng, W. Liang, M. Hada, M. Ehara, K. Toyota, R. Fukuda, 
 J. Hasegawa, M. Ishida, T. Nakajima, Y. Honda, O. Kitao, H. Nakai, 
 T. Vreven, K. Throssell, J. A. Montgomery, Jr., J. E. Peralta, 
 F. Ogliaro, M. J. Bearpark, J. J. Heyd, E. N. Brothers, K. N. Kudin, 
 V. N. Staroverov, T. A. Keith, R. Kobayashi, J. Normand, 
 K. Raghavachari, A. P. Rendell, J. C. Burant, S. S. Iyengar, 
 J. Tomasi, M. Cossi, J. M. Millam, M. Klene, C. Adamo, R. Cammi, 
 J. W. Ochterski, R. L. Martin, K. Morokuma, O. Farkas, 
 J. B. Foresman, and D. J. Fox, Gaussian, Inc., Wallingford CT, 2016.
 
 ******************************************
 Gaussian 16:  ES64L-G16RevA.03 25-Dec-2016
                21-Apr-2025 
 ******************************************
 %chk=opt.chk
 %mem=4GB
 %nprocshared=8
 Will use up to    8 processors via shared memory.
 --------------------------------------------
 #p opt UM062X/6-311+G** nosymm int=superfine
 --------------------------------------------
 1/18=20,19=15,26=5,38=1/1,3;
 2/9=110,12=2,15=1,17=6,18=5,40=1/2;
 3/5=4,6=6,7=111,11=2,25=1,30=1,71=1,74=-55,75=-7,116=2/1,2,3;
 4//1;
 5/5=2,38=5/2;
 6/7=2,8=2,9=2,10=2,28=1/1;
 7/30=1/1,2,3,16;
 1/18=20,19=15,26=5/3(2);
 2/9=110,15=1/2;
 99//99;
 2/9=110,15=1/2;
 3/5=4,6=6,7=111,11=2,25=1,30=1,71=1,74=-55,75=-7,116=2/1,2,3;
 4/5=5,16=3,69=1/1;
 5/5=2,38=5/2;
 7/30=1/1,2,3,16;
 1/18=20,19=15,26=5/3(-5);
 2/9=110,15=1/2;
 6/7=2,8=2,9=2,10=2,19=2,28=1/1;
 99/9=1/99;
 Leave Link    1 at Mon Apr 21 17:49:40 2025, MaxMem=   536870912 cpu:               1.3 elap:               0.2
 (Enter /home/szhao/Apps/g16/l101.exe)
 -------------------
 Title Card Required
 -------------------
 Symbolic Z-matrix:
 Charge =  1 Multiplicity = 2
 B                    -1   -0.80273   0.        0. 
 N                    -1    0.80273   0.        0. 
 H                    0    -1.97069  -0.00026   0. 
 H                    0     1.82125   0.        0. 
 
 ITRead=  2  2  0  0
 MicOpt= -2 -2 -1 -1
 NAtoms=      4 NQM=        2 NQMF=       2 NMMI=      0 NMMIF=      0
                NMic=       0 NMicF=      0.
                    Isotopes and Nuclear Properties:
 (Nuclear quadrupole moments (NQMom) in fm**2, nuclear magnetic moments (NMagM)
  in nuclear magnetons)

  Atom         1           2           3           4
 IAtWgt=          11          14           1           1
 AtmWgt=  11.0093053  14.0030740   1.0078250   1.0078250
 NucSpn=           3           2           1           1
 AtZEff=  -0.0000000  -0.0000000  -0.0000000  -0.0000000
 NQMom=    4.0590000   2.0440000   0.0000000   0.0000000
 NMagM=    2.6886370   0.4037610   2.7928460   2.7928460
 AtZNuc=   5.0000000   7.0000000   1.0000000   1.0000000
 Leave Link  101 at Mon Apr 21 17:49:41 2025, MaxMem=   536870912 cpu:               4.1 elap:               0.5
 (Enter /home/szhao/Apps/g16/l103.exe)

 GradGradGradGradGradGradGradGradGradGradGradGradGradGradGradGradGradGrad
 Berny optimization.
 Initialization pass.
                           ----------------------------
                           !    Initial Parameters    !
                           ! (Angstroms and Degrees)  !
 --------------------------                            --------------------------
 ! Name  Definition              Value          Derivative Info.                !
 --------------------------------------------------------------------------------
 ! X1    R(1,-1)                -0.8027         Frozen                          !
 ! Y1    R(1,-2)                 0.0            Frozen                          !
 ! Z1    R(1,-3)                 0.0            Frozen                          !
 ! X2    R(2,-1)                 0.8027         Frozen                          !
 ! Y2    R(2,-2)                 0.0            Frozen                          !
 ! Z2    R(2,-3)                 0.0            Frozen                          !
 ! R1    R(1,3)                  1.168          estimate D2E/DX2                !
 ! R2    R(2,4)                  1.0185         estimate D2E/DX2                !
 ! A1    L(2,1,3,-3,-1)        179.9872         estimate D2E/DX2                !
 ! A2    L(1,2,4,-3,-1)        179.9999         estimate D2E/DX2                !
 ! A3    L(2,1,3,-2,-2)        180.0            estimate D2E/DX2                !
 ! A4    L(1,2,4,-2,-2)        180.0            estimate D2E/DX2                !
 --------------------------------------------------------------------------------
 Trust Radius=3.00D-01 FncErr=1.00D-07 GrdErr=1.00D-07 EigMax=2.50D+02 EigMin=1.00D-04
 Number of steps in this run=     22 maximum allowed number of steps=    100.
 GradGradGradGradGradGradGradGradGradGradGradGradGradGradGradGradGradGrad

 Leave Link  103 at Mon Apr 21 17:49:42 2025, MaxMem=   536870912 cpu:               0.3 elap:               0.1
 (Enter /home/szhao/Apps/g16/l202.exe)
                          Input orientation:                          
 ---------------------------------------------------------------------
 Center     Atomic      Atomic             Coordinates (Angstroms)
 Number     Number       Type             X           Y           Z
 ---------------------------------------------------------------------
      1          5           0       -0.802734    0.000000    0.000000
      2          7           0        0.802734    0.000000    0.000000
      3          1           0       -1.970689   -0.000261    0.000000
      4          1           0        1.821250    0.000002    0.000000
 ---------------------------------------------------------------------
                    Distance matrix (angstroms):
                    1          2          3          4
     1  B    0.000000
     2  N    1.605468   0.000000
     3  H    1.167955   2.773424   0.000000
     4  H    2.623984   1.018516   3.791940   0.000000
 Symmetry turned off by external request.
 Stoichiometry    BH2N(1+,2)
 Framework group  C*V[C*(HNBH)]
 Deg. of freedom     3
 Full point group                 C*V     NOp   4
 Rotational constants (GHZ):           0.0000000          21.7960650          21.7960650
 Leave Link  202 at Mon Apr 21 17:49:42 2025, MaxMem=   536870912 cpu:               0.1 elap:               0.1
 (Enter /home/szhao/Apps/g16/l301.exe)
 Standard basis: 6-311+G(d,p) (5D, 7F)
 Ernie: Thresh=  0.10000D-02 Tol=  0.10000D-05 Strict=F.
    56 basis functions,    88 primitive gaussians,    58 cartesian basis functions
     7 alpha electrons        6 beta electrons
       nuclear repulsion energy        19.9221431770 Hartrees.
 IExCor= 4336 DFT=T Ex+Corr=M062X ExCW=0 ScaHFX=  0.540000
 ScaDFX=  1.000000  1.000000  1.000000  1.000000 ScalE2=  1.000000  1.000000
 IRadAn=      7 IRanWt=     -1 IRanGd=            0 ICorTp=0 IEmpDi=  4
 NAtoms=    4 NActive=    4 NUniq=    4 SFac= 1.00D+00 NAtFMM=   60 NAOKFM=F Big=F
 Integral buffers will be    131072 words long.
 Raffenetti 2 integral format.
 Two-electron integral symmetry is turned off.
 Leave Link  301 at Mon Apr 21 17:49:42 2025, MaxMem=   536870912 cpu:               0.8 elap:               0.1
 (Enter /home/szhao/Apps/g16/l302.exe)
 NPDir=0 NMtPBC=     1 NCelOv=     1 NCel=       1 NClECP=     1 NCelD=      1
         NCelK=      1 NCelE2=     1 NClLst=     1 CellRange=     0.0.
 One-electron integrals computed using PRISM.
 NBasis=    56 RedAO= T EigKep=  2.09D-03  NBF=    56
 NBsUse=    56 1.00D-06 EigRej= -1.00D+00 NBFU=    56
 Precomputing XC quadrature grid using
 IXCGrd= 4 IRadAn=           7 IRanWt=          -1 IRanGd=           0 AccXCQ= 0.00D+00.
 Generated NRdTot=       0 NPtTot=           0 NUsed=           0 NTot=          32
 NSgBfM=    58    58    58    58    58 MxSgAt=     4 MxSgA2=     4.
 Leave Link  302 at Mon Apr 21 17:49:43 2025, MaxMem=   536870912 cpu:               2.0 elap:               0.3
 (Enter /home/szhao/Apps/g16/l303.exe)
 DipDrv:  MaxL=1.
 Leave Link  303 at Mon Apr 21 17:49:43 2025, MaxMem=   536870912 cpu:               0.5 elap:               0.1
 (Enter /home/szhao/Apps/g16/l401.exe)
 ExpMin= 3.15D-02 ExpMax= 6.29D+03 ExpMxC= 9.49D+02 IAcc=3 IRadAn=         7 AccDes= 0.00D+00
 Harris functional with IExCor= 1009 and IRadAn=       7 diagonalized for initial guess.
 HarFok:  IExCor= 1009 AccDes= 0.00D+00 IRadAn=         7 IDoV= 1 UseB2=F ITyADJ=14
 ICtDFT=  3500011 ScaDFX=  1.000000  1.000000  1.000000  1.000000
 FoFCou: FMM=F IPFlag=           0 FMFlag=      100000 FMFlg1=           0
         NFxFlg=           0 DoJE=T BraDBF=F KetDBF=T FulRan=T
         wScrn=  0.000000 ICntrl=       500 IOpCl=  0 I1Cent=   200000004 NGrid=           0
         NMat0=    1 NMatS0=      1 NMatT0=    0 NMatD0=    1 NMtDS0=    0 NMtDT0=    0
 Symmetry not used in FoFCou.
 Harris En= -80.3293887663599    
 JPrj=0 DoOrth=F DoCkMO=F.
 Initial guess <Sx>= 0.0000 <Sy>= 0.0000 <Sz>= 0.5000 <S**2>= 0.7500 S= 0.5000
 Leave Link  401 at Mon Apr 21 17:49:44 2025, MaxMem=   536870912 cpu:               3.3 elap:               0.5
 (Enter /home/szhao/Apps/g16/l502.exe)
 Keep R1 and R2 ints in memory in canonical form, NReq=9624198.
 FoFCou: FMM=F IPFlag=           0 FMFlag=           0 FMFlg1=           0
         NFxFlg=           0 DoJE=F BraDBF=F KetDBF=F FulRan=T
         wScrn=  0.000000 ICntrl=       600 IOpCl=  0 I1Cent=           0 NGrid=           0
         NMat0=    1 NMatS0=   1596 NMatT0=    0 NMatD0=    1 NMtDS0=    0 NMtDT0=    0
 Symmetry not used in FoFCou.
 Two-electron integral symmetry not used.
 UHF open shell SCF:
 Using DIIS extrapolation, IDIIS=  1040.
 NGot=   536870912 LenX=   534314338 LenY=   534310533
 Requested convergence on RMS density matrix=1.00D-08 within 128 cycles.
 Requested convergence on MAX density matrix=1.00D-06.
 Requested convergence on             energy=1.00D-06.
 No special actions if energy rises.

 Cycle   1  Pass 1  IDiag  1:
 E= -80.2914595841275    
 DIIS: error= 2.29D-02 at cycle   1 NSaved=   1.
 NSaved= 1 IEnMin= 1 EnMin= -80.2914595841275     IErMin= 1 ErrMin= 2.29D-02
 ErrMax= 2.29D-02  0.00D+00 EMaxC= 1.00D-01 BMatC= 1.06D-01 BMatP= 1.06D-01
 IDIUse=3 WtCom= 7.71D-01 WtEn= 2.29D-01
 Coeff-Com:  0.100D+01
 Coeff-En:   0.100D+01
 Coeff:      0.100D+01
 Gap=     0.343 Goal=   None    Shift=    0.000
 Gap=     0.244 Goal=   None    Shift=    0.000
 GapD=    0.244 DampG=1.000 DampE=0.500 DampFc=0.5000 IDamp=-1.
 Damping current iteration by 5.00D-01
 RMSDP=3.07D-03 MaxDP=8.88D-02              OVMax= 1.11D-01

 Cycle   2  Pass 1  IDiag  1:
 E= -80.3011653810190     Delta-E=       -0.009705796892 Rises=F Damp=T
 DIIS: error= 1.10D-02 at cycle   2 NSaved=   2.
 NSaved= 2 IEnMin= 2 EnMin= -80.3011653810190     IErMin= 2 ErrMin= 1.10D-02
 ErrMax= 1.10D-02  0.00D+00 EMaxC= 1.00D-01 BMatC= 1.90D-02 BMatP= 1.06D-01
 IDIUse=3 WtCom= 8.90D-01 WtEn= 1.10D-01
 Coeff-Com: -0.230D+00 0.123D+01
 Coeff-En:   0.000D+00 0.100D+01
 Coeff:     -0.205D+00 0.120D+01
 Gap=     0.358 Goal=   None    Shift=    0.000
 Gap=     0.239 Goal=   None    Shift=    0.000
 RMSDP=1.22D-03 MaxDP=2.28D-02 DE=-9.71D-03 OVMax= 8.19D-02

 Cycle   3  Pass 1  IDiag  1:
 E= -80.3100028670447     Delta-E=       -0.008837486026 Rises=F Damp=F
 DIIS: error= 1.13D-02 at cycle   3 NSaved=   3.
 NSaved= 3 IEnMin= 3 EnMin= -80.3100028670447     IErMin= 2 ErrMin= 1.10D-02
 ErrMax= 1.13D-02  0.00D+00 EMaxC= 1.00D-01 BMatC= 1.54D-02 BMatP= 1.90D-02
 IDIUse=3 WtCom= 8.87D-01 WtEn= 1.13D-01
 Coeff-Com: -0.323D+00 0.706D+00 0.617D+00
 Coeff-En:   0.000D+00 0.000D+00 0.100D+01
 Coeff:     -0.286D+00 0.626D+00 0.660D+00
 Gap=     0.339 Goal=   None    Shift=    0.000
 Gap=     0.223 Goal=   None    Shift=    0.000
 RMSDP=6.24D-04 MaxDP=1.67D-02 DE=-8.84D-03 OVMax= 3.81D-02

 Cycle   4  Pass 1  IDiag  1:
 E= -80.3136953929194     Delta-E=       -0.003692525875 Rises=F Damp=F
 DIIS: error= 2.69D-03 at cycle   4 NSaved=   4.
 NSaved= 4 IEnMin= 4 EnMin= -80.3136953929194     IErMin= 4 ErrMin= 2.69D-03
 ErrMax= 2.69D-03  0.00D+00 EMaxC= 1.00D-01 BMatC= 4.83D-04 BMatP= 1.54D-02
 IDIUse=3 WtCom= 9.73D-01 WtEn= 2.69D-02
 Coeff-Com: -0.526D-01 0.830D-01 0.190D+00 0.780D+00
 Coeff-En:   0.000D+00 0.000D+00 0.000D+00 0.100D+01
 Coeff:     -0.512D-01 0.807D-01 0.185D+00 0.786D+00
 Gap=     0.343 Goal=   None    Shift=    0.000
 Gap=     0.221 Goal=   None    Shift=    0.000
 RMSDP=1.49D-04 MaxDP=3.31D-03 DE=-3.69D-03 OVMax= 1.07D-02

 Cycle   5  Pass 1  IDiag  1:
 E= -80.3139047604060     Delta-E=       -0.000209367487 Rises=F Damp=F
 DIIS: error= 1.07D-03 at cycle   5 NSaved=   5.
 NSaved= 5 IEnMin= 5 EnMin= -80.3139047604060     IErMin= 5 ErrMin= 1.07D-03
 ErrMax= 1.07D-03  0.00D+00 EMaxC= 1.00D-01 BMatC= 5.39D-05 BMatP= 4.83D-04
 IDIUse=3 WtCom= 9.89D-01 WtEn= 1.07D-02
 Coeff-Com:  0.562D-01-0.108D+00-0.163D+00-0.405D+00 0.162D+01
 Coeff-En:   0.000D+00 0.000D+00 0.000D+00 0.000D+00 0.100D+01
 Coeff:      0.556D-01-0.107D+00-0.161D+00-0.401D+00 0.161D+01
 Gap=     0.346 Goal=   None    Shift=    0.000
 Gap=     0.219 Goal=   None    Shift=    0.000
 RMSDP=1.77D-04 MaxDP=3.17D-03 DE=-2.09D-04 OVMax= 1.28D-02

 Cycle   6  Pass 1  IDiag  1:
 E= -80.3140315716724     Delta-E=       -0.000126811266 Rises=F Damp=F
 DIIS: error= 6.50D-04 at cycle   6 NSaved=   6.
 NSaved= 6 IEnMin= 6 EnMin= -80.3140315716724     IErMin= 6 ErrMin= 6.50D-04
 ErrMax= 6.50D-04  0.00D+00 EMaxC= 1.00D-01 BMatC= 1.47D-05 BMatP= 5.39D-05
 IDIUse=3 WtCom= 9.94D-01 WtEn= 6.50D-03
 Coeff-Com: -0.891D-02 0.215D-01 0.325D-01 0.325D-01-0.746D+00 0.167D+01
 Coeff-En:   0.000D+00 0.000D+00 0.000D+00 0.000D+00 0.000D+00 0.100D+01
 Coeff:     -0.885D-02 0.214D-01 0.322D-01 0.322D-01-0.742D+00 0.166D+01
 Gap=     0.348 Goal=   None    Shift=    0.000
 Gap=     0.218 Goal=   None    Shift=    0.000
 RMSDP=1.32D-04 MaxDP=2.41D-03 DE=-1.27D-04 OVMax= 1.08D-02

 Cycle   7  Pass 1  IDiag  1:
 E= -80.3140819361741     Delta-E=       -0.000050364502 Rises=F Damp=F
 DIIS: error= 3.50D-04 at cycle   7 NSaved=   7.
 NSaved= 7 IEnMin= 7 EnMin= -80.3140819361741     IErMin= 7 ErrMin= 3.50D-04
 ErrMax= 3.50D-04  0.00D+00 EMaxC= 1.00D-01 BMatC= 4.22D-06 BMatP= 1.47D-05
 IDIUse=3 WtCom= 9.96D-01 WtEn= 3.50D-03
 Coeff-Com: -0.836D-02 0.144D-01 0.328D-01 0.103D+00-0.947D-01-0.904D+00
 Coeff-Com:  0.186D+01
 Coeff-En:   0.000D+00 0.000D+00 0.000D+00 0.000D+00 0.000D+00 0.000D+00
 Coeff-En:   0.100D+01
 Coeff:     -0.833D-02 0.144D-01 0.327D-01 0.103D+00-0.944D-01-0.901D+00
 Coeff:      0.185D+01
 Gap=     0.350 Goal=   None    Shift=    0.000
 Gap=     0.217 Goal=   None    Shift=    0.000
 RMSDP=9.73D-05 MaxDP=1.74D-03 DE=-5.04D-05 OVMax= 8.02D-03

 Cycle   8  Pass 1  IDiag  1:
 E= -80.3140994755863     Delta-E=       -0.000017539412 Rises=F Damp=F
 DIIS: error= 1.60D-04 at cycle   8 NSaved=   8.
 NSaved= 8 IEnMin= 8 EnMin= -80.3140994755863     IErMin= 8 ErrMin= 1.60D-04
 ErrMax= 1.60D-04  0.00D+00 EMaxC= 1.00D-01 BMatC= 6.17D-07 BMatP= 4.22D-06
 IDIUse=3 WtCom= 9.98D-01 WtEn= 1.60D-03
 Coeff-Com:  0.437D-02-0.850D-02-0.163D-01-0.482D-01 0.144D+00 0.109D+00
 Coeff-Com: -0.871D+00 0.169D+01
 Coeff-En:   0.000D+00 0.000D+00 0.000D+00 0.000D+00 0.000D+00 0.000D+00
 Coeff-En:   0.000D+00 0.100D+01
 Coeff:      0.437D-02-0.849D-02-0.162D-01-0.481D-01 0.143D+00 0.109D+00
 Coeff:     -0.870D+00 0.169D+01
 Gap=     0.350 Goal=   None    Shift=    0.000
 Gap=     0.216 Goal=   None    Shift=    0.000
 RMSDP=4.24D-05 MaxDP=7.33D-04 DE=-1.75D-05 OVMax= 3.22D-03

 Cycle   9  Pass 1  IDiag  1:
 E= -80.3141019068190     Delta-E=       -0.000002431233 Rises=F Damp=F
 DIIS: error= 3.03D-05 at cycle   9 NSaved=   9.
 NSaved= 9 IEnMin= 9 EnMin= -80.3141019068190     IErMin= 9 ErrMin= 3.03D-05
 ErrMax= 3.03D-05  0.00D+00 EMaxC= 1.00D-01 BMatC= 4.36D-08 BMatP= 6.17D-07
 IDIUse=1 WtCom= 1.00D+00 WtEn= 0.00D+00
 Coeff-Com: -0.598D-03 0.137D-02-0.486D-04-0.208D-03-0.181D-01 0.650D-01
 Coeff-Com: -0.120D-01-0.335D+00 0.130D+01
 Coeff:     -0.598D-03 0.137D-02-0.486D-04-0.208D-03-0.181D-01 0.650D-01
 Coeff:     -0.120D-01-0.335D+00 0.130D+01
 Gap=     0.351 Goal=   None    Shift=    0.000
 Gap=     0.216 Goal=   None    Shift=    0.000
 RMSDP=6.73D-06 MaxDP=1.33D-04 DE=-2.43D-06 OVMax= 5.87D-04

 Cycle  10  Pass 1  IDiag  1:
 E= -80.3141019914575     Delta-E=       -0.000000084638 Rises=F Damp=F
 DIIS: error= 6.73D-06 at cycle  10 NSaved=  10.
 NSaved=10 IEnMin=10 EnMin= -80.3141019914575     IErMin=10 ErrMin= 6.73D-06
 ErrMax= 6.73D-06  0.00D+00 EMaxC= 1.00D-01 BMatC= 2.70D-09 BMatP= 4.36D-08
 IDIUse=1 WtCom= 1.00D+00 WtEn= 0.00D+00
 Coeff-Com: -0.645D-04 0.958D-04 0.396D-03 0.995D-03-0.277D-03-0.182D-01
 Coeff-Com:  0.405D-01 0.168D-01-0.417D+00 0.138D+01
 Coeff:     -0.645D-04 0.958D-04 0.396D-03 0.995D-03-0.277D-03-0.182D-01
 Coeff:      0.405D-01 0.168D-01-0.417D+00 0.138D+01
 Gap=     0.350 Goal=   None    Shift=    0.000
 Gap=     0.216 Goal=   None    Shift=    0.000
 RMSDP=1.08D-06 MaxDP=1.86D-05 DE=-8.46D-08 OVMax= 7.27D-05

 Cycle  11  Pass 1  IDiag  1:
 E= -80.3141019945842     Delta-E=       -0.000000003127 Rises=F Damp=F
 DIIS: error= 7.94D-07 at cycle  11 NSaved=  11.
 NSaved=11 IEnMin=11 EnMin= -80.3141019945842     IErMin=11 ErrMin= 7.94D-07
 ErrMax= 7.94D-07  0.00D+00 EMaxC= 1.00D-01 BMatC= 6.98D-11 BMatP= 2.70D-09
 IDIUse=1 WtCom= 1.00D+00 WtEn= 0.00D+00
 Coeff-Com:  0.477D-04-0.934D-04-0.128D-03-0.209D-03 0.110D-02 0.115D-02
 Coeff-Com: -0.929D-02 0.807D-02 0.568D-01-0.350D+00 0.129D+01
 Coeff:      0.477D-04-0.934D-04-0.128D-03-0.209D-03 0.110D-02 0.115D-02
 Coeff:     -0.929D-02 0.807D-02 0.568D-01-0.350D+00 0.129D+01
 Gap=     0.350 Goal=   None    Shift=    0.000
 Gap=     0.216 Goal=   None    Shift=    0.000
 RMSDP=1.66D-07 MaxDP=2.57D-06 DE=-3.13D-09 OVMax= 1.17D-05

 Cycle  12  Pass 1  IDiag  1:
 E= -80.3141019946537     Delta-E=       -0.000000000069 Rises=F Damp=F
 DIIS: error= 1.98D-07 at cycle  12 NSaved=  12.
 NSaved=12 IEnMin=12 EnMin= -80.3141019946537     IErMin=12 ErrMin= 1.98D-07
 ErrMax= 1.98D-07  0.00D+00 EMaxC= 1.00D-01 BMatC= 5.74D-12 BMatP= 6.98D-11
 IDIUse=1 WtCom= 1.00D+00 WtEn= 0.00D+00
 Coeff-Com: -0.147D-04 0.286D-04 0.515D-04 0.836D-04-0.455D-03 0.169D-03
 Coeff-Com:  0.159D-02-0.320D-02-0.171D-03 0.520D-01-0.425D+00 0.137D+01
 Coeff:     -0.147D-04 0.286D-04 0.515D-04 0.836D-04-0.455D-03 0.169D-03
 Coeff:      0.159D-02-0.320D-02-0.171D-03 0.520D-01-0.425D+00 0.137D+01
 Gap=     0.350 Goal=   None    Shift=    0.000
 Gap=     0.216 Goal=   None    Shift=    0.000
 RMSDP=4.03D-08 MaxDP=9.55D-07 DE=-6.95D-11 OVMax= 1.76D-06

 Cycle  13  Pass 1  IDiag  1:
 E= -80.3141019946575     Delta-E=       -0.000000000004 Rises=F Damp=F
 DIIS: error= 4.15D-08 at cycle  13 NSaved=  13.
 NSaved=13 IEnMin=13 EnMin= -80.3141019946575     IErMin=13 ErrMin= 4.15D-08
 ErrMax= 4.15D-08  0.00D+00 EMaxC= 1.00D-01 BMatC= 1.60D-13 BMatP= 5.74D-12
 IDIUse=1 WtCom= 1.00D+00 WtEn= 0.00D+00
 Coeff-Com:  0.162D-05-0.308D-05-0.857D-05-0.196D-04 0.540D-04 0.147D-04
 Coeff-Com: -0.166D-03 0.606D-03-0.245D-02 0.264D-02 0.370D-01-0.312D+00
 Coeff-Com:  0.127D+01
 Coeff:      0.162D-05-0.308D-05-0.857D-05-0.196D-04 0.540D-04 0.147D-04
 Coeff:     -0.166D-03 0.606D-03-0.245D-02 0.264D-02 0.370D-01-0.312D+00
 Coeff:      0.127D+01
 Gap=     0.350 Goal=   None    Shift=    0.000
 Gap=     0.216 Goal=   None    Shift=    0.000
 RMSDP=8.01D-09 MaxDP=2.35D-07 DE=-3.88D-12 OVMax= 3.21D-07

 SCF Done:  E(UM062X) =  -80.3141019947     A.U. after   13 cycles
            NFock= 13  Conv=0.80D-08     -V/T= 2.0097
 <Sx>= 0.0000 <Sy>= 0.0000 <Sz>= 0.5000 <S**2>= 0.7635 S= 0.5067
 <L.S>=  0.00000000000    
 KE= 7.953904190722D+01 PE=-2.225697930159D+02 EE= 4.279450593701D+01
 Annihilation of the first spin contaminant:
 S**2 before annihilation     0.7635,   after     0.7501
 Leave Link  502 at Mon Apr 21 17:49:52 2025, MaxMem=   536870912 cpu:              62.0 elap:               8.1
 (Enter /home/szhao/Apps/g16/l601.exe)
 Copying SCF densities to generalized density rwf, IOpCl= 1 IROHF=0.

 **********************************************************************

            Population analysis using the SCF density.

 **********************************************************************

 Alpha  occ. eigenvalues --  -15.10270  -7.50543  -1.22805  -0.91035  -0.82563
 Alpha  occ. eigenvalues --   -0.69537  -0.65300
 Alpha virt. eigenvalues --   -0.30250  -0.29169  -0.22713  -0.14094  -0.10833
 Alpha virt. eigenvalues --   -0.10353  -0.09936  -0.09079  -0.01732  -0.01391
 Alpha virt. eigenvalues --    0.03527   0.05992   0.09923   0.17455   0.17839
 Alpha virt. eigenvalues --    0.19632   0.28642   0.42294   0.47561   0.51492
 Alpha virt. eigenvalues --    0.53269   0.54944   0.55093   0.60407   0.62621
 Alpha virt. eigenvalues --    0.74377   0.96314   1.13294   1.14249   1.15158
 Alpha virt. eigenvalues --    1.43867   1.44801   1.54846   1.55933   1.69770
 Alpha virt. eigenvalues --    1.70552   1.71656   1.92640   2.21937   2.24771
 Alpha virt. eigenvalues --    2.33767   2.38718   2.57147   3.02986   3.54017
 Alpha virt. eigenvalues --    3.58507   4.29887  14.22960  35.22517
  Beta  occ. eigenvalues --  -15.09150  -7.50610  -1.15999  -0.89466  -0.81975
  Beta  occ. eigenvalues --   -0.61651
  Beta virt. eigenvalues --   -0.40032  -0.28928  -0.25184  -0.21868  -0.14072
  Beta virt. eigenvalues --   -0.10839  -0.09982  -0.09735  -0.08996  -0.01614
  Beta virt. eigenvalues --   -0.01282   0.01977   0.06121   0.10474   0.16437
  Beta virt. eigenvalues --    0.17772   0.19731   0.28473   0.42156   0.47272
  Beta virt. eigenvalues --    0.53777   0.54177   0.55524   0.55656   0.61916
  Beta virt. eigenvalues --    0.63428   0.75030   0.96967   1.13746   1.15188
  Beta virt. eigenvalues --    1.16027   1.43607   1.44767   1.54760   1.55685
  Beta virt. eigenvalues --    1.71406   1.75554   1.79151   1.92506   2.25653
  Beta virt. eigenvalues --    2.26557   2.32781   2.38728   2.57395   3.05711
  Beta virt. eigenvalues --    3.60863   3.61594   4.30929  14.22768  35.22685
          Condensed to atoms (all electrons):
               1          2          3          4
     1  B    3.538079   0.474090   0.394122  -0.019989
     2  N    0.474090   6.433674  -0.013615   0.332238
     3  H    0.394122  -0.013615   0.416448  -0.000167
     4  H   -0.019989   0.332238  -0.000167   0.278440
          Atomic-Atomic Spin Densities.
               1          2          3          4
     1  B   -0.030972   0.035379  -0.002738   0.003489
     2  N    0.035379   1.007314   0.000880  -0.008477
     3  H   -0.002738   0.000880  -0.006631   0.000033
     4  H    0.003489  -0.008477   0.000033  -0.026843
 Mulliken charges and spin densities:
               1          2
     1  B    0.613699   0.005159
     2  N   -0.226387   1.035096
     3  H    0.203211  -0.008457
     4  H    0.409477  -0.031798
 Sum of Mulliken charges =   1.00000   1.00000
 Mulliken charges and spin densities with hydrogens summed into heavy atoms:
               1          2
     1  B    0.816910  -0.003298
     2  N    0.183090   1.003298
 Electronic spatial extent (au):  <R**2>=             68.5677
 Charge=              1.0000 electrons
 Dipole moment (field-independent basis, Debye):
    X=             -1.2914    Y=              0.0001    Z=             -0.0000  Tot=              1.2914
 Quadrupole moment (field-independent basis, Debye-Ang):
   XX=              0.7002   YY=             -9.6522   ZZ=            -11.5468
   XY=              0.0002   XZ=              0.0000   YZ=             -0.0000
 Traceless Quadrupole moment (field-independent basis, Debye-Ang):
   XX=              7.5331   YY=             -2.8193   ZZ=             -4.7139
   XY=              0.0002   XZ=              0.0000   YZ=             -0.0000
 Octapole moment (field-independent basis, Debye-Ang**2):
  XXX=              3.5450  YYY=              0.0008  ZZZ=             -0.0000  XYY=             -0.8650
  XXY=             -0.0006  XXZ=             -0.0000  XZZ=             -1.4776  YZZ=              0.0003
  YYZ=             -0.0000  XYZ=             -0.0000
 Hexadecapole moment (field-independent basis, Debye-Ang**3):
 XXXX=            -25.9272 YYYY=             -8.5971 ZZZZ=            -12.2027 XXXY=              0.0014
 XXXZ=              0.0000 YYYX=             -0.0014 YYYZ=             -0.0000 ZZZX=              0.0000
 ZZZY=             -0.0000 XXYY=            -12.6078 XXZZ=            -14.1207 YYZZ=             -3.4666
 XXYZ=             -0.0000 YYXZ=              0.0000 ZZXY=             -0.0005
 N-N= 1.992214317699D+01 E-N=-2.225697927143D+02  KE= 7.953904190722D+01
                          Isotropic Fermi Contact Couplings
        Atom                 a.u.       MegaHertz       Gauss      10(-4) cm-1
     1  B(11)             -0.00904     -12.96907      -4.62769      -4.32601
     2  N(14)              0.22188      71.69153      25.58132      23.91372
     3  H(1)              -0.00280     -12.50068      -4.46055      -4.16978
     4  H(1)              -0.01697     -75.85933     -27.06850     -25.30395
 --------------------------------------------------------
       Center         ----  Spin Dipole Couplings  ----
                      3XX-RR        3YY-RR        3ZZ-RR
 --------------------------------------------------------
     1   Atom        0.032311      0.075566     -0.107877
     2   Atom       -1.110472      1.911277     -0.800805
     3   Atom        0.012562     -0.002454     -0.010108
     4   Atom        0.124347     -0.030915     -0.093432
 --------------------------------------------------------
                        XY            XZ            YZ
 --------------------------------------------------------
     1   Atom       -0.000011     -0.000000     -0.000000
     2   Atom        0.000067      0.000000     -0.000000
     3   Atom        0.000002      0.000000     -0.000000
     4   Atom       -0.000001     -0.000000     -0.000000
 --------------------------------------------------------


 ---------------------------------------------------------------------------------
              Anisotropic Spin Dipole Couplings in Principal Axis System
 ---------------------------------------------------------------------------------

       Atom             a.u.   MegaHertz   Gauss  10(-4) cm-1        Axes

              Baa    -0.1079   -18.470    -6.591    -6.161  0.0000  0.0000  1.0000
     1 B(11)  Bbb     0.0323     5.532     1.974     1.845  1.0000  0.0003 -0.0000
              Bcc     0.0756    12.938     4.617     4.316 -0.0003  1.0000 -0.0000
 
              Baa    -1.1105   -42.828   -15.282   -14.286  1.0000 -0.0000 -0.0000
     2 N(14)  Bbb    -0.8008   -30.885   -11.021   -10.302  0.0000  0.0000  1.0000
              Bcc     1.9113    73.714    26.303    24.588  0.0000  1.0000 -0.0000
 
              Baa    -0.0101    -5.393    -1.924    -1.799 -0.0000  0.0000  1.0000
     3 H(1)   Bbb    -0.0025    -1.310    -0.467    -0.437 -0.0001  1.0000 -0.0000
              Bcc     0.0126     6.703     2.392     2.236  1.0000  0.0001  0.0000
 
              Baa    -0.0934   -49.851   -17.788   -16.629  0.0000  0.0000  1.0000
     4 H(1)   Bbb    -0.0309   -16.495    -5.886    -5.502  0.0000  1.0000 -0.0000
              Bcc     0.1243    66.346    23.674    22.131  1.0000 -0.0000 -0.0000
 

 ---------------------------------------------------------------------------------

 No NMR shielding tensors so no spin-rotation constants.
 Leave Link  601 at Mon Apr 21 17:49:52 2025, MaxMem=   536870912 cpu:               2.0 elap:               0.3
 (Enter /home/szhao/Apps/g16/l701.exe)
 ... and contract with generalized density number  0.
 Compute integral first derivatives.
 Leave Link  701 at Mon Apr 21 17:49:53 2025, MaxMem=   536870912 cpu:               1.9 elap:               0.4
 (Enter /home/szhao/Apps/g16/l702.exe)
 L702 exits ... SP integral derivatives will be done elsewhere.
 Leave Link  702 at Mon Apr 21 17:49:53 2025, MaxMem=   536870912 cpu:               1.0 elap:               0.2
 (Enter /home/szhao/Apps/g16/l703.exe)
 Integral derivatives from FoFJK, PRISM(SPDF).
 Compute integral first derivatives, UseDBF=F ICtDFT=           0.
 Calling FoFJK, ICntrl=      2127 FMM=F ISym2X=0 I1Cent= 0 IOpClX= 1 NMat=1 NMatS=1 NMatT=0.
 FoFJK:  IHMeth= 1 ICntrl=    2127 DoSepK=F KAlg= 0 I1Cent=           0 FoldK=F
 IRaf=         0 NMat=       1 IRICut=       1 DoRegI=T DoRafI=F ISym2E= 0 IDoP0=0 IntGTp=1.
 FoFCou: FMM=F IPFlag=           0 FMFlag=      100000 FMFlg1=         800
         NFxFlg=           0 DoJE=F BraDBF=F KetDBF=F FulRan=T
         wScrn=  0.000000 ICntrl=      2127 IOpCl=  1 I1Cent=           0 NGrid=           0
         NMat0=    1 NMatS0=      1 NMatT0=    0 NMatD0=    1 NMtDS0=    0 NMtDT0=    0
 Symmetry not used in FoFCou.
 Leave Link  703 at Mon Apr 21 17:49:55 2025, MaxMem=   536870912 cpu:              11.9 elap:               1.6
 (Enter /home/szhao/Apps/g16/l716.exe)
 Dipole        =-5.08068394D-01 2.86795327D-05-3.66439382D-15
 -------------------------------------------------------------------
 Center     Atomic                   Forces (Hartrees/Bohr)
 Number     Number              X              Y              Z
 -------------------------------------------------------------------
      1        5          -0.000000000   -0.000000000   -0.000000000
      2        7          -0.000000000   -0.000000000   -0.000000000
      3        1          -0.004053752    0.000005320   -0.000000000
      4        1           0.003800506    0.000001088    0.000000000
 -------------------------------------------------------------------
 Cartesian Forces:  Max     0.004053752 RMS     0.001604078
 Leave Link  716 at Mon Apr 21 17:49:55 2025, MaxMem=   536870912 cpu:               0.6 elap:               0.1
 (Enter /home/szhao/Apps/g16/l103.exe)

 GradGradGradGradGradGradGradGradGradGradGradGradGradGradGradGradGradGrad
 Berny optimization.
 FormGI is forming the generalized inverse of G from B-inverse, IUseBI=4.
 Internal  Forces:  Max     0.004053751 RMS     0.002268509
 Search for a local minimum.
 Step number   1 out of a maximum of   22
 All quantities printed in internal units (Hartrees-Bohrs-Radians)
 RMS Force = .22685D-02 SwitMx=.10000D-02 MixMth= 1
 Mixed Optimization -- RFO/linear search
 Second derivative matrix not updated -- first step.
 The second derivative matrix:
                          X1        Y1        Z1        X2        Y2
           X1           0.50000
           Y1           0.00000   0.50000
           Z1           0.00000   0.00000   0.50000
           X2           0.00000   0.00000   0.00000   0.50000
           Y2           0.00000   0.00000   0.00000   0.00000   0.50000
           Z2           0.00000   0.00000   0.00000   0.00000   0.00000
           R1           0.00000   0.00000   0.00000   0.00000   0.00000
           R2           0.00000   0.00000   0.00000   0.00000   0.00000
           A1           0.00000   0.00000   0.00000   0.00000   0.00000
           A2           0.00000   0.00000   0.00000   0.00000   0.00000
           A3           0.00000   0.00000   0.00000   0.00000   0.00000
           A4           0.00000   0.00000   0.00000   0.00000   0.00000
                          Z2        R1        R2        A1        A2
           Z2           0.50000
           R1           0.00000   0.27160
           R2           0.00000   0.00000   0.44576
           A1           0.00000   0.00000   0.00000   0.00230
           A2           0.00000   0.00000   0.00000   0.00000   0.00783
           A3           0.00000   0.00000   0.00000   0.00000   0.00000
           A4           0.00000   0.00000   0.00000   0.00000   0.00000
                          A3        A4
           A3           0.00230
           A4           0.00000   0.00783
 ITU=  0
     Eigenvalues ---    0.00230   0.00625   0.00783   0.27160   0.44576
     Eigenvalues --- 1000.000001000.000001000.000001000.000001000.00000
     Eigenvalues --- 1000.000001000.00000
 RFO step:  Lambda=-9.28916919D-05 EMin= 2.30000000D-03
 Linear search not attempted -- first point.
 Iteration  1 RMS(Cart)=  0.00502945 RMS(Int)=  0.00000218
 Iteration  2 RMS(Cart)=  0.00000449 RMS(Int)=  0.00000000
 Iteration  3 RMS(Cart)=  0.00000001 RMS(Int)=  0.00000000
 ITry= 1 IFail=0 DXMaxC= 1.49D-02 DCOld= 1.00D+10 DXMaxT= 3.00D-01 DXLimC= 3.00D+00 Rises=F
 Variable       Old X    -DE/DX   Delta X   Delta X   Delta X     New X
                                 (Linear)    (Quad)   (Total)
    X1       -1.51695  -0.00405   0.00000   0.00000   0.00000  -1.51695
    Y1        0.00000   0.00000   0.00000   0.00000   0.00000   0.00000
    Z1        0.00000   0.00000   0.00000   0.00000   0.00000   0.00000
    X2        1.51695   0.00380   0.00000   0.00000   0.00000   1.51695
    Y2        0.00000   0.00000   0.00000   0.00000   0.00000   0.00000
    Z2        0.00000  -0.00000   0.00000   0.00000   0.00000   0.00000
    R1        2.20712   0.00405   0.00000   0.01492   0.01492   2.22204
    R2        1.92472   0.00380   0.00000   0.00852   0.00852   1.93324
    A1        3.14137   0.00001   0.00000   0.00077   0.00077   3.14214
    A2        3.14159  -0.00001   0.00000  -0.00121  -0.00121   3.14038
    A3        3.14159  -0.00000   0.00000  -0.00000   0.00000   3.14159
    A4        3.14159  -0.00000   0.00000  -0.00000   0.00000   3.14159
         Item               Value     Threshold  Converged?
 Maximum Force            0.004054     0.000450     NO 
 RMS     Force            0.002269     0.000300     NO 
 Maximum Displacement     0.014920     0.001800     NO 
 RMS     Displacement     0.005030     0.001200     NO 
 Predicted change in Energy=-4.645966D-05
 Lowest energy point so far.  Saving SCF results.
 GradGradGradGradGradGradGradGradGradGradGradGradGradGradGradGradGradGrad

 Leave Link  103 at Mon Apr 21 17:49:56 2025, MaxMem=   536870912 cpu:               1.0 elap:               0.2
 (Enter /home/szhao/Apps/g16/l202.exe)
                          Input orientation:                          
 ---------------------------------------------------------------------
 Center     Atomic      Atomic             Coordinates (Angstroms)
 Number     Number       Type             X           Y           Z
 ---------------------------------------------------------------------
      1          5           0       -0.802734    0.000000    0.000000
      2          7           0        0.802734    0.000000    0.000000
      3          1           0       -1.978585    0.000638    0.000000
      4          1           0        1.825760    0.001242   -0.000000
 ---------------------------------------------------------------------
                    Distance matrix (angstroms):
                    1          2          3          4
     1  B    0.000000
     2  N    1.605468   0.000000
     3  H    1.175851   2.781319   0.000000
     4  H    2.628495   1.023027   3.804345   0.000000
 Symmetry turned off by external request.
 Stoichiometry    BH2N(1+,2)
 Framework group  CS[SG(BH2N)]
 Deg. of freedom     5
 Full point group                 CS      NOp   2
 Rotational constants (GHZ):   280751776.1123617          21.7505038          21.7505021
 Leave Link  202 at Mon Apr 21 17:49:56 2025, MaxMem=   536870912 cpu:               0.5 elap:               0.1
 (Enter /home/szhao/Apps/g16/l301.exe)
 Standard basis: 6-311+G(d,p) (5D, 7F)
 Ernie: Thresh=  0.10000D-02 Tol=  0.10000D-05 Strict=F.
    56 basis functions,    88 primitive gaussians,    58 cartesian basis functions
     7 alpha electrons        6 beta electrons
       nuclear repulsion energy        19.8849190581 Hartrees.
 IExCor= 4336 DFT=T Ex+Corr=M062X ExCW=0 ScaHFX=  0.540000
 ScaDFX=  1.000000  1.000000  1.000000  1.000000 ScalE2=  1.000000  1.000000
 IRadAn=      7 IRanWt=     -1 IRanGd=            0 ICorTp=0 IEmpDi=  4
 NAtoms=    4 NActive=    4 NUniq=    4 SFac= 1.00D+00 NAtFMM=   60 NAOKFM=F Big=F
 Integral buffers will be    131072 words long.
 Raffenetti 2 integral format.
 Two-electron integral symmetry is turned off.
 Leave Link  301 at Mon Apr 21 17:49:56 2025, MaxMem=   536870912 cpu:               0.9 elap:               0.2
 (Enter /home/szhao/Apps/g16/l302.exe)
 NPDir=0 NMtPBC=     1 NCelOv=     1 NCel=       1 NClECP=     1 NCelD=      1
         NCelK=      1 NCelE2=     1 NClLst=     1 CellRange=     0.0.
 One-electron integrals computed using PRISM.
 NBasis=    56 RedAO= T EigKep=  2.11D-03  NBF=    56
 NBsUse=    56 1.00D-06 EigRej= -1.00D+00 NBFU=    56
 Precomputing XC quadrature grid using
 IXCGrd= 4 IRadAn=           7 IRanWt=          -1 IRanGd=           0 AccXCQ= 0.00D+00.
 Generated NRdTot=       0 NPtTot=           0 NUsed=           0 NTot=          32
 NSgBfM=    58    58    58    58    58 MxSgAt=     4 MxSgA2=     4.
 Leave Link  302 at Mon Apr 21 17:49:57 2025, MaxMem=   536870912 cpu:               1.9 elap:               0.3
 (Enter /home/szhao/Apps/g16/l303.exe)
 DipDrv:  MaxL=1.
 Leave Link  303 at Mon Apr 21 17:49:57 2025, MaxMem=   536870912 cpu:               0.8 elap:               0.2
 (Enter /home/szhao/Apps/g16/l401.exe)
 Initial guess from the checkpoint file:  "opt.chk"
 B after Tr=    -0.000457    0.000201    0.000000
         Rot=    0.000000    1.000000    0.000046   -0.000000 Ang= 180.00 deg.
 Guess basis will be translated and rotated to current coordinates.
 JPrj=2 DoOrth=T DoCkMO=T.
 Initial guess <Sx>= 0.0000 <Sy>= 0.0000 <Sz>= 0.5000 <S**2>= 0.7635 S= 0.5067
 Leave Link  401 at Mon Apr 21 17:49:58 2025, MaxMem=   536870912 cpu:               1.2 elap:               0.2
 (Enter /home/szhao/Apps/g16/l502.exe)
 Keep R1 and R2 ints in memory in canonical form, NReq=9624198.
 FoFCou: FMM=F IPFlag=           0 FMFlag=           0 FMFlg1=           0
         NFxFlg=           0 DoJE=F BraDBF=F KetDBF=F FulRan=T
         wScrn=  0.000000 ICntrl=       600 IOpCl=  0 I1Cent=           0 NGrid=           0
         NMat0=    1 NMatS0=   1596 NMatT0=    0 NMatD0=    1 NMtDS0=    0 NMtDT0=    0
 Symmetry not used in FoFCou.
 Two-electron integral symmetry not used.
 UHF open shell SCF:
 Using DIIS extrapolation, IDIIS=  1040.
 NGot=   536870912 LenX=   534314338 LenY=   534310533
 Requested convergence on RMS density matrix=1.00D-08 within 128 cycles.
 Requested convergence on MAX density matrix=1.00D-06.
 Requested convergence on             energy=1.00D-06.
 No special actions if energy rises.

 Cycle   1  Pass 1  IDiag  1:
 E= -80.3141343492395    
 DIIS: error= 6.56D-04 at cycle   1 NSaved=   1.
 NSaved= 1 IEnMin= 1 EnMin= -80.3141343492395     IErMin= 1 ErrMin= 6.56D-04
 ErrMax= 6.56D-04  0.00D+00 EMaxC= 1.00D-01 BMatC= 5.31D-05 BMatP= 5.31D-05
 IDIUse=3 WtCom= 9.93D-01 WtEn= 6.56D-03
 Coeff-Com:  0.100D+01
 Coeff-En:   0.100D+01
 Coeff:      0.100D+01
 Gap=     0.604 Goal=   None    Shift=    0.000
 Gap=     0.569 Goal=   None    Shift=    0.000
 RMSDP=5.40D-05 MaxDP=7.30D-04              OVMax= 1.65D-03

 Cycle   2  Pass 1  IDiag  1:
 E= -80.3141466437244     Delta-E=       -0.000012294485 Rises=F Damp=F
 DIIS: error= 9.77D-05 at cycle   2 NSaved=   2.
 NSaved= 2 IEnMin= 2 EnMin= -80.3141466437244     IErMin= 2 ErrMin= 9.77D-05
 ErrMax= 9.77D-05  0.00D+00 EMaxC= 1.00D-01 BMatC= 2.13D-06 BMatP= 5.31D-05
 IDIUse=1 WtCom= 1.00D+00 WtEn= 0.00D+00
 Coeff-Com:  0.582D-01 0.942D+00
 Coeff:      0.582D-01 0.942D+00
 Gap=     0.351 Goal=   None    Shift=    0.000
 Gap=     0.216 Goal=   None    Shift=    0.000
 RMSDP=1.23D-05 MaxDP=2.91D-04 DE=-1.23D-05 OVMax= 6.01D-04

 Cycle   3  Pass 1  IDiag  1:
 E= -80.3141466234086     Delta-E=        0.000000020316 Rises=F Damp=F
 DIIS: error= 1.16D-04 at cycle   3 NSaved=   3.
 NSaved= 3 IEnMin= 2 EnMin= -80.3141466437244     IErMin= 2 ErrMin= 9.77D-05
 ErrMax= 1.16D-04  0.00D+00 EMaxC= 1.00D-01 BMatC= 1.93D-06 BMatP= 2.13D-06
 IDIUse=3 WtCom= 9.99D-01 WtEn= 1.16D-03
 Coeff-Com: -0.211D-02 0.487D+00 0.515D+00
 Coeff-En:   0.000D+00 0.512D+00 0.488D+00
 Coeff:     -0.211D-02 0.487D+00 0.515D+00
 Gap=     0.350 Goal=   None    Shift=    0.000
 Gap=     0.216 Goal=   None    Shift=    0.000
 RMSDP=7.57D-06 MaxDP=1.44D-04 DE= 2.03D-08 OVMax= 4.04D-04

 Cycle   4  Pass 1  IDiag  1:
 E= -80.3141470682590     Delta-E=       -0.000000444850 Rises=F Damp=F
 DIIS: error= 2.91D-05 at cycle   4 NSaved=   4.
 NSaved= 4 IEnMin= 4 EnMin= -80.3141470682590     IErMin= 4 ErrMin= 2.91D-05
 ErrMax= 2.91D-05  0.00D+00 EMaxC= 1.00D-01 BMatC= 9.25D-08 BMatP= 1.93D-06
 IDIUse=1 WtCom= 1.00D+00 WtEn= 0.00D+00
 Coeff-Com: -0.499D-02 0.817D-02 0.181D+00 0.815D+00
 Coeff:     -0.499D-02 0.817D-02 0.181D+00 0.815D+00
 Gap=     0.351 Goal=   None    Shift=    0.000
 Gap=     0.216 Goal=   None    Shift=    0.000
 RMSDP=1.60D-06 MaxDP=3.36D-05 DE=-4.45D-07 OVMax= 9.31D-05

 Cycle   5  Pass 1  IDiag  1:
 E= -80.3141470938032     Delta-E=       -0.000000025544 Rises=F Damp=F
 DIIS: error= 2.92D-06 at cycle   5 NSaved=   5.
 NSaved= 5 IEnMin= 5 EnMin= -80.3141470938032     IErMin= 5 ErrMin= 2.92D-06
 ErrMax= 2.92D-06  0.00D+00 EMaxC= 1.00D-01 BMatC= 1.20D-09 BMatP= 9.25D-08
 IDIUse=1 WtCom= 1.00D+00 WtEn= 0.00D+00
 Coeff-Com:  0.809D-03-0.186D-01-0.415D-01-0.950D-01 0.115D+01
 Coeff:      0.809D-03-0.186D-01-0.415D-01-0.950D-01 0.115D+01
 Gap=     0.351 Goal=   None    Shift=    0.000
 Gap=     0.216 Goal=   None    Shift=    0.000
 RMSDP=4.80D-07 MaxDP=6.70D-06 DE=-2.55D-08 OVMax= 2.12D-05

 Cycle   6  Pass 1  IDiag  1:
 E= -80.3141470951791     Delta-E=       -0.000000001376 Rises=F Damp=F
 DIIS: error= 2.01D-06 at cycle   6 NSaved=   6.
 NSaved= 6 IEnMin= 6 EnMin= -80.3141470951791     IErMin= 6 ErrMin= 2.01D-06
 ErrMax= 2.01D-06  0.00D+00 EMaxC= 1.00D-01 BMatC= 2.69D-10 BMatP= 1.20D-09
 IDIUse=1 WtCom= 1.00D+00 WtEn= 0.00D+00
 Coeff-Com:  0.438D-03 0.257D-02-0.143D-01-0.685D-01-0.203D+00 0.128D+01
 Coeff:      0.438D-03 0.257D-02-0.143D-01-0.685D-01-0.203D+00 0.128D+01
 Gap=     0.351 Goal=   None    Shift=    0.000
 Gap=     0.216 Goal=   None    Shift=    0.000
 RMSDP=3.22D-07 MaxDP=6.16D-06 DE=-1.38D-09 OVMax= 1.86D-05

 Cycle   7  Pass 1  IDiag  1:
 E= -80.3141470956720     Delta-E=       -0.000000000493 Rises=F Damp=F
 DIIS: error= 1.62D-06 at cycle   7 NSaved=   7.
 NSaved= 7 IEnMin= 7 EnMin= -80.3141470956720     IErMin= 7 ErrMin= 1.62D-06
 ErrMax= 1.62D-06  0.00D+00 EMaxC= 1.00D-01 BMatC= 7.72D-11 BMatP= 2.69D-10
 IDIUse=1 WtCom= 1.00D+00 WtEn= 0.00D+00
 Coeff-Com: -0.124D-03 0.286D-02 0.810D-02 0.135D-01-0.191D+00-0.843D-01
 Coeff-Com:  0.125D+01
 Coeff:     -0.124D-03 0.286D-02 0.810D-02 0.135D-01-0.191D+00-0.843D-01
 Coeff:      0.125D+01
 Gap=     0.351 Goal=   None    Shift=    0.000
 Gap=     0.216 Goal=   None    Shift=    0.000
 RMSDP=2.17D-07 MaxDP=3.83D-06 DE=-4.93D-10 OVMax= 1.76D-05

 Cycle   8  Pass 1  IDiag  1:
 E= -80.3141470958676     Delta-E=       -0.000000000196 Rises=F Damp=F
 DIIS: error= 8.48D-07 at cycle   8 NSaved=   8.
 NSaved= 8 IEnMin= 8 EnMin= -80.3141470958676     IErMin= 8 ErrMin= 8.48D-07
 ErrMax= 8.48D-07  0.00D+00 EMaxC= 1.00D-01 BMatC= 2.94D-11 BMatP= 7.72D-11
 IDIUse=1 WtCom= 1.00D+00 WtEn= 0.00D+00
 Coeff-Com: -0.585D-04-0.293D-02-0.303D-02 0.130D-01 0.221D+00-0.347D+00
 Coeff-Com: -0.980D+00 0.210D+01
 Coeff:     -0.585D-04-0.293D-02-0.303D-02 0.130D-01 0.221D+00-0.347D+00
 Coeff:     -0.980D+00 0.210D+01
 Gap=     0.351 Goal=   None    Shift=    0.000
 Gap=     0.216 Goal=   None    Shift=    0.000
 RMSDP=2.31D-07 MaxDP=4.19D-06 DE=-1.96D-10 OVMax= 1.87D-05

 Cycle   9  Pass 1  IDiag  1:
 E= -80.3141470959848     Delta-E=       -0.000000000117 Rises=F Damp=F
 DIIS: error= 3.44D-07 at cycle   9 NSaved=   9.
 NSaved= 9 IEnMin= 9 EnMin= -80.3141470959848     IErMin= 9 ErrMin= 3.44D-07
 ErrMax= 3.44D-07  0.00D+00 EMaxC= 1.00D-01 BMatC= 5.24D-12 BMatP= 2.94D-11
 IDIUse=1 WtCom= 1.00D+00 WtEn= 0.00D+00
 Coeff-Com:  0.877D-04-0.354D-04-0.163D-02-0.795D-02-0.387D-01 0.189D+00
 Coeff-Com:  0.318D-02-0.951D+00 0.181D+01
 Coeff:      0.877D-04-0.354D-04-0.163D-02-0.795D-02-0.387D-01 0.189D+00
 Coeff:      0.318D-02-0.951D+00 0.181D+01
 Gap=     0.351 Goal=   None    Shift=    0.000
 Gap=     0.216 Goal=   None    Shift=    0.000
 RMSDP=1.41D-07 MaxDP=2.58D-06 DE=-1.17D-10 OVMax= 1.14D-05

 Cycle  10  Pass 1  IDiag  1:
 E= -80.3141470960070     Delta-E=       -0.000000000022 Rises=F Damp=F
 DIIS: error= 3.18D-08 at cycle  10 NSaved=  10.
 NSaved=10 IEnMin=10 EnMin= -80.3141470960070     IErMin=10 ErrMin= 3.18D-08
 ErrMax= 3.18D-08  0.00D+00 EMaxC= 1.00D-01 BMatC= 9.94D-14 BMatP= 5.24D-12
 IDIUse=1 WtCom= 1.00D+00 WtEn= 0.00D+00
 Coeff-Com: -0.205D-05 0.124D-03 0.351D-03-0.104D-03-0.518D-02-0.307D-02
 Coeff-Com:  0.419D-01-0.909D-04-0.182D+00 0.115D+01
 Coeff:     -0.205D-05 0.124D-03 0.351D-03-0.104D-03-0.518D-02-0.307D-02
 Coeff:      0.419D-01-0.909D-04-0.182D+00 0.115D+01
 Gap=     0.351 Goal=   None    Shift=    0.000
 Gap=     0.216 Goal=   None    Shift=    0.000
 RMSDP=9.94D-09 MaxDP=1.81D-07 DE=-2.22D-11 OVMax= 7.63D-07

 SCF Done:  E(UM062X) =  -80.3141470960     A.U. after   10 cycles
            NFock= 10  Conv=0.99D-08     -V/T= 2.0099
 <Sx>= 0.0000 <Sy>= 0.0000 <Sz>= 0.5000 <S**2>= 0.7634 S= 0.5067
 <L.S>=  0.00000000000    
 KE= 7.952372690130D+01 PE=-2.224924586636D+02 EE= 4.276966560819D+01
 Annihilation of the first spin contaminant:
 S**2 before annihilation     0.7634,   after     0.7501
 Leave Link  502 at Mon Apr 21 17:50:04 2025, MaxMem=   536870912 cpu:              45.7 elap:               6.0
 (Enter /home/szhao/Apps/g16/l701.exe)
 ... and contract with generalized density number  0.
 Compute integral first derivatives.
 Leave Link  701 at Mon Apr 21 17:50:05 2025, MaxMem=   536870912 cpu:               1.8 elap:               0.3
 (Enter /home/szhao/Apps/g16/l702.exe)
 L702 exits ... SP integral derivatives will be done elsewhere.
 Leave Link  702 at Mon Apr 21 17:50:05 2025, MaxMem=   536870912 cpu:               0.7 elap:               0.1
 (Enter /home/szhao/Apps/g16/l703.exe)
 Integral derivatives from FoFJK, PRISM(SPDF).
 Compute integral first derivatives, UseDBF=F ICtDFT=           0.
 Calling FoFJK, ICntrl=      2127 FMM=F ISym2X=0 I1Cent= 0 IOpClX= 1 NMat=1 NMatS=1 NMatT=0.
 FoFJK:  IHMeth= 1 ICntrl=    2127 DoSepK=F KAlg= 0 I1Cent=           0 FoldK=F
 IRaf=         0 NMat=       1 IRICut=       1 DoRegI=T DoRafI=F ISym2E= 0 IDoP0=0 IntGTp=1.
 FoFCou: FMM=F IPFlag=           0 FMFlag=      100000 FMFlg1=         800
         NFxFlg=           0 DoJE=F BraDBF=F KetDBF=F FulRan=T
         wScrn=  0.000000 ICntrl=      2127 IOpCl=  1 I1Cent=           0 NGrid=           0
         NMat0=    1 NMatS0=      1 NMatT0=    0 NMatD0=    1 NMtDS0=    0 NMtDT0=    0
 Symmetry not used in FoFCou.
 Leave Link  703 at Mon Apr 21 17:50:07 2025, MaxMem=   536870912 cpu:              10.8 elap:               1.4
 (Enter /home/szhao/Apps/g16/l716.exe)
 Dipole        =-5.07376691D-01 6.62375938D-04-1.20669437D-10
 -------------------------------------------------------------------
 Center     Atomic                   Forces (Hartrees/Bohr)
 Number     Number              X              Y              Z
 -------------------------------------------------------------------
      1        5          -0.000000000   -0.000000000   -0.000000000
      2        7          -0.000000000   -0.000000000   -0.000000000
      3        1           0.000126906   -0.000020162   -0.000000000
      4        1          -0.000023781   -0.000001897   -0.000000000
 -------------------------------------------------------------------
 Cartesian Forces:  Max     0.000126906 RMS     0.000037728
 Leave Link  716 at Mon Apr 21 17:50:07 2025, MaxMem=   536870912 cpu:               0.4 elap:               0.1
 (Enter /home/szhao/Apps/g16/l103.exe)

 GradGradGradGradGradGradGradGradGradGradGradGradGradGradGradGradGradGrad
 Berny optimization.
 Using GEDIIS/GDIIS optimizer.
 FormGI is forming the generalized inverse of G from B-inverse, IUseBI=4.
 Internal  Forces:  Max     0.000126916 RMS     0.000053455
 Search for a local minimum.
 Step number   2 out of a maximum of   22
 All quantities printed in internal units (Hartrees-Bohrs-Radians)
 RMS Force = .53836D-04 SwitMx=.10000D-02 MixMth= 2
 Mixed Optimization -- En-DIIS/RFO-DIIS
 Update second derivatives using D2CorX and points    1    2
 DE= -4.51D-05 DEPred=-4.65D-05 R= 9.71D-01
 TightC=F SS=  1.41D+00  RLast= 1.72D-02 DXNew= 5.0454D-01 5.1729D-02
 Trust test= 9.71D-01 RLast= 1.72D-02 DXMaxT set to 3.00D-01
 The second derivative matrix:
                          X1        Y1        Z1        X2        Y2
           X1           0.68393
           Y1          -0.00030   0.50000
           Z1          -0.00000   0.00000   0.50000
           X2          -0.16825   0.00027   0.00000   0.65391
           Y2          -0.00075   0.00000   0.00000   0.00069   0.50000
           Z2          -0.00000   0.00000   0.00000   0.00000   0.00000
           R1          -0.18393   0.00030   0.00000   0.16825   0.00075
           R2          -0.16825   0.00027   0.00000   0.15391   0.00069
           A1          -0.00111   0.00000   0.00000   0.00102   0.00000
           A2           0.00117  -0.00000  -0.00000  -0.00107  -0.00000
           A3           0.00000  -0.00000  -0.00000  -0.00000  -0.00000
           A4          -0.00000   0.00000   0.00000   0.00000   0.00000
                          Z2        R1        R2        A1        A2
           Z2           0.50000
           R1           0.00000   0.27870
           R2           0.00000   0.00244   0.44419
           A1           0.00000   0.00103   0.00094   0.00231
           A2          -0.00000  -0.00075  -0.00068  -0.00001   0.00784
           A3          -0.00000  -0.00000  -0.00000  -0.00000   0.00000
           A4           0.00000   0.00000   0.00000   0.00000  -0.00000
                          A3        A4
           A3           0.00230
           A4          -0.00000   0.00783
 ITU=  1  0
 Use linear search instead of GDIIS.
     Eigenvalues ---    0.00230   0.00628   0.00783   0.27867   0.44423
     Eigenvalues --- 1000.000001000.000001000.000001000.000001000.00000
     Eigenvalues --- 1000.000001000.00000
 RFO step:  Lambda=-1.21669033D-07 EMin= 2.30000000D-03
 Quartic linear search produced a step of -0.02285.
 Iteration  1 RMS(Cart)=  0.00244838 RMS(Int)=  0.00000387
 Iteration  2 RMS(Cart)=  0.00000388 RMS(Int)=  0.00000000
 Iteration  3 RMS(Cart)=  0.00000001 RMS(Int)=  0.00000000
 ITry= 1 IFail=0 DXMaxC= 6.87D-03 DCOld= 1.00D+10 DXMaxT= 3.00D-01 DXLimC= 3.00D+00 Rises=F
 Variable       Old X    -DE/DX   Delta X   Delta X   Delta X     New X
                                 (Linear)    (Quad)   (Total)
    X1       -1.51695   0.00013   0.00000   0.00000   0.00000  -1.51695
    Y1        0.00000  -0.00001   0.00000   0.00000   0.00000   0.00000
    Z1        0.00000  -0.00000   0.00000   0.00000   0.00000   0.00000
    X2        1.51695  -0.00002   0.00000   0.00000   0.00000   1.51695
    Y2        0.00000  -0.00001   0.00000   0.00000   0.00000   0.00000
    Z2        0.00000  -0.00000   0.00000   0.00000   0.00000   0.00000
    R1        2.22204  -0.00013  -0.00034  -0.00010  -0.00044   2.22159
    R2        1.93324  -0.00002  -0.00019   0.00015  -0.00004   1.93320
    A1        3.14214  -0.00002  -0.00002  -0.00221  -0.00223   3.13991
    A2        3.14038   0.00002   0.00003   0.00353   0.00355   3.14393
    A3        3.14159   0.00000   0.00000   0.00000   0.00000   3.14159
    A4        3.14159  -0.00000   0.00000  -0.00000  -0.00000   3.14159
         Item               Value     Threshold  Converged?
 Maximum Force            0.000127     0.000450     YES
 RMS     Force            0.000054     0.000300     YES
 Maximum Displacement     0.006872     0.001800     NO 
 RMS     Displacement     0.002448     0.001200     NO 
 Predicted change in Energy=-8.402355D-08
 Lowest energy point so far.  Saving SCF results.
 GradGradGradGradGradGradGradGradGradGradGradGradGradGradGradGradGradGrad

 Leave Link  103 at Mon Apr 21 17:50:07 2025, MaxMem=   536870912 cpu:               1.0 elap:               0.2
 (Enter /home/szhao/Apps/g16/l202.exe)
                          Input orientation:                          
 ---------------------------------------------------------------------
 Center     Atomic      Atomic             Coordinates (Angstroms)
 Number     Number       Type             X           Y           Z
 ---------------------------------------------------------------------
      1          5           0       -0.802734    0.000000    0.000000
      2          7           0        0.802734    0.000000    0.000000
      3          1           0       -1.978348   -0.001981    0.000000
      4          1           0        1.825735   -0.002395   -0.000000
 ---------------------------------------------------------------------
                    Distance matrix (angstroms):
                    1          2          3          4
     1  B    0.000000
     2  N    1.605468   0.000000
     3  H    1.175616   2.781083   0.000000
     4  H    2.628471   1.023004   3.804084   0.000000
 Symmetry turned off by external request.
 Stoichiometry    BH2N(1+,2)
 Framework group  C1[X(BH2N)]
 Deg. of freedom     6
 Full point group                 C1      NOp   1
 Rotational constants (GHZ):    56053117.1390392          21.7515055          21.7514971
 Leave Link  202 at Mon Apr 21 17:50:08 2025, MaxMem=   536870912 cpu:               0.8 elap:               0.2
 (Enter /home/szhao/Apps/g16/l301.exe)
 Standard basis: 6-311+G(d,p) (5D, 7F)
 Ernie: Thresh=  0.10000D-02 Tol=  0.10000D-05 Strict=F.
    56 basis functions,    88 primitive gaussians,    58 cartesian basis functions
     7 alpha electrons        6 beta electrons
       nuclear repulsion energy        19.8855815028 Hartrees.
 IExCor= 4336 DFT=T Ex+Corr=M062X ExCW=0 ScaHFX=  0.540000
 ScaDFX=  1.000000  1.000000  1.000000  1.000000 ScalE2=  1.000000  1.000000
 IRadAn=      7 IRanWt=     -1 IRanGd=            0 ICorTp=0 IEmpDi=  4
 NAtoms=    4 NActive=    4 NUniq=    4 SFac= 1.00D+00 NAtFMM=   60 NAOKFM=F Big=F
 Integral buffers will be    131072 words long.
 Raffenetti 2 integral format.
 Two-electron integral symmetry is turned off.
 Leave Link  301 at Mon Apr 21 17:50:08 2025, MaxMem=   536870912 cpu:               0.8 elap:               0.2
 (Enter /home/szhao/Apps/g16/l302.exe)
 NPDir=0 NMtPBC=     1 NCelOv=     1 NCel=       1 NClECP=     1 NCelD=      1
         NCelK=      1 NCelE2=     1 NClLst=     1 CellRange=     0.0.
 One-electron integrals computed using PRISM.
 NBasis=    56 RedAO= T EigKep=  2.11D-03  NBF=    56
 NBsUse=    56 1.00D-06 EigRej= -1.00D+00 NBFU=    56
 Precomputing XC quadrature grid using
 IXCGrd= 4 IRadAn=           7 IRanWt=          -1 IRanGd=           0 AccXCQ= 0.00D+00.
 Generated NRdTot=       0 NPtTot=           0 NUsed=           0 NTot=          32
 NSgBfM=    58    58    58    58    58 MxSgAt=     4 MxSgA2=     4.
 Leave Link  302 at Mon Apr 21 17:50:09 2025, MaxMem=   536870912 cpu:               3.4 elap:               0.5
 (Enter /home/szhao/Apps/g16/l303.exe)
 DipDrv:  MaxL=1.
 Leave Link  303 at Mon Apr 21 17:50:09 2025, MaxMem=   536870912 cpu:               0.8 elap:               0.2
 (Enter /home/szhao/Apps/g16/l401.exe)
 Initial guess from the checkpoint file:  "opt.chk"
 B after Tr=     0.000029   -0.000348    0.000000
         Rot=    0.000000    1.000000    0.000027   -0.000000 Ang= 180.00 deg.
 Guess basis will be translated and rotated to current coordinates.
 JPrj=2 DoOrth=T DoCkMO=T.
 Initial guess <Sx>= 0.0000 <Sy>= 0.0000 <Sz>= 0.5000 <S**2>= 0.7634 S= 0.5067
 Leave Link  401 at Mon Apr 21 17:50:09 2025, MaxMem=   536870912 cpu:               1.6 elap:               0.3
 (Enter /home/szhao/Apps/g16/l502.exe)
 Keep R1 and R2 ints in memory in canonical form, NReq=9624198.
 FoFCou: FMM=F IPFlag=           0 FMFlag=           0 FMFlg1=           0
         NFxFlg=           0 DoJE=F BraDBF=F KetDBF=F FulRan=T
         wScrn=  0.000000 ICntrl=       600 IOpCl=  0 I1Cent=           0 NGrid=           0
         NMat0=    1 NMatS0=   1596 NMatT0=    0 NMatD0=    1 NMtDS0=    0 NMtDT0=    0
 Symmetry not used in FoFCou.
 Two-electron integral symmetry not used.
 UHF open shell SCF:
 Using DIIS extrapolation, IDIIS=  1040.
 NGot=   536870912 LenX=   534314338 LenY=   534310533
 Requested convergence on RMS density matrix=1.00D-08 within 128 cycles.
 Requested convergence on MAX density matrix=1.00D-06.
 Requested convergence on             energy=1.00D-06.
 No special actions if energy rises.

 Cycle   1  Pass 1  IDiag  1:
 E= -80.3141468024989    
 DIIS: error= 6.02D-05 at cycle   1 NSaved=   1.
 NSaved= 1 IEnMin= 1 EnMin= -80.3141468024989     IErMin= 1 ErrMin= 6.02D-05
 ErrMax= 6.02D-05  0.00D+00 EMaxC= 1.00D-01 BMatC= 4.51D-07 BMatP= 4.51D-07
 IDIUse=1 WtCom= 1.00D+00 WtEn= 0.00D+00
 Coeff-Com:  0.100D+01
 Coeff:      0.100D+01
 Gap=     0.604 Goal=   None    Shift=    0.000
 Gap=     0.569 Goal=   None    Shift=    0.000
 RMSDP=5.44D-06 MaxDP=7.41D-05              OVMax= 2.42D-04

 Cycle   2  Pass 1  IDiag  1:
 E= -80.3141469912133     Delta-E=       -0.000000188714 Rises=F Damp=F
 DIIS: error= 1.99D-05 at cycle   2 NSaved=   2.
 NSaved= 2 IEnMin= 2 EnMin= -80.3141469912133     IErMin= 2 ErrMin= 1.99D-05
 ErrMax= 1.99D-05  0.00D+00 EMaxC= 1.00D-01 BMatC= 2.77D-08 BMatP= 4.51D-07
 IDIUse=1 WtCom= 1.00D+00 WtEn= 0.00D+00
 Coeff-Com: -0.107D+00 0.111D+01
 Coeff:     -0.107D+00 0.111D+01
 Gap=     0.351 Goal=   None    Shift=    0.000
 Gap=     0.216 Goal=   None    Shift=    0.000
 RMSDP=1.75D-06 MaxDP=2.89D-05 DE=-1.89D-07 OVMax= 1.16D-04

 Cycle   3  Pass 1  IDiag  1:
 E= -80.3141470141255     Delta-E=       -0.000000022912 Rises=F Damp=F
 DIIS: error= 8.67D-06 at cycle   3 NSaved=   3.
 NSaved= 3 IEnMin= 3 EnMin= -80.3141470141255     IErMin= 3 ErrMin= 8.67D-06
 ErrMax= 8.67D-06  0.00D+00 EMaxC= 1.00D-01 BMatC= 5.13D-09 BMatP= 2.77D-08
 IDIUse=1 WtCom= 1.00D+00 WtEn= 0.00D+00
 Coeff-Com: -0.422D-01 0.404D-01 0.100D+01
 Coeff:     -0.422D-01 0.404D-01 0.100D+01
 Gap=     0.350 Goal=   None    Shift=    0.000
 Gap=     0.216 Goal=   None    Shift=    0.000
 RMSDP=7.83D-07 MaxDP=8.89D-06 DE=-2.29D-08 OVMax= 4.85D-05

 Cycle   4  Pass 1  IDiag  1:
 E= -80.3141470177302     Delta-E=       -0.000000003605 Rises=F Damp=F
 DIIS: error= 4.76D-06 at cycle   4 NSaved=   4.
 NSaved= 4 IEnMin= 4 EnMin= -80.3141470177302     IErMin= 4 ErrMin= 4.76D-06
 ErrMax= 4.76D-06  0.00D+00 EMaxC= 1.00D-01 BMatC= 3.75D-09 BMatP= 5.13D-09
 IDIUse=1 WtCom= 1.00D+00 WtEn= 0.00D+00
 Coeff-Com: -0.688D-02-0.161D+00 0.544D+00 0.624D+00
 Coeff:     -0.688D-02-0.161D+00 0.544D+00 0.624D+00
 Gap=     0.351 Goal=   None    Shift=    0.000
 Gap=     0.216 Goal=   None    Shift=    0.000
 RMSDP=4.14D-07 MaxDP=6.38D-06 DE=-3.60D-09 OVMax= 2.09D-05

 Cycle   5  Pass 1  IDiag  1:
 E= -80.3141470191727     Delta-E=       -0.000000001443 Rises=F Damp=F
 DIIS: error= 2.03D-06 at cycle   5 NSaved=   5.
 NSaved= 5 IEnMin= 5 EnMin= -80.3141470191727     IErMin= 5 ErrMin= 2.03D-06
 ErrMax= 2.03D-06  0.00D+00 EMaxC= 1.00D-01 BMatC= 3.90D-10 BMatP= 3.75D-09
 IDIUse=1 WtCom= 1.00D+00 WtEn= 0.00D+00
 Coeff-Com:  0.100D-01-0.704D-01-0.137D+00 0.188D+00 0.101D+01
 Coeff:      0.100D-01-0.704D-01-0.137D+00 0.188D+00 0.101D+01
 Gap=     0.351 Goal=   None    Shift=    0.000
 Gap=     0.216 Goal=   None    Shift=    0.000
 RMSDP=2.26D-07 MaxDP=3.20D-06 DE=-1.44D-09 OVMax= 1.70D-05

 Cycle   6  Pass 1  IDiag  1:
 E= -80.3141470194521     Delta-E=       -0.000000000279 Rises=F Damp=F
 DIIS: error= 2.50D-07 at cycle   6 NSaved=   6.
 NSaved= 6 IEnMin= 6 EnMin= -80.3141470194521     IErMin= 6 ErrMin= 2.50D-07
 ErrMax= 2.50D-07  0.00D+00 EMaxC= 1.00D-01 BMatC= 6.38D-12 BMatP= 3.90D-10
 IDIUse=1 WtCom= 1.00D+00 WtEn= 0.00D+00
 Coeff-Com: -0.812D-03 0.166D-01-0.312D-01-0.494D-01-0.393D-01 0.110D+01
 Coeff:     -0.812D-03 0.166D-01-0.312D-01-0.494D-01-0.393D-01 0.110D+01
 Gap=     0.351 Goal=   None    Shift=    0.000
 Gap=     0.216 Goal=   None    Shift=    0.000
 RMSDP=3.16D-08 MaxDP=5.14D-07 DE=-2.79D-10 OVMax= 2.98D-06

 Cycle   7  Pass 1  IDiag  1:
 E= -80.3141470194581     Delta-E=       -0.000000000006 Rises=F Damp=F
 DIIS: error= 4.38D-08 at cycle   7 NSaved=   7.
 NSaved= 7 IEnMin= 7 EnMin= -80.3141470194581     IErMin= 7 ErrMin= 4.38D-08
 ErrMax= 4.38D-08  0.00D+00 EMaxC= 1.00D-01 BMatC= 2.08D-13 BMatP= 6.38D-12
 IDIUse=1 WtCom= 1.00D+00 WtEn= 0.00D+00
 Coeff-Com: -0.360D-03 0.249D-02 0.454D-02-0.261D-02-0.289D-01-0.848D-01
 Coeff-Com:  0.111D+01
 Coeff:     -0.360D-03 0.249D-02 0.454D-02-0.261D-02-0.289D-01-0.848D-01
 Coeff:      0.111D+01
 Gap=     0.351 Goal=   None    Shift=    0.000
 Gap=     0.216 Goal=   None    Shift=    0.000
 RMSDP=6.43D-09 MaxDP=8.24D-08 DE=-6.01D-12 OVMax= 3.39D-07

 SCF Done:  E(UM062X) =  -80.3141470195     A.U. after    7 cycles
            NFock=  7  Conv=0.64D-08     -V/T= 2.0099
 <Sx>= 0.0000 <Sy>= 0.0000 <Sz>= 0.5000 <S**2>= 0.7634 S= 0.5067
 <L.S>=  0.00000000000    
 KE= 7.952401172652D+01 PE=-2.224938577634D+02 EE= 4.277011751462D+01
 Annihilation of the first spin contaminant:
 S**2 before annihilation     0.7634,   after     0.7501
 Leave Link  502 at Mon Apr 21 17:50:14 2025, MaxMem=   536870912 cpu:              33.3 elap:               4.4
 (Enter /home/szhao/Apps/g16/l701.exe)
 ... and contract with generalized density number  0.
 Compute integral first derivatives.
 Leave Link  701 at Mon Apr 21 17:50:14 2025, MaxMem=   536870912 cpu:               1.7 elap:               0.3
 (Enter /home/szhao/Apps/g16/l702.exe)
 L702 exits ... SP integral derivatives will be done elsewhere.
 Leave Link  702 at Mon Apr 21 17:50:14 2025, MaxMem=   536870912 cpu:               0.3 elap:               0.1
 (Enter /home/szhao/Apps/g16/l703.exe)
 Integral derivatives from FoFJK, PRISM(SPDF).
 Compute integral first derivatives, UseDBF=F ICtDFT=           0.
 Calling FoFJK, ICntrl=      2127 FMM=F ISym2X=0 I1Cent= 0 IOpClX= 1 NMat=1 NMatS=1 NMatT=0.
 FoFJK:  IHMeth= 1 ICntrl=    2127 DoSepK=F KAlg= 0 I1Cent=           0 FoldK=F
 IRaf=         0 NMat=       1 IRICut=       1 DoRegI=T DoRafI=F ISym2E= 0 IDoP0=0 IntGTp=1.
 FoFCou: FMM=F IPFlag=           0 FMFlag=      100000 FMFlg1=         800
         NFxFlg=           0 DoJE=F BraDBF=F KetDBF=F FulRan=T
         wScrn=  0.000000 ICntrl=      2127 IOpCl=  1 I1Cent=           0 NGrid=           0
         NMat0=    1 NMatS0=      1 NMatT0=    0 NMatD0=    1 NMtDS0=    0 NMtDT0=    0
 Symmetry not used in FoFCou.
 Leave Link  703 at Mon Apr 21 17:50:16 2025, MaxMem=   536870912 cpu:               9.3 elap:               1.3
 (Enter /home/szhao/Apps/g16/l716.exe)
 Dipole        =-5.07243183D-01-1.20324443D-03-4.91413896D-09
 -------------------------------------------------------------------
 Center     Atomic                   Forces (Hartrees/Bohr)
 Number     Number              X              Y              Z
 -------------------------------------------------------------------
      1        5          -0.000000000   -0.000000000   -0.000000000
      2        7          -0.000000000   -0.000000000   -0.000000000
      3        1           0.000004814    0.000056445   -0.000000000
      4        1          -0.000004474    0.000006680   -0.000000000
 -------------------------------------------------------------------
 Cartesian Forces:  Max     0.000056445 RMS     0.000016517
 Leave Link  716 at Mon Apr 21 17:50:16 2025, MaxMem=   536870912 cpu:               0.3 elap:               0.1
 (Enter /home/szhao/Apps/g16/l103.exe)

 GradGradGradGradGradGradGradGradGradGradGradGradGradGradGradGradGradGrad
 Berny optimization.
 Using GEDIIS/GDIIS optimizer.
 FormGI is forming the generalized inverse of G from B-inverse, IUseBI=4.
 Internal  Forces:  Max     0.000057574 RMS     0.000025780
 Search for a local minimum.
 Step number   3 out of a maximum of   22
 All quantities printed in internal units (Hartrees-Bohrs-Radians)
 RMS Force = .31768D-04 SwitMx=.10000D-02 MixMth= 2
 Mixed Optimization -- En-DIIS/RFO-DIIS
 Swapping is turned off.
 Update second derivatives using D2CorX and points    1    2    3
 DE=  7.65D-08 DEPred=-8.40D-08 R=-9.11D-01
 Trust test=-9.11D-01 RLast= 4.22D-03 DXMaxT set to 1.50D-01
 The second derivative matrix:
                          X1        Y1        Z1        X2        Y2
           X1           0.67029
           Y1          -0.00480   0.50094
           Z1          -0.00000   0.00000   0.50000
           X2          -0.13615   0.00035   0.00000   0.62396
           Y2          -0.01127   0.00219   0.00000   0.00087   0.50513
           Z2           0.00000  -0.00000  -0.00000  -0.00000  -0.00000
           R1          -0.15453   0.00486   0.00000   0.12137   0.01140
           R2          -0.16579   0.00024  -0.00000   0.15177   0.00062
           A1          -0.01396   0.00319   0.00000  -0.00098   0.00747
           A2           0.00427  -0.00343  -0.00000   0.01095  -0.00802
           A3          -0.00000   0.00000   0.00000   0.00000   0.00000
           A4           0.00000  -0.00000  -0.00000  -0.00000  -0.00000
                          Z2        R1        R2        A1        A2
           Z2           0.50000
           R1          -0.00000   0.22624
           R2           0.00000  -0.00104   0.44399
           A1          -0.00000   0.01295   0.00068   0.01299
           A2           0.00000   0.00202   0.00029  -0.01073   0.01531
           A3          -0.00000   0.00000  -0.00000   0.00000  -0.00000
           A4           0.00000  -0.00000  -0.00000  -0.00000   0.00000
                          A3        A4
           A3           0.00230
           A4          -0.00000   0.00783
 ITU= -1  1  0
     Eigenvalues ---    0.00230   0.00783   0.02418   0.22636   0.44399
     Eigenvalues --- 1000.000001000.000001000.000001000.000001000.00000
     Eigenvalues --- 1000.000001000.00000
 En-DIIS/RFO-DIIS/Sim-DIIS IScMMF=       -3 using points:     3    2
 RFO step:  Lambda=-2.49295097D-07.
 NNeg= 0 NGDIIS= 2 SimSw=  2.50D-03 Rises=F DC=  7.65D-08 SmlDif=  1.00D-05
 NRisDI= 0 DoIntr=F SqrtH=F CThrHd= 10.0 CDAdj=  3.0
 RMS Error=  0.9267088212D-03 NUsed= 2 OKEnD=F EnDIS=F
 InvSVX:  RCond= 2.00D-05 Info=           0 Equed=N FErr=  1.14D-15 BErr=  4.96D-17
 DidBck=T Rises=F RFO-DIIS coefs:    0.24605    0.75395
 Iteration  1 RMS(Cart)=  0.00187020 RMS(Int)=  0.00000226
 Iteration  2 RMS(Cart)=  0.00000226 RMS(Int)=  0.00000000
 Iteration  3 RMS(Cart)=  0.00000000 RMS(Int)=  0.00000000
 ITry= 1 IFail=0 DXMaxC= 5.26D-03 DCOld= 1.00D+10 DXMaxT= 1.50D-01 DXLimC= 3.00D+00 Rises=F
 Variable       Old X    -DE/DX   Delta X   Delta X   Delta X     New X
                                 (Linear)    (Quad)   (Total)
    X1       -1.51695   0.00000   0.00000   0.00000   0.00000  -1.51695
    Y1        0.00000   0.00002   0.00000   0.00000   0.00000   0.00000
    Z1        0.00000   0.00000   0.00000   0.00000   0.00000   0.00000
    X2        1.51695  -0.00000   0.00000   0.00000   0.00000   1.51695
    Y2        0.00000   0.00004   0.00000   0.00000   0.00000   0.00000
    Z2        0.00000  -0.00000   0.00000   0.00000   0.00000   0.00000
    R1        2.22159  -0.00000   0.00033  -0.00043  -0.00009   2.22150
    R2        1.93320  -0.00000   0.00003  -0.00004  -0.00001   1.93319
    A1        3.13991   0.00005   0.00168   0.00002   0.00170   3.14161
    A2        3.14393  -0.00006  -0.00268  -0.00004  -0.00272   3.14121
    A3        3.14159   0.00000   0.00000   0.00000   0.00000   3.14159
    A4        3.14159  -0.00000   0.00000  -0.00000  -0.00000   3.14159
         Item               Value     Threshold  Converged?
 Maximum Force            0.000066     0.000450     YES
 RMS     Force            0.000032     0.000300     YES
 Maximum Displacement     0.005257     0.001800     NO 
 RMS     Displacement     0.001870     0.001200     NO 
 Predicted change in Energy=-1.246432D-07
 GradGradGradGradGradGradGradGradGradGradGradGradGradGradGradGradGradGrad

 Leave Link  103 at Mon Apr 21 17:50:16 2025, MaxMem=   536870912 cpu:               0.3 elap:               0.1
 (Enter /home/szhao/Apps/g16/l202.exe)
                          Input orientation:                          
 ---------------------------------------------------------------------
 Center     Atomic      Atomic             Coordinates (Angstroms)
 Number     Number       Type             X           Y           Z
 ---------------------------------------------------------------------
      1          5           0       -0.802734    0.000000    0.000000
      2          7           0        0.802734    0.000000    0.000000
      3          1           0       -1.978300    0.000022   -0.000000
      4          1           0        1.825732    0.000387   -0.000000
 ---------------------------------------------------------------------
                    Distance matrix (angstroms):
                    1          2          3          4
     1  B    0.000000
     2  N    1.605468   0.000000
     3  H    1.175566   2.781034   0.000000
     4  H    2.628466   1.022998   3.804032   0.000000
 Symmetry turned off by external request.
 This structure is nearly, but not quite of a higher symmetry.
 Consider Symm=Loose if the higher symmetry is desired.
 Stoichiometry    BH2N(1+,2)
 Framework group  C1[X(BH2N)]
 Deg. of freedom     6
 Full point group                 C1      NOp   1
 Rotational constants (GHZ):  3958204337.2743073          21.7517050          21.7517048
 Leave Link  202 at Mon Apr 21 17:50:17 2025, MaxMem=   536870912 cpu:               0.3 elap:               0.2
 (Enter /home/szhao/Apps/g16/l301.exe)
 Standard basis: 6-311+G(d,p) (5D, 7F)
 Ernie: Thresh=  0.10000D-02 Tol=  0.10000D-05 Strict=F.
    56 basis functions,    88 primitive gaussians,    58 cartesian basis functions
     7 alpha electrons        6 beta electrons
       nuclear repulsion energy        19.8857258078 Hartrees.
 IExCor= 4336 DFT=T Ex+Corr=M062X ExCW=0 ScaHFX=  0.540000
 ScaDFX=  1.000000  1.000000  1.000000  1.000000 ScalE2=  1.000000  1.000000
 IRadAn=      7 IRanWt=     -1 IRanGd=            0 ICorTp=0 IEmpDi=  4
 NAtoms=    4 NActive=    4 NUniq=    4 SFac= 1.00D+00 NAtFMM=   60 NAOKFM=F Big=F
 Integral buffers will be    131072 words long.
 Raffenetti 2 integral format.
 Two-electron integral symmetry is turned off.
 Leave Link  301 at Mon Apr 21 17:50:17 2025, MaxMem=   536870912 cpu:               0.8 elap:               0.2
 (Enter /home/szhao/Apps/g16/l302.exe)
 NPDir=0 NMtPBC=     1 NCelOv=     1 NCel=       1 NClECP=     1 NCelD=      1
         NCelK=      1 NCelE2=     1 NClLst=     1 CellRange=     0.0.
 One-electron integrals computed using PRISM.
 NBasis=    56 RedAO= T EigKep=  2.11D-03  NBF=    56
 NBsUse=    56 1.00D-06 EigRej= -1.00D+00 NBFU=    56
 Precomputing XC quadrature grid using
 IXCGrd= 4 IRadAn=           7 IRanWt=          -1 IRanGd=           0 AccXCQ= 0.00D+00.
 Generated NRdTot=       0 NPtTot=           0 NUsed=           0 NTot=          32
 NSgBfM=    58    58    58    58    58 MxSgAt=     4 MxSgA2=     4.
 Leave Link  302 at Mon Apr 21 17:50:17 2025, MaxMem=   536870912 cpu:               1.5 elap:               0.3
 (Enter /home/szhao/Apps/g16/l303.exe)
 DipDrv:  MaxL=1.
 Leave Link  303 at Mon Apr 21 17:50:18 2025, MaxMem=   536870912 cpu:               0.4 elap:               0.1
 (Enter /home/szhao/Apps/g16/l401.exe)
 Initial guess from the checkpoint file:  "opt.chk"
 B after Tr=     0.000006   -0.000544    0.000000
         Rot=   -0.000062    1.000000    0.000021    0.000000 Ang= 180.01 deg.
 Guess basis will be translated and rotated to current coordinates.
 JPrj=2 DoOrth=T DoCkMO=T.
 Initial guess <Sx>= 0.0000 <Sy>= 0.0000 <Sz>= 0.5000 <S**2>= 0.7634 S= 0.5067
 Leave Link  401 at Mon Apr 21 17:50:18 2025, MaxMem=   536870912 cpu:               1.1 elap:               0.2
 (Enter /home/szhao/Apps/g16/l502.exe)
 Keep R1 and R2 ints in memory in canonical form, NReq=9624198.
 FoFCou: FMM=F IPFlag=           0 FMFlag=           0 FMFlg1=           0
         NFxFlg=           0 DoJE=F BraDBF=F KetDBF=F FulRan=T
         wScrn=  0.000000 ICntrl=       600 IOpCl=  0 I1Cent=           0 NGrid=           0
         NMat0=    1 NMatS0=   1596 NMatT0=    0 NMatD0=    1 NMtDS0=    0 NMtDT0=    0
 Symmetry not used in FoFCou.
 Two-electron integral symmetry not used.
 UHF open shell SCF:
 Using DIIS extrapolation, IDIIS=  1040.
 NGot=   536870912 LenX=   534314338 LenY=   534310533
 Requested convergence on RMS density matrix=1.00D-08 within 128 cycles.
 Requested convergence on MAX density matrix=1.00D-06.
 Requested convergence on             energy=1.00D-06.
 No special actions if energy rises.

 Cycle   1  Pass 1  IDiag  1:
 E= -80.3141465765882    
 DIIS: error= 9.74D-05 at cycle   1 NSaved=   1.
 NSaved= 1 IEnMin= 1 EnMin= -80.3141465765882     IErMin= 1 ErrMin= 9.74D-05
 ErrMax= 9.74D-05  0.00D+00 EMaxC= 1.00D-01 BMatC= 1.13D-06 BMatP= 1.13D-06
 IDIUse=1 WtCom= 1.00D+00 WtEn= 0.00D+00
 Coeff-Com:  0.100D+01
 Coeff:      0.100D+01
 Gap=     0.604 Goal=   None    Shift=    0.000
 Gap=     0.569 Goal=   None    Shift=    0.000
 RMSDP=8.42D-06 MaxDP=1.26D-04              OVMax= 3.74D-04

 Cycle   2  Pass 1  IDiag  1:
 E= -80.3141470616861     Delta-E=       -0.000000485098 Rises=F Damp=F
 DIIS: error= 3.22D-05 at cycle   2 NSaved=   2.
 NSaved= 2 IEnMin= 2 EnMin= -80.3141470616861     IErMin= 2 ErrMin= 3.22D-05
 ErrMax= 3.22D-05  0.00D+00 EMaxC= 1.00D-01 BMatC= 7.34D-08 BMatP= 1.13D-06
 IDIUse=1 WtCom= 1.00D+00 WtEn= 0.00D+00
 Coeff-Com: -0.124D+00 0.112D+01
 Coeff:     -0.124D+00 0.112D+01
 Gap=     0.351 Goal=   None    Shift=    0.000
 Gap=     0.216 Goal=   None    Shift=    0.000
 RMSDP=2.97D-06 MaxDP=5.08D-05 DE=-4.85D-07 OVMax= 1.87D-04

 Cycle   3  Pass 1  IDiag  1:
 E= -80.3141471260938     Delta-E=       -0.000000064408 Rises=F Damp=F
 DIIS: error= 1.37D-05 at cycle   3 NSaved=   3.
 NSaved= 3 IEnMin= 3 EnMin= -80.3141471260938     IErMin= 3 ErrMin= 1.37D-05
 ErrMax= 1.37D-05  0.00D+00 EMaxC= 1.00D-01 BMatC= 1.01D-08 BMatP= 7.34D-08
 IDIUse=1 WtCom= 1.00D+00 WtEn= 0.00D+00
 Coeff-Com: -0.310D-01-0.111D+00 0.114D+01
 Coeff:     -0.310D-01-0.111D+00 0.114D+01
 Gap=     0.351 Goal=   None    Shift=    0.000
 Gap=     0.216 Goal=   None    Shift=    0.000
 RMSDP=1.25D-06 MaxDP=1.71D-05 DE=-6.44D-08 OVMax= 8.50D-05

 Cycle   4  Pass 1  IDiag  1:
 E= -80.3141471375574     Delta-E=       -0.000000011464 Rises=F Damp=F
 DIIS: error= 5.49D-06 at cycle   4 NSaved=   4.
 NSaved= 4 IEnMin= 4 EnMin= -80.3141471375574     IErMin= 4 ErrMin= 5.49D-06
 ErrMax= 5.49D-06  0.00D+00 EMaxC= 1.00D-01 BMatC= 1.58D-09 BMatP= 1.01D-08
 IDIUse=1 WtCom= 1.00D+00 WtEn= 0.00D+00
 Coeff-Com:  0.157D-01-0.145D+00-0.612D-01 0.119D+01
 Coeff:      0.157D-01-0.145D+00-0.612D-01 0.119D+01
 Gap=     0.351 Goal=   None    Shift=    0.000
 Gap=     0.216 Goal=   None    Shift=    0.000
 RMSDP=6.25D-07 MaxDP=8.29D-06 DE=-1.15D-08 OVMax= 4.39D-05

 Cycle   5  Pass 1  IDiag  1:
 E= -80.3141471392564     Delta-E=       -0.000000001699 Rises=F Damp=F
 DIIS: error= 2.04D-06 at cycle   5 NSaved=   5.
 NSaved= 5 IEnMin= 5 EnMin= -80.3141471392564     IErMin= 5 ErrMin= 2.04D-06
 ErrMax= 2.04D-06  0.00D+00 EMaxC= 1.00D-01 BMatC= 5.91D-10 BMatP= 1.58D-09
 IDIUse=1 WtCom= 1.00D+00 WtEn= 0.00D+00
 Coeff-Com:  0.977D-02-0.645D-01-0.118D+00 0.604D+00 0.568D+00
 Coeff:      0.977D-02-0.645D-01-0.118D+00 0.604D+00 0.568D+00
 Gap=     0.351 Goal=   None    Shift=    0.000
 Gap=     0.216 Goal=   None    Shift=    0.000
 RMSDP=1.54D-07 MaxDP=2.72D-06 DE=-1.70D-09 OVMax= 7.43D-06

 Cycle   6  Pass 1  IDiag  1:
 E= -80.3141471394270     Delta-E=       -0.000000000171 Rises=F Damp=F
 DIIS: error= 5.61D-07 at cycle   6 NSaved=   6.
 NSaved= 6 IEnMin= 6 EnMin= -80.3141471394270     IErMin= 6 ErrMin= 5.61D-07
 ErrMax= 5.61D-07  0.00D+00 EMaxC= 1.00D-01 BMatC= 5.34D-11 BMatP= 5.91D-10
 IDIUse=1 WtCom= 1.00D+00 WtEn= 0.00D+00
 Coeff-Com: -0.142D-02 0.189D-01-0.258D-01-0.110D+00 0.204D+00 0.915D+00
 Coeff:     -0.142D-02 0.189D-01-0.258D-01-0.110D+00 0.204D+00 0.915D+00
 Gap=     0.351 Goal=   None    Shift=    0.000
 Gap=     0.216 Goal=   None    Shift=    0.000
 RMSDP=4.96D-08 MaxDP=6.22D-07 DE=-1.71D-10 OVMax= 3.87D-06

 Cycle   7  Pass 1  IDiag  1:
 E= -80.3141471394469     Delta-E=       -0.000000000020 Rises=F Damp=F
 DIIS: error= 5.45D-08 at cycle   7 NSaved=   7.
 NSaved= 7 IEnMin= 7 EnMin= -80.3141471394469     IErMin= 7 ErrMin= 5.45D-08
 ErrMax= 5.45D-08  0.00D+00 EMaxC= 1.00D-01 BMatC= 3.16D-13 BMatP= 5.34D-11
 IDIUse=1 WtCom= 1.00D+00 WtEn= 0.00D+00
 Coeff-Com: -0.273D-03 0.166D-02 0.448D-02-0.102D-01-0.361D-01-0.866D-01
 Coeff-Com:  0.113D+01
 Coeff:     -0.273D-03 0.166D-02 0.448D-02-0.102D-01-0.361D-01-0.866D-01
 Coeff:      0.113D+01
 Gap=     0.351 Goal=   None    Shift=    0.000
 Gap=     0.216 Goal=   None    Shift=    0.000
 RMSDP=8.04D-09 MaxDP=1.36D-07 DE=-2.00D-11 OVMax= 4.72D-07

 SCF Done:  E(UM062X) =  -80.3141471394     A.U. after    7 cycles
            NFock=  7  Conv=0.80D-08     -V/T= 2.0099
 <Sx>= 0.0000 <Sy>= 0.0000 <Sz>= 0.5000 <S**2>= 0.7634 S= 0.5067
 <L.S>=  0.00000000000    
 KE= 7.952407376657D+01 PE=-2.224941615468D+02 EE= 4.277021483304D+01
 Annihilation of the first spin contaminant:
 S**2 before annihilation     0.7634,   after     0.7501
 Leave Link  502 at Mon Apr 21 17:50:22 2025, MaxMem=   536870912 cpu:              31.0 elap:               4.1
 (Enter /home/szhao/Apps/g16/l701.exe)
 ... and contract with generalized density number  0.
 Compute integral first derivatives.
 Leave Link  701 at Mon Apr 21 17:50:23 2025, MaxMem=   536870912 cpu:               1.3 elap:               0.3
 (Enter /home/szhao/Apps/g16/l702.exe)
 L702 exits ... SP integral derivatives will be done elsewhere.
 Leave Link  702 at Mon Apr 21 17:50:23 2025, MaxMem=   536870912 cpu:               0.3 elap:               0.2
 (Enter /home/szhao/Apps/g16/l703.exe)
 Integral derivatives from FoFJK, PRISM(SPDF).
 Compute integral first derivatives, UseDBF=F ICtDFT=           0.
 Calling FoFJK, ICntrl=      2127 FMM=F ISym2X=0 I1Cent= 0 IOpClX= 1 NMat=1 NMatS=1 NMatT=0.
 FoFJK:  IHMeth= 1 ICntrl=    2127 DoSepK=F KAlg= 0 I1Cent=           0 FoldK=F
 IRaf=         0 NMat=       1 IRICut=       1 DoRegI=T DoRafI=F ISym2E= 0 IDoP0=0 IntGTp=1.
 FoFCou: FMM=F IPFlag=           0 FMFlag=      100000 FMFlg1=         800
         NFxFlg=           0 DoJE=F BraDBF=F KetDBF=F FulRan=T
         wScrn=  0.000000 ICntrl=      2127 IOpCl=  1 I1Cent=           0 NGrid=           0
         NMat0=    1 NMatS0=      1 NMatT0=    0 NMatD0=    1 NMtDS0=    0 NMtDT0=    0
 Symmetry not used in FoFCou.
 Leave Link  703 at Mon Apr 21 17:50:25 2025, MaxMem=   536870912 cpu:              10.6 elap:               1.5
 (Enter /home/szhao/Apps/g16/l716.exe)
 Dipole        =-5.07213363D-01 2.23697732D-04-1.41789676D-08
 -------------------------------------------------------------------
 Center     Atomic                   Forces (Hartrees/Bohr)
 Number     Number              X              Y              Z
 -------------------------------------------------------------------
      1        5          -0.000000000   -0.000000000   -0.000000000
      2        7          -0.000000000   -0.000000000   -0.000000000
      3        1          -0.000021182   -0.000002102    0.000000000
      4        1           0.000000494    0.000000142    0.000000001
 -------------------------------------------------------------------
 Cartesian Forces:  Max     0.000021182 RMS     0.000006146
 Leave Link  716 at Mon Apr 21 17:50:25 2025, MaxMem=   536870912 cpu:               0.8 elap:               0.2
 (Enter /home/szhao/Apps/g16/l103.exe)

 GradGradGradGradGradGradGradGradGradGradGradGradGradGradGradGradGradGrad
 Berny optimization.
 Using GEDIIS/GDIIS optimizer.
 FormGI is forming the generalized inverse of G from B-inverse, IUseBI=4.
 Internal  Forces:  Max     0.000021182 RMS     0.000008682
 Search for a local minimum.
 Step number   4 out of a maximum of   22
 All quantities printed in internal units (Hartrees-Bohrs-Radians)
 RMS Force = .86983D-05 SwitMx=.10000D-02 MixMth= 2
 Mixed Optimization -- En-DIIS/RFO-DIIS
 Swapping is turned off.
 Update second derivatives using D2CorX and points    1    3    4
 DE= -1.20D-07 DEPred=-1.25D-07 R= 9.63D-01
 Trust test= 9.63D-01 RLast= 3.21D-03 DXMaxT set to 1.50D-01
 The second derivative matrix:
                          X1        Y1        Z1        X2        Y2
           X1           0.68505
           Y1           0.00048   0.50108
           Z1          -0.00000  -0.00000   0.50000
           X2          -0.16761   0.00059  -0.00000   0.65392
           Y2           0.00107   0.00254  -0.00000   0.00144   0.50595
           Z2          -0.00000  -0.00000   0.00000  -0.00000  -0.00000
           R1          -0.18756   0.00132   0.00000   0.16207   0.00314
           R2          -0.16319  -0.00254  -0.00000   0.16348  -0.00588
           A1           0.00149   0.00366  -0.00000   0.00227   0.00858
           A2          -0.00142  -0.00377   0.00000  -0.00310  -0.00883
           A3           0.00000   0.00000  -0.00000   0.00000   0.00000
           A4          -0.00000  -0.00000   0.00000  -0.00000  -0.00000
                          Z2        R1        R2        A1        A2
           Z2           0.50000
           R1           0.00000   0.27332
           R2           0.00000   0.01304   0.42420
           A1          -0.00000   0.00330  -0.00608   0.01445
           A2           0.00000   0.00206  -0.00418  -0.01154   0.01449
           A3          -0.00000  -0.00000   0.00000   0.00000  -0.00000
           A4           0.00000   0.00000   0.00000  -0.00000   0.00000
                          A3        A4
           A3           0.00230
           A4          -0.00000   0.00783
 ITU=  0 -1  1  0
     Eigenvalues ---    0.00230   0.00783   0.02486   0.27221   0.42532
     Eigenvalues --- 1000.000001000.000001000.000001000.000001000.00000
     Eigenvalues --- 1000.000001000.00000
 En-DIIS/RFO-DIIS/Sim-DIIS IScMMF=       -3 using points:     4    3    2
 RFO step:  Lambda=-1.46802299D-09.
 NNeg= 0 NGDIIS= 3 SimSw=  2.50D-03 Rises=F DC= -1.20D-07 SmlDif=  1.00D-05
 NRisDI= 0 DoIntr=F SqrtH=F CThrHd= 10.0 CDAdj=  3.0
 RMS Error=  0.3439431265D-04 NUsed= 3 OKEnD=F EnDIS=F
 InvSVX:  RCond= 8.98D-08 Info=           0 Equed=N FErr=  3.82D-15 BErr=  3.53D-17
 DIIS inversion failure, remove point   3.
 InvSVX:  RCond= 1.16D-05 Info=           0 Equed=N FErr=  9.15D-16 BErr=  1.91D-17
 RFO-DIIS uses    2 points instead of    3
 DidBck=F Rises=F RFO-DIIS coefs:    0.97113    0.02887    0.00000
 Iteration  1 RMS(Cart)=  0.00005727 RMS(Int)=  0.00000000
 Iteration  2 RMS(Cart)=  0.00000000 RMS(Int)=  0.00000000
 ITry= 1 IFail=0 DXMaxC= 1.48D-04 DCOld= 1.00D+10 DXMaxT= 1.50D-01 DXLimC= 3.00D+00 Rises=F
 Variable       Old X    -DE/DX   Delta X   Delta X   Delta X     New X
                                 (Linear)    (Quad)   (Total)
    X1       -1.51695  -0.00002  -0.00000   0.00000   0.00000  -1.51695
    Y1        0.00000  -0.00000   0.00000   0.00000   0.00000   0.00000
    Z1        0.00000   0.00000   0.00000   0.00000   0.00000   0.00000
    X2        1.51695   0.00000   0.00000   0.00000   0.00000   1.51695
    Y2        0.00000  -0.00000   0.00000   0.00000   0.00000   0.00000
    Z2        0.00000   0.00000   0.00000   0.00000   0.00000   0.00000
    R1        2.22150   0.00002   0.00000   0.00007   0.00008   2.22157
    R2        1.93319   0.00000   0.00000  -0.00000  -0.00000   1.93318
    A1        3.14161  -0.00000  -0.00005   0.00000  -0.00005   3.14156
    A2        3.14121   0.00000   0.00008  -0.00000   0.00008   3.14129
    A3        3.14159  -0.00000  -0.00000  -0.00000  -0.00000   3.14159
    A4        3.14159   0.00000   0.00000   0.00000   0.00000   3.14159
         Item               Value     Threshold  Converged?
 Maximum Force            0.000021     0.000450     YES
 RMS     Force            0.000009     0.000300     YES
 Maximum Displacement     0.000148     0.001800     YES
 RMS     Displacement     0.000057     0.001200     YES
 Predicted change in Energy=-9.227429D-10
 Optimization completed.
    -- Stationary point found.
                           ----------------------------
                           !   Optimized Parameters   !
                           ! (Angstroms and Degrees)  !
 --------------------------                            --------------------------
 ! Name  Definition              Value          Derivative Info.                !
 --------------------------------------------------------------------------------
 ! X1    R(1,-1)                -0.8027         -DE/DX =    0.0                 !
 ! Y1    R(1,-2)                 0.0            -DE/DX =    0.0                 !
 ! Z1    R(1,-3)                 0.0            -DE/DX =    0.0                 !
 ! X2    R(2,-1)                 0.8027         -DE/DX =    0.0                 !
 ! Y2    R(2,-2)                 0.0            -DE/DX =    0.0                 !
 ! Z2    R(2,-3)                 0.0            -DE/DX =    0.0                 !
 ! R1    R(1,3)                  1.1756         -DE/DX =    0.0                 !
 ! R2    R(2,4)                  1.023          -DE/DX =    0.0                 !
 ! A1    L(2,1,3,-3,-1)        180.0011         -DE/DX =    0.0                 !
 ! A2    L(1,2,4,-3,-1)        179.9783         -DE/DX =    0.0                 !
 ! A3    L(2,1,3,-2,-2)        180.0            -DE/DX =    0.0                 !
 ! A4    L(1,2,4,-2,-2)        180.0            -DE/DX =    0.0                 !
 --------------------------------------------------------------------------------
 Lowest energy point so far.  Saving SCF results.
 Largest change from initial coordinates is atom    3       0.004 Angstoms.
 GradGradGradGradGradGradGradGradGradGradGradGradGradGradGradGradGradGrad

 Leave Link  103 at Mon Apr 21 17:50:26 2025, MaxMem=   536870912 cpu:               0.4 elap:               0.2
 (Enter /home/szhao/Apps/g16/l202.exe)
                          Input orientation:                          
 ---------------------------------------------------------------------
 Center     Atomic      Atomic             Coordinates (Angstroms)
 Number     Number       Type             X           Y           Z
 ---------------------------------------------------------------------
      1          5           0       -0.802734    0.000000    0.000000
      2          7           0        0.802734    0.000000    0.000000
      3          1           0       -1.978300    0.000022   -0.000000
      4          1           0        1.825732    0.000387   -0.000000
 ---------------------------------------------------------------------
                    Distance matrix (angstroms):
                    1          2          3          4
     1  B    0.000000
     2  N    1.605468   0.000000
     3  H    1.175566   2.781034   0.000000
     4  H    2.628466   1.022998   3.804032   0.000000
 Symmetry turned off by external request.
 This structure is nearly, but not quite of a higher symmetry.
 Consider Symm=Loose if the higher symmetry is desired.
 Stoichiometry    BH2N(1+,2)
 Framework group  C1[X(BH2N)]
 Deg. of freedom     6
 Full point group                 C1      NOp   1
 Rotational constants (GHZ):  3958204337.2743073          21.7517050          21.7517048
 Leave Link  202 at Mon Apr 21 17:50:26 2025, MaxMem=   536870912 cpu:               0.4 elap:               0.1
 (Enter /home/szhao/Apps/g16/l601.exe)
 Copying SCF densities to generalized density rwf, IOpCl= 1 IROHF=0.

 **********************************************************************

            Population analysis using the SCF density.

 **********************************************************************

 Alpha  occ. eigenvalues --  -15.10262  -7.50541  -1.22696  -0.90901  -0.82352
 Alpha  occ. eigenvalues --   -0.69494  -0.65258
 Alpha virt. eigenvalues --   -0.30207  -0.29126  -0.22794  -0.14094  -0.10851
 Alpha virt. eigenvalues --   -0.10347  -0.09931  -0.09127  -0.01730  -0.01390
 Alpha virt. eigenvalues --    0.03542   0.05910   0.09873   0.17471   0.17853
 Alpha virt. eigenvalues --    0.19649   0.28604   0.42051   0.47425   0.51583
 Alpha virt. eigenvalues --    0.53368   0.54975   0.55123   0.60433   0.62640
 Alpha virt. eigenvalues --    0.74413   0.96201   1.13248   1.14203   1.15103
 Alpha virt. eigenvalues --    1.43585   1.44496   1.54704   1.55810   1.69719
 Alpha virt. eigenvalues --    1.70596   1.71548   1.92759   2.21552   2.24388
 Alpha virt. eigenvalues --    2.33467   2.37967   2.57249   3.02165   3.54017
 Alpha virt. eigenvalues --    3.58506   4.29271  14.22280  35.22021
  Beta  occ. eigenvalues --  -15.09142  -7.50607  -1.15885  -0.89322  -0.81775
  Beta  occ. eigenvalues --   -0.61612
  Beta virt. eigenvalues --   -0.39995  -0.28881  -0.25142  -0.21946  -0.14077
  Beta virt. eigenvalues --   -0.10846  -0.09976  -0.09731  -0.09048  -0.01614
  Beta virt. eigenvalues --   -0.01280   0.01992   0.06033   0.10426   0.16454
  Beta virt. eigenvalues --    0.17783   0.19745   0.28434   0.41921   0.47120
  Beta virt. eigenvalues --    0.53865   0.54265   0.55560   0.55688   0.61938
  Beta virt. eigenvalues --    0.63443   0.75070   0.96868   1.13701   1.15124
  Beta virt. eigenvalues --    1.15964   1.43313   1.44460   1.54611   1.55542
  Beta virt. eigenvalues --    1.71224   1.75594   1.79188   1.92601   2.25266
  Beta virt. eigenvalues --    2.26171   2.32432   2.37957   2.57479   3.04893
  Beta virt. eigenvalues --    3.60857   3.61587   4.30305  14.22087  35.22185
          Condensed to atoms (all electrons):
               1          2          3          4
     1  B    3.543337   0.474098   0.392632  -0.019884
     2  N    0.474098   6.435048  -0.013488   0.331126
     3  H    0.392632  -0.013488   0.414815  -0.000166
     4  H   -0.019884   0.331126  -0.000166   0.278166
          Atomic-Atomic Spin Densities.
               1          2          3          4
     1  B   -0.030627   0.035449  -0.002757   0.003469
     2  N    0.035449   1.007075   0.000874  -0.008530
     3  H   -0.002757   0.000874  -0.006650   0.000031
     4  H    0.003469  -0.008530   0.000031  -0.026871
 Mulliken charges and spin densities:
               1          2
     1  B    0.609818   0.005534
     2  N   -0.226784   1.034867
     3  H    0.206207  -0.008501
     4  H    0.410758  -0.031900
 Sum of Mulliken charges =   1.00000   1.00000
 Mulliken charges and spin densities with hydrogens summed into heavy atoms:
               1          2
     1  B    0.816025  -0.002967
     2  N    0.183975   1.002967
 Electronic spatial extent (au):  <R**2>=             68.6963
 Charge=              1.0000 electrons
 Dipole moment (field-independent basis, Debye):
    X=             -1.2892    Y=              0.0006    Z=             -0.0000  Tot=              1.2892
 Quadrupole moment (field-independent basis, Debye-Ang):
   XX=              0.7814   YY=             -9.6675   ZZ=            -11.5630
   XY=              0.0013   XZ=             -0.0000   YZ=             -0.0002
 Traceless Quadrupole moment (field-independent basis, Debye-Ang):
   XX=              7.5978   YY=             -2.8511   ZZ=             -4.7466
   XY=              0.0013   XZ=             -0.0000   YZ=             -0.0002
 Octapole moment (field-independent basis, Debye-Ang**2):
  XXX=              3.5398  YYY=             -0.0006  ZZZ=              0.0000  XYY=             -0.8535
  XXY=              0.0027  XXZ=             -0.0000  XZZ=             -1.4665  YZZ=             -0.0002
  YYZ=              0.0000  XYZ=             -0.0001
 Hexadecapole moment (field-independent basis, Debye-Ang**3):
 XXXX=            -25.4665 YYYY=             -8.6229 ZZZZ=            -12.2323 XXXY=              0.0046
 XXXZ=             -0.0000 YYYX=             -0.0007 YYYZ=             -0.0002 ZZZX=             -0.0000
 ZZZY=             -0.0002 XXYY=            -12.6697 XXZZ=            -14.1833 YYZZ=             -3.4758
 XXYZ=             -0.0002 YYXZ=             -0.0000 ZZXY=             -0.0003
 N-N= 1.988572580779D+01 E-N=-2.224941612855D+02  KE= 7.952407376657D+01
                          Isotropic Fermi Contact Couplings
        Atom                 a.u.       MegaHertz       Gauss      10(-4) cm-1
     1  B(11)             -0.00865     -12.41265      -4.42914      -4.14041
     2  N(14)              0.22217      71.78346      25.61412      23.94438
     3  H(1)              -0.00283     -12.67119      -4.52139      -4.22665
     4  H(1)              -0.01698     -75.90194     -27.08370     -25.31816
 --------------------------------------------------------
       Center         ----  Spin Dipole Couplings  ----
                      3XX-RR        3YY-RR        3ZZ-RR
 --------------------------------------------------------
     1   Atom        0.032225      0.075528     -0.107753
     2   Atom       -1.109624      1.911008     -0.801383
     3   Atom        0.012491     -0.002505     -0.009986
     4   Atom        0.123512     -0.030974     -0.092538
 --------------------------------------------------------
                        XY            XZ            YZ
 --------------------------------------------------------
     1   Atom        0.000046     -0.000000     -0.000023
     2   Atom       -0.000561      0.000000     -0.000336
     3   Atom        0.000000      0.000000     -0.000001
     4   Atom        0.000052     -0.000000     -0.000008
 --------------------------------------------------------


 ---------------------------------------------------------------------------------
              Anisotropic Spin Dipole Couplings in Principal Axis System
 ---------------------------------------------------------------------------------

       Atom             a.u.   MegaHertz   Gauss  10(-4) cm-1        Axes

              Baa    -0.1078   -18.449    -6.583    -6.154  0.0000  0.0001  1.0000
     1 B(11)  Bbb     0.0322     5.517     1.969     1.840  1.0000 -0.0011  0.0000
              Bcc     0.0755    12.932     4.614     4.314  0.0011  1.0000 -0.0001
 
              Baa    -1.1096   -42.796   -15.271   -14.275  1.0000  0.0002 -0.0000
     2 N(14)  Bbb    -0.8014   -30.908   -11.029   -10.310 -0.0000  0.0001  1.0000
              Bcc     1.9110    73.703    26.299    24.585 -0.0002  1.0000 -0.0001
 
              Baa    -0.0100    -5.328    -1.901    -1.777 -0.0000  0.0001  1.0000
     3 H(1)   Bbb    -0.0025    -1.336    -0.477    -0.446 -0.0000  1.0000 -0.0001
              Bcc     0.0125     6.665     2.378     2.223  1.0000  0.0000  0.0000
 
              Baa    -0.0925   -49.374   -17.618   -16.469 -0.0000  0.0001  1.0000
     4 H(1)   Bbb    -0.0310   -16.526    -5.897    -5.512 -0.0003  1.0000 -0.0001
              Bcc     0.1235    65.900    23.515    21.982  1.0000  0.0003 -0.0000
 

 ---------------------------------------------------------------------------------

 No NMR shielding tensors so no spin-rotation constants.
 Leave Link  601 at Mon Apr 21 17:50:26 2025, MaxMem=   536870912 cpu:               1.6 elap:               0.3
 (Enter /home/szhao/Apps/g16/l9999.exe)
 1\1\GINC-NODE03\FOpt\UM062X\6-311+G(d,p)\B1H2N1(1+,2)\SZHAO\21-Apr-202
 5\0\\#p opt UM062X/6-311+G** nosymm int=superfine\\Title Card Required
 \\1,2\B,-0.80273421,0.,0.\N,0.80273421,0.,0.\H,-1.9782997568,0.0000221
 849,-0.000000026\H,1.825732002,0.0003867075,-0.0000000289\\Version=ES6
 4L-G16RevA.03\HF=-80.3141471\S2=0.763405\S2-1=0.\S2A=0.750064\RMSD=8.0
 39e-09\RMSF=6.146e-06\Dipole=-0.7033265,0.0001685,0.\Quadrupole=5.6487
 422,-2.1197564,-3.5289857,0.0010024,0.,-0.0001744\PG=C01 [X(B1H2N1)]\\
 @


 ACCORDING TO HEN3RY, LIFE IS MUCH LIKE A SEWER........
 YOU GET OUT OF IT JUST WHAT YOU PUT INTO IT...........
                         TOM LEHRER - (THE 3 IS SILENT)
 Job cpu time:       0 days  0 hours  4 minutes 24.0 seconds.
 Elapsed time:       0 days  0 hours  0 minutes 37.7 seconds.
 File lengths (MBytes):  RWF=     17 Int=      0 D2E=      0 Chk=      2 Scr=      2
 Normal termination of Gaussian 16 at Mon Apr 21 17:50:27 2025.
