 Entering Gaussian System, Link 0=g16
 Initial command:
 /home/szhao/Apps/g16/l1.exe "/home/szhao/tmp/Gau-9345.inp" -scrdir="/home/szhao/tmp/"
 Default is to use a total of  16 processors:
                               16 via shared-memory
                                1 via Linda
 Entering Link 1 = /home/szhao/Apps/g16/l1.exe PID=      9346.
  
 Copyright (c) 1988,1990,1992,1993,1995,1998,2003,2009,2016,
            Gaussian, Inc.  All Rights Reserved.
  
 This is part of the Gaussian(R) 16 program.  It is based on
 the Gaussian(R) 09 system (copyright 2009, Gaussian, Inc.),
 the Gaussian(R) 03 system (copyright 2003, Gaussian, Inc.),
 the Gaussian(R) 98 system (copyright 1998, Gaussian, Inc.),
 the Gaussian(R) 94 system (copyright 1995, Gaussian, Inc.),
 the Gaussian 92(TM) system (copyright 1992, Gaussian, Inc.),
 the Gaussian 90(TM) system (copyright 1990, Gaussian, Inc.),
 the Gaussian 88(TM) system (copyright 1988, Gaussian, Inc.),
 the Gaussian 86(TM) system (copyright 1986, Carnegie Mellon
 University), and the Gaussian 82(TM) system (copyright 1983,
 Carnegie Mellon University). Gaussian is a federally registered
 trademark of Gaussian, Inc.
  
 This software contains proprietary and confidential information,
 including trade secrets, belonging to Gaussian, Inc.
  
 This software is provided under written license and may be
 used, copied, transmitted, or stored only in accord with that
 written license.
  
 The following legend is applicable only to US Government
 contracts under FAR:
  
                    RESTRICTED RIGHTS LEGEND
  
 Use, reproduction and disclosure by the US Government is
 subject to restrictions as set forth in subparagraphs (a)
 and (c) of the Commercial Computer Software - Restricted
 Rights clause in FAR 52.227-19.
  
 Gaussian, Inc.
 340 Quinnipiac St., Bldg. 40, Wallingford CT 06492
  
  
 ---------------------------------------------------------------
 Warning -- This program may not be used in any manner that
 competes with the business of Gaussian, Inc. or will provide
 assistance to any competitor of Gaussian, Inc.  The licensee
 of this program is prohibited from giving any competitor of
 Gaussian, Inc. access to this program.  By using this program,
 the user acknowledges that Gaussian, Inc. is engaged in the
 business of creating and licensing software in the field of
 computational chemistry and represents and warrants to the
 licensee that it is not a competitor of Gaussian, Inc. and that
 it will not use this program in any manner prohibited above.
 ---------------------------------------------------------------
  

 Cite this work as:
 Gaussian 16, Revision A.03,
 M. J. Frisch, G. W. Trucks, H. B. Schlegel, G. E. Scuseria, 
 M. A. Robb, J. R. Cheeseman, G. Scalmani, V. Barone, 
 G. A. Petersson, H. Nakatsuji, X. Li, M. Caricato, A. V. Marenich, 
 J. Bloino, B. G. Janesko, R. Gomperts, B. Mennucci, H. P. Hratchian, 
 J. V. Ortiz, A. F. Izmaylov, J. L. Sonnenberg, D. Williams-Young, 
 F. Ding, F. Lipparini, F. Egidi, J. Goings, B. Peng, A. Petrone, 
 T. Henderson, D. Ranasinghe, V. G. Zakrzewski, J. Gao, N. Rega, 
 G. Zheng, W. Liang, M. Hada, M. Ehara, K. Toyota, R. Fukuda, 
 J. Hasegawa, M. Ishida, T. Nakajima, Y. Honda, O. Kitao, H. Nakai, 
 T. Vreven, K. Throssell, J. A. Montgomery, Jr., J. E. Peralta, 
 F. Ogliaro, M. J. Bearpark, J. J. Heyd, E. N. Brothers, K. N. Kudin, 
 V. N. Staroverov, T. A. Keith, R. Kobayashi, J. Normand, 
 K. Raghavachari, A. P. Rendell, J. C. Burant, S. S. Iyengar, 
 J. Tomasi, M. Cossi, J. M. Millam, M. Klene, C. Adamo, R. Cammi, 
 J. W. Ochterski, R. L. Martin, K. Morokuma, O. Farkas, 
 J. B. Foresman, and D. J. Fox, Gaussian, Inc., Wallingford CT, 2016.
 
 ******************************************
 Gaussian 16:  ES64L-G16RevA.03 25-Dec-2016
                15-Nov-2024 
 ******************************************
 %chk=opt.chk
 %mem=24GB
 %nprocshared=28
 Will use up to   28 processors via shared memory.
 --------------------------------------------
 #p opt UM062X/6-311+G** nosymm int=superfine
 --------------------------------------------
 1/18=20,19=15,26=5,38=1/1,3;
 2/9=110,12=2,15=1,17=6,18=5,40=1/2;
 3/5=4,6=6,7=111,11=2,25=1,30=1,71=1,74=-55,75=-7,116=2/1,2,3;
 4//1;
 5/5=2,38=5/2;
 6/7=2,8=2,9=2,10=2,28=1/1;
 7/30=1/1,2,3,16;
 1/18=20,19=15,26=5/3(2);
 2/9=110,15=1/2;
 99//99;
 2/9=110,15=1/2;
 3/5=4,6=6,7=111,11=2,25=1,30=1,71=1,74=-55,75=-7,116=2/1,2,3;
 4/5=5,16=3,69=1/1;
 5/5=2,38=5/2;
 7/30=1/1,2,3,16;
 1/18=20,19=15,26=5/3(-5);
 2/9=110,15=1/2;
 6/7=2,8=2,9=2,10=2,19=2,28=1/1;
 99/9=1/99;
 Leave Link    1 at Fri Nov 15 13:16:13 2024, MaxMem=  3221225472 cpu:               1.1 elap:               0.0
 (Enter /home/szhao/Apps/g16/l101.exe)
 -------------------
 Title Card Required
 -------------------
 Symbolic Z-matrix:
 Charge =  1 Multiplicity = 2
 C                    -1   -1.84036   0.        0. 
 C                    -1    1.84036   0.        0. 
 C                    0    -0.00001  -2.05545  -0.00218 
 C                    0    -0.00002  -3.45663  -0.00371 
 C                    0    -1.27082  -4.28965   0.19342 
 C                    0    -1.48329  -1.46623   0.1642 
 C                    0     0.74548  -5.68273  -0.12501 
 H                    0     1.45503  -6.55103  -0.24207 
 C                    0    -1.86325   0.76446   1.22074 
 C                    0    -0.74556  -5.68298   0.11279 
 H                    0    -1.45509  -6.55152   0.22811 
 C                    0     1.27076  -4.28923  -0.20263 
 C                    0     1.48327  -1.46588  -0.16728 
 C                    0     2.00307   2.19169  -1.3377 
 C                    0    -1.96683   0.40954  -1.37421 
 C                    0    -2.06568   2.76909   2.62285 
 H                    0    -2.19119   3.84515   2.68869 
 C                    0    -2.63359  -3.70309   0.41334 
 H                    0    -3.64542  -4.27951   0.58257 
 C                    0    -1.95813   1.75683  -1.86868 
 C                    0     2.70466  -2.28649  -0.38846 
 H                    0     3.79239  -1.81329  -0.50709 
 C                    0     1.96686   0.40666   1.37506 
 C                    0     1.95817   1.7529    1.87236 
 C                    0     2.63357  -3.70221  -0.42114 
 H                    0     3.64541  -4.27827  -0.59154 
 C                    0    -2.00331   2.18887   1.34229 
 C                    0    -1.70077   0.04225   2.44255 
 H                    0    -1.54192  -1.02703   2.40771 
 C                    0     2.04629  -0.6279    2.36195 
 H                    0     2.08561  -1.65906   2.04522 
 C                    0    -1.96452   2.02408   3.78017 
 H                    0    -2.02716   2.50708   4.74815 
 C                    0    -2.70467  -2.2873    0.38372 
 H                    0    -3.79238  -1.81434   0.50343 
 C                    0    -1.98257   1.98025  -3.26009 
 H                    0    -1.95554   3.00603  -3.6092 
 C                    0     1.86321   0.76702  -1.21914 
 C                    0    -2.00549   3.13594   0.25924 
 H                    0    -2.03631   4.17143   0.58431 
 C                    0    -2.05939   0.95519  -4.17546 
 H                    0    -2.09641   1.17003  -5.2367 
 C                    0    -1.94977   2.95543  -1.07579 
 H                    0    -1.93091   3.86784  -1.66424 
 C                    0     1.98284   1.9734    3.26424 
 H                    0     1.95584   2.99844   3.61551 
 C                    0    -1.75733   0.64359   3.67979 
 H                    0    -1.63857   0.03773   4.57152 
 C                    0    -2.04617  -0.62294  -2.36328 
 H                    0    -2.08556  -1.65476  -2.0487 
 C                    0     2.05981   0.94641   4.17744 
 H                    0     2.09702   1.15903   5.23912 
 C                    0     2.06544   2.7746   -2.61703 
 H                    0     2.19079   3.85082  -2.6806 
 C                    0     2.11073  -0.37237   3.71002 
 H                    0     2.19599  -1.19838   4.40662 
 C                    0     1.96449   2.03202  -3.77592 
 H                    0     2.02715   2.51706  -4.74288 
 C                    0     2.00499   3.13649  -0.25266 
 H                    0     2.03548   4.17267  -0.57555 
 C                    0    -2.11043  -0.36457  -3.71082 
 H                    0    -2.19566  -1.18911  -4.40915 
 C                    0     1.94945   2.95316   1.082 
 H                    0     1.93043   3.86434   1.67236 
 C                    0     1.70085   0.04736  -2.44247 
 H                    0     1.5421   -1.02199  -2.40988 
 C                    0     1.75744   0.6513   -3.67844 
 H                    0     1.63881   0.0473   -4.57144 
 
 ITRead=  2  2  0  0  0  0  0  0  0  0  0  0  0  0  0  0  0  0  0  0
 ITRead=  0  0  0  0  0  0  0  0  0  0  0  0  0  0  0  0  0  0  0  0
 ITRead=  0  0  0  0  0  0  0  0  0  0  0  0  0  0  0  0  0  0  0  0
 ITRead=  0  0  0  0  0  0  0  0
 MicOpt= -2 -2 -1 -1 -1 -1 -1 -1 -1 -1 -1 -1 -1 -1 -1 -1 -1 -1 -1 -1
 MicOpt= -1 -1 -1 -1 -1 -1 -1 -1 -1 -1 -1 -1 -1 -1 -1 -1 -1 -1 -1 -1
 MicOpt= -1 -1 -1 -1 -1 -1 -1 -1 -1 -1 -1 -1 -1 -1 -1 -1 -1 -1 -1 -1
 MicOpt= -1 -1 -1 -1 -1 -1 -1 -1
 NAtoms=     68 NQM=       66 NQMF=       2 NMMI=      0 NMMIF=      0
                NMic=       0 NMicF=      0.
                    Isotopes and Nuclear Properties:
 (Nuclear quadrupole moments (NQMom) in fm**2, nuclear magnetic moments (NMagM)
  in nuclear magnetons)

  Atom         1           2           3           4           5           6           7           8           9          10
 IAtWgt=          12          12          12          12          12          12          12           1          12          12
 AtmWgt=  12.0000000  12.0000000  12.0000000  12.0000000  12.0000000  12.0000000  12.0000000   1.0078250  12.0000000  12.0000000
 NucSpn=           0           0           0           0           0           0           0           1           0           0
 AtZEff=  -0.0000000  -0.0000000  -0.0000000  -0.0000000  -0.0000000  -0.0000000  -0.0000000  -0.0000000  -0.0000000  -0.0000000
 NQMom=    0.0000000   0.0000000   0.0000000   0.0000000   0.0000000   0.0000000   0.0000000   0.0000000   0.0000000   0.0000000
 NMagM=    0.0000000   0.0000000   0.0000000   0.0000000   0.0000000   0.0000000   0.0000000   2.7928460   0.0000000   0.0000000
 AtZNuc=   6.0000000   6.0000000   6.0000000   6.0000000   6.0000000   6.0000000   6.0000000   1.0000000   6.0000000   6.0000000

  Atom        11          12          13          14          15          16          17          18          19          20
 IAtWgt=           1          12          12          12          12          12           1          12           1          12
 AtmWgt=   1.0078250  12.0000000  12.0000000  12.0000000  12.0000000  12.0000000   1.0078250  12.0000000   1.0078250  12.0000000
 NucSpn=           1           0           0           0           0           0           1           0           1           0
 AtZEff=  -0.0000000  -0.0000000  -0.0000000  -0.0000000  -0.0000000  -0.0000000  -0.0000000  -0.0000000  -0.0000000  -0.0000000
 NQMom=    0.0000000   0.0000000   0.0000000   0.0000000   0.0000000   0.0000000   0.0000000   0.0000000   0.0000000   0.0000000
 NMagM=    2.7928460   0.0000000   0.0000000   0.0000000   0.0000000   0.0000000   2.7928460   0.0000000   2.7928460   0.0000000
 AtZNuc=   1.0000000   6.0000000   6.0000000   6.0000000   6.0000000   6.0000000   1.0000000   6.0000000   1.0000000   6.0000000

  Atom        21          22          23          24          25          26          27          28          29          30
 IAtWgt=          12           1          12          12          12           1          12          12           1          12
 AtmWgt=  12.0000000   1.0078250  12.0000000  12.0000000  12.0000000   1.0078250  12.0000000  12.0000000   1.0078250  12.0000000
 NucSpn=           0           1           0           0           0           1           0           0           1           0
 AtZEff=  -0.0000000  -0.0000000  -0.0000000  -0.0000000  -0.0000000  -0.0000000  -0.0000000  -0.0000000  -0.0000000  -0.0000000
 NQMom=    0.0000000   0.0000000   0.0000000   0.0000000   0.0000000   0.0000000   0.0000000   0.0000000   0.0000000   0.0000000
 NMagM=    0.0000000   2.7928460   0.0000000   0.0000000   0.0000000   2.7928460   0.0000000   0.0000000   2.7928460   0.0000000
 AtZNuc=   6.0000000   1.0000000   6.0000000   6.0000000   6.0000000   1.0000000   6.0000000   6.0000000   1.0000000   6.0000000

  Atom        31          32          33          34          35          36          37          38          39          40
 IAtWgt=           1          12           1          12           1          12           1          12          12           1
 AtmWgt=   1.0078250  12.0000000   1.0078250  12.0000000   1.0078250  12.0000000   1.0078250  12.0000000  12.0000000   1.0078250
 NucSpn=           1           0           1           0           1           0           1           0           0           1
 AtZEff=  -0.0000000  -0.0000000  -0.0000000  -0.0000000  -0.0000000  -0.0000000  -0.0000000  -0.0000000  -0.0000000  -0.0000000
 NQMom=    0.0000000   0.0000000   0.0000000   0.0000000   0.0000000   0.0000000   0.0000000   0.0000000   0.0000000   0.0000000
 NMagM=    2.7928460   0.0000000   2.7928460   0.0000000   2.7928460   0.0000000   2.7928460   0.0000000   0.0000000   2.7928460
 AtZNuc=   1.0000000   6.0000000   1.0000000   6.0000000   1.0000000   6.0000000   1.0000000   6.0000000   6.0000000   1.0000000

  Atom        41          42          43          44          45          46          47          48          49          50
 IAtWgt=          12           1          12           1          12           1          12           1          12           1
 AtmWgt=  12.0000000   1.0078250  12.0000000   1.0078250  12.0000000   1.0078250  12.0000000   1.0078250  12.0000000   1.0078250
 NucSpn=           0           1           0           1           0           1           0           1           0           1
 AtZEff=  -0.0000000  -0.0000000  -0.0000000  -0.0000000  -0.0000000  -0.0000000  -0.0000000  -0.0000000  -0.0000000  -0.0000000
 NQMom=    0.0000000   0.0000000   0.0000000   0.0000000   0.0000000   0.0000000   0.0000000   0.0000000   0.0000000   0.0000000
 NMagM=    0.0000000   2.7928460   0.0000000   2.7928460   0.0000000   2.7928460   0.0000000   2.7928460   0.0000000   2.7928460
 AtZNuc=   6.0000000   1.0000000   6.0000000   1.0000000   6.0000000   1.0000000   6.0000000   1.0000000   6.0000000   1.0000000

  Atom        51          52          53          54          55          56          57          58          59          60
 IAtWgt=          12           1          12           1          12           1          12           1          12           1
 AtmWgt=  12.0000000   1.0078250  12.0000000   1.0078250  12.0000000   1.0078250  12.0000000   1.0078250  12.0000000   1.0078250
 NucSpn=           0           1           0           1           0           1           0           1           0           1
 AtZEff=  -0.0000000  -0.0000000  -0.0000000  -0.0000000  -0.0000000  -0.0000000  -0.0000000  -0.0000000  -0.0000000  -0.0000000
 NQMom=    0.0000000   0.0000000   0.0000000   0.0000000   0.0000000   0.0000000   0.0000000   0.0000000   0.0000000   0.0000000
 NMagM=    0.0000000   2.7928460   0.0000000   2.7928460   0.0000000   2.7928460   0.0000000   2.7928460   0.0000000   2.7928460
 AtZNuc=   6.0000000   1.0000000   6.0000000   1.0000000   6.0000000   1.0000000   6.0000000   1.0000000   6.0000000   1.0000000

  Atom        61          62          63          64          65          66          67          68
 IAtWgt=          12           1          12           1          12           1          12           1
 AtmWgt=  12.0000000   1.0078250  12.0000000   1.0078250  12.0000000   1.0078250  12.0000000   1.0078250
 NucSpn=           0           1           0           1           0           1           0           1
 AtZEff=  -0.0000000  -0.0000000  -0.0000000  -0.0000000  -0.0000000  -0.0000000  -0.0000000  -0.0000000
 NQMom=    0.0000000   0.0000000   0.0000000   0.0000000   0.0000000   0.0000000   0.0000000   0.0000000
 NMagM=    0.0000000   2.7928460   0.0000000   2.7928460   0.0000000   2.7928460   0.0000000   2.7928460
 AtZNuc=   6.0000000   1.0000000   6.0000000   1.0000000   6.0000000   1.0000000   6.0000000   1.0000000
 Leave Link  101 at Fri Nov 15 13:16:13 2024, MaxMem=  3221225472 cpu:               9.3 elap:               0.4
 (Enter /home/szhao/Apps/g16/l103.exe)

 GradGradGradGradGradGradGradGradGradGradGradGradGradGradGradGradGradGrad
 Berny optimization.
 Initialization pass.
                           ----------------------------
                           !    Initial Parameters    !
                           ! (Angstroms and Degrees)  !
 --------------------------                            --------------------------
 ! Name  Definition              Value          Derivative Info.                !
 --------------------------------------------------------------------------------
 ! X1    R(1,-1)                -1.8404         Frozen                          !
 ! Y1    R(1,-2)                 0.0            Frozen                          !
 ! Z1    R(1,-3)                 0.0            Frozen                          !
 ! X2    R(2,-1)                 1.8404         Frozen                          !
 ! Y2    R(2,-2)                 0.0            Frozen                          !
 ! Z2    R(2,-3)                 0.0            Frozen                          !
 ! R1    R(1,6)                  1.518          estimate D2E/DX2                !
 ! R2    R(1,9)                  1.4405         estimate D2E/DX2                !
 ! R3    R(1,15)                 1.4395         estimate D2E/DX2                !
 ! R4    R(2,13)                 1.518          estimate D2E/DX2                !
 ! R5    R(2,23)                 1.4395         estimate D2E/DX2                !
 ! R6    R(2,38)                 1.4405         estimate D2E/DX2                !
 ! R7    R(3,4)                  1.4012         estimate D2E/DX2                !
 ! R8    R(3,6)                  1.6047         estimate D2E/DX2                !
 ! R9    R(3,13)                 1.6047         estimate D2E/DX2                !
 ! R10   R(4,5)                  1.5322         estimate D2E/DX2                !
 ! R11   R(4,12)                 1.5322         estimate D2E/DX2                !
 ! R12   R(5,10)                 1.4912         estimate D2E/DX2                !
 ! R13   R(5,18)                 1.4999         estimate D2E/DX2                !
 ! R14   R(6,34)                 1.488          estimate D2E/DX2                !
 ! R15   R(7,8)                  1.1274         estimate D2E/DX2                !
 ! R16   R(7,10)                 1.5099         estimate D2E/DX2                !
 ! R17   R(7,12)                 1.4912         estimate D2E/DX2                !
 ! R18   R(9,27)                 1.4364         estimate D2E/DX2                !
 ! R19   R(9,28)                 1.4286         estimate D2E/DX2                !
 ! R20   R(10,11)                1.1274         estimate D2E/DX2                !
 ! R21   R(12,25)                1.4999         estimate D2E/DX2                !
 ! R22   R(13,21)                1.488          estimate D2E/DX2                !
 ! R23   R(14,38)                1.4364         estimate D2E/DX2                !
 ! R24   R(14,53)                1.4073         estimate D2E/DX2                !
 ! R25   R(14,59)                1.4387         estimate D2E/DX2                !
 ! R26   R(15,20)                1.4352         estimate D2E/DX2                !
 ! R27   R(15,49)                1.432          estimate D2E/DX2                !
 ! R28   R(16,17)                1.0854         estimate D2E/DX2                !
 ! R29   R(16,27)                1.4073         estimate D2E/DX2                !
 ! R30   R(16,32)                1.3801         estimate D2E/DX2                !
 ! R31   R(18,19)                1.1767         estimate D2E/DX2                !
 ! R32   R(18,34)                1.4179         estimate D2E/DX2                !
 ! R33   R(20,36)                1.4094         estimate D2E/DX2                !
 ! R34   R(20,43)                1.4371         estimate D2E/DX2                !
 ! R35   R(21,22)                1.1921         estimate D2E/DX2                !
 ! R36   R(21,25)                1.4179         estimate D2E/DX2                !
 ! R37   R(23,24)                1.4352         estimate D2E/DX2                !
 ! R38   R(23,30)                1.432          estimate D2E/DX2                !
 ! R39   R(24,45)                1.4094         estimate D2E/DX2                !
 ! R40   R(24,63)                1.4371         estimate D2E/DX2                !
 ! R41   R(25,26)                1.1767         estimate D2E/DX2                !
 ! R42   R(27,39)                1.4387         estimate D2E/DX2                !
 ! R43   R(28,29)                1.0816         estimate D2E/DX2                !
 ! R44   R(28,47)                1.3768         estimate D2E/DX2                !
 ! R45   R(30,31)                1.0794         estimate D2E/DX2                !
 ! R46   R(30,55)                1.3736         estimate D2E/DX2                !
 ! R47   R(32,33)                1.0836         estimate D2E/DX2                !
 ! R48   R(32,47)                1.3995         estimate D2E/DX2                !
 ! R49   R(34,35)                1.1921         estimate D2E/DX2                !
 ! R50   R(36,37)                1.0839         estimate D2E/DX2                !
 ! R51   R(36,41)                1.3764         estimate D2E/DX2                !
 ! R52   R(38,65)                1.4286         estimate D2E/DX2                !
 ! R53   R(39,40)                1.0858         estimate D2E/DX2                !
 ! R54   R(39,43)                1.3483         estimate D2E/DX2                !
 ! R55   R(41,42)                1.0834         estimate D2E/DX2                !
 ! R56   R(41,61)                1.4001         estimate D2E/DX2                !
 ! R57   R(43,44)                1.0859         estimate D2E/DX2                !
 ! R58   R(45,46)                1.0839         estimate D2E/DX2                !
 ! R59   R(45,51)                1.3764         estimate D2E/DX2                !
 ! R60   R(47,48)                1.0846         estimate D2E/DX2                !
 ! R61   R(49,50)                1.0794         estimate D2E/DX2                !
 ! R62   R(49,61)                1.3736         estimate D2E/DX2                !
 ! R63   R(51,52)                1.0834         estimate D2E/DX2                !
 ! R64   R(51,55)                1.4001         estimate D2E/DX2                !
 ! R65   R(53,54)                1.0853         estimate D2E/DX2                !
 ! R66   R(53,57)                1.3801         estimate D2E/DX2                !
 ! R67   R(55,56)                1.0839         estimate D2E/DX2                !
 ! R68   R(57,58)                1.0836         estimate D2E/DX2                !
 ! R69   R(57,67)                1.3995         estimate D2E/DX2                !
 ! R70   R(59,60)                1.0858         estimate D2E/DX2                !
 ! R71   R(59,63)                1.3483         estimate D2E/DX2                !
 ! R72   R(61,62)                1.0839         estimate D2E/DX2                !
 ! R73   R(63,64)                1.0859         estimate D2E/DX2                !
 ! R74   R(65,66)                1.0816         estimate D2E/DX2                !
 ! R75   R(65,67)                1.3768         estimate D2E/DX2                !
 ! R76   R(67,68)                1.0846         estimate D2E/DX2                !
 ! A1    A(6,1,9)              115.129          estimate D2E/DX2                !
 ! A2    A(6,1,15)             113.4986         estimate D2E/DX2                !
 ! A3    A(9,1,15)             131.042          estimate D2E/DX2                !
 ! A4    A(13,2,23)            113.4992         estimate D2E/DX2                !
 ! A5    A(13,2,38)            115.1282         estimate D2E/DX2                !
 ! A6    A(23,2,38)            131.0421         estimate D2E/DX2                !
 ! A7    A(4,3,6)              111.5489         estimate D2E/DX2                !
 ! A8    A(4,3,13)             111.5493         estimate D2E/DX2                !
 ! A9    A(6,3,13)             136.9018         estimate D2E/DX2                !
 ! A10   A(3,4,5)              122.9242         estimate D2E/DX2                !
 ! A11   A(3,4,12)             122.9243         estimate D2E/DX2                !
 ! A12   A(5,4,12)             114.1515         estimate D2E/DX2                !
 ! A13   A(4,5,10)             102.0568         estimate D2E/DX2                !
 ! A14   A(4,5,18)             124.0439         estimate D2E/DX2                !
 ! A15   A(10,5,18)            133.8975         estimate D2E/DX2                !
 ! A16   A(1,6,3)              124.117          estimate D2E/DX2                !
 ! A17   A(1,6,34)             110.8463         estimate D2E/DX2                !
 ! A18   A(3,6,34)             124.8487         estimate D2E/DX2                !
 ! A19   A(8,7,10)             129.6219         estimate D2E/DX2                !
 ! A20   A(8,7,12)             119.511          estimate D2E/DX2                !
 ! A21   A(10,7,12)            110.8671         estimate D2E/DX2                !
 ! A22   A(1,9,27)             126.8338         estimate D2E/DX2                !
 ! A23   A(1,9,28)             117.0447         estimate D2E/DX2                !
 ! A24   A(27,9,28)            116.106          estimate D2E/DX2                !
 ! A25   A(5,10,7)             110.8668         estimate D2E/DX2                !
 ! A26   A(5,10,11)            119.5112         estimate D2E/DX2                !
 ! A27   A(7,10,11)            129.622          estimate D2E/DX2                !
 ! A28   A(4,12,7)             102.0567         estimate D2E/DX2                !
 ! A29   A(4,12,25)            124.0438         estimate D2E/DX2                !
 ! A30   A(7,12,25)            133.8978         estimate D2E/DX2                !
 ! A31   A(2,13,3)             124.1182         estimate D2E/DX2                !
 ! A32   A(2,13,21)            110.845          estimate D2E/DX2                !
 ! A33   A(3,13,21)            124.8487         estimate D2E/DX2                !
 ! A34   A(38,14,53)           119.3525         estimate D2E/DX2                !
 ! A35   A(38,14,59)           126.1003         estimate D2E/DX2                !
 ! A36   A(53,14,59)           114.427          estimate D2E/DX2                !
 ! A37   A(1,15,20)            126.5447         estimate D2E/DX2                !
 ! A38   A(1,15,49)            117.3298         estimate D2E/DX2                !
 ! A39   A(20,15,49)           116.0542         estimate D2E/DX2                !
 ! A40   A(17,16,27)           117.9757         estimate D2E/DX2                !
 ! A41   A(17,16,32)           119.5255         estimate D2E/DX2                !
 ! A42   A(27,16,32)           122.4973         estimate D2E/DX2                !
 ! A43   A(5,18,19)            127.6466         estimate D2E/DX2                !
 ! A44   A(5,18,34)            115.6574         estimate D2E/DX2                !
 ! A45   A(19,18,34)           116.6811         estimate D2E/DX2                !
 ! A46   A(15,20,36)           119.2636         estimate D2E/DX2                !
 ! A47   A(15,20,43)           126.3621         estimate D2E/DX2                !
 ! A48   A(36,20,43)           114.365          estimate D2E/DX2                !
 ! A49   A(13,21,22)           123.0134         estimate D2E/DX2                !
 ! A50   A(13,21,25)           120.8582         estimate D2E/DX2                !
 ! A51   A(22,21,25)           116.0909         estimate D2E/DX2                !
 ! A52   A(2,23,24)            126.545          estimate D2E/DX2                !
 ! A53   A(2,23,30)            117.3294         estimate D2E/DX2                !
 ! A54   A(24,23,30)           116.0543         estimate D2E/DX2                !
 ! A55   A(23,24,45)           119.2636         estimate D2E/DX2                !
 ! A56   A(23,24,63)           126.362          estimate D2E/DX2                !
 ! A57   A(45,24,63)           114.3653         estimate D2E/DX2                !
 ! A58   A(12,25,21)           115.6574         estimate D2E/DX2                !
 ! A59   A(12,25,26)           127.6468         estimate D2E/DX2                !
 ! A60   A(21,25,26)           116.681          estimate D2E/DX2                !
 ! A61   A(9,27,16)            119.3523         estimate D2E/DX2                !
 ! A62   A(9,27,39)            126.1009         estimate D2E/DX2                !
 ! A63   A(16,27,39)           114.4267         estimate D2E/DX2                !
 ! A64   A(9,28,29)            119.272          estimate D2E/DX2                !
 ! A65   A(9,28,47)            122.8946         estimate D2E/DX2                !
 ! A66   A(29,28,47)           117.8256         estimate D2E/DX2                !
 ! A67   A(23,30,31)           119.3376         estimate D2E/DX2                !
 ! A68   A(23,30,55)           122.9958         estimate D2E/DX2                !
 ! A69   A(31,30,55)           117.6445         estimate D2E/DX2                !
 ! A70   A(16,32,33)           120.2812         estimate D2E/DX2                !
 ! A71   A(16,32,47)           118.893          estimate D2E/DX2                !
 ! A72   A(33,32,47)           120.8167         estimate D2E/DX2                !
 ! A73   A(6,34,18)            120.8582         estimate D2E/DX2                !
 ! A74   A(6,34,35)            123.0133         estimate D2E/DX2                !
 ! A75   A(18,34,35)           116.0911         estimate D2E/DX2                !
 ! A76   A(20,36,37)           117.8754         estimate D2E/DX2                !
 ! A77   A(20,36,41)           122.6454         estimate D2E/DX2                !
 ! A78   A(37,36,41)           119.4715         estimate D2E/DX2                !
 ! A79   A(2,38,14)            126.8337         estimate D2E/DX2                !
 ! A80   A(2,38,65)            117.0451         estimate D2E/DX2                !
 ! A81   A(14,38,65)           116.1057         estimate D2E/DX2                !
 ! A82   A(27,39,40)           113.7321         estimate D2E/DX2                !
 ! A83   A(27,39,43)           131.0836         estimate D2E/DX2                !
 ! A84   A(40,39,43)           115.1697         estimate D2E/DX2                !
 ! A85   A(36,41,42)           120.3747         estimate D2E/DX2                !
 ! A86   A(36,41,61)           118.9032         estimate D2E/DX2                !
 ! A87   A(42,41,61)           120.7142         estimate D2E/DX2                !
 ! A88   A(20,43,39)           131.1239         estimate D2E/DX2                !
 ! A89   A(20,43,44)           113.6976         estimate D2E/DX2                !
 ! A90   A(39,43,44)           115.137          estimate D2E/DX2                !
 ! A91   A(24,45,46)           117.8755         estimate D2E/DX2                !
 ! A92   A(24,45,51)           122.6455         estimate D2E/DX2                !
 ! A93   A(46,45,51)           119.4712         estimate D2E/DX2                !
 ! A94   A(28,47,32)           120.0896         estimate D2E/DX2                !
 ! A95   A(28,47,48)           119.3638         estimate D2E/DX2                !
 ! A96   A(32,47,48)           120.5466         estimate D2E/DX2                !
 ! A97   A(15,49,50)           119.337          estimate D2E/DX2                !
 ! A98   A(15,49,61)           122.9957         estimate D2E/DX2                !
 ! A99   A(50,49,61)           117.6452         estimate D2E/DX2                !
 ! A100  A(45,51,52)           120.3745         estimate D2E/DX2                !
 ! A101  A(45,51,55)           118.9032         estimate D2E/DX2                !
 ! A102  A(52,51,55)           120.7144         estimate D2E/DX2                !
 ! A103  A(14,53,54)           117.9754         estimate D2E/DX2                !
 ! A104  A(14,53,57)           122.4975         estimate D2E/DX2                !
 ! A105  A(54,53,57)           119.5256         estimate D2E/DX2                !
 ! A106  A(30,55,51)           120.0772         estimate D2E/DX2                !
 ! A107  A(30,55,56)           119.516          estimate D2E/DX2                !
 ! A108  A(51,55,56)           120.406          estimate D2E/DX2                !
 ! A109  A(53,57,58)           120.2812         estimate D2E/DX2                !
 ! A110  A(53,57,67)           118.8924         estimate D2E/DX2                !
 ! A111  A(58,57,67)           120.8172         estimate D2E/DX2                !
 ! A112  A(14,59,60)           113.732          estimate D2E/DX2                !
 ! A113  A(14,59,63)           131.0841         estimate D2E/DX2                !
 ! A114  A(60,59,63)           115.1694         estimate D2E/DX2                !
 ! A115  A(41,61,49)           120.0773         estimate D2E/DX2                !
 ! A116  A(41,61,62)           120.4061         estimate D2E/DX2                !
 ! A117  A(49,61,62)           119.5159         estimate D2E/DX2                !
 ! A118  A(24,63,59)           131.1238         estimate D2E/DX2                !
 ! A119  A(24,63,64)           113.6978         estimate D2E/DX2                !
 ! A120  A(59,63,64)           115.1371         estimate D2E/DX2                !
 ! A121  A(38,65,66)           119.2722         estimate D2E/DX2                !
 ! A122  A(38,65,67)           122.8946         estimate D2E/DX2                !
 ! A123  A(66,65,67)           117.8254         estimate D2E/DX2                !
 ! A124  A(57,67,65)           120.0898         estimate D2E/DX2                !
 ! A125  A(57,67,68)           120.5466         estimate D2E/DX2                !
 ! A126  A(65,67,68)           119.3636         estimate D2E/DX2                !
 ! D1    D(9,1,6,3)            -94.5324         estimate D2E/DX2                !
 ! D2    D(9,1,6,34)            90.2465         estimate D2E/DX2                !
 ! D3    D(15,1,6,3)            79.6084         estimate D2E/DX2                !
 ! D4    D(15,1,6,34)          -95.6126         estimate D2E/DX2                !
 ! D5    D(6,1,9,27)           171.6923         estimate D2E/DX2                !
 ! D6    D(6,1,9,28)            -6.8123         estimate D2E/DX2                !
 ! D7    D(15,1,9,27)           -1.1776         estimate D2E/DX2                !
 ! D8    D(15,1,9,28)         -179.6821         estimate D2E/DX2                !
 ! D9    D(6,1,15,20)         -163.1581         estimate D2E/DX2                !
 ! D10   D(6,1,15,49)           13.6347         estimate D2E/DX2                !
 ! D11   D(9,1,15,20)            9.8034         estimate D2E/DX2                !
 ! D12   D(9,1,15,49)         -173.4039         estimate D2E/DX2                !
 ! D13   D(23,2,13,3)           79.6115         estimate D2E/DX2                !
 ! D14   D(23,2,13,21)         -95.6087         estimate D2E/DX2                !
 ! D15   D(38,2,13,3)          -94.5284         estimate D2E/DX2                !
 ! D16   D(38,2,13,21)          90.2514         estimate D2E/DX2                !
 ! D17   D(13,2,23,24)        -163.1569         estimate D2E/DX2                !
 ! D18   D(13,2,23,30)          13.638          estimate D2E/DX2                !
 ! D19   D(38,2,23,24)           9.8032         estimate D2E/DX2                !
 ! D20   D(38,2,23,30)        -173.4019         estimate D2E/DX2                !
 ! D21   D(13,2,38,14)         171.6818         estimate D2E/DX2                !
 ! D22   D(13,2,38,65)          -6.8204         estimate D2E/DX2                !
 ! D23   D(23,2,38,14)          -1.1868         estimate D2E/DX2                !
 ! D24   D(23,2,38,65)        -179.6891         estimate D2E/DX2                !
 ! D25   D(6,3,4,5)             -2.4819         estimate D2E/DX2                !
 ! D26   D(6,3,4,12)           177.519          estimate D2E/DX2                !
 ! D27   D(13,3,4,5)           177.5181         estimate D2E/DX2                !
 ! D28   D(13,3,4,12)           -2.481          estimate D2E/DX2                !
 ! D29   D(4,3,6,1)           -170.6387         estimate D2E/DX2                !
 ! D30   D(4,3,6,34)             3.9174         estimate D2E/DX2                !
 ! D31   D(13,3,6,1)             9.3614         estimate D2E/DX2                !
 ! D32   D(13,3,6,34)         -176.0825         estimate D2E/DX2                !
 ! D33   D(4,3,13,2)          -170.6437         estimate D2E/DX2                !
 ! D34   D(4,3,13,21)            3.9113         estimate D2E/DX2                !
 ! D35   D(6,3,13,2)             9.3562         estimate D2E/DX2                !
 ! D36   D(6,3,13,21)         -176.0888         estimate D2E/DX2                !
 ! D37   D(3,4,5,10)          -179.8936         estimate D2E/DX2                !
 ! D38   D(3,4,5,18)            -0.3149         estimate D2E/DX2                !
 ! D39   D(12,4,5,10)            0.1056         estimate D2E/DX2                !
 ! D40   D(12,4,5,18)          179.6843         estimate D2E/DX2                !
 ! D41   D(3,4,12,7)          -179.895          estimate D2E/DX2                !
 ! D42   D(3,4,12,25)           -0.3094         estimate D2E/DX2                !
 ! D43   D(5,4,12,7)             0.1058         estimate D2E/DX2                !
 ! D44   D(5,4,12,25)          179.6914         estimate D2E/DX2                !
 ! D45   D(4,5,10,7)            -0.2799         estimate D2E/DX2                !
 ! D46   D(4,5,10,11)          179.708          estimate D2E/DX2                !
 ! D47   D(18,5,10,7)         -179.7955         estimate D2E/DX2                !
 ! D48   D(18,5,10,11)           0.1925         estimate D2E/DX2                !
 ! D49   D(4,5,18,19)         -179.2851         estimate D2E/DX2                !
 ! D50   D(4,5,18,34)            2.173          estimate D2E/DX2                !
 ! D51   D(10,5,18,19)           0.1431         estimate D2E/DX2                !
 ! D52   D(10,5,18,34)        -178.3987         estimate D2E/DX2                !
 ! D53   D(1,6,34,18)          172.8479         estimate D2E/DX2                !
 ! D54   D(1,6,34,35)           -4.8368         estimate D2E/DX2                !
 ! D55   D(3,6,34,18)           -2.331          estimate D2E/DX2                !
 ! D56   D(3,6,34,35)          179.9844         estimate D2E/DX2                !
 ! D57   D(8,7,10,5)          -179.6183         estimate D2E/DX2                !
 ! D58   D(8,7,10,11)            0.3953         estimate D2E/DX2                !
 ! D59   D(12,7,10,5)            0.3769         estimate D2E/DX2                !
 ! D60   D(12,7,10,11)        -179.6095         estimate D2E/DX2                !
 ! D61   D(8,7,12,4)           179.7157         estimate D2E/DX2                !
 ! D62   D(8,7,12,25)            0.1922         estimate D2E/DX2                !
 ! D63   D(10,7,12,4)           -0.2801         estimate D2E/DX2                !
 ! D64   D(10,7,12,25)        -179.8036         estimate D2E/DX2                !
 ! D65   D(1,9,27,16)          177.1667         estimate D2E/DX2                !
 ! D66   D(1,9,27,39)           -7.0514         estimate D2E/DX2                !
 ! D67   D(28,9,27,16)          -4.3165         estimate D2E/DX2                !
 ! D68   D(28,9,27,39)         171.4653         estimate D2E/DX2                !
 ! D69   D(1,9,28,29)            1.662          estimate D2E/DX2                !
 ! D70   D(1,9,28,47)         -177.2996         estimate D2E/DX2                !
 ! D71   D(27,9,28,29)        -177.0051         estimate D2E/DX2                !
 ! D72   D(27,9,28,47)           4.0333         estimate D2E/DX2                !
 ! D73   D(4,12,25,21)           2.1664         estimate D2E/DX2                !
 ! D74   D(4,12,25,26)        -179.289          estimate D2E/DX2                !
 ! D75   D(7,12,25,21)        -178.396          estimate D2E/DX2                !
 ! D76   D(7,12,25,26)           0.1486         estimate D2E/DX2                !
 ! D77   D(2,13,21,22)          -4.8347         estimate D2E/DX2                !
 ! D78   D(2,13,21,25)         172.8523         estimate D2E/DX2                !
 ! D79   D(3,13,21,22)         179.9872         estimate D2E/DX2                !
 ! D80   D(3,13,21,25)          -2.3258         estimate D2E/DX2                !
 ! D81   D(53,14,38,2)         177.1661         estimate D2E/DX2                !
 ! D82   D(53,14,38,65)         -4.3195         estimate D2E/DX2                !
 ! D83   D(59,14,38,2)          -7.0541         estimate D2E/DX2                !
 ! D84   D(59,14,38,65)        171.4603         estimate D2E/DX2                !
 ! D85   D(38,14,53,54)       -178.8216         estimate D2E/DX2                !
 ! D86   D(38,14,53,57)          1.6246         estimate D2E/DX2                !
 ! D87   D(59,14,53,54)          4.9228         estimate D2E/DX2                !
 ! D88   D(59,14,53,57)       -174.631          estimate D2E/DX2                !
 ! D89   D(38,14,59,60)       -174.8593         estimate D2E/DX2                !
 ! D90   D(38,14,59,63)          3.6646         estimate D2E/DX2                !
 ! D91   D(53,14,59,60)          1.101          estimate D2E/DX2                !
 ! D92   D(53,14,59,63)        179.6249         estimate D2E/DX2                !
 ! D93   D(1,15,20,36)         174.7965         estimate D2E/DX2                !
 ! D94   D(1,15,20,43)          -6.379          estimate D2E/DX2                !
 ! D95   D(49,15,20,36)         -2.0321         estimate D2E/DX2                !
 ! D96   D(49,15,20,43)        176.7924         estimate D2E/DX2                !
 ! D97   D(1,15,49,50)           4.6504         estimate D2E/DX2                !
 ! D98   D(1,15,49,61)        -177.1014         estimate D2E/DX2                !
 ! D99   D(20,15,49,50)       -178.2175         estimate D2E/DX2                !
 ! D100  D(20,15,49,61)          0.0307         estimate D2E/DX2                !
 ! D101  D(17,16,27,9)        -178.8212         estimate D2E/DX2                !
 ! D102  D(17,16,27,39)          4.9214         estimate D2E/DX2                !
 ! D103  D(32,16,27,9)           1.6257         estimate D2E/DX2                !
 ! D104  D(32,16,27,39)       -174.6318         estimate D2E/DX2                !
 ! D105  D(17,16,32,33)          1.0603         estimate D2E/DX2                !
 ! D106  D(17,16,32,47)       -177.8467         estimate D2E/DX2                !
 ! D107  D(27,16,32,33)       -179.3933         estimate D2E/DX2                !
 ! D108  D(27,16,32,47)          1.6997         estimate D2E/DX2                !
 ! D109  D(5,18,34,6)           -0.7743         estimate D2E/DX2                !
 ! D110  D(5,18,34,35)         177.064          estimate D2E/DX2                !
 ! D111  D(19,18,34,6)        -179.4822         estimate D2E/DX2                !
 ! D112  D(19,18,34,35)         -1.6439         estimate D2E/DX2                !
 ! D113  D(15,20,36,37)       -178.8119         estimate D2E/DX2                !
 ! D114  D(15,20,36,41)          2.2078         estimate D2E/DX2                !
 ! D115  D(43,20,36,37)          2.2272         estimate D2E/DX2                !
 ! D116  D(43,20,36,41)       -176.753          estimate D2E/DX2                !
 ! D117  D(15,20,43,39)         -3.2511         estimate D2E/DX2                !
 ! D118  D(15,20,43,44)        179.2458         estimate D2E/DX2                !
 ! D119  D(36,20,43,39)        175.6232         estimate D2E/DX2                !
 ! D120  D(36,20,43,44)         -1.88           estimate D2E/DX2                !
 ! D121  D(13,21,25,12)         -0.773          estimate D2E/DX2                !
 ! D122  D(13,21,25,26)       -179.4833         estimate D2E/DX2                !
 ! D123  D(22,21,25,12)        177.0674         estimate D2E/DX2                !
 ! D124  D(22,21,25,26)         -1.6429         estimate D2E/DX2                !
 ! D125  D(2,23,24,45)         174.8052         estimate D2E/DX2                !
 ! D126  D(2,23,24,63)          -6.3627         estimate D2E/DX2                !
 ! D127  D(30,23,24,45)         -2.0254         estimate D2E/DX2                !
 ! D128  D(30,23,24,63)        176.8067         estimate D2E/DX2                !
 ! D129  D(2,23,30,31)           4.6442         estimate D2E/DX2                !
 ! D130  D(2,23,30,55)        -177.1084         estimate D2E/DX2                !
 ! D131  D(24,23,30,31)       -178.2216         estimate D2E/DX2                !
 ! D132  D(24,23,30,55)          0.0257         estimate D2E/DX2                !
 ! D133  D(23,24,45,46)       -178.8142         estimate D2E/DX2                !
 ! D134  D(23,24,45,51)          2.2047         estimate D2E/DX2                !
 ! D135  D(63,24,45,46)          2.2182         estimate D2E/DX2                !
 ! D136  D(63,24,45,51)       -176.7629         estimate D2E/DX2                !
 ! D137  D(23,24,63,59)         -3.2644         estimate D2E/DX2                !
 ! D138  D(23,24,63,64)        179.2317         estimate D2E/DX2                !
 ! D139  D(45,24,63,59)        175.6172         estimate D2E/DX2                !
 ! D140  D(45,24,63,64)         -1.8867         estimate D2E/DX2                !
 ! D141  D(9,27,39,40)        -174.8711         estimate D2E/DX2                !
 ! D142  D(9,27,39,43)           3.6481         estimate D2E/DX2                !
 ! D143  D(16,27,39,40)          1.0911         estimate D2E/DX2                !
 ! D144  D(16,27,39,43)        179.6103         estimate D2E/DX2                !
 ! D145  D(9,28,47,32)          -0.8558         estimate D2E/DX2                !
 ! D146  D(9,28,47,48)         179.2291         estimate D2E/DX2                !
 ! D147  D(29,28,47,32)       -179.8316         estimate D2E/DX2                !
 ! D148  D(29,28,47,48)          0.2534         estimate D2E/DX2                !
 ! D149  D(23,30,55,51)          1.9263         estimate D2E/DX2                !
 ! D150  D(23,30,55,56)       -178.3827         estimate D2E/DX2                !
 ! D151  D(31,30,55,51)       -179.7985         estimate D2E/DX2                !
 ! D152  D(31,30,55,56)         -0.1075         estimate D2E/DX2                !
 ! D153  D(16,32,47,28)         -2.1019         estimate D2E/DX2                !
 ! D154  D(16,32,47,48)        177.8122         estimate D2E/DX2                !
 ! D155  D(33,32,47,28)        178.9972         estimate D2E/DX2                !
 ! D156  D(33,32,47,48)         -1.0887         estimate D2E/DX2                !
 ! D157  D(20,36,41,42)        178.7346         estimate D2E/DX2                !
 ! D158  D(20,36,41,61)         -0.2481         estimate D2E/DX2                !
 ! D159  D(37,36,41,42)         -0.23           estimate D2E/DX2                !
 ! D160  D(37,36,41,61)       -179.2127         estimate D2E/DX2                !
 ! D161  D(2,38,65,66)           1.6633         estimate D2E/DX2                !
 ! D162  D(2,38,65,67)        -177.2969         estimate D2E/DX2                !
 ! D163  D(14,38,65,66)       -177.0017         estimate D2E/DX2                !
 ! D164  D(14,38,65,67)          4.038          estimate D2E/DX2                !
 ! D165  D(27,39,43,20)          4.6955         estimate D2E/DX2                !
 ! D166  D(27,39,43,44)       -177.8301         estimate D2E/DX2                !
 ! D167  D(40,39,43,20)       -176.8023         estimate D2E/DX2                !
 ! D168  D(40,39,43,44)          0.6722         estimate D2E/DX2                !
 ! D169  D(36,41,61,49)         -1.8127         estimate D2E/DX2                !
 ! D170  D(36,41,61,62)        178.4981         estimate D2E/DX2                !
 ! D171  D(42,41,61,49)        179.2082         estimate D2E/DX2                !
 ! D172  D(42,41,61,62)         -0.481          estimate D2E/DX2                !
 ! D173  D(24,45,51,52)        178.7334         estimate D2E/DX2                !
 ! D174  D(24,45,51,55)         -0.2506         estimate D2E/DX2                !
 ! D175  D(46,45,51,52)         -0.2321         estimate D2E/DX2                !
 ! D176  D(46,45,51,55)       -179.2161         estimate D2E/DX2                !
 ! D177  D(15,49,61,41)          1.9266         estimate D2E/DX2                !
 ! D178  D(15,49,61,62)       -178.3814         estimate D2E/DX2                !
 ! D179  D(50,49,61,41)       -179.7973         estimate D2E/DX2                !
 ! D180  D(50,49,61,62)         -0.1054         estimate D2E/DX2                !
 ! D181  D(45,51,55,30)         -1.8084         estimate D2E/DX2                !
 ! D182  D(45,51,55,56)        178.5033         estimate D2E/DX2                !
 ! D183  D(52,51,55,30)        179.2112         estimate D2E/DX2                !
 ! D184  D(52,51,55,56)         -0.477          estimate D2E/DX2                !
 ! D185  D(14,53,57,58)       -179.3914         estimate D2E/DX2                !
 ! D186  D(14,53,57,67)          1.7032         estimate D2E/DX2                !
 ! D187  D(54,53,57,58)          1.0616         estimate D2E/DX2                !
 ! D188  D(54,53,57,67)       -177.8438         estimate D2E/DX2                !
 ! D189  D(53,57,67,65)         -2.1036         estimate D2E/DX2                !
 ! D190  D(53,57,67,68)        177.8099         estimate D2E/DX2                !
 ! D191  D(58,57,67,65)        178.9971         estimate D2E/DX2                !
 ! D192  D(58,57,67,68)         -1.0894         estimate D2E/DX2                !
 ! D193  D(14,59,63,24)          4.6877         estimate D2E/DX2                !
 ! D194  D(14,59,63,64)       -177.837          estimate D2E/DX2                !
 ! D195  D(60,59,63,24)       -176.8054         estimate D2E/DX2                !
 ! D196  D(60,59,63,64)          0.6699         estimate D2E/DX2                !
 ! D197  D(38,65,67,57)         -0.8583         estimate D2E/DX2                !
 ! D198  D(38,65,67,68)        179.2272         estimate D2E/DX2                !
 ! D199  D(66,65,67,57)       -179.8327         estimate D2E/DX2                !
 ! D200  D(66,65,67,68)          0.2528         estimate D2E/DX2                !
 --------------------------------------------------------------------------------
 Trust Radius=3.00D-01 FncErr=1.00D-07 GrdErr=1.00D-07 EigMax=2.50D+02 EigMin=1.00D-04
 Number of steps in this run=    408 maximum allowed number of steps=    408.
 GradGradGradGradGradGradGradGradGradGradGradGradGradGradGradGradGradGrad

 Leave Link  103 at Fri Nov 15 13:16:14 2024, MaxMem=  3221225472 cpu:               0.5 elap:               0.1
 (Enter /home/szhao/Apps/g16/l202.exe)
 Symmetry turned off by external request.
 Stoichiometry    C42H26(1+,2)
 Framework group  C1[X(C42H26)]
 Deg. of freedom   198
 Full point group                 C1      NOp   1
                          Input orientation:                          
 ---------------------------------------------------------------------
 Center     Atomic      Atomic             Coordinates (Angstroms)
 Number     Number       Type             X           Y           Z
 ---------------------------------------------------------------------
      1          6           0       -1.840359    0.000000    0.000000
      2          6           0        1.840359    0.000000    0.000000
      3          6           0       -0.000010   -2.055451   -0.002184
      4          6           0       -0.000020   -3.456634   -0.003710
      5          6           0       -1.270818   -4.289647    0.193419
      6          6           0       -1.483288   -1.466233    0.164197
      7          6           0        0.745482   -5.682733   -0.125007
      8          1           0        1.455027   -6.551030   -0.242070
      9          6           0       -1.863252    0.764457    1.220742
     10          6           0       -0.745559   -5.682983    0.112786
     11          1           0       -1.455091   -6.551521    0.228106
     12          6           0        1.270762   -4.289231   -0.202632
     13          6           0        1.483266   -1.465884   -0.167278
     14          6           0        2.003067    2.191689   -1.337699
     15          6           0       -1.966828    0.409539   -1.374206
     16          6           0       -2.065680    2.769085    2.622853
     17          1           0       -2.191190    3.845145    2.688688
     18          6           0       -2.633588   -3.703086    0.413341
     19          1           0       -3.645418   -4.279511    0.582570
     20          6           0       -1.958129    1.756831   -1.868677
     21          6           0        2.704663   -2.286494   -0.388463
     22          1           0        3.792390   -1.813287   -0.507090
     23          6           0        1.966864    0.406656    1.375059
     24          6           0        1.958171    1.752903    1.872363
     25          6           0        2.633572   -3.702206   -0.421138
     26          1           0        3.645412   -4.278272   -0.591538
     27          6           0       -2.003312    2.188865    1.342294
     28          6           0       -1.700766    0.042250    2.442549
     29          1           0       -1.541921   -1.027025    2.407712
     30          6           0        2.046288   -0.627903    2.361952
     31          1           0        2.085609   -1.659064    2.045215
     32          6           0       -1.964517    2.024078    3.780174
     33          1           0       -2.027159    2.507080    4.748151
     34          6           0       -2.704670   -2.287304    0.383723
     35          1           0       -3.792385   -1.814344    0.503427
     36          6           0       -1.982574    1.980253   -3.260088
     37          1           0       -1.955538    3.006029   -3.609195
     38          6           0        1.863210    0.767018   -1.219141
     39          6           0       -2.005495    3.135944    0.259241
     40          1           0       -2.036311    4.171433    0.584311
     41          6           0       -2.059390    0.955189   -4.175457
     42          1           0       -2.096407    1.170032   -5.236696
     43          6           0       -1.949767    2.955425   -1.075789
     44          1           0       -1.930915    3.867843   -1.664237
     45          6           0        1.982841    1.973399    3.264238
     46          1           0        1.955842    2.998438    3.615508
     47          6           0       -1.757331    0.643594    3.679794
     48          1           0       -1.638573    0.037732    4.571517
     49          6           0       -2.046170   -0.622940   -2.363279
     50          1           0       -2.085560   -1.654761   -2.048702
     51          6           0        2.059811    0.946413    4.177442
     52          1           0        2.097021    1.159031    5.239123
     53          6           0        2.065438    2.774604   -2.617034
     54          1           0        2.190786    3.850816   -2.680597
     55          6           0        2.110733   -0.372373    3.710023
     56          1           0        2.195988   -1.198377    4.406618
     57          6           0        1.964486    2.032016   -3.775921
     58          1           0        2.027153    2.517055   -4.742877
     59          6           0        2.004994    3.136493   -0.252656
     60          1           0        2.035483    4.172670   -0.575551
     61          6           0       -2.110433   -0.364574   -3.710816
     62          1           0       -2.195656   -1.189109   -4.409153
     63          6           0        1.949447    2.953160    1.081996
     64          1           0        1.930430    3.864337    1.672360
     65          6           0        1.700848    0.047364   -2.442465
     66          1           0        1.542100   -1.021994   -2.409882
     67          6           0        1.757444    0.651304   -3.678443
     68          1           0        1.638814    0.047297   -4.571438
 ---------------------------------------------------------------------
 Rotational constants (GHZ):           0.1105055           0.0971892           0.0858099
 Leave Link  202 at Fri Nov 15 13:16:14 2024, MaxMem=  3221225472 cpu:               0.3 elap:               0.0
 (Enter /home/szhao/Apps/g16/l301.exe)
 Standard basis: 6-311+G(d,p) (5D, 7F)
 Ernie: Thresh=  0.10000D-02 Tol=  0.10000D-05 Strict=F.
  1080 basis functions,  1720 primitive gaussians,  1122 cartesian basis functions
   139 alpha electrons      138 beta electrons
       nuclear repulsion energy      4700.9703070973 Hartrees.
 IExCor= 4336 DFT=T Ex+Corr=M062X ExCW=0 ScaHFX=  0.540000
 ScaDFX=  1.000000  1.000000  1.000000  1.000000 ScalE2=  1.000000  1.000000
 IRadAn=      7 IRanWt=     -1 IRanGd=            0 ICorTp=0 IEmpDi=  4
 NAtoms=   68 NActive=   68 NUniq=   68 SFac= 1.00D+00 NAtFMM=   60 NAOKFM=T Big=T
 Integral buffers will be    131072 words long.
 Raffenetti 2 integral format.
 Two-electron integral symmetry is turned off.
 Leave Link  301 at Fri Nov 15 13:16:14 2024, MaxMem=  3221225472 cpu:               1.5 elap:               0.1
 (Enter /home/szhao/Apps/g16/l302.exe)
 NPDir=0 NMtPBC=     1 NCelOv=     1 NCel=       1 NClECP=     1 NCelD=      1
         NCelK=      1 NCelE2=     1 NClLst=     1 CellRange=     0.0.
 One-electron integrals computed using PRISM.
 NBasis=  1080 RedAO= T EigKep=  1.25D-06  NBF=  1080
 NBsUse=  1054 1.00D-06 EigRej=  7.38D-07 NBFU=  1054
 Precomputing XC quadrature grid using
 IXCGrd= 4 IRadAn=           7 IRanWt=          -1 IRanGd=           0 AccXCQ= 0.00D+00.
 Generated NRdTot=       0 NPtTot=           0 NUsed=           0 NTot=          32
 NSgBfM=  1115  1113  1114  1114  1115 MxSgAt=    68 MxSgA2=    68.
 Leave Link  302 at Fri Nov 15 13:16:17 2024, MaxMem=  3221225472 cpu:              80.9 elap:               2.9
 (Enter /home/szhao/Apps/g16/l303.exe)
 DipDrv:  MaxL=1.
 Leave Link  303 at Fri Nov 15 13:16:18 2024, MaxMem=  3221225472 cpu:               5.6 elap:               0.3
 (Enter /home/szhao/Apps/g16/l401.exe)
 ExpMin= 4.38D-02 ExpMax= 4.56D+03 ExpMxC= 6.82D+02 IAcc=3 IRadAn=         7 AccDes= 0.00D+00
 Harris functional with IExCor= 1009 and IRadAn=       7 diagonalized for initial guess.
 HarFok:  IExCor= 1009 AccDes= 0.00D+00 IRadAn=         7 IDoV= 1 UseB2=F ITyADJ=14
 ICtDFT=  3500011 ScaDFX=  1.000000  1.000000  1.000000  1.000000
 FoFCou: FMM=F IPFlag=           0 FMFlag=      100000 FMFlg1=        2001
         NFxFlg=           0 DoJE=T BraDBF=F KetDBF=T FulRan=T
         wScrn=  0.000000 ICntrl=       500 IOpCl=  0 I1Cent=   200000004 NGrid=           0
         NMat0=    1 NMatS0=      1 NMatT0=    0 NMatD0=    1 NMtDS0=    0 NMtDT0=    0
 Symmetry not used in FoFCou.
 Harris En= -1614.49090577218    
 JPrj=0 DoOrth=F DoCkMO=F.
 Initial guess <Sx>= 0.0000 <Sy>= 0.0000 <Sz>= 0.5000 <S**2>= 0.7500 S= 0.5000
 Leave Link  401 at Fri Nov 15 13:16:32 2024, MaxMem=  3221225472 cpu:             376.9 elap:              13.5
 (Enter /home/szhao/Apps/g16/l502.exe)
 Two-electron integral symmetry not used.
 UHF open shell SCF:
 Using DIIS extrapolation, IDIIS=  1040.
 NGot=  3221225472 LenX=  3218668534 LenY=  3217408528
 Requested convergence on RMS density matrix=1.00D-08 within 128 cycles.
 Requested convergence on MAX density matrix=1.00D-06.
 Requested convergence on             energy=1.00D-06.
 No special actions if energy rises.
 Fock matrices will be formed incrementally for  20 cycles.

 Cycle   1  Pass 1  IDiag  1:
 FoFJK:  IHMeth= 1 ICntrl=       0 DoSepK=F KAlg= 0 I1Cent=           0 FoldK=F
 IRaf= 870000000 NMat=       1 IRICut=       1 DoRegI=T DoRafI=F ISym2E= 0 IDoP0=0 IntGTp=1.
 FoFCou: FMM=T IPFlag=           0 FMFlag=      100000 FMFlg1=        2001
         NFxFlg=           0 DoJE=F BraDBF=F KetDBF=F FulRan=T
         wScrn=  0.000000 ICntrl=         0 IOpCl=  1 I1Cent=           0 NGrid=           0
         NMat0=    1 NMatS0=      1 NMatT0=    0 NMatD0=    1 NMtDS0=    0 NMtDT0=    0
 Symmetry not used in FoFCou.
 FMM levels:  10  Number of levels for PrismC:   9
 E= -1614.66540653280    
 DIIS: error= 2.37D-02 at cycle   1 NSaved=   1.
 NSaved= 1 IEnMin= 1 EnMin= -1614.66540653280     IErMin= 1 ErrMin= 2.37D-02
 ErrMax= 2.37D-02  0.00D+00 EMaxC= 1.00D-01 BMatC= 3.53D+00 BMatP= 3.53D+00
 IDIUse=3 WtCom= 7.63D-01 WtEn= 2.37D-01
 Coeff-Com:  0.100D+01
 Coeff-En:   0.100D+01
 Coeff:      0.100D+01
 Gap=     0.074 Goal=   None    Shift=    0.000
 Gap=     0.113 Goal=   None    Shift=    0.000
 GapD=    0.074 DampG=0.500 DampE=0.500 DampFc=0.2500 IDamp=-1.
 Damping current iteration by 2.50D-01
 RMSDP=2.19D-02 MaxDP=1.75D+00              OVMax= 2.65D-01

 Cycle   2  Pass 1  IDiag  1:
 RMSU=  4.65D-03    CP:  9.49D-01
 E= -1614.90636354281     Delta-E=       -0.240957010010 Rises=F Damp=T
 DIIS: error= 1.52D-02 at cycle   2 NSaved=   2.
 NSaved= 2 IEnMin= 2 EnMin= -1614.90636354281     IErMin= 2 ErrMin= 1.52D-02
 ErrMax= 1.52D-02  0.00D+00 EMaxC= 1.00D-01 BMatC= 1.38D+00 BMatP= 3.53D+00
 IDIUse=3 WtCom= 8.48D-01 WtEn= 1.52D-01
 Coeff-Com: -0.126D+01 0.226D+01
 Coeff-En:   0.000D+00 0.100D+01
 Coeff:     -0.107D+01 0.207D+01
 Gap=     0.084 Goal=   None    Shift=    0.000
 Gap=     0.176 Goal=   None    Shift=    0.000
 RMSDP=1.92D-02 MaxDP=2.16D+00 DE=-2.41D-01 OVMax= 3.16D-01

 Cycle   3  Pass 1  IDiag  1:
 RMSU=  9.56D-03    CP:  6.63D-01  1.72D+00
 E= -1615.23222986752     Delta-E=       -0.325866324714 Rises=F Damp=F
 DIIS: error= 2.21D-02 at cycle   3 NSaved=   3.
 NSaved= 3 IEnMin= 3 EnMin= -1615.23222986752     IErMin= 2 ErrMin= 1.52D-02
 ErrMax= 2.21D-02  0.00D+00 EMaxC= 1.00D-01 BMatC= 5.85D-01 BMatP= 1.38D+00
 IDIUse=3 WtCom= 7.79D-01 WtEn= 2.21D-01
 Coeff-Com: -0.841D+00 0.137D+01 0.473D+00
 Coeff-En:   0.000D+00 0.000D+00 0.100D+01
 Coeff:     -0.655D+00 0.107D+01 0.589D+00
 Gap=     0.078 Goal=   None    Shift=    0.000
 Gap=     0.130 Goal=   None    Shift=    0.000
 RMSDP=7.90D-03 MaxDP=4.35D-01 DE=-3.26D-01 OVMax= 2.56D-01

 Cycle   4  Pass 1  IDiag  1:
 RMSU=  5.99D-03    CP:  6.64D-01  2.59D+00  6.62D-01
 E= -1615.30505776006     Delta-E=       -0.072827892536 Rises=F Damp=F
 DIIS: error= 1.69D-02 at cycle   4 NSaved=   4.
 NSaved= 4 IEnMin= 4 EnMin= -1615.30505776006     IErMin= 2 ErrMin= 1.52D-02
 ErrMax= 1.69D-02  0.00D+00 EMaxC= 1.00D-01 BMatC= 3.32D-01 BMatP= 5.85D-01
 IDIUse=3 WtCom= 8.31D-01 WtEn= 1.69D-01
 Coeff-Com: -0.161D+00 0.260D+00 0.425D+00 0.476D+00
 Coeff-En:   0.000D+00 0.000D+00 0.396D+00 0.604D+00
 Coeff:     -0.134D+00 0.216D+00 0.420D+00 0.498D+00
 Gap=     0.074 Goal=   None    Shift=    0.000
 Gap=     0.136 Goal=   None    Shift=    0.000
 RMSDP=5.32D-03 MaxDP=3.89D-01 DE=-7.28D-02 OVMax= 1.21D-01

 Cycle   5  Pass 1  IDiag  1:
 RMSU=  2.04D-03    CP:  6.48D-01  2.00D+00  6.94D-01  3.33D-01
 E= -1615.39755505215     Delta-E=       -0.092497292090 Rises=F Damp=F
 DIIS: error= 1.36D-03 at cycle   5 NSaved=   5.
 NSaved= 5 IEnMin= 5 EnMin= -1615.39755505215     IErMin= 5 ErrMin= 1.36D-03
 ErrMax= 1.36D-03  0.00D+00 EMaxC= 1.00D-01 BMatC= 3.85D-03 BMatP= 3.32D-01
 IDIUse=3 WtCom= 9.86D-01 WtEn= 1.36D-02
 Coeff-Com: -0.124D-01 0.200D-01 0.149D+00 0.214D+00 0.629D+00
 Coeff-En:   0.000D+00 0.000D+00 0.000D+00 0.000D+00 0.100D+01
 Coeff:     -0.123D-01 0.197D-01 0.147D+00 0.211D+00 0.634D+00
 Gap=     0.074 Goal=   None    Shift=    0.000
 Gap=     0.135 Goal=   None    Shift=    0.000
 RMSDP=9.04D-04 MaxDP=1.18D-01 DE=-9.25D-02 OVMax= 1.45D-02

 Cycle   6  Pass 1  IDiag  1:
 RMSU=  6.70D-04    CP:  6.41D-01  2.03D+00  7.07D-01  3.45D-01  8.07D-01
 E= -1615.39845193972     Delta-E=       -0.000896887575 Rises=F Damp=F
 DIIS: error= 7.78D-04 at cycle   6 NSaved=   6.
 NSaved= 6 IEnMin= 6 EnMin= -1615.39845193972     IErMin= 6 ErrMin= 7.78D-04
 ErrMax= 7.78D-04  0.00D+00 EMaxC= 1.00D-01 BMatC= 9.08D-04 BMatP= 3.85D-03
 IDIUse=3 WtCom= 9.92D-01 WtEn= 7.78D-03
 Coeff-Com:  0.104D-01-0.168D-01 0.946D-02 0.257D-01 0.342D+00 0.629D+00
 Coeff-En:   0.000D+00 0.000D+00 0.000D+00 0.000D+00 0.141D+00 0.859D+00
 Coeff:      0.103D-01-0.167D-01 0.939D-02 0.255D-01 0.340D+00 0.631D+00
 Gap=     0.074 Goal=   None    Shift=    0.000
 Gap=     0.135 Goal=   None    Shift=    0.000
 RMSDP=5.13D-04 MaxDP=6.94D-02 DE=-8.97D-04 OVMax= 6.79D-03

 Cycle   7  Pass 1  IDiag  1:
 RMSU=  2.64D-04    CP:  6.45D-01  2.03D+00  7.07D-01  3.73D-01  9.14D-01
                    CP:  6.60D-01
 E= -1615.39873942564     Delta-E=       -0.000287485920 Rises=F Damp=F
 DIIS: error= 2.79D-04 at cycle   7 NSaved=   7.
 NSaved= 7 IEnMin= 7 EnMin= -1615.39873942564     IErMin= 7 ErrMin= 2.79D-04
 ErrMax= 2.79D-04  0.00D+00 EMaxC= 1.00D-01 BMatC= 1.18D-04 BMatP= 9.08D-04
 IDIUse=3 WtCom= 9.97D-01 WtEn= 2.79D-03
 Coeff-Com:  0.536D-02-0.861D-02-0.123D-01-0.138D-01 0.976D-01 0.319D+00
 Coeff-Com:  0.613D+00
 Coeff-En:   0.000D+00 0.000D+00 0.000D+00 0.000D+00 0.000D+00 0.000D+00
 Coeff-En:   0.100D+01
 Coeff:      0.534D-02-0.859D-02-0.122D-01-0.137D-01 0.973D-01 0.318D+00
 Coeff:      0.614D+00
 Gap=     0.074 Goal=   None    Shift=    0.000
 Gap=     0.136 Goal=   None    Shift=    0.000
 RMSDP=1.63D-04 MaxDP=1.81D-02 DE=-2.87D-04 OVMax= 2.58D-03

 Cycle   8  Pass 1  IDiag  1:
 RMSU=  1.01D-04    CP:  6.45D-01  2.03D+00  7.03D-01  3.63D-01  9.21D-01
                    CP:  7.97D-01  1.10D+00
 E= -1615.39879439739     Delta-E=       -0.000054971745 Rises=F Damp=F
 DIIS: error= 1.91D-04 at cycle   8 NSaved=   8.
 NSaved= 8 IEnMin= 8 EnMin= -1615.39879439739     IErMin= 8 ErrMin= 1.91D-04
 ErrMax= 1.91D-04  0.00D+00 EMaxC= 1.00D-01 BMatC= 2.00D-05 BMatP= 1.18D-04
 IDIUse=3 WtCom= 9.98D-01 WtEn= 1.91D-03
 Coeff-Com: -0.643D-03 0.104D-02-0.795D-02-0.139D-01-0.549D-01-0.474D-01
 Coeff-Com:  0.204D+00 0.920D+00
 Coeff-En:   0.000D+00 0.000D+00 0.000D+00 0.000D+00 0.000D+00 0.000D+00
 Coeff-En:   0.000D+00 0.100D+01
 Coeff:     -0.641D-03 0.104D-02-0.794D-02-0.139D-01-0.548D-01-0.473D-01
 Coeff:      0.204D+00 0.920D+00
 Gap=     0.074 Goal=   None    Shift=    0.000
 Gap=     0.136 Goal=   None    Shift=    0.000
 RMSDP=1.50D-04 MaxDP=1.78D-02 DE=-5.50D-05 OVMax= 3.00D-03

 Cycle   9  Pass 1  IDiag  1:
 RMSU=  4.43D-05    CP:  6.44D-01  2.03D+00  7.03D-01  3.67D-01  9.45D-01
                    CP:  8.42D-01  1.53D+00  1.60D+00
 E= -1615.39882040200     Delta-E=       -0.000026004608 Rises=F Damp=F
 DIIS: error= 9.13D-05 at cycle   9 NSaved=   9.
 NSaved= 9 IEnMin= 9 EnMin= -1615.39882040200     IErMin= 9 ErrMin= 9.13D-05
 ErrMax= 9.13D-05  0.00D+00 EMaxC= 1.00D-01 BMatC= 5.76D-06 BMatP= 2.00D-05
 IDIUse=1 WtCom= 1.00D+00 WtEn= 0.00D+00
 Coeff-Com: -0.120D-02 0.193D-02 0.224D-02 0.187D-02-0.398D-01-0.112D+00
 Coeff-Com: -0.177D+00 0.167D+00 0.116D+01
 Coeff:     -0.120D-02 0.193D-02 0.224D-02 0.187D-02-0.398D-01-0.112D+00
 Coeff:     -0.177D+00 0.167D+00 0.116D+01
 Gap=     0.074 Goal=   None    Shift=    0.000
 Gap=     0.137 Goal=   None    Shift=    0.000
 RMSDP=1.54D-04 MaxDP=2.10D-02 DE=-2.60D-05 OVMax= 2.66D-03

 Cycle  10  Pass 1  IDiag  1:
 RMSU=  3.71D-05    CP:  6.45D-01  2.03D+00  7.03D-01  3.70D-01  9.63D-01
                    CP:  8.85D-01  1.94D+00  2.28D+00  2.15D+00
 E= -1615.39883210992     Delta-E=       -0.000011707927 Rises=F Damp=F
 DIIS: error= 5.24D-05 at cycle  10 NSaved=  10.
 NSaved=10 IEnMin=10 EnMin= -1615.39883210992     IErMin=10 ErrMin= 5.24D-05
 ErrMax= 5.24D-05  0.00D+00 EMaxC= 1.00D-01 BMatC= 1.88D-06 BMatP= 5.76D-06
 IDIUse=1 WtCom= 1.00D+00 WtEn= 0.00D+00
 Coeff-Com: -0.293D-03 0.484D-03 0.327D-02 0.499D-02-0.286D-02-0.404D-01
 Coeff-Com: -0.142D+00-0.169D+00 0.536D+00 0.810D+00
 Coeff:     -0.293D-03 0.484D-03 0.327D-02 0.499D-02-0.286D-02-0.404D-01
 Coeff:     -0.142D+00-0.169D+00 0.536D+00 0.810D+00
 Gap=     0.074 Goal=   None    Shift=    0.000
 Gap=     0.137 Goal=   None    Shift=    0.000
 RMSDP=9.60D-05 MaxDP=1.56D-02 DE=-1.17D-05 OVMax= 1.38D-03

 Cycle  11  Pass 1  IDiag  1:
 RMSU=  2.84D-05    CP:  6.45D-01  2.03D+00  7.03D-01  3.73D-01  9.75D-01
                    CP:  8.94D-01  2.16D+00  2.68D+00  3.00D+00  1.81D+00
 E= -1615.39883487156     Delta-E=       -0.000002761632 Rises=F Damp=F
 DIIS: error= 2.67D-05 at cycle  11 NSaved=  11.
 NSaved=11 IEnMin=11 EnMin= -1615.39883487156     IErMin=11 ErrMin= 2.67D-05
 ErrMax= 2.67D-05  0.00D+00 EMaxC= 1.00D-01 BMatC= 4.55D-07 BMatP= 1.88D-06
 IDIUse=1 WtCom= 1.00D+00 WtEn= 0.00D+00
 Coeff-Com:  0.963D-04-0.149D-03 0.833D-03 0.167D-02 0.893D-02 0.122D-01
 Coeff-Com: -0.656D-02-0.952D-01-0.976D-01 0.251D+00 0.925D+00
 Coeff:      0.963D-04-0.149D-03 0.833D-03 0.167D-02 0.893D-02 0.122D-01
 Coeff:     -0.656D-02-0.952D-01-0.976D-01 0.251D+00 0.925D+00
 Gap=     0.074 Goal=   None    Shift=    0.000
 Gap=     0.137 Goal=   None    Shift=    0.000
 RMSDP=7.38D-05 MaxDP=1.31D-02 DE=-2.76D-06 OVMax= 9.00D-04

 Cycle  12  Pass 1  IDiag  1:
 RMSU=  3.49D-05    CP:  6.45D-01  2.03D+00  7.03D-01  3.76D-01  9.82D-01
                    CP:  8.91D-01  2.29D+00  2.88D+00  3.00D+00  2.75D+00
                    CP:  2.02D+00
 E= -1615.39883562257     Delta-E=       -0.000000751009 Rises=F Damp=F
 DIIS: error= 1.21D-05 at cycle  12 NSaved=  12.
 NSaved=12 IEnMin=12 EnMin= -1615.39883562257     IErMin=12 ErrMin= 1.21D-05
 ErrMax= 1.21D-05  0.00D+00 EMaxC= 1.00D-01 BMatC= 2.60D-07 BMatP= 4.55D-07
 IDIUse=1 WtCom= 1.00D+00 WtEn= 0.00D+00
 Coeff-Com:  0.179D-03-0.290D-03-0.903D-03-0.103D-02 0.700D-02 0.252D-01
 Coeff-Com:  0.559D-01 0.134D-01-0.284D+00-0.202D+00 0.606D+00 0.781D+00
 Coeff:      0.179D-03-0.290D-03-0.903D-03-0.103D-02 0.700D-02 0.252D-01
 Coeff:      0.559D-01 0.134D-01-0.284D+00-0.202D+00 0.606D+00 0.781D+00
 Gap=     0.074 Goal=   None    Shift=    0.000
 Gap=     0.137 Goal=   None    Shift=    0.000
 RMSDP=6.37D-05 MaxDP=1.10D-02 DE=-7.51D-07 OVMax= 5.69D-04

 Cycle  13  Pass 1  IDiag  1:
 RMSU=  2.61D-05    CP:  6.45D-01  2.03D+00  7.04D-01  3.77D-01  9.88D-01
                    CP:  8.86D-01  2.39D+00  3.00D+00  3.00D+00  3.00D+00
                    CP:  2.95D+00  1.90D+00
 E= -1615.39883591794     Delta-E=       -0.000000295371 Rises=F Damp=F
 DIIS: error= 7.68D-06 at cycle  13 NSaved=  13.
 NSaved=13 IEnMin=13 EnMin= -1615.39883591794     IErMin=13 ErrMin= 7.68D-06
 ErrMax= 7.68D-06  0.00D+00 EMaxC= 1.00D-01 BMatC= 4.59D-08 BMatP= 2.60D-07
 IDIUse=1 WtCom= 1.00D+00 WtEn= 0.00D+00
 Coeff-Com:  0.187D-04-0.408D-04-0.565D-03-0.746D-03 0.453D-03 0.674D-02
 Coeff-Com:  0.208D-01 0.237D-01-0.819D-01-0.136D+00 0.509D-01 0.253D+00
 Coeff-Com:  0.864D+00
 Coeff:      0.187D-04-0.408D-04-0.565D-03-0.746D-03 0.453D-03 0.674D-02
 Coeff:      0.208D-01 0.237D-01-0.819D-01-0.136D+00 0.509D-01 0.253D+00
 Coeff:      0.864D+00
 Gap=     0.074 Goal=   None    Shift=    0.000
 Gap=     0.137 Goal=   None    Shift=    0.000
 RMSDP=4.09D-05 MaxDP=7.15D-03 DE=-2.95D-07 OVMax= 2.38D-04

 Cycle  14  Pass 1  IDiag  1:
 RMSU=  1.78D-05    CP:  6.45D-01  2.03D+00  7.04D-01  3.78D-01  9.90D-01
                    CP:  8.82D-01  2.45D+00  3.00D+00  3.00D+00  3.00D+00
                    CP:  3.00D+00  2.48D+00  1.88D+00
 E= -1615.39883598054     Delta-E=       -0.000000062605 Rises=F Damp=F
 DIIS: error= 5.51D-06 at cycle  14 NSaved=  14.
 NSaved=14 IEnMin=14 EnMin= -1615.39883598054     IErMin=14 ErrMin= 5.51D-06
 ErrMax= 5.51D-06  0.00D+00 EMaxC= 1.00D-01 BMatC= 2.62D-08 BMatP= 4.59D-08
 IDIUse=1 WtCom= 1.00D+00 WtEn= 0.00D+00
 Coeff-Com: -0.644D-04 0.960D-04 0.239D-04 0.975D-05-0.286D-02-0.693D-02
 Coeff-Com: -0.126D-01 0.764D-02 0.776D-01 0.358D-02-0.214D+00-0.199D+00
 Coeff-Com:  0.495D+00 0.851D+00
 Coeff:     -0.644D-04 0.960D-04 0.239D-04 0.975D-05-0.286D-02-0.693D-02
 Coeff:     -0.126D-01 0.764D-02 0.776D-01 0.358D-02-0.214D+00-0.199D+00
 Coeff:      0.495D+00 0.851D+00
 Gap=     0.074 Goal=   None    Shift=    0.000
 Gap=     0.137 Goal=   None    Shift=    0.000
 RMSDP=3.51D-05 MaxDP=6.06D-03 DE=-6.26D-08 OVMax= 1.72D-04

 Cycle  15  Pass 1  IDiag  1:
 RMSU=  2.19D-06    CP:  6.45D-01  2.03D+00  7.04D-01  3.79D-01  9.93D-01
                    CP:  8.78D-01  2.50D+00  3.00D+00  3.00D+00  3.00D+00
                    CP:  3.00D+00  2.99D+00  2.64D+00  1.98D+00
 E= -1615.39883601411     Delta-E=       -0.000000033570 Rises=F Damp=F
 DIIS: error= 4.07D-06 at cycle  15 NSaved=  15.
 NSaved=15 IEnMin=15 EnMin= -1615.39883601411     IErMin=15 ErrMin= 4.07D-06
 ErrMax= 4.07D-06  0.00D+00 EMaxC= 1.00D-01 BMatC= 7.19D-09 BMatP= 2.62D-08
 IDIUse=1 WtCom= 1.00D+00 WtEn= 0.00D+00
 Coeff-Com: -0.652D-05 0.159D-04 0.196D-03 0.263D-03-0.582D-03-0.327D-02
 Coeff-Com: -0.871D-02-0.797D-02 0.387D-01 0.513D-01-0.402D-01-0.121D+00
 Coeff-Com: -0.279D+00 0.105D+00 0.127D+01
 Coeff:     -0.652D-05 0.159D-04 0.196D-03 0.263D-03-0.582D-03-0.327D-02
 Coeff:     -0.871D-02-0.797D-02 0.387D-01 0.513D-01-0.402D-01-0.121D+00
 Coeff:     -0.279D+00 0.105D+00 0.127D+01
 Gap=     0.074 Goal=   None    Shift=    0.000
 Gap=     0.137 Goal=   None    Shift=    0.000
 RMSDP=3.15D-05 MaxDP=5.44D-03 DE=-3.36D-08 OVMax= 1.56D-04

 Cycle  16  Pass 1  IDiag  1:
 RMSU=  1.75D-05    CP:  6.45D-01  2.03D+00  7.05D-01  3.80D-01  9.95D-01
                    CP:  8.75D-01  2.54D+00  3.00D+00  3.00D+00  3.00D+00
                    CP:  3.00D+00  3.00D+00  3.00D+00  2.83D+00  1.90D+00
 E= -1615.39883603382     Delta-E=       -0.000000019709 Rises=F Damp=F
 DIIS: error= 2.65D-06 at cycle  16 NSaved=  16.
 NSaved=16 IEnMin=16 EnMin= -1615.39883603382     IErMin=16 ErrMin= 2.65D-06
 ErrMax= 2.65D-06  0.00D+00 EMaxC= 1.00D-01 BMatC= 4.39D-09 BMatP= 7.19D-09
 IDIUse=1 WtCom= 1.00D+00 WtEn= 0.00D+00
 Coeff-Com:  0.225D-04-0.293D-04 0.115D-03 0.153D-03 0.761D-03 0.666D-03
 Coeff-Com: -0.327D-03-0.742D-02-0.692D-02 0.295D-01 0.498D-01 0.771D-02
 Coeff-Com: -0.338D+00-0.223D+00 0.702D+00 0.785D+00
 Coeff:      0.225D-04-0.293D-04 0.115D-03 0.153D-03 0.761D-03 0.666D-03
 Coeff:     -0.327D-03-0.742D-02-0.692D-02 0.295D-01 0.498D-01 0.771D-02
 Coeff:     -0.338D+00-0.223D+00 0.702D+00 0.785D+00
 Gap=     0.074 Goal=   None    Shift=    0.000
 Gap=     0.137 Goal=   None    Shift=    0.000
 RMSDP=1.63D-05 MaxDP=2.84D-03 DE=-1.97D-08 OVMax= 9.59D-05

 Cycle  17  Pass 1  IDiag  1:
 RMSU=  6.24D-06    CP:  6.45D-01  2.03D+00  7.05D-01  3.80D-01  9.97D-01
                    CP:  8.73D-01  2.57D+00  3.00D+00  3.00D+00  3.00D+00
                    CP:  3.00D+00  3.00D+00  3.00D+00  3.00D+00  2.38D+00
                    CP:  1.66D+00
 E= -1615.39883604209     Delta-E=       -0.000000008269 Rises=F Damp=F
 DIIS: error= 2.02D-06 at cycle  17 NSaved=  17.
 NSaved=17 IEnMin=17 EnMin= -1615.39883604209     IErMin=17 ErrMin= 2.02D-06
 ErrMax= 2.02D-06  0.00D+00 EMaxC= 1.00D-01 BMatC= 2.33D-09 BMatP= 4.39D-09
 IDIUse=1 WtCom= 1.00D+00 WtEn= 0.00D+00
 Coeff-Com:  0.181D-04-0.269D-04-0.680D-05-0.237D-04 0.935D-03 0.223D-02
 Coeff-Com:  0.446D-02-0.846D-03-0.262D-01-0.495D-02 0.524D-01 0.775D-01
 Coeff-Com: -0.922D-01-0.200D+00-0.248D+00 0.524D+00 0.910D+00
 Coeff:      0.181D-04-0.269D-04-0.680D-05-0.237D-04 0.935D-03 0.223D-02
 Coeff:      0.446D-02-0.846D-03-0.262D-01-0.495D-02 0.524D-01 0.775D-01
 Coeff:     -0.922D-01-0.200D+00-0.248D+00 0.524D+00 0.910D+00
 Gap=     0.074 Goal=   None    Shift=    0.000
 Gap=     0.137 Goal=   None    Shift=    0.000
 RMSDP=1.35D-05 MaxDP=2.36D-03 DE=-8.27D-09 OVMax= 1.02D-04

 Cycle  18  Pass 1  IDiag  1:
 RMSU=  1.82D-06    CP:  6.45D-01  2.03D+00  7.05D-01  3.80D-01  9.98D-01
                    CP:  8.72D-01  2.59D+00  3.00D+00  3.00D+00  3.00D+00
                    CP:  3.00D+00  3.00D+00  3.00D+00  3.00D+00  2.70D+00
                    CP:  2.20D+00  2.13D+00
 E= -1615.39883604736     Delta-E=       -0.000000005274 Rises=F Damp=F
 DIIS: error= 1.23D-06 at cycle  18 NSaved=  18.
 NSaved=18 IEnMin=18 EnMin= -1615.39883604736     IErMin=18 ErrMin= 1.23D-06
 ErrMax= 1.23D-06  0.00D+00 EMaxC= 1.00D-01 BMatC= 1.18D-09 BMatP= 2.33D-09
 IDIUse=1 WtCom= 1.00D+00 WtEn= 0.00D+00
 Coeff-Com:  0.329D-05-0.643D-05-0.390D-04-0.666D-04 0.377D-03 0.118D-02
 Coeff-Com:  0.298D-02 0.209D-02-0.147D-01-0.127D-01 0.151D-01 0.511D-01
 Coeff-Com:  0.553D-01-0.465D-01-0.433D+00 0.470D-01 0.644D+00 0.688D+00
 Coeff:      0.329D-05-0.643D-05-0.390D-04-0.666D-04 0.377D-03 0.118D-02
 Coeff:      0.298D-02 0.209D-02-0.147D-01-0.127D-01 0.151D-01 0.511D-01
 Coeff:      0.553D-01-0.465D-01-0.433D+00 0.470D-01 0.644D+00 0.688D+00
 Gap=     0.074 Goal=   None    Shift=    0.000
 Gap=     0.137 Goal=   None    Shift=    0.000
 RMSDP=5.99D-06 MaxDP=1.07D-03 DE=-5.27D-09 OVMax= 6.06D-05

 Cycle  19  Pass 1  IDiag  1:
 RMSU=  3.81D-07    CP:  6.45D-01  2.03D+00  7.05D-01  3.81D-01  9.98D-01
                    CP:  8.72D-01  2.60D+00  3.00D+00  3.00D+00  3.00D+00
                    CP:  3.00D+00  3.00D+00  3.00D+00  3.00D+00  2.79D+00
                    CP:  2.43D+00  2.62D+00  1.41D+00
 E= -1615.39883604942     Delta-E=       -0.000000002060 Rises=F Damp=F
 DIIS: error= 9.84D-07 at cycle  19 NSaved=  19.
 NSaved=19 IEnMin=19 EnMin= -1615.39883604942     IErMin=19 ErrMin= 9.84D-07
 ErrMax= 9.84D-07  0.00D+00 EMaxC= 1.00D-01 BMatC= 3.32D-10 BMatP= 1.18D-09
 IDIUse=1 WtCom= 1.00D+00 WtEn= 0.00D+00
 Coeff-Com: -0.733D-05 0.981D-05-0.148D-04-0.203D-04-0.315D-03-0.702D-03
 Coeff-Com: -0.108D-02 0.143D-02 0.724D-02-0.312D-02-0.216D-01-0.159D-01
 Coeff-Com:  0.737D-01 0.894D-01-0.803D-01-0.268D+00-0.155D+00 0.358D+00
 Coeff-Com:  0.102D+01
 Coeff:     -0.733D-05 0.981D-05-0.148D-04-0.203D-04-0.315D-03-0.702D-03
 Coeff:     -0.108D-02 0.143D-02 0.724D-02-0.312D-02-0.216D-01-0.159D-01
 Coeff:      0.737D-01 0.894D-01-0.803D-01-0.268D+00-0.155D+00 0.358D+00
 Coeff:      0.102D+01
 Gap=     0.074 Goal=   None    Shift=    0.000
 Gap=     0.137 Goal=   None    Shift=    0.000
 RMSDP=2.72D-06 MaxDP=4.87D-04 DE=-2.06D-09 OVMax= 4.86D-05

 Cycle  20  Pass 1  IDiag  1:
 RMSU=  3.31D-07    CP:  6.45D-01  2.03D+00  7.05D-01  3.81D-01  9.98D-01
                    CP:  8.72D-01  2.60D+00  3.00D+00  3.00D+00  3.00D+00
                    CP:  3.00D+00  3.00D+00  3.00D+00  3.00D+00  2.74D+00
                    CP:  2.52D+00  2.81D+00  1.63D+00  1.88D+00
 E= -1615.39883605029     Delta-E=       -0.000000000861 Rises=F Damp=F
 DIIS: error= 5.39D-07 at cycle  20 NSaved=  20.
 NSaved=20 IEnMin=20 EnMin= -1615.39883605029     IErMin=20 ErrMin= 5.39D-07
 ErrMax= 5.39D-07  0.00D+00 EMaxC= 1.00D-01 BMatC= 1.06D-10 BMatP= 3.32D-10
 IDIUse=1 WtCom= 1.00D+00 WtEn= 0.00D+00
 Coeff-Com: -0.287D-05 0.430D-05 0.120D-05 0.579D-05-0.184D-03-0.461D-03
 Coeff-Com: -0.921D-03 0.154D-05 0.529D-02 0.127D-02-0.842D-02-0.168D-01
 Coeff-Com:  0.919D-02 0.342D-01 0.777D-01-0.882D-01-0.192D+00-0.469D-01
 Coeff-Com:  0.314D+00 0.912D+00
 Coeff:     -0.287D-05 0.430D-05 0.120D-05 0.579D-05-0.184D-03-0.461D-03
 Coeff:     -0.921D-03 0.154D-05 0.529D-02 0.127D-02-0.842D-02-0.168D-01
 Coeff:      0.919D-02 0.342D-01 0.777D-01-0.882D-01-0.192D+00-0.469D-01
 Coeff:      0.314D+00 0.912D+00
 Gap=     0.074 Goal=   None    Shift=    0.000
 Gap=     0.137 Goal=   None    Shift=    0.000
 RMSDP=5.41D-07 MaxDP=7.11D-05 DE=-8.61D-10 OVMax= 2.03D-05

 Cycle  21  Pass 1  IDiag  1:
 Restarting incremental Fock formation.
 E= -1615.39883605056     Delta-E=       -0.000000000270 Rises=F Damp=F
 DIIS: error= 4.19D-07 at cycle  21 NSaved=  20.
 NSaved=20 IEnMin=20 EnMin= -1615.39883605056     IErMin=20 ErrMin= 4.19D-07
 ErrMax= 4.19D-07  0.00D+00 EMaxC= 1.00D-01 BMatC= 5.83D-11 BMatP= 1.06D-10
 IDIUse=1 WtCom= 1.00D+00 WtEn= 0.00D+00
 Coeff-Com:  0.843D-06 0.730D-05 0.117D-04 0.765D-04 0.198D-03 0.253D-03
 Coeff-Com: -0.703D-03-0.184D-02 0.142D-02 0.897D-02 0.921D-03-0.321D-01
[...]
              Baa    -0.0011    -0.152    -0.054    -0.051  0.9779  0.0337  0.2065
     5 C(13)  Bbb     0.0001     0.019     0.007     0.006 -0.1994  0.4494  0.8708
              Bcc     0.0010     0.132     0.047     0.044  0.0634  0.8927 -0.4462
 
              Baa    -0.0037    -0.495    -0.177    -0.165  0.0951  0.2124  0.9725
     6 C(13)  Bbb     0.0008     0.105     0.037     0.035  0.1265  0.9665 -0.2234
              Bcc     0.0029     0.390     0.139     0.130  0.9874 -0.1443 -0.0651
 
              Baa    -0.0006    -0.082    -0.029    -0.027 -0.6110 -0.1011  0.7852
     7 C(13)  Bbb    -0.0001    -0.007    -0.003    -0.002  0.7880  0.0180  0.6155
              Bcc     0.0007     0.089     0.032     0.030 -0.0763  0.9947  0.0687
 
              Baa    -0.0003    -0.174    -0.062    -0.058 -0.1489 -0.0742  0.9861
     8 H(1)   Bbb    -0.0003    -0.160    -0.057    -0.053  0.9795  0.1254  0.1574
              Bcc     0.0006     0.334     0.119     0.111 -0.1353  0.9893  0.0540
 
              Baa    -0.0447    -5.999    -2.141    -2.001  0.9130  0.3487 -0.2117
     9 C(13)  Bbb     0.0182     2.439     0.870     0.813 -0.4019  0.6803 -0.6128
              Bcc     0.0265     3.561     1.271     1.188 -0.0696  0.6446  0.7613
 
              Baa    -0.0006    -0.082    -0.029    -0.027 -0.6112  0.0992  0.7852
    10 C(13)  Bbb    -0.0001    -0.007    -0.003    -0.002  0.7879 -0.0184  0.6156
              Bcc     0.0007     0.089     0.032     0.030  0.0756  0.9949 -0.0669
 
              Baa    -0.0003    -0.174    -0.062    -0.058 -0.1489  0.0721  0.9862
    11 H(1)   Bbb    -0.0003    -0.160    -0.057    -0.053  0.9796 -0.1254  0.1571
              Bcc     0.0006     0.334     0.119     0.111  0.1350  0.9895 -0.0520
 
              Baa    -0.0011    -0.152    -0.054    -0.051  0.9778 -0.0337  0.2067
    12 C(13)  Bbb     0.0001     0.019     0.007     0.006 -0.1993 -0.4525  0.8692
              Bcc     0.0010     0.132     0.047     0.044 -0.0642  0.8911  0.4492
 
              Baa    -0.0037    -0.495    -0.177    -0.165  0.0951 -0.2139  0.9722
    13 C(13)  Bbb     0.0008     0.105     0.037     0.035 -0.1255  0.9663  0.2248
              Bcc     0.0029     0.390     0.139     0.130  0.9875  0.1434 -0.0650
 
              Baa    -0.0416    -5.585    -1.993    -1.863  0.3723  0.6905  0.6201
    14 C(13)  Bbb    -0.0397    -5.323    -1.899    -1.776 -0.0888 -0.6386  0.7644
              Bcc     0.0813    10.908     3.892     3.639  0.9239 -0.3397 -0.1764
 
              Baa    -0.0447    -6.003    -2.142    -2.002  0.9576  0.2657 -0.1117
    15 C(13)  Bbb     0.0176     2.368     0.845     0.790 -0.1989  0.8896  0.4111
              Bcc     0.0271     3.634     1.297     1.212  0.2086 -0.3714  0.9047
 
              Baa    -0.0255    -3.420    -1.221    -1.141  0.9137  0.3606 -0.1872
    16 C(13)  Bbb     0.0109     1.466     0.523     0.489 -0.3959  0.8936 -0.2113
              Bcc     0.0146     1.954     0.697     0.652  0.0911  0.2672  0.9593
 
              Baa    -0.0016    -0.851    -0.304    -0.284  0.7572  0.6126 -0.2267
    17 H(1)   Bbb    -0.0005    -0.269    -0.096    -0.090 -0.6531  0.7028 -0.2820
              Bcc     0.0021     1.120     0.400     0.374 -0.0134  0.3616  0.9322
 
              Baa    -0.0034    -0.458    -0.163    -0.153  0.2516 -0.0556  0.9662
    18 C(13)  Bbb    -0.0019    -0.254    -0.091    -0.085  0.9656 -0.0534 -0.2546
              Bcc     0.0053     0.712     0.254     0.237  0.0657  0.9970  0.0402
 
              Baa    -0.0008    -0.424    -0.151    -0.142  0.1383  0.0787  0.9873
    19 H(1)   Bbb    -0.0006    -0.320    -0.114    -0.107  0.8918 -0.4435 -0.0896
              Bcc     0.0014     0.744     0.265     0.248  0.4308  0.8928 -0.1315
 
              Baa    -0.0396    -5.320    -1.898    -1.774 -0.2423  0.8964  0.3711
    20 C(13)  Bbb    -0.0369    -4.950    -1.766    -1.651  0.0962 -0.3584  0.9286
              Bcc     0.0765    10.269     3.664     3.425  0.9654  0.2607  0.0006
 
              Baa    -0.0047    -0.637    -0.227    -0.212  0.9620  0.2494 -0.1113
    21 C(13)  Bbb    -0.0043    -0.579    -0.207    -0.193  0.1875 -0.3065  0.9332
              Bcc     0.0091     1.216     0.434     0.406 -0.1986  0.9186  0.3416
 
              Baa    -0.0032    -1.725    -0.615    -0.575  0.3060 -0.0403  0.9512
    22 H(1)   Bbb    -0.0020    -1.088    -0.388    -0.363  0.7066  0.6792 -0.1985
              Bcc     0.0053     2.812     1.003     0.938 -0.6381  0.7328  0.2363
 
              Baa    -0.0447    -5.995    -2.139    -2.000  0.9574 -0.2661 -0.1122
    23 C(13)  Bbb     0.0176     2.365     0.844     0.789  0.1994  0.8903 -0.4093
              Bcc     0.0271     3.630     1.295     1.211  0.2088  0.3695  0.9055
 
              Baa    -0.0396    -5.314    -1.896    -1.773  0.2432  0.8968 -0.3695
    24 C(13)  Bbb    -0.0368    -4.944    -1.764    -1.649  0.0961  0.3568  0.9292
              Bcc     0.0764    10.258     3.660     3.422  0.9652 -0.2615  0.0006
 
              Baa    -0.0034    -0.457    -0.163    -0.153  0.2516  0.0534  0.9664
    25 C(13)  Bbb    -0.0019    -0.254    -0.091    -0.085  0.9656  0.0540 -0.2544
              Bcc     0.0053     0.711     0.254     0.237 -0.0657  0.9971 -0.0380
 
              Baa    -0.0008    -0.424    -0.151    -0.141  0.1380 -0.0809  0.9871
    26 H(1)   Bbb    -0.0006    -0.319    -0.114    -0.107  0.8917  0.4438 -0.0883
              Bcc     0.0014     0.743     0.265     0.248 -0.4310  0.8925  0.1334
 
              Baa    -0.0417    -5.589    -1.994    -1.864 -0.3713  0.6923 -0.6187
    27 C(13)  Bbb    -0.0397    -5.326    -1.901    -1.777 -0.0886  0.6369  0.7658
              Bcc     0.0813    10.915     3.895     3.641  0.9243  0.3392 -0.1752
 
              Baa    -0.0364    -4.890    -1.745    -1.631 -0.4049  0.9092 -0.0973
    28 C(13)  Bbb    -0.0357    -4.793    -1.710    -1.599  0.1919  0.1885  0.9632
              Bcc     0.0722     9.683     3.455     3.230  0.8940  0.3713 -0.2507
 
              Baa    -0.0039    -2.081    -0.743    -0.694  0.3395  0.3195  0.8847
    29 H(1)   Bbb    -0.0000    -0.003    -0.001    -0.001  0.7931  0.4084 -0.4519
              Bcc     0.0039     2.084     0.744     0.695 -0.5057  0.8551 -0.1147
 
              Baa    -0.0287    -3.857    -1.376    -1.287  0.2316  0.9643  0.1282
    30 C(13)  Bbb    -0.0270    -3.619    -1.291    -1.207 -0.0004 -0.1317  0.9913
              Bcc     0.0557     7.476     2.667     2.494  0.9728 -0.2297 -0.0302
 
              Baa    -0.0025    -1.360    -0.485    -0.454 -0.3024  0.0475  0.9520
    31 H(1)   Bbb    -0.0007    -0.353    -0.126    -0.118  0.9516 -0.0421  0.3044
              Bcc     0.0032     1.713     0.611     0.571  0.0546  0.9980 -0.0325
 
              Baa    -0.0431    -5.778    -2.062    -1.927 -0.3918  0.7713 -0.5016
    32 C(13)  Bbb    -0.0383    -5.134    -1.832    -1.713 -0.0064  0.5429  0.8397
              Bcc     0.0813    10.912     3.894     3.640  0.9200  0.3322 -0.2078
 
              Baa    -0.0062    -3.335    -1.190    -1.112 -0.3632  0.7998 -0.4780
    33 H(1)   Bbb    -0.0006    -0.337    -0.120    -0.112  0.9301  0.3410 -0.1362
              Bcc     0.0069     3.671     1.310     1.225 -0.0540  0.4941  0.8677
 
              Baa    -0.0048    -0.638    -0.228    -0.213  0.9623 -0.2487 -0.1099
    34 C(13)  Bbb    -0.0043    -0.580    -0.207    -0.193  0.1855  0.3049  0.9341
              Bcc     0.0091     1.218     0.435     0.406  0.1988  0.9193 -0.3396
 
              Baa    -0.0032    -1.726    -0.616    -0.576  0.3060  0.0383  0.9513
    35 H(1)   Bbb    -0.0020    -1.089    -0.389    -0.363  0.7066 -0.6787 -0.2000
              Bcc     0.0053     2.815     1.005     0.939  0.6380  0.7334 -0.2348
 
              Baa    -0.0198    -2.654    -0.947    -0.885  0.9643  0.2642 -0.0168
    36 C(13)  Bbb     0.0079     1.061     0.379     0.354 -0.2639  0.9644  0.0159
              Bcc     0.0119     1.593     0.569     0.531  0.0204 -0.0109  0.9997
 
              Baa    -0.0014    -0.764    -0.273    -0.255  0.7573  0.6527 -0.0189
    37 H(1)   Bbb    -0.0006    -0.334    -0.119    -0.111 -0.6293  0.7372  0.2459
              Bcc     0.0021     1.099     0.392     0.366  0.1744 -0.1744  0.9691
 
              Baa    -0.0447    -5.992    -2.138    -1.999  0.9127 -0.3489 -0.2129
    38 C(13)  Bbb     0.0182     2.436     0.869     0.812  0.4027  0.6787  0.6142
              Bcc     0.0265     3.556     1.269     1.186 -0.0698 -0.6463  0.7599
 
              Baa    -0.0109    -1.465    -0.523    -0.489 -0.2406  0.8520  0.4651
    39 C(13)  Bbb    -0.0107    -1.438    -0.513    -0.480  0.3007 -0.3901  0.8703
              Bcc     0.0216     2.903     1.036     0.968  0.9229  0.3493 -0.1624
 
              Baa    -0.0019    -1.003    -0.358    -0.334  0.0032 -0.3454  0.9384
    40 H(1)   Bbb    -0.0015    -0.778    -0.278    -0.260  0.9273  0.3524  0.1266
              Bcc     0.0033     1.781     0.635     0.594 -0.3744  0.8698  0.3214
 
              Baa    -0.0365    -4.898    -1.748    -1.634 -0.2178  0.9434  0.2500
    41 C(13)  Bbb    -0.0320    -4.294    -1.532    -1.432  0.0800 -0.2380  0.9680
              Bcc     0.0685     9.192     3.280     3.066  0.9727  0.2308 -0.0236
 
              Baa    -0.0055    -2.926    -1.044    -0.976 -0.2216  0.9455  0.2385
    42 H(1)   Bbb    -0.0004    -0.193    -0.069    -0.064  0.9653  0.2473 -0.0833
              Bcc     0.0058     3.119     1.113     1.040  0.1378 -0.2118  0.9676
 
              Baa    -0.0123    -1.655    -0.591    -0.552 -0.2995  0.9138  0.2743
    43 C(13)  Bbb    -0.0122    -1.636    -0.584    -0.546  0.0904 -0.2590  0.9616
              Bcc     0.0245     3.291     1.174     1.098  0.9498  0.3128 -0.0050
 
              Baa    -0.0021    -1.114    -0.398    -0.372  0.0833  0.6074  0.7900
    44 H(1)   Bbb    -0.0014    -0.739    -0.264    -0.246  0.9299  0.2377 -0.2808
              Bcc     0.0035     1.853     0.661     0.618 -0.3584  0.7580 -0.5450
 
              Baa    -0.0198    -2.650    -0.946    -0.884  0.9642 -0.2647 -0.0169
    45 C(13)  Bbb     0.0079     1.060     0.378     0.353  0.2645  0.9643 -0.0142
              Bcc     0.0119     1.591     0.568     0.531  0.0201  0.0092  0.9998
 
              Baa    -0.0014    -0.764    -0.273    -0.255  0.7568 -0.6534 -0.0195
    46 H(1)   Bbb    -0.0006    -0.333    -0.119    -0.111  0.6300  0.7370 -0.2448
              Bcc     0.0021     1.097     0.392     0.366  0.1743  0.1729  0.9694
 
              Baa    -0.0244    -3.271    -1.167    -1.091  0.9297  0.3416 -0.1376
    47 C(13)  Bbb     0.0107     1.432     0.511     0.478 -0.3559  0.7380 -0.5733
              Bcc     0.0137     1.839     0.656     0.613 -0.0943  0.5820  0.8077
 
              Baa    -0.0007    -0.399    -0.142    -0.133  0.6389  0.7053 -0.3071
    48 H(1)   Bbb    -0.0005    -0.247    -0.088    -0.082  0.6605 -0.2982  0.6891
              Bcc     0.0012     0.646     0.231     0.216 -0.3944  0.6431  0.6564
 
              Baa    -0.0288    -3.861    -1.378    -1.288 -0.2311  0.9647 -0.1265
    49 C(13)  Bbb    -0.0270    -3.623    -1.293    -1.208  0.0003  0.1301  0.9915
              Bcc     0.0558     7.484     2.671     2.496  0.9729  0.2291 -0.0304
 
              Baa    -0.0025    -1.360    -0.485    -0.454 -0.3017 -0.0492  0.9521
    50 H(1)   Bbb    -0.0007    -0.356    -0.127    -0.119  0.9518  0.0420  0.3038
              Bcc     0.0032     1.716     0.612     0.572 -0.0550  0.9979  0.0342
 
              Baa    -0.0365    -4.893    -1.746    -1.632  0.2182  0.9438 -0.2484
    51 C(13)  Bbb    -0.0320    -4.290    -1.531    -1.431  0.0795  0.2365  0.9684
              Bcc     0.0684     9.183     3.277     3.063  0.9727 -0.2311 -0.0234
 
              Baa    -0.0055    -2.923    -1.043    -0.975  0.2220  0.9458 -0.2369
    52 H(1)   Bbb    -0.0004    -0.193    -0.069    -0.064  0.9653 -0.2475 -0.0833
              Bcc     0.0058     3.116     1.112     1.039  0.1374  0.2101  0.9680
 
              Baa    -0.0255    -3.418    -1.220    -1.140  0.9134 -0.3608 -0.1885
    53 C(13)  Bbb     0.0109     1.465     0.523     0.489  0.3966  0.8929  0.2129
              Bcc     0.0146     1.953     0.697     0.651  0.0915 -0.2692  0.9587
 
              Baa    -0.0016    -0.850    -0.303    -0.284  0.7565 -0.6128 -0.2285
    54 H(1)   Bbb    -0.0005    -0.269    -0.096    -0.090  0.6538  0.7016  0.2832
              Bcc     0.0021     1.119     0.399     0.373 -0.0133 -0.3636  0.9314
 
              Baa    -0.0197    -2.645    -0.944    -0.882  0.9703 -0.2283 -0.0803
    55 C(13)  Bbb     0.0086     1.151     0.411     0.384  0.1748  0.8906 -0.4198
              Bcc     0.0111     1.494     0.533     0.498  0.1674  0.3933  0.9040
 
              Baa    -0.0012    -0.642    -0.229    -0.214  0.9322  0.0153 -0.3616
    56 H(1)   Bbb     0.0001     0.071     0.025     0.024 -0.1858  0.8777 -0.4417
              Bcc     0.0011     0.571     0.204     0.191  0.3106  0.4789  0.8211
 
              Baa    -0.0430    -5.773    -2.060    -1.926  0.3924  0.7700  0.5031
    57 C(13)  Bbb    -0.0382    -5.130    -1.831    -1.711 -0.0062 -0.5447  0.8386
              Bcc     0.0812    10.903     3.890     3.637  0.9198 -0.3322 -0.2089
 
              Baa    -0.0062    -3.332    -1.189    -1.111  0.3638  0.7986  0.4794
    58 H(1)   Bbb    -0.0006    -0.336    -0.120    -0.112  0.9299 -0.3412 -0.1373
              Bcc     0.0069     3.668     1.309     1.224 -0.0540 -0.4958  0.8668
 
              Baa    -0.0109    -1.463    -0.522    -0.488  0.2402  0.8519 -0.4653
    59 C(13)  Bbb    -0.0107    -1.436    -0.512    -0.479  0.3026  0.3898  0.8698
              Bcc     0.0216     2.898     1.034     0.967  0.9223 -0.3498 -0.1642
 
              Baa    -0.0019    -1.001    -0.357    -0.334  0.0034  0.3438  0.9390
    60 H(1)   Bbb    -0.0015    -0.778    -0.278    -0.259  0.9269 -0.3534  0.1260
              Bcc     0.0033     1.779     0.635     0.593  0.3752  0.8700 -0.3199
 
              Baa    -0.0197    -2.650    -0.945    -0.884  0.9703  0.2282 -0.0802
    61 C(13)  Bbb     0.0086     1.153     0.411     0.385 -0.1745  0.8900  0.4213
              Bcc     0.0112     1.497     0.534     0.499  0.1675 -0.3948  0.9034
 
              Baa    -0.0012    -0.643    -0.229    -0.214  0.9323 -0.0147 -0.3613
    62 H(1)   Bbb     0.0001     0.070     0.025     0.023  0.1858  0.8766  0.4439
              Bcc     0.0011     0.572     0.204     0.191  0.3102 -0.4810  0.8200
 
              Baa    -0.0123    -1.655    -0.591    -0.552  0.3002  0.9126 -0.2776
    63 C(13)  Bbb    -0.0122    -1.636    -0.584    -0.546  0.0922  0.2619  0.9607
              Bcc     0.0245     3.291     1.174     1.098  0.9494 -0.3140 -0.0055
 
              Baa    -0.0021    -1.114    -0.398    -0.372  0.0830 -0.6090  0.7888
    64 H(1)   Bbb    -0.0014    -0.738    -0.263    -0.246  0.9295 -0.2380 -0.2816
              Bcc     0.0035     1.852     0.661     0.618  0.3592  0.7566  0.5463
 
              Baa    -0.0364    -4.883    -1.742    -1.629  0.4056  0.9088  0.0983
    65 C(13)  Bbb    -0.0357    -4.785    -1.708    -1.596  0.1928 -0.1902  0.9626
              Bcc     0.0720     9.668     3.450     3.225  0.8935 -0.3715 -0.2523
 
              Baa    -0.0039    -2.080    -0.742    -0.694  0.3401 -0.3216  0.8837
    66 H(1)   Bbb     0.0000     0.000     0.000     0.000  0.7919 -0.4088 -0.4536
              Bcc     0.0039     2.080     0.742     0.694  0.5071  0.8541  0.1157
 
              Baa    -0.0243    -3.267    -1.166    -1.090  0.9295 -0.3418 -0.1386
    67 C(13)  Bbb     0.0107     1.430     0.510     0.477  0.3566  0.7370  0.5741
              Bcc     0.0137     1.836     0.655     0.613 -0.0941 -0.5831  0.8070
 
              Baa    -0.0007    -0.399    -0.142    -0.133 -0.6345  0.7073  0.3116
    68 H(1)   Bbb    -0.0005    -0.246    -0.088    -0.082  0.6639  0.2924  0.6883
              Bcc     0.0012     0.645     0.230     0.215 -0.3957 -0.6436  0.6551
 

 ---------------------------------------------------------------------------------

 No NMR shielding tensors so no spin-rotation constants.
 Leave Link  601 at Sat Nov 16 10:20:48 2024, MaxMem=  3221225472 cpu:              48.8 elap:               2.0
 (Enter /home/szhao/Apps/g16/l9999.exe)
 1\1\GINC-NODE02\FOpt\UM062X\6-311+G(d,p)\C42H26(1+,2)\SZHAO\16-Nov-202
 4\0\\#p opt UM062X/6-311+G** nosymm int=superfine\\Title Card Required
 \\1,2\C,-1.84035887,0.,0.\C,1.84035887,0.,0.\C,-0.0000457751,-1.993648
 6489,-0.0019894103\C,-0.0000382011,-3.4033850501,-0.0034329999\C,-1.12
 09212366,-4.2492598468,0.230502941\C,-1.3482498733,-1.428157953,0.1815
 445098\C,0.6589889553,-5.6413164146,-0.1480211356\H,1.2908429566,-6.50
 65601614,-0.2888556879\C,-1.8535214964,0.7890779292,1.2017840598\C,-0.
 6590644523,-5.6416129236,0.1364394028\H,-1.2909005094,-6.5071501635,0.
 2755415746\C,1.1208464545,-4.2487683803,-0.2391454118\C,1.3481516129,-
 1.4277792871,-0.1843597135\C,2.3049038393,2.1475955652,-1.3324432231\C
 ,-2.0833412914,0.3582921136,-1.3714594206\C,-2.2717354809,2.7591352874
 ,2.6011842452\H,-2.6331962014,3.7774739817,2.6815870483\C,-2.333432085
 6,-3.6836446493,0.492167449\H,-3.2209757559,-4.270551508,0.6971917634\
 C,-2.4638150156,1.6526210564,-1.8601886151\C,2.410939361,-2.2718281751
 ,-0.4497354787\H,3.3860306191,-1.8147966581,-0.5853066682\C,2.08348515
 25,0.3555756689,1.3721241173\C,2.4645309762,1.6488570461,1.863205102\C
 ,2.3333463161,-3.6826033674,-0.4996707253\H,3.2208872796,-4.2690736701
 ,-0.7059500013\C,-2.3043518509,2.145193271,1.3365080293\C,-1.362298540
 5,0.1685795252,2.3906014977\H,-1.0117564778,-0.8511215682,2.3452154743
 \C,1.8967177514,-0.6625137418,2.3593061438\H,1.6608609205,-1.668433277
 7,2.0465233579\C,-1.7903034917,2.1197605402,3.724740982\H,-1.779627898
 7,2.6286130529,4.6806897217\C,-2.4110423408,-2.2727706174,0.4451003203
 \H,-3.386137876,-1.8160194844,0.5815828956\C,-2.5578003372,1.863312741
 4,-3.2484799346\H,-2.8363367192,2.8516785721,-3.5944655768\C,1.8533683
 474,0.7914908783,-1.200179867\C,-2.780899367,2.9896953827,0.2735120455
 \H,-3.1232445387,3.9638115828,0.6081320505\C,-2.3321505667,0.862337901
 3,-4.1687856545\H,-2.424877027,1.0636334351,-5.2290869679\C,-2.8197968
 717,2.7943533684,-1.0588929514\H,-3.1825050683,3.6372551309,-1.6385140
 046\C,2.5579841603,1.8571551799,3.2518817038\H,2.8369205863,2.84477366
 21,3.599674866\C,-1.3220505617,0.8086507018,3.607620906\H,-0.934228299
 2,0.285022217,4.4728485615\C,-1.8971990016,-0.6581094116,-2.3605087706
 \H,-1.6615173792,-1.6646463241,-2.0495835078\C,2.3313822345,0.85471252
 35,4.1703640514\H,2.4235668309,1.0541817305,5.2310572224\C,2.271918487
 8,2.7640995262,-2.5958749754\H,2.6339173066,3.78239279,-2.6744177276\C
 ,2.0188975603,-0.4273860512,3.7082468335\H,1.873928989,-1.2423640887,4
 .4072181628\C,1.7894803985,2.1272480089,-3.7204136186\H,1.7785675262,2
 .6379959028,-4.6753486728\C,2.782822037,2.9895416128,-0.2680541259\H,3
 .1261780883,3.9638994809,-0.6009326561\C,-2.0198275266,-0.4206374735,-
 3.7090004207\H,-1.8753477153,-1.2344558133,-4.4094233189\C,2.821975443
 4,2.7915719343,1.0639570598\H,3.1859363382,3.6328934932,1.6450908233\C
 ,1.3611908693,0.173599338,-2.3899837344\H,1.010120236,-0.8459993098,-2
 .346424069\C,1.3205775146,0.8161362499,-3.6056703083\H,0.9319604114,0.
 2944706147,-4.4717290269\\Version=ES64L-G16RevA.03\HF=-1615.551538\S2=
 0.765793\S2-1=0.\S2A=0.750228\RMSD=5.298e-09\RMSF=6.904e-06\Dipole=0.0
 014015,1.2592644,0.0015216\Quadrupole=-16.1844308,8.5187332,7.6656975,
 0.007436,4.918532,-0.0003479\PG=C01 [X(C42H26)]\\@


 CONFIDENCE IS WHAT YOU FEEL BEFORE YOU FULLY
 COMPREHEND THE SITUATION.
 Job cpu time:      24 days 10 hours 24 minutes 52.0 seconds.
 Elapsed time:       0 days 21 hours  1 minutes 12.1 seconds.
 File lengths (MBytes):  RWF=   1251 Int=      0 D2E=      0 Chk=    120 Scr=      2
 Normal termination of Gaussian 16 at Sat Nov 16 10:20:52 2024.
