Title Card Required                                                     
FOpt      UM062X                                                      6-311+G(d,p)        
Number of atoms                            I                4
Info1-9                                    I   N=           9
          13          13           0           0           0         110
           2          18        -502
Full Title                                 C   N=           2
Title Card Required     
Route                                      C   N=           4
#p opt UM062X/6-311+G** nosymm int=superfine    
Charge                                     I                0
Multiplicity                               I                1
Number of electrons                        I               26
Number of alpha electrons                  I               13
Number of beta electrons                   I               13
Number of basis functions                  I               64
Number of independent functions            I               64
Number of point charges in /Mol/           I                0
Number of translation vectors              I                0
Atomic numbers                             I   N=           4
           8          16           1           1
Nuclear charges                            R   N=           4
  8.00000000E+00  1.60000000E+01  1.00000000E+00  1.00000000E+00
Current cartesian coordinates              R   N=          12
 -2.57192859E+00 -1.13383567E-05  3.40150702E-05  2.57192859E+00  1.32280829E-05
 -3.40150702E-05 -2.60317325E+00  1.81710092E+00 -2.31953142E-01  2.31804960E+00
 -1.67794216E+00 -1.89373311E+00
Number of symbols in /Mol/                 I                0
Force Field                                I                0
Atom Types                                 C   N=           4
                                                
Int Atom Types                             I   N=           4
           0           0           0           0
MM charges                                 R   N=           4
  0.00000000E+00  0.00000000E+00  0.00000000E+00  0.00000000E+00
Integer atomic weights                     I   N=           4
          16          32           1           1
Real atomic weights                        R   N=           4
  1.59949146E+01  3.19720718E+01  1.00782504E+00  1.00782504E+00
Atom fragment info                         I   N=           4
           0           0           0           0
Atom residue num                           I   N=           4
           0           0           0           0
Nuclear spins                              I   N=           4
           0           0           1           1
Nuclear ZEff                               R   N=           4
 -5.60000000E+00 -1.36000000E+01 -1.00000000E+00 -1.00000000E+00
Nuclear ZNuc                               R   N=           4
  8.00000000E+00  1.60000000E+01  1.00000000E+00  1.00000000E+00
Nuclear QMom                               R   N=           4
  0.00000000E+00  0.00000000E+00  0.00000000E+00  0.00000000E+00
Nuclear GFac                               R   N=           4
  0.00000000E+00  0.00000000E+00  2.79284600E+00  2.79284600E+00
MicOpt                                     I   N=           4
          -2          -2          -1          -1
Number of residues                         I                0
Number of secondary structures             I                0
Redundant internal dimensions              I   N=           4
          11           8           2           1
Redundant internal coordinate indices      I   N=          44
           1          -1           0           0           1          -2
           0           0           1          -3           0           0
           2          -1           0           0           2          -2
           0           0           2          -3           0           0
           1           3           0           0           2           4
           0           0           2           1           3           0
           1           2           4           0           3           1
           2           4
Redundant internal coordinates             R   N=          11
 -2.57192859E+00 -1.13383567E-05  3.40150702E-05  2.57192859E+00  1.32280829E-05
 -3.40150702E-05  1.83212752E+00  2.54284980E+00  1.58784450E+00  1.47079610E+00
 -2.16888081E+00
ZRed-IntVec                                I   N=          11
          -1          -1          -1          -1          -1          -1
           0           0           0           0           0
ZRed-FPVec                                 R   N=          11
  0.00000000E+00  0.00000000E+00  0.00000000E+00  0.00000000E+00  0.00000000E+00
  0.00000000E+00  0.00000000E+00  0.00000000E+00  0.00000000E+00  0.00000000E+00
  0.00000000E+00
ZRed-Constraint1                           R   N=          11
 -2.57192859E+00 -1.13383567E-05  3.40150702E-05  2.57192859E+00  1.32280829E-05
 -3.40150702E-05  2.30378920E+00  2.53320253E+00  1.53222923E+00  1.57648710E+00
 -1.21950356E+00
ZRed-Constraint2                           R   N=          11
 -2.57192859E+00 -1.13383567E-05  3.40150702E-05  2.57192859E+00  1.32280829E-05
 -3.40150702E-05  0.00000000E+00  0.00000000E+00  0.00000000E+00  0.00000000E+00
  0.00000000E+00
Number of contracted shells                I               27
Number of primitive shells                 I               49
Pure/Cartesian d shells                    I                0
Pure/Cartesian f shells                    I                0
Highest angular momentum                   I                2
Largest degree of contraction              I                6
Shell types                                I   N=          27
           0          -1          -1          -1          -1          -2
           0           0           0           0           0           0
          -1           1           1           1           1           1
          -2           0           0           0           1           0
           0           0           1
Number of primitives per shell             I   N=          27
           6           3           1           1           1           1
           6           3           1           1           1           1
           1           4           2           1           1           1
           1           3           1           1           1           3
           1           1           1
Shell to atom map                          I   N=          27
           1           1           1           1           1           1
           2           2           2           2           2           2
           2           2           2           2           2           2
           2           3           3           3           3           4
           4           4           4
Primitive exponents                        R   N=          49
  8.58850000E+03  1.29723000E+03  2.99296000E+02  8.73771000E+01  2.56789000E+01
  3.74004000E+00  4.21175000E+01  9.62837000E+00  2.85332000E+00  9.05661000E-01
  2.55611000E-01  8.45000000E-02  1.29200000E+00  9.34134000E+04  1.39617000E+04
  3.16991000E+03  9.02456000E+02  2.97158000E+02  1.08702000E+02  1.08702000E+02
  4.31553000E+01  1.81079000E+01  5.56009000E+00  2.13183000E+00  4.20403000E-01
  1.36045000E-01  4.05000000E-02  4.95040000E+02  1.17221000E+02  3.77749000E+01
  1.40584000E+01  5.56574000E+00  2.26297000E+00  8.07994000E-01  2.77460000E-01
  7.71410000E-02  6.50000000E-01  3.38650000E+01  5.09479000E+00  1.15879000E+00
  3.25840000E-01  1.02741000E-01  7.50000000E-01  3.38650000E+01  5.09479000E+00
  1.15879000E+00  3.25840000E-01  1.02741000E-01  7.50000000E-01
Contraction coefficients                   R   N=          49
  1.89515008E-03  1.43859006E-02  7.07320031E-02  2.40001011E-01  5.94797026E-01
  2.80802012E-01  1.13889012E-01  9.20811101E-01 -3.27447036E-03  1.00000000E+00
  1.00000000E+00  1.00000000E+00  1.00000000E+00  7.42999957E-04  5.79299966E-03
  2.99539983E-02  1.19027993E-01  3.68431979E-01  5.77298966E-01  1.43186060E-01
  6.24465262E-01  2.83366119E-01  1.00000000E+00  1.00000000E+00  1.00000000E+00
  1.00000000E+00  1.00000000E+00  8.30900251E-03  6.40240194E-02  2.77614084E-01
  7.45076225E-01  6.13711672E-01  4.43817763E-01  1.00000000E+00  1.00000000E+00
  1.00000000E+00  1.00000000E+00  2.54938145E-02  1.90373109E-01  8.52161486E-01
  1.00000000E+00  1.00000000E+00  1.00000000E+00  2.54938145E-02  1.90373109E-01
  8.52161486E-01  1.00000000E+00  1.00000000E+00  1.00000000E+00
P(S=P) Contraction coefficients            R   N=          49
  0.00000000E+00  0.00000000E+00  0.00000000E+00  0.00000000E+00  0.00000000E+00
  0.00000000E+00  3.65113974E-02  2.37152983E-01  8.19701941E-01  1.00000000E+00
  1.00000000E+00  1.00000000E+00  0.00000000E+00  0.00000000E+00  0.00000000E+00
  0.00000000E+00  0.00000000E+00  0.00000000E+00  0.00000000E+00  0.00000000E+00
  0.00000000E+00  0.00000000E+00  0.00000000E+00  0.00000000E+00  0.00000000E+00
  0.00000000E+00  1.00000000E+00  0.00000000E+00  0.00000000E+00  0.00000000E+00
  0.00000000E+00  0.00000000E+00  0.00000000E+00  0.00000000E+00  0.00000000E+00
  0.00000000E+00  0.00000000E+00  0.00000000E+00  0.00000000E+00  0.00000000E+00
  0.00000000E+00  0.00000000E+00  0.00000000E+00  0.00000000E+00  0.00000000E+00
  0.00000000E+00  0.00000000E+00  0.00000000E+00  0.00000000E+00
Coordinates of each shell                  R   N=          81
 -2.57192859E+00 -1.13383567E-05  3.40150702E-05 -2.57192859E+00 -1.13383567E-05
  3.40150702E-05 -2.57192859E+00 -1.13383567E-05  3.40150702E-05 -2.57192859E+00
 -1.13383567E-05  3.40150702E-05 -2.57192859E+00 -1.13383567E-05  3.40150702E-05
 -2.57192859E+00 -1.13383567E-05  3.40150702E-05  2.57192859E+00  1.32280829E-05
 -3.40150702E-05  2.57192859E+00  1.32280829E-05 -3.40150702E-05  2.57192859E+00
  1.32280829E-05 -3.40150702E-05  2.57192859E+00  1.32280829E-05 -3.40150702E-05
  2.57192859E+00  1.32280829E-05 -3.40150702E-05  2.57192859E+00  1.32280829E-05
 -3.40150702E-05  2.57192859E+00  1.32280829E-05 -3.40150702E-05  2.57192859E+00
  1.32280829E-05 -3.40150702E-05  2.57192859E+00  1.32280829E-05 -3.40150702E-05
  2.57192859E+00  1.32280829E-05 -3.40150702E-05  2.57192859E+00  1.32280829E-05
 -3.40150702E-05  2.57192859E+00  1.32280829E-05 -3.40150702E-05  2.57192859E+00
  1.32280829E-05 -3.40150702E-05 -2.60317325E+00  1.81710092E+00 -2.31953142E-01
 -2.60317325E+00  1.81710092E+00 -2.31953142E-01 -2.60317325E+00  1.81710092E+00
 -2.31953142E-01 -2.60317325E+00  1.81710092E+00 -2.31953142E-01  2.31804960E+00
 -1.67794216E+00 -1.89373311E+00  2.31804960E+00 -1.67794216E+00 -1.89373311E+00
  2.31804960E+00 -1.67794216E+00 -1.89373311E+00  2.31804960E+00 -1.67794216E+00
 -1.89373311E+00
Num ILSW                                   I              100
ILSW                                       I   N=         100
           1           0           0           0           0           0
           0           0           0           0        4336          -1
           7           0           0           0          -1           0
           0           0           0           0           1           0
           1           1           0           0           0           0
           0           0      100000           0          -1           0
           0           0           0           0           0           0
           0           0           0           1           0           0
           0 -2000000000           1           0           0           0
           0           0           4          52           0           0
           0           0          55           0           0           0
           0           0           0           4           0           1
           0           0           0           0           0           0
           0           0           0           0           0           0
           0           0           0           0           0           0
           0           0           0           0           0           0
           0           0           0           0
Num RLSW                                   I               52
RLSW                                       R   N=          52
  1.00000000E+00  1.00000000E+00  1.00000000E+00  1.00000000E+00  5.40000000E-01
  0.00000000E+00  0.00000000E+00  1.00000000E+00  0.00000000E+00  0.00000000E+00
  0.00000000E+00  0.00000000E+00  1.00000000E+00  0.00000000E+00  0.00000000E+00
  0.00000000E+00  0.00000000E+00  1.00000000E+00  0.00000000E+00  0.00000000E+00
  0.00000000E+00  0.00000000E+00  1.00000000E+00  0.00000000E+00  0.00000000E+00
  0.00000000E+00  0.00000000E+00  1.00000000E+00  0.00000000E+00  0.00000000E+00
  0.00000000E+00  0.00000000E+00  1.00000000E+00  0.00000000E+00  0.00000000E+00
  0.00000000E+00  0.00000000E+00  0.00000000E+00  1.00000000E+00  1.00000000E+00
  0.00000000E+00  1.00000000E+00  0.00000000E+00  0.00000000E+00  0.00000000E+00
  0.00000000E+00  0.00000000E+00  0.00000000E+00  0.00000000E+00  0.00000000E+00
  0.00000000E+00  0.00000000E+00
MxBond                                     I                2
NBond                                      I   N=           4
           2           2           1           1
IBond                                      I   N=           8
           2           3           1           4           1           0
           2           0
RBond                                      R   N=           8
  1.00000000E-01  1.00000000E-01  1.00000000E-01  1.00000000E+00  1.00000000E-01
  0.00000000E+00  1.00000000E+00  0.00000000E+00
Virial Ratio                               R      2.001995520848554E+00
SCF Energy                                 R     -4.744359617066121E+02
Total Energy                               R     -4.744359617066121E+02
S**2                                       R      2.214335381722776E-10
S**2 after annihilation                    R      8.171241462145643E-13
RMS Force                                  R      3.910994062843684E-05
RMS Density                                R      6.944138580838134E-09
Job Status                                 I                3
Nuclear derivative order                   I                1
External E-field                           R   N=          35
  0.00000000E+00  0.00000000E+00  0.00000000E+00  0.00000000E+00  0.00000000E+00
  0.00000000E+00  0.00000000E+00  0.00000000E+00  0.00000000E+00  0.00000000E+00
  0.00000000E+00  0.00000000E+00  0.00000000E+00  0.00000000E+00  0.00000000E+00
  0.00000000E+00  0.00000000E+00  0.00000000E+00  0.00000000E+00  0.00000000E+00
  0.00000000E+00  0.00000000E+00  0.00000000E+00  0.00000000E+00  0.00000000E+00
  0.00000000E+00  0.00000000E+00  0.00000000E+00  0.00000000E+00  0.00000000E+00
  0.00000000E+00  0.00000000E+00  0.00000000E+00  0.00000000E+00  0.00000000E+00
IOpCl                                      I                1
IROHF                                      I                0
Alpha Orbital Energies                     R   N=          64
 -8.99701447E+01 -1.96519863E+01 -8.33110890E+00 -6.25315601E+00 -6.24938240E+00
 -6.24312680E+00 -1.06910380E+00 -8.25925694E-01 -5.28956088E-01 -4.63363944E-01
 -3.86351365E-01 -3.46549630E-01 -3.28561120E-01 -2.14106633E-01  1.54786077E-02
  5.48666092E-02  5.77549986E-02  6.05315490E-02  7.62509628E-02  1.36426235E-01
  2.04706630E-01  2.07481303E-01  2.40316960E-01  3.23813211E-01  3.37719951E-01
  3.48738061E-01  4.00326750E-01  4.15540383E-01  5.58702819E-01  6.52645138E-01
  7.15614971E-01  7.37115097E-01  7.87828929E-01  7.94366968E-01  9.18518998E-01
  1.09100071E+00  1.09780192E+00  1.12399707E+00  1.40289217E+00  1.40969270E+00
  1.44210296E+00  1.45221530E+00  1.47631841E+00  1.67231573E+00  1.67392120E+00
  1.73035816E+00  2.06904038E+00  2.08635878E+00  2.49575495E+00  2.53942819E+00
  2.89151062E+00  2.90272793E+00  3.17670060E+00  3.19938941E+00  3.87302811E+00
  5.03082357E+00  5.06644303E+00  5.58521364E+00  7.84610424E+00  1.74158415E+01
  1.74158907E+01  1.74897273E+01  4.99105885E+01  1.89108160E+02
Beta Orbital Energies                      R   N=          64
 -8.99701447E+01 -1.96519863E+01 -8.33110890E+00 -6.25315598E+00 -6.24938239E+00
 -6.24312684E+00 -1.06910380E+00 -8.25925707E-01 -5.28956087E-01 -4.63363952E-01
 -3.86352825E-01 -3.46549955E-01 -3.28560459E-01 -2.14105620E-01  1.54786010E-02
  5.48666607E-02  5.77550098E-02  6.05315184E-02  7.62509522E-02  1.36426227E-01
  2.04706872E-01  2.07481044E-01  2.40316945E-01  3.23813200E-01  3.37719972E-01
  3.48738056E-01  4.00326742E-01  4.15540390E-01  5.58702815E-01  6.52645151E-01
  7.15614994E-01  7.37115072E-01  7.87828856E-01  7.94367031E-01  9.18518995E-01
  1.09100109E+00  1.09780158E+00  1.12399707E+00  1.40289223E+00  1.40969267E+00
  1.44210297E+00  1.45221529E+00  1.47631844E+00  1.67231579E+00  1.67392113E+00
  1.73035817E+00  2.06904037E+00  2.08635878E+00  2.49575496E+00  2.53942819E+00
  2.89151019E+00  2.90272838E+00  3.17670083E+00  3.19938924E+00  3.87302813E+00
  5.03082396E+00  5.06644264E+00  5.58521366E+00  7.84610424E+00  1.74158416E+01
  1.74158906E+01  1.74897273E+01  4.99105885E+01  1.89108160E+02
Alpha MO coefficients                      R   N=        4096
 -4.46229111E-07  2.20997953E-06  2.43736164E-06 -4.91091167E-07 -2.35577112E-07
 -1.36681462E-05 -1.22104357E-05  1.79253217E-06  7.12853473E-07  1.72790627E-05
  3.07435196E-05  1.45919496E-05 -4.34232108E-06  1.48455506E-04  7.19437980E-05
  4.92591490E-05 -5.55156061E-06 -7.38912370E-06 -2.96145475E-07 -1.29720950E-06
  2.80104392E-06  1.12010333E-06  4.10787377E-01  6.54411556E-01  1.53488792E-02
 -4.34981273E-03  1.62760847E-03 -9.43561611E-04  1.10546565E-04 -4.81076083E-05
 -1.59023138E-05 -1.82479772E-05 -4.40505444E-05 -4.75193617E-05 -5.69883461E-05
  1.12631081E-05  1.60605427E-05  1.91717377E-05 -5.46295670E-07  4.01791723E-06
  3.47459155E-06 -3.41364538E-05 -1.13415730E-04 -1.26803906E-04  1.37244436E-04
  1.23449507E-04  1.41408250E-04  2.93072961E-05  9.30208833E-06  7.34600684E-05
 -3.34185885E-05  8.97127781E-06 -2.30650335E-06 -2.25402679E-05 -9.95236205E-05
 -5.16534632E-06  4.91210695E-06 -2.16993886E-06  2.19199586E-05 -1.95163936E-04
  2.67171515E-04 -1.94752920E-05 -1.12771990E-04 -1.26796270E-04  5.52852051E-01
  4.69692746E-01  4.20500148E-04  1.22976483E-03 -1.65763996E-04  8.06379964E-03
 -1.15617097E-04 -1.29367507E-04  1.78435055E-05 -3.20320984E-03 -1.16479966E-04
  2.19235508E-04 -2.61190665E-05  2.76258842E-03  4.55757213E-04  3.09495719E-04
 -4.23283547E-05 -5.48080603E-05 -6.43744647E-07 -2.93774974E-05 -1.31325775E-04
 -2.61374788E-06 -1.37878703E-08  1.31200422E-06 -9.46908365E-06  1.89388075E-05
 -4.11492092E-05 -3.76319932E-06 -6.62973506E-04  4.43700074E-04  3.83546571E-05
  5.83381517E-06  3.83964446E-06 -1.86256417E-07 -1.86662678E-07  3.23480364E-07
 -3.66523777E-08 -1.09843261E-06 -2.14635233E-07  4.16033829E-06  8.18094584E-06
  5.19442070E-05 -3.30213195E-05 -4.23437935E-05  2.53812268E-05  3.57759177E-05
  6.61411743E-05  1.16187147E-05  9.33720084E-06  1.77245788E-05 -1.99287085E-05
  7.66661979E-06  7.91102406E-05 -8.09700820E-05 -9.38822551E-04 -5.03295408E-06
  4.38508197E-04 -5.74221027E-05  3.52661523E-05 -1.37089154E-04  2.08550478E-04
  3.70540537E-05 -2.51817840E-05 -2.41033173E-05  9.13762458E-07  1.87213075E-05
  2.55364175E-05 -3.43201857E-06 -1.41543718E-06 -2.14764291E-04 -4.58303691E-05
  6.32741671E-06  9.84553211E-06  3.39164372E-04  4.14549941E-04  1.20040100E-04
 -4.49623213E-05  1.72375587E-03  8.84573338E-04  6.74000890E-04 -7.90024247E-05
 -8.25101044E-05 -2.05819046E-06 -1.03810005E-05  6.23472502E-05  6.59132166E-06
 -1.19761599E-01 -3.20482560E-01  5.16026991E-01  5.98947059E-01  4.30791893E-02
 -1.54067491E-02  2.14485908E-03 -7.03158537E-04 -1.79169632E-04 -2.11743283E-04
 -1.13973555E-03 -1.16216242E-03 -1.41146063E-03 -2.63011306E-03 -2.62642193E-03
 -3.18732397E-03 -2.85884422E-04 -2.29909016E-04 -3.05472321E-04 -3.65767842E-04
 -1.20867179E-03 -1.35414205E-03  1.74076923E-03  1.54445206E-03  1.77894079E-03
  1.15533810E-04  1.97305529E-05  1.08170457E-03  5.41526106E-05  3.99509717E-05
 -6.24331375E-05 -1.33072388E-04 -1.38860817E-03 -3.18645017E-05  2.47143586E-05
 -2.01533400E-05  1.08866412E-04 -1.78428143E-03  3.39398128E-03 -1.98362090E-04
 -1.06001796E-03 -1.19134568E-03 -1.27749308E-06 -7.09657380E-06 -7.20042038E-05
  1.23099040E-05  2.62756330E-07  7.45650900E-05  2.55941408E-04 -7.52812784E-05
  1.20785702E-06 -2.86133984E-04 -4.36078016E-04 -3.95826538E-04  8.67154071E-05
  5.36430741E-04  6.34338361E-04  2.36835264E-04 -7.10318088E-05  5.32871283E-05
  6.21046040E-06  1.92612637E-05  5.91909349E-05 -3.09434070E-05 -2.77883791E-04
 -7.63075431E-04  1.43761608E-03  1.07726497E-03  1.52986364E-04 -5.19600896E-05
 -2.20497273E-04 -2.51990427E-03  3.12259125E-04  3.77262740E-04  3.69816987E-01
 -5.11402960E-02 -6.41919940E-02  6.92156251E-01 -9.56680211E-02 -1.20104277E-01
  5.36934801E-02 -7.41388393E-03 -9.29242565E-03 -7.59060806E-03  9.65264869E-04
  1.19466904E-03  4.90390954E-03 -5.97339289E-04 -7.16944372E-04  1.64451881E-04
 -3.42921022E-04  1.43177272E-04 -2.27043219E-04 -2.75656153E-04 -9.16739559E-05
  8.56193435E-04 -6.70780671E-04  1.63629271E-04 -1.93988276E-04  2.67264803E-05
  7.30164034E-05 -7.02213217E-05 -5.08388256E-05  8.09168200E-05 -9.56508081E-05
 -1.05779216E-04 -4.91606808E-09 -4.19700460E-07 -1.77053234E-05  1.02753947E-06
 -2.38711951E-06  2.79176404E-06  5.47378440E-05 -9.46587868E-07  1.82702553E-05
  2.49163116E-05 -6.95135114E-05 -1.04650091E-04 -6.78510568E-05 -1.07918859E-04
  7.37849671E-05 -5.47811034E-05  5.41969333E-05  9.19425917E-06 -8.09981040E-06
  3.91314408E-06  5.80040997E-06 -8.68750166E-06 -7.94976747E-04 -2.15208043E-03
  3.81585203E-03  3.83634368E-03 -6.75164482E-04 -3.17014953E-04 -5.07652040E-04
 -4.19279404E-04 -1.30314115E-03 -1.44965438E-03  8.20413619E-02  2.47379382E-01
  2.75859236E-01  1.53312415E-01  4.62100977E-01  5.15299603E-01  1.16351436E-02
  3.50478265E-02  3.90832151E-02 -1.57044737E-03 -4.54517921E-03 -5.06599352E-03
  9.88130208E-04  2.87454242E-03  3.20269235E-03 -2.10641345E-04 -2.75421793E-04
 -6.03814501E-04  1.83098107E-04 -2.41830462E-04  2.25421799E-06  5.72405878E-05
  1.94851201E-04  6.95498780E-06 -3.42125701E-05 -5.55057562E-06 -5.52363044E-04
 -1.08357452E-04  1.13994888E-03  3.21011347E-05  4.26519226E-04  4.75525789E-04
  1.64557445E-07  6.26430632E-07  7.96084099E-07 -2.43201709E-06  2.14488806E-06
 -9.44097348E-06 -3.44529795E-06  2.07517508E-05 -1.65186064E-05  8.00296037E-05
  2.52977747E-05  2.69489285E-07  5.75567818E-05 -1.16939142E-04  1.22548886E-06
 -3.87555592E-05 -2.23952282E-05 -5.55879094E-06  6.89445238E-06 -3.01523022E-06
 -9.30709449E-06  1.43239070E-06  3.40170659E-05  9.23997326E-05 -1.65732204E-04
 -1.59522729E-04  3.58112328E-05 -2.22998331E-05 -4.41969660E-06  4.01086359E-05
 -1.59438737E-03  1.41490404E-03 -4.69294005E-03  2.83803490E-01 -2.53106822E-01
 -8.74253399E-03  5.29237513E-01 -4.71996613E-01 -6.48658712E-04  3.87158539E-02
 -3.45289146E-02  9.99178808E-05 -5.20880786E-03  4.65365250E-03 -5.74973180E-05
  3.02324697E-03 -2.68136290E-03  3.56390303E-04  1.49412026E-04 -7.07629221E-05
  1.98942924E-04 -1.62838242E-04  3.17424704E-05 -1.72138506E-04  1.90688305E-04
 -5.21877867E-05  1.98437085E-05 -2.14535585E-07  1.12461479E-06  1.72630193E-05
  4.30424779E-07 -1.62492876E-06  7.46395511E-05 -6.01692288E-05 -1.18256723E-01
 -1.94737421E-01  1.63151807E-03  4.64978600E-02 -6.26224587E-03  5.69963130E-01
  1.10055850E-03  7.52468000E-02 -1.01327863E-02  4.26602010E-01  1.09233848E-02
  3.02334345E-02 -4.68109955E-03 -2.73535456E-02 -9.35855255E-03 -7.10750049E-03
  8.15794497E-04 -9.22153613E-03  1.04239794E-04 -2.82600368E-03 -6.01479693E-03
  1.22244631E-04  1.30115373E-03  3.68076448E-03 -7.57878122E-03 -1.43007562E-02
  2.33217470E-02  2.06599222E-02  9.05687995E-03 -5.70538553E-03  1.05487569E-04
  1.52836693E-04  2.20391417E-03  5.83406045E-05  1.77427746E-04  4.24402665E-03
  1.28533987E-04  3.56386391E-04 -4.74165802E-03 -1.63733052E-04 -3.94729220E-04
 -1.49661944E-02  1.55610644E-04 -5.32740064E-04 -3.96879243E-03 -1.08352838E-03
 -1.92174371E-03 -1.92363781E-03  2.10287267E-04  6.63725605E-04  3.44038039E-03
 -1.85311305E-04  1.09962250E-01  8.44627687E-02  1.91879419E-02 -5.41997746E-05
 -2.42544380E-02  3.15524592E-03  2.48381502E-03  2.59746935E-03 -3.51219819E-03
 -4.53633286E-04  4.76561516E-04  5.14333920E-04  6.49319289E-03  1.07905594E-02
  1.18886624E-02 -5.78703302E-03  3.24751812E-04 -3.32740294E-02  1.78599705E-02
 -8.48794341E-03  5.61465887E-04 -2.06989748E-02  1.53155088E-02 -2.40064723E-03
 -3.18590697E-04 -1.18584172E-02 -4.97412701E-03 -4.04327618E-03  5.72509414E-04
 -1.22353458E-04 -1.67923094E-04  1.55743985E-04  1.48895797E-03  6.02003165E-04
  3.33210715E-02  9.47108652E-02 -1.99005393E-01 -3.67058066E-01  6.64607137E-01
  4.11139877E-01 -9.17556448E-03  3.59997157E-03 -1.97019530E-03 -3.37670747E-04
  5.80720378E-04  1.09528276E-02  1.28525944E-02  1.19108028E-03  2.18793187E-02
  2.56472779E-02 -1.89497202E-03 -3.05776663E-02 -3.55642075E-02  2.86472178E-03
 -4.04967119E-02 -4.88448059E-02 -6.94077317E-03 -3.82564944E-03 -8.66365064E-03
  3.52296217E-03  1.01297975E-03  2.41728673E-02 -3.43283795E-04  5.62557970E-04
 -8.46916450E-03 -1.24477211E-02  9.56657649E-03  1.13957176E-03  2.88493670E-03
 -3.51189987E-04  1.01143561E-01  1.31354754E-01  2.58220310E-03  3.72599584E-03
  1.52436359E-02  1.71196095E-02  3.86644397E-02  6.46777092E-02 -6.24840704E-03
  2.48687769E-01 -2.97779103E-02 -1.96176930E-01 -7.93986900E-03  3.56810484E-01
 -4.27148766E-02 -2.86681236E-01 -1.32757225E-02  2.39452344E-01 -2.74930397E-02
 -5.94866513E-02  2.36951100E-03  2.67225229E-02 -2.19491282E-03 -7.45587770E-03
 -1.04657947E-04 -3.99121338E-03 -1.69603186E-02  1.21771239E-03  1.69850244E-03
  4.84973219E-03 -1.03950452E-02 -1.90595909E-02  3.72438055E-02  2.86635421E-02
  4.80656678E-03 -3.79352412E-03 -3.82275099E-03 -8.47580649E-04 -4.70105509E-03
 -6.54760493E-03 -2.31397428E-03 -9.06558303E-03 -1.26049485E-02 -4.51128363E-03
  1.19831643E-02  1.74964806E-02  6.44206750E-03  2.87677833E-02  3.56096311E-02
  1.09970419E-02  1.11878791E-02  1.44491234E-02 -1.12898647E-04  5.50362924E-04
 -5.86549325E-04 -2.73254942E-03 -1.28994368E-03 -4.79885174E-03  1.65040485E-01
  2.60111972E-01  7.90979077E-02  2.23227450E-03 -3.02269227E-02  3.87884623E-03
 -9.69770031E-03 -1.46010353E-02 -1.29326175E-02  1.48858796E-03 -4.47638912E-04
 -1.25284036E-03 -1.85481250E-03 -3.07117262E-03  1.60717435E-02 -2.09890426E-02
  2.13268801E-02  8.37852012E-03  2.32518546E-02 -3.04444442E-02  3.07172995E-02
  2.07708544E-02  2.34842828E-02 -1.53533659E-02  2.71805695E-02  6.55052251E-03
  7.99879790E-03 -5.22327416E-03  3.95731415E-03  7.81794258E-05  6.81043011E-04
  1.16941883E-03  1.93621928E-03  1.31131398E-03  1.18665448E-02  3.39091847E-02
 -7.29497871E-02 -1.33019559E-01  2.43513696E-01  2.95400152E-01  1.94003487E-02
  1.46665011E-04 -1.63511280E-02 -1.69756916E-02 -7.63329679E-03 -5.45037725E-02
 -6.12959753E-02 -1.48925321E-02 -1.06142657E-01 -1.19365031E-01  2.24997725E-02
  1.54843024E-01  1.74220992E-01  3.71292049E-02  2.69388654E-01  3.02717099E-01
  1.11958851E-02  7.47290098E-02  8.06413617E-02 -2.03460315E-02 -7.00484677E-03
 -4.13899587E-02  2.33631883E-02 -5.87725998E-03 -1.63804506E-02 -3.10828871E-02
  8.18247802E-05  2.34320646E-03  4.38281944E-03  1.51880217E-03 -1.57180220E-01
 -2.84393571E-01 -1.30758503E-01 -5.18415284E-03 -1.78120769E-02 -1.95517636E-02
 -8.93968874E-04 -1.52329862E-03 -2.10271836E-02  3.85598994E-02  2.97982944E-01
  5.41414059E-03 -3.09137791E-02  5.63244075E-02  4.35529148E-01  3.83568819E-03
 -3.00988448E-02  4.88549380E-02  3.95338130E-01 -1.17484123E-02 -9.06730663E-03
  9.07206871E-03  8.91225475E-02 -3.10635115E-03  2.04540437E-03  1.37557098E-02
 -2.13789486E-03 -9.97018351E-04 -5.31196984E-04 -1.52434832E-03  3.33710469E-03
  5.81492545E-03 -9.03651450E-03 -2.26769451E-02 -6.47509808E-03 -1.73566581E-03
  6.67961614E-03 -2.81690880E-03 -3.53468362E-03  1.35352434E-02 -2.96730776E-03
 -6.85036617E-03  2.61988210E-02 -5.54607511E-03  9.40895535E-03 -3.87359258E-02
  7.32035033E-03  2.11324200E-02 -7.40239559E-02  2.16035245E-02  1.07782244E-02
 -3.08877372E-02  2.33910407E-02  1.11168157E-03 -5.81920317E-03  4.73515477E-03
 -4.37592171E-03 -6.56897767E-04  1.13296548E-03  4.26237190E-03  6.87130987E-03
 -2.49825718E-03  3.47374704E-03  3.50119193E-02  1.46364552E-02  2.65121964E-02
  2.26051190E-02  3.44235388E-03 -4.90029747E-05  3.63516216E-03 -8.83099773E-03
 -1.51327408E-02 -2.09831345E-01 -1.50995765E-02 -2.68060759E-02  5.38348276E-02
 -3.10552774E-01 -2.22954958E-02 -3.90203927E-02  3.42470934E-02 -3.11946338E-01
 -3.69507866E-02 -3.53398212E-02 -1.29151721E-02 -6.72962741E-02  1.84157147E-03
 -4.52587282E-03  3.90300628E-03  1.49279594E-03 -9.37834151E-04 -3.03594176E-03
 -1.16039882E-02  2.91497524E-03  8.31542011E-03 -1.77793480E-02 -3.39740078E-02
  7.54840883E-02  2.93769605E-02  1.56172365E-02 -4.89885868E-02  5.72007196E-03
 -6.64367516E-03 -6.17732600E-02  5.95348899E-03 -4.16923475E-03 -1.19214567E-01
  1.16316780E-02 -7.92987169E-03  1.63845678E-01 -1.74649691E-02  1.19797554E-02
  3.73547705E-01 -3.03249807E-02  2.49825616E-02  1.86830358E-01 -2.94307307E-02
  1.70564161E-02  8.12084721E-03 -8.48900678E-03  5.51072300E-04 -1.59703195E-02
 -6.10632686E-03 -9.45782615E-04  2.34552505E-02 -1.65075579E-02 -2.37733316E-02
 -6.62029369E-03 -2.58851232E-03 -8.74488387E-04  4.80877462E-03 -3.19049278E-03
  1.13182964E-02 -6.03900303E-04  1.37051329E-03 -2.18742462E-03 -3.70527294E-03
 -2.16616308E-02 -1.12320044E-02  4.13464581E-02  1.21445034E-02 -3.19140318E-02
 -1.65553726E-02  6.04871202E-02  1.40541680E-02 -3.37019160E-02 -1.25975025E-02
  5.52428796E-02  6.84751582E-03 -6.91240905E-03  2.09559990E-03  1.53263981E-02