Title Card Required                                                     
FOpt      UM062X                                                      6-311+G(d,p)        
Number of atoms                            I                6
Info1-9                                    I   N=           9
          15          15           0           0           0         110
           2          18        -502
Full Title                                 C   N=           2
Title Card Required     
Route                                      C   N=           4
#p opt UM062X/6-311+G** nosymm int=superfine    
Charge                                     I                1
Multiplicity                               I                2
Number of electrons                        I               15
Number of alpha electrons                  I                8
Number of beta electrons                   I                7
Number of basis functions                  I               68
Number of independent functions            I               68
Number of point charges in /Mol/           I                0
Number of translation vectors              I                0
Atomic numbers                             I   N=           6
           6           6           1           1           1           1
Nuclear charges                            R   N=           6
  6.00000000E+00  6.00000000E+00  1.00000000E+00  1.00000000E+00  1.00000000E+00
  1.00000000E+00
Current cartesian coordinates              R   N=          18
 -1.46941551E+00  0.00000000E+00  0.00000000E+00  1.46941551E+00  0.00000000E+00
  0.00000000E+00 -2.47086477E+00 -1.78998939E+00  3.17075391E-08 -2.47096695E+00
  1.78993327E+00  2.98244496E-08  2.47086477E+00  1.78998939E+00  1.02859193E-08
  2.47096695E+00 -1.78993327E+00  8.40639288E-09
Number of symbols in /Mol/                 I                0
Force Field                                I                0
Atom Types                                 C   N=           6
                                                            
            
Int Atom Types                             I   N=           6
           0           0           0           0           0           0
MM charges                                 R   N=           6
  0.00000000E+00  0.00000000E+00  0.00000000E+00  0.00000000E+00  0.00000000E+00
  0.00000000E+00
Integer atomic weights                     I   N=           6
          12          12           1           1           1           1
Real atomic weights                        R   N=           6
  1.20000000E+01  1.20000000E+01  1.00782504E+00  1.00782504E+00  1.00782504E+00
  1.00782504E+00
Atom fragment info                         I   N=           6
           0           0           0           0           0           0
Atom residue num                           I   N=           6
           0           0           0           0           0           0
Nuclear spins                              I   N=           6
           0           0           1           1           1           1
Nuclear ZEff                               R   N=           6
 -3.60000000E+00 -3.60000000E+00 -1.00000000E+00 -1.00000000E+00 -1.00000000E+00
 -1.00000000E+00
Nuclear ZNuc                               R   N=           6
  6.00000000E+00  6.00000000E+00  1.00000000E+00  1.00000000E+00  1.00000000E+00
  1.00000000E+00
Nuclear QMom                               R   N=           6
  0.00000000E+00  0.00000000E+00  0.00000000E+00  0.00000000E+00  0.00000000E+00
  0.00000000E+00
Nuclear GFac                               R   N=           6
  0.00000000E+00  0.00000000E+00  2.79284600E+00  2.79284600E+00  2.79284600E+00
  2.79284600E+00
MicOpt                                     I   N=           6
          -2          -2          -1          -1          -1          -1
Number of residues                         I                0
Number of secondary structures             I                0
Redundant internal dimensions              I   N=           4
          20          10           6           4
Redundant internal coordinate indices      I   N=          80
           1          -1           0           0           1          -2
           0           0           1          -3           0           0
           2          -1           0           0           2          -2
           0           0           2          -3           0           0
           1           3           0           0           1           4
           0           0           2           5           0           0
           2           6           0           0           2           1
           3           0           2           1           4           0
           3           1           4           0           1           2
           5           0           1           2           6           0
           5           2           6           0           3           1
           2           5           3           1           2           6
           4           1           2           5           4           1
           2           6
Redundant internal coordinates             R   N=          20
 -1.46941551E+00  0.00000000E+00  0.00000000E+00  1.46941551E+00  0.00000000E+00
  0.00000000E+00  2.05108816E+00  2.05108908E+00  2.05108816E+00  2.05108908E+00
  2.08088275E+00  2.08093958E+00  2.12136298E+00  2.08088275E+00  2.08093958E+00
  2.12136298E+00 -3.14159263E+00  0.00000000E+00 -0.00000000E+00  3.14159264E+00
ZRed-IntVec                                I   N=          20
          -1          -1          -1          -1          -1          -1
           0           0           0           0           0           0
           0           0           0           0           0           0
           0           0
ZRed-FPVec                                 R   N=          20
  0.00000000E+00  0.00000000E+00  0.00000000E+00  0.00000000E+00  0.00000000E+00
  0.00000000E+00  0.00000000E+00  0.00000000E+00  0.00000000E+00  0.00000000E+00
  0.00000000E+00  0.00000000E+00  0.00000000E+00  0.00000000E+00  0.00000000E+00
  0.00000000E+00  0.00000000E+00  0.00000000E+00  0.00000000E+00  0.00000000E+00
ZRed-Constraint1                           R   N=          20
 -1.46941551E+00  0.00000000E+00  0.00000000E+00  1.46941551E+00  0.00000000E+00
  0.00000000E+00  2.10685240E+00  2.11002266E+00  2.10685240E+00  2.11002266E+00
  2.15124425E+00  2.14639534E+00  1.98554572E+00  2.15124425E+00  2.14639534E+00
  1.98554572E+00  3.14159265E+00  0.00000000E+00  0.00000000E+00  3.14159265E+00
ZRed-Constraint2                           R   N=          20
 -1.46941551E+00  0.00000000E+00  0.00000000E+00  1.46941551E+00  0.00000000E+00
  0.00000000E+00  0.00000000E+00  0.00000000E+00  0.00000000E+00  0.00000000E+00
  0.00000000E+00  0.00000000E+00  0.00000000E+00  0.00000000E+00  0.00000000E+00
  0.00000000E+00  0.00000000E+00  0.00000000E+00  0.00000000E+00  0.00000000E+00
Number of contracted shells                I               28
Number of primitive shells                 I               50
Pure/Cartesian d shells                    I                0
Pure/Cartesian f shells                    I                0
Highest angular momentum                   I                2
Largest degree of contraction              I                6
Shell types                                I   N=          28
           0          -1          -1          -1          -1          -2
           0          -1          -1          -1          -1          -2
           0           0           0           1           0           0
           0           1           0           0           0           1
           0           0           0           1
Number of primitives per shell             I   N=          28
           6           3           1           1           1           1
           6           3           1           1           1           1
           3           1           1           1           3           1
           1           1           3           1           1           1
           3           1           1           1
Shell to atom map                          I   N=          28
           1           1           1           1           1           1
           2           2           2           2           2           2
           3           3           3           3           4           4
           4           4           5           5           5           5
           6           6           6           6
Primitive exponents                        R   N=          50
  4.56324000E+03  6.82024000E+02  1.54973000E+02  4.44553000E+01  1.30290000E+01
  1.82773000E+00  2.09642000E+01  4.80331000E+00  1.45933000E+00  4.83456000E-01
  1.45585000E-01  4.38000000E-02  6.26000000E-01  4.56324000E+03  6.82024000E+02
  1.54973000E+02  4.44553000E+01  1.30290000E+01  1.82773000E+00  2.09642000E+01
  4.80331000E+00  1.45933000E+00  4.83456000E-01  1.45585000E-01  4.38000000E-02
  6.26000000E-01  3.38650000E+01  5.09479000E+00  1.15879000E+00  3.25840000E-01
  1.02741000E-01  7.50000000E-01  3.38650000E+01  5.09479000E+00  1.15879000E+00
  3.25840000E-01  1.02741000E-01  7.50000000E-01  3.38650000E+01  5.09479000E+00
  1.15879000E+00  3.25840000E-01  1.02741000E-01  7.50000000E-01  3.38650000E+01
  5.09479000E+00  1.15879000E+00  3.25840000E-01  1.02741000E-01  7.50000000E-01
Contraction coefficients                   R   N=          50
  1.96665025E-03  1.52306019E-02  7.61269097E-02  2.60801033E-01  6.16462078E-01
  2.21006028E-01  1.14660081E-01  9.19999648E-01 -3.03068213E-03  1.00000000E+00
  1.00000000E+00  1.00000000E+00  1.00000000E+00  1.96665025E-03  1.52306019E-02
  7.61269097E-02  2.60801033E-01  6.16462078E-01  2.21006028E-01  1.14660081E-01
  9.19999648E-01 -3.03068213E-03  1.00000000E+00  1.00000000E+00  1.00000000E+00
  1.00000000E+00  2.54938145E-02  1.90373109E-01  8.52161486E-01  1.00000000E+00
  1.00000000E+00  1.00000000E+00  2.54938145E-02  1.90373109E-01  8.52161486E-01
  1.00000000E+00  1.00000000E+00  1.00000000E+00  2.54938145E-02  1.90373109E-01
  8.52161486E-01  1.00000000E+00  1.00000000E+00  1.00000000E+00  2.54938145E-02
  1.90373109E-01  8.52161486E-01  1.00000000E+00  1.00000000E+00  1.00000000E+00
P(S=P) Contraction coefficients            R   N=          50
  0.00000000E+00  0.00000000E+00  0.00000000E+00  0.00000000E+00  0.00000000E+00
  0.00000000E+00  4.02486927E-02  2.37593957E-01  8.15853851E-01  1.00000000E+00
  1.00000000E+00  1.00000000E+00  0.00000000E+00  0.00000000E+00  0.00000000E+00
  0.00000000E+00  0.00000000E+00  0.00000000E+00  0.00000000E+00  4.02486927E-02
  2.37593957E-01  8.15853851E-01  1.00000000E+00  1.00000000E+00  1.00000000E+00
  0.00000000E+00  0.00000000E+00  0.00000000E+00  0.00000000E+00  0.00000000E+00
  0.00000000E+00  0.00000000E+00  0.00000000E+00  0.00000000E+00  0.00000000E+00
  0.00000000E+00  0.00000000E+00  0.00000000E+00  0.00000000E+00  0.00000000E+00
  0.00000000E+00  0.00000000E+00  0.00000000E+00  0.00000000E+00  0.00000000E+00
  0.00000000E+00  0.00000000E+00  0.00000000E+00  0.00000000E+00  0.00000000E+00
Coordinates of each shell                  R   N=          84
 -1.46941551E+00  0.00000000E+00  0.00000000E+00 -1.46941551E+00  0.00000000E+00
  0.00000000E+00 -1.46941551E+00  0.00000000E+00  0.00000000E+00 -1.46941551E+00
  0.00000000E+00  0.00000000E+00 -1.46941551E+00  0.00000000E+00  0.00000000E+00
 -1.46941551E+00  0.00000000E+00  0.00000000E+00  1.46941551E+00  0.00000000E+00
  0.00000000E+00  1.46941551E+00  0.00000000E+00  0.00000000E+00  1.46941551E+00
  0.00000000E+00  0.00000000E+00  1.46941551E+00  0.00000000E+00  0.00000000E+00
  1.46941551E+00  0.00000000E+00  0.00000000E+00  1.46941551E+00  0.00000000E+00
  0.00000000E+00 -2.47086477E+00 -1.78998939E+00  3.17075391E-08 -2.47086477E+00
 -1.78998939E+00  3.17075391E-08 -2.47086477E+00 -1.78998939E+00  3.17075391E-08
 -2.47086477E+00 -1.78998939E+00  3.17075391E-08 -2.47096695E+00  1.78993327E+00
  2.98244496E-08 -2.47096695E+00  1.78993327E+00  2.98244496E-08 -2.47096695E+00
  1.78993327E+00  2.98244496E-08 -2.47096695E+00  1.78993327E+00  2.98244496E-08
  2.47086477E+00  1.78998939E+00  1.02859193E-08  2.47086477E+00  1.78998939E+00
  1.02859193E-08  2.47086477E+00  1.78998939E+00  1.02859193E-08  2.47086477E+00
  1.78998939E+00  1.02859193E-08  2.47096695E+00 -1.78993327E+00  8.40639288E-09
  2.47096695E+00 -1.78993327E+00  8.40639288E-09  2.47096695E+00 -1.78993327E+00
  8.40639288E-09  2.47096695E+00 -1.78993327E+00  8.40639288E-09
Num ILSW                                   I              100
ILSW                                       I   N=         100
           1           0           0           1           2           0
           0           0           0           0        4336          -1
           7           0           0           0           2           0
           0           0           0           0           1           0
           1           1           0           0           0           0
           0           0      100000           0          -1           0
           0           0           0           0           0           0
           0           0           0           1           0           0
           0 -2000000000           1           0           0           0
           0           0           4          52           0           0
           0           0          55           0           0           0
           0           0           0           6           0           1
           0           0           0           0           0           0
           0           0           0           0           0           0
           0           0           0           0           0           0
           0           0           0           0           0           0
           0           0           0           0
Num RLSW                                   I               52
RLSW                                       R   N=          52
  1.00000000E+00  1.00000000E+00  1.00000000E+00  1.00000000E+00  5.40000000E-01
  0.00000000E+00  0.00000000E+00  1.00000000E+00  0.00000000E+00  0.00000000E+00
  0.00000000E+00  0.00000000E+00  1.00000000E+00  0.00000000E+00  0.00000000E+00
  0.00000000E+00  0.00000000E+00  1.00000000E+00  0.00000000E+00  0.00000000E+00
  0.00000000E+00  0.00000000E+00  1.00000000E+00  0.00000000E+00  0.00000000E+00
  0.00000000E+00  0.00000000E+00  1.00000000E+00  0.00000000E+00  0.00000000E+00
  0.00000000E+00  0.00000000E+00  1.00000000E+00  0.00000000E+00  0.00000000E+00
  0.00000000E+00  0.00000000E+00  0.00000000E+00  1.00000000E+00  1.00000000E+00
  0.00000000E+00  1.00000000E+00  0.00000000E+00  0.00000000E+00  0.00000000E+00
  0.00000000E+00  0.00000000E+00  0.00000000E+00  0.00000000E+00  0.00000000E+00
  0.00000000E+00  0.00000000E+00
MxBond                                     I                3
NBond                                      I   N=           6
           3           3           1           1           1           1
IBond                                      I   N=          18
           2           3           4           1           5           6
           1           0           0           1           0           0
           2           0           0           2           0           0
RBond                                      R   N=          18
  1.00000000E+00  1.00000000E+00  1.00000000E+00  1.00000000E+00  1.00000000E+00
  1.00000000E+00  1.00000000E+00  0.00000000E+00  0.00000000E+00  1.00000000E+00
  0.00000000E+00  0.00000000E+00  1.00000000E+00  0.00000000E+00  0.00000000E+00
  1.00000000E+00  0.00000000E+00  0.00000000E+00
Virial Ratio                               R      2.007262631086111E+00
SCF Energy                                 R     -7.817119233985611E+01
Total Energy                               R     -7.817119233985611E+01
S**2                                       R      7.524339880877555E-01
S**2 after annihilation                    R      7.500047067170573E-01
RMS Force                                  R      6.180383820016623E-06
RMS Density                                R      4.885667044789196E-09
Job Status                                 I                1
Nuclear derivative order                   I                1
External E-field                           R   N=          35
  0.00000000E+00  0.00000000E+00  0.00000000E+00  0.00000000E+00  0.00000000E+00
  0.00000000E+00  0.00000000E+00  0.00000000E+00  0.00000000E+00  0.00000000E+00
  0.00000000E+00  0.00000000E+00  0.00000000E+00  0.00000000E+00  0.00000000E+00
  0.00000000E+00  0.00000000E+00  0.00000000E+00  0.00000000E+00  0.00000000E+00
  0.00000000E+00  0.00000000E+00  0.00000000E+00  0.00000000E+00  0.00000000E+00
  0.00000000E+00  0.00000000E+00  0.00000000E+00  0.00000000E+00  0.00000000E+00
  0.00000000E+00  0.00000000E+00  0.00000000E+00  0.00000000E+00  0.00000000E+00
IOpCl                                      I                1
IROHF                                      I                0
Alpha Orbital Energies                     R   N=          68
 -1.09053622E+01 -1.09049118E+01 -1.14511403E+00 -9.83919827E-01 -8.32914317E-01
 -7.66079714E-01 -7.44078544E-01 -6.34715858E-01 -3.17183290E-01 -1.45830057E-01
 -1.32289332E-01 -1.18667412E-01 -9.29022891E-02 -7.61244968E-02 -7.07253784E-02
 -4.68333896E-02 -4.57077504E-02 -2.08406453E-02 -1.95588206E-02 -8.57594144E-03
  3.78995415E-02  1.02678980E-01  1.95080448E-01  2.32222478E-01  2.70021137E-01
  3.07440353E-01  3.24600565E-01  3.74667023E-01  4.18900079E-01  4.30341750E-01
  4.60676459E-01  4.77193724E-01  5.53758520E-01  5.80043055E-01  7.64345915E-01
  7.77857164E-01  8.45827359E-01  1.15424790E+00  1.16541468E+00  1.17768261E+00
  1.21296421E+00  1.29151670E+00  1.33156353E+00  1.33158716E+00  1.47911193E+00
  1.59457686E+00  1.66350948E+00  1.67470216E+00  1.72658317E+00  1.81940792E+00
  1.82162530E+00  1.87911796E+00  2.14051133E+00  2.18822451E+00  2.26888802E+00
  2.32236458E+00  2.38912719E+00  2.39930695E+00  2.42336429E+00  2.50469214E+00
  2.54248918E+00  2.64733168E+00  2.76506906E+00  3.42429914E+00  3.51535779E+00
  3.78164817E+00  2.35210997E+01  2.35511076E+01
Beta Orbital Energies                      R   N=          68
 -1.09031064E+01 -1.09027715E+01 -1.10824670E+00 -9.63969111E-01 -8.23578012E-01
 -7.55722410E-01 -7.40664567E-01 -4.00614515E-01 -2.41508744E-01 -1.63033341E-01
 -1.29460525E-01 -1.21344011E-01 -9.58591096E-02 -8.40162267E-02 -7.12399486E-02
 -4.70062235E-02 -3.91779453E-02 -1.79875186E-02 -1.52515442E-02  5.79692129E-03
  4.05253772E-02  1.07473469E-01  1.89996963E-01  2.27572711E-01  2.77976643E-01
  3.17921520E-01  3.23912315E-01  3.61975310E-01  4.32057820E-01  4.42686128E-01
  4.71629156E-01  4.84799743E-01  5.29105732E-01  5.70241612E-01  7.98206548E-01
  8.16874907E-01  8.71562251E-01  1.17326220E+00  1.18691575E+00  1.19444541E+00
  1.25722981E+00  1.31991054E+00  1.34336135E+00  1.34723946E+00  1.49399685E+00
  1.61585614E+00  1.69181509E+00  1.70398372E+00  1.74181858E+00  1.83726239E+00
  1.83998573E+00  1.91189505E+00  2.17410522E+00  2.22373676E+00  2.27927240E+00
  2.32923502E+00  2.40932813E+00  2.42152881E+00  2.46129760E+00  2.52615381E+00
  2.58844464E+00  2.68751028E+00  2.78638782E+00  3.47276300E+00  3.56372010E+00
  3.84117018E+00  2.35345192E+01  2.35645660E+01
Alpha MO coefficients                      R   N=        4624
  3.98989168E-01  3.27967818E-01  7.31196128E-04  1.79732703E-08 -2.79835895E-11
  8.46880272E-03 -1.64494444E-03 -4.97642014E-08  6.41028356E-11 -2.16565248E-03
 -6.33067557E-05  4.39956913E-08 -6.03776392E-12 -6.04436884E-04  5.72026958E-04
 -3.19840696E-08 -1.27831091E-11 -7.15801941E-04 -2.17039032E-11 -1.22002321E-12
 -8.96680951E-04 -7.72131568E-08  3.98989168E-01  3.27967818E-01 -7.31196128E-04
 -1.79732723E-08 -1.11337619E-11  8.46880271E-03  1.64494444E-03  4.97642144E-08
  2.01844528E-11 -2.16565247E-03  6.33067550E-05 -4.39956893E-08 -3.70651935E-12
 -6.04436887E-04 -5.72026957E-04  3.19840687E-08  2.08757820E-12 -7.15801940E-04
  8.04834471E-12  1.21817504E-12 -8.96680951E-04 -7.72131512E-08  1.59372535E-04
 -2.36753286E-03  1.57011889E-03 -7.20059880E-04 -1.27179309E-03  2.13494859E-11
  1.59377535E-04 -2.36761473E-03  1.57016171E-03 -7.20139900E-04  1.27176902E-03
  2.00512230E-11  1.59372535E-04 -2.36753285E-03  1.57011889E-03  7.20059880E-04
  1.27179309E-03  6.80060237E-12  1.59377535E-04 -2.36761473E-03  1.57016171E-03
  7.20139899E-04 -1.27176902E-03  5.50487331E-12  3.99020735E-01  3.28071833E-01
  2.13121919E-04  9.23486740E-09 -2.62842855E-11  7.93920244E-03 -8.53289476E-04
 -3.36363310E-08  5.38242499E-11 -4.06409529E-03 -9.58156054E-04  7.60268868E-09
 -1.19184523E-11  3.01767557E-03  1.42915040E-03  1.18092793E-08 -1.25567568E-11
 -8.64574709E-04 -1.71412178E-11 -7.51001019E-13 -2.52109863E-04 -3.29034321E-08
 -3.99020735E-01 -3.28071834E-01  2.13121920E-04  9.23486672E-09  1.17767164E-11
 -7.93920244E-03 -8.53289478E-04 -3.36363341E-08 -1.73548681E-11  4.06409529E-03
 -9.58156054E-04  7.60258593E-09  4.93550130E-12 -3.01767557E-03  1.42915040E-03
  1.18092219E-08  7.64450246E-12  8.64574710E-04 -5.40186650E-12 -7.48560532E-13
  2.52109864E-04  3.29034248E-08  2.12018837E-04 -1.76612606E-03  1.37523674E-03
 -4.91364516E-04 -1.06798381E-03  1.83278375E-11  2.12011947E-04 -1.76613537E-03
  1.37522738E-03 -4.91410356E-04  1.06796321E-03  1.71604444E-11 -2.12018837E-04
  1.76612607E-03 -1.37523674E-03 -4.91364516E-04 -1.06798381E-03 -5.82381972E-12
 -2.12011947E-04  1.76613537E-03 -1.37522738E-03 -4.91410357E-04  1.06796321E-03
 -4.65845430E-12 -8.34746649E-02 -1.35648876E-01  3.24891567E-02 -6.05366007E-07
  4.35264469E-10  3.69043841E-01  5.65263773E-02 -5.84027456E-07  4.66570140E-10
  2.16813592E-01  1.76389725E-02 -4.49946868E-07  2.94592533E-10  9.45077898E-05
 -9.66469542E-03  1.74413242E-07  1.26705957E-10 -6.22223170E-03 -5.95835819E-12
 -1.83354886E-12  7.65212017E-03 -2.81355213E-07 -8.34746649E-02 -1.35648876E-01
 -3.24891567E-02  6.05366010E-07  2.44421951E-10  3.69043841E-01 -5.65263773E-02
  5.84027455E-07  2.86660392E-10  2.16813592E-01 -1.76389725E-02  4.49946858E-07
  1.94461452E-10  9.45077924E-05  9.66469542E-03 -1.74413244E-07 -4.16656597E-11
 -6.22223170E-03 -2.55232737E-11  1.81875748E-12  7.65212017E-03 -2.81355217E-07
  5.48477954E-02  5.87012302E-02 -9.72820136E-03  6.07429401E-03  9.60982544E-03
 -1.51773033E-10  5.48467506E-02  5.87007169E-02 -9.72834452E-03  6.07468721E-03
 -9.60925183E-03 -1.40912520E-10  5.48477954E-02  5.87012302E-02 -9.72820136E-03
 -6.07429401E-03 -9.60982544E-03 -4.82785733E-11  5.48467506E-02  5.87007169E-02
 -9.72834453E-03 -6.07468721E-03  9.60925183E-03 -3.74742691E-11 -7.34918084E-02
 -1.20414575E-01 -6.64500573E-02 -7.61189870E-07  1.02029452E-09  3.35011321E-01
 -9.86049992E-02 -1.06234618E-06  1.34877335E-09  2.65884351E-01 -2.49643514E-02
 -6.98447943E-07  6.64630373E-10 -6.20195739E-02 -2.18021239E-02 -2.95843411E-08
  1.72278057E-10 -1.36451398E-03 -1.09228096E-10 -7.57804394E-12 -1.16170078E-02
 -5.66477626E-07  7.34918084E-02  1.20414575E-01 -6.64500573E-02 -7.61189865E-07
 -1.93995006E-10 -3.35011321E-01 -9.86049992E-02 -1.06234622E-06 -2.04662796E-10
 -2.65884351E-01 -2.49643514E-02 -6.98447744E-07 -1.18276140E-10  6.20195739E-02
 -2.18021239E-02 -2.95841160E-08 -1.28815834E-10  1.36451398E-03 -8.76486375E-11
 -7.55274619E-12  1.16170078E-02  5.66477623E-07  8.54641332E-02  1.00414740E-01
 -2.83812385E-03  4.64557139E-03  1.33793679E-02 -1.96500073E-10  8.54654531E-02
  1.00416740E-01 -2.83804498E-03  4.64641336E-03 -1.33793389E-02 -1.80753632E-10
 -8.54641332E-02 -1.00414740E-01  2.83812385E-03  4.64557139E-03  1.33793679E-02
  7.44876044E-11 -8.54654531E-02 -1.00416740E-01  2.83804498E-03  4.64641336E-03
 -1.33793389E-02  5.88230863E-11 -5.25583065E-08 -7.46761696E-08 -1.93375916E-06
  1.58292814E-01 -5.00177980E-11  2.92791842E-07 -2.23874208E-06  2.37590594E-01
 -7.00588303E-11 -1.69419096E-06 -2.52921243E-06  1.42309510E-01 -4.72863359E-11
 -7.17873178E-06 -2.28068397E-06  4.18873109E-03 -8.58611081E-12  1.72703756E-07
  8.03794280E-12  4.50155744E-10  1.10264217E-06  8.70845350E-04  5.25583080E-08
  7.46761729E-08 -1.93375917E-06  1.58292814E-01  4.98429678E-11 -2.92791847E-07
 -2.23874210E-06  2.37590594E-01  6.97354517E-11  1.69419092E-06 -2.52921245E-06
  1.42309510E-01  4.71574516E-11  7.17873177E-06 -2.28068397E-06  4.18873109E-03
  8.56458202E-12 -1.72703755E-07  8.06518932E-12  1.68002045E-10 -1.10264217E-06
 -8.70845350E-04 -9.72594180E-02 -1.21379656E-01  6.59994886E-04 -8.48651448E-03
 -9.35240434E-03  2.61463515E-10  9.72578709E-02  1.21378196E-01 -6.59645826E-04
  8.48730673E-03 -9.35212393E-03 -2.47242406E-10  9.72594180E-02  1.21379656E-01
 -6.59994886E-04 -8.48651448E-03 -9.35240434E-03 -8.36379939E-11 -9.72578709E-02
 -1.21378196E-01  6.59645826E-04  8.48730673E-03 -9.35212393E-03  6.93551774E-11
 -1.22908288E-03 -2.23725319E-03  1.90491559E-01 -2.79179869E-05 -2.37900846E-09
  1.28602971E-02  2.94810908E-01 -4.05350541E-05 -3.65286174E-09 -1.49785700E-02
  1.50081525E-01 -3.09757580E-05 -2.19381229E-09 -3.19572024E-03 -1.05766806E-02
 -4.61743880E-06  1.38060495E-11 -1.29611298E-03 -1.87743857E-11  8.07056276E-12
  2.08256237E-02  5.12307182E-06 -1.22908288E-03 -2.23725319E-03 -1.90491559E-01
  2.79179869E-05 -1.15321669E-09  1.28602971E-02 -2.94810908E-01  4.05350540E-05
 -1.90614255E-09 -1.49785700E-02 -1.50081525E-01  3.09757580E-05 -1.07694996E-09
 -3.19572024E-03  1.05766806E-02  4.61743880E-06  4.88204284E-11 -1.29611298E-03
  1.51711662E-10 -8.11063343E-12  2.08256237E-02  5.12307182E-06 -7.18489592E-02
 -1.01436232E-01 -1.94738831E-02  2.40182225E-03 -1.05720390E-02  6.70393308E-11
 -7.18933193E-02 -1.01494429E-01 -1.94753445E-02  2.39744796E-03  1.05755539E-02
  5.48560731E-11 -7.18489592E-02 -1.01436232E-01 -1.94738831E-02 -2.40182225E-03
  1.05720390E-02  6.35584136E-12 -7.18933193E-02 -1.01494429E-01 -1.94753445E-02
 -2.39744796E-03 -1.05755539E-02 -5.81049142E-12 -9.21253563E-07 -1.58466045E-06
  3.48748526E-05  1.60133810E-01 -1.63169365E-10  6.00892846E-06  5.45235275E-05
  2.36473631E-01 -2.60054632E-10  1.78930416E-06  2.77313887E-05  1.70395477E-01
 -1.72077801E-10 -1.96686379E-07 -2.86524392E-06  1.55438661E-02  1.35404651E-12
 -9.74783561E-08 -9.53861399E-12  5.51954852E-10  5.16347849E-06 -2.65321972E-02
 -9.21253562E-07 -1.58466045E-06 -3.48748526E-05 -1.60133810E-01 -1.62740637E-10
  6.00892844E-06 -5.45235275E-05 -2.36473631E-01 -2.59523362E-10  1.78930430E-06
 -2.77313887E-05 -1.70395477E-01 -1.71668909E-10 -1.96688970E-07  2.86524468E-06
 -1.55438661E-02  1.35787735E-12 -9.74783641E-08  9.59137881E-12 -1.27368648E-10
  5.16347849E-06 -2.65321972E-02 -1.12495846E-01 -1.52178095E-01 -1.64431551E-02
 -9.02732609E-03 -7.51369603E-03  2.23418251E-10  1.12467608E-01  1.52137503E-01
  1.64329515E-02  9.02892729E-03 -7.50893357E-03 -2.22031920E-10 -1.12495846E-01
 -1.52178095E-01 -1.64431551E-02  9.02732609E-03  7.51369603E-03  6.66548294E-11
  1.12467608E-01  1.52137503E-01  1.64329515E-02 -9.02892729E-03  7.50893357E-03
 -6.52153751E-11  6.81028630E-10  1.17119696E-09  2.42502827E-09  1.71644070E-10
  1.85745413E-01 -3.74100504E-09  3.85730890E-09  2.64560890E-10  3.10987169E-01
 -3.69991070E-09  2.18597682E-09  1.22003103E-10  2.53635333E-01  3.82247315E-09
  1.04276787E-09 -3.42917020E-11 -2.17533013E-03 -2.26692226E-10  2.71403571E-02
 -9.80441755E-08  7.21501435E-11 -1.94640148E-11  6.69564197E-12  1.05919218E-11
 -2.07244180E-09 -1.71372773E-10  1.85745413E-01 -5.95680350E-12 -3.20490751E-09
 -2.64522562E-10  3.10987169E-01 -1.38817649E-10 -2.12858051E-09 -1.21707695E-10
  2.53635333E-01 -3.42391732E-09  9.50947464E-10  3.43603283E-11 -2.17533013E-03
 -4.33167505E-11 -2.71403571E-02  9.80441761E-08  9.38165016E-11 -1.96595883E-11
  3.30814493E-10 -1.03315579E-10 -5.86816636E-10  1.77158191E-10  2.12889214E-11
  1.02501533E-02  4.63002786E-10  1.70655539E-10 -4.17111707E-10  1.90697503E-10
 -2.19681578E-11  1.02502126E-02 -2.82576273E-10 -7.08952104E-10 -1.94181305E-10
 -9.62415815E-11  4.73759840E-11  1.02501533E-02 -1.50335982E-10 -4.35693228E-10
 -2.40744554E-11 -1.09628607E-10 -4.70616222E-11  1.02502126E-02  9.54529847E-10
  1.64683570E-09  1.45961405E-09  8.52828623E-11  2.07383541E-01 -5.11682206E-09
  2.46802967E-09  1.42234547E-10  3.37732233E-01 -9.51825596E-09  3.08438831E-09
  2.13992997E-10  4.26480497E-01  6.06691553E-09  2.41851126E-09  3.54995179E-11
  1.02413757E-01 -3.94332192E-10 -2.09564395E-02 -1.04623264E-07 -1.46731993E-10
  1.98637808E-11 -5.08337419E-10 -8.66221807E-10 -4.46230484E-10  8.50925470E-11
 -2.07383541E-01  2.72670097E-09 -7.46446122E-10  1.41424809E-10 -3.37732233E-01
  3.73078693E-09 -3.18545062E-10  2.13583694E-10 -4.26480497E-01 -6.92661410E-09
  1.81596601E-09  3.58349001E-11 -1.02413757E-01  1.23921258E-10 -2.09564395E-02
 -1.04623264E-07  2.41805840E-11 -2.01042872E-11  1.74179769E-09  3.11521869E-09
  2.05983753E-09  1.53499914E-10  1.52605657E-10  1.78614463E-02  1.65895155E-09
  2.94486762E-09  1.88299587E-09  1.55331832E-10 -1.32917640E-10  1.78618482E-02
 -7.36825836E-10 -1.24143079E-09 -6.61055401E-10 -2.43214783E-11  6.45822661E-11
 -1.78614463E-02 -6.53907297E-10 -1.07181096E-09 -4.83261794E-10 -2.23318081E-11
 -4.53910382E-11 -1.78618482E-02  3.12801746E-02  5.41933549E-02  4.28847178E-02
  1.48719371E-06 -9.63951479E-10 -1.70554176E-01  6.19495288E-02  1.62923697E-06
 -2.21170931E-09 -6.75191134E-01  1.94746029E-01  1.81462408E-05 -3.38915684E-09
  8.34939708E-01 -1.20298258E-01  2.87199826E-05  6.42941873E-09  1.07891458E-02
  8.92748112E-11  9.26100165E-12 -5.73199669E-03  4.93550869E-07  3.12801746E-02
  5.41933549E-02 -4.28847178E-02 -1.48719374E-06 -3.32605639E-10 -1.70554176E-01
 -6.19495288E-02 -1.62923707E-06 -6.96470942E-10 -6.75191134E-01 -1.94746029E-01