 Entering Gaussian System, Link 0=g16
 Initial command:
 /home/szhao/Apps/g16/l1.exe "/home/szhao/tmp/Gau-86041.inp" -scrdir="/home/szhao/tmp/"
 Default is to use a total of  16 processors:
                               16 via shared-memory
                                1 via Linda
 Entering Link 1 = /home/szhao/Apps/g16/l1.exe PID=     86042.
  
 Copyright (c) 1988,1990,1992,1993,1995,1998,2003,2009,2016,
            Gaussian, Inc.  All Rights Reserved.
  
 This is part of the Gaussian(R) 16 program.  It is based on
 the Gaussian(R) 09 system (copyright 2009, Gaussian, Inc.),
 the Gaussian(R) 03 system (copyright 2003, Gaussian, Inc.),
 the Gaussian(R) 98 system (copyright 1998, Gaussian, Inc.),
 the Gaussian(R) 94 system (copyright 1995, Gaussian, Inc.),
 the Gaussian 92(TM) system (copyright 1992, Gaussian, Inc.),
 the Gaussian 90(TM) system (copyright 1990, Gaussian, Inc.),
 the Gaussian 88(TM) system (copyright 1988, Gaussian, Inc.),
 the Gaussian 86(TM) system (copyright 1986, Carnegie Mellon
 University), and the Gaussian 82(TM) system (copyright 1983,
 Carnegie Mellon University). Gaussian is a federally registered
 trademark of Gaussian, Inc.
  
 This software contains proprietary and confidential information,
 including trade secrets, belonging to Gaussian, Inc.
  
 This software is provided under written license and may be
 used, copied, transmitted, or stored only in accord with that
 written license.
  
 The following legend is applicable only to US Government
 contracts under FAR:
  
                    RESTRICTED RIGHTS LEGEND
  
 Use, reproduction and disclosure by the US Government is
 subject to restrictions as set forth in subparagraphs (a)
 and (c) of the Commercial Computer Software - Restricted
 Rights clause in FAR 52.227-19.
  
 Gaussian, Inc.
 340 Quinnipiac St., Bldg. 40, Wallingford CT 06492
  
  
 ---------------------------------------------------------------
 Warning -- This program may not be used in any manner that
 competes with the business of Gaussian, Inc. or will provide
 assistance to any competitor of Gaussian, Inc.  The licensee
 of this program is prohibited from giving any competitor of
 Gaussian, Inc. access to this program.  By using this program,
 the user acknowledges that Gaussian, Inc. is engaged in the
 business of creating and licensing software in the field of
 computational chemistry and represents and warrants to the
 licensee that it is not a competitor of Gaussian, Inc. and that
 it will not use this program in any manner prohibited above.
 ---------------------------------------------------------------
  

 Cite this work as:
 Gaussian 16, Revision A.03,
 M. J. Frisch, G. W. Trucks, H. B. Schlegel, G. E. Scuseria, 
 M. A. Robb, J. R. Cheeseman, G. Scalmani, V. Barone, 
 G. A. Petersson, H. Nakatsuji, X. Li, M. Caricato, A. V. Marenich, 
 J. Bloino, B. G. Janesko, R. Gomperts, B. Mennucci, H. P. Hratchian, 
 J. V. Ortiz, A. F. Izmaylov, J. L. Sonnenberg, D. Williams-Young, 
 F. Ding, F. Lipparini, F. Egidi, J. Goings, B. Peng, A. Petrone, 
 T. Henderson, D. Ranasinghe, V. G. Zakrzewski, J. Gao, N. Rega, 
 G. Zheng, W. Liang, M. Hada, M. Ehara, K. Toyota, R. Fukuda, 
 J. Hasegawa, M. Ishida, T. Nakajima, Y. Honda, O. Kitao, H. Nakai, 
 T. Vreven, K. Throssell, J. A. Montgomery, Jr., J. E. Peralta, 
 F. Ogliaro, M. J. Bearpark, J. J. Heyd, E. N. Brothers, K. N. Kudin, 
 V. N. Staroverov, T. A. Keith, R. Kobayashi, J. Normand, 
 K. Raghavachari, A. P. Rendell, J. C. Burant, S. S. Iyengar, 
 J. Tomasi, M. Cossi, J. M. Millam, M. Klene, C. Adamo, R. Cammi, 
 J. W. Ochterski, R. L. Martin, K. Morokuma, O. Farkas, 
 J. B. Foresman, and D. J. Fox, Gaussian, Inc., Wallingford CT, 2016.
 
 ******************************************
 Gaussian 16:  ES64L-G16RevA.03 25-Dec-2016
                21-Apr-2025 
 ******************************************
 %chk=opt.chk
 %mem=4GB
 %nprocshared=8
 Will use up to    8 processors via shared memory.
 --------------------------------------------
 #p opt UM062X/6-311+G** nosymm int=superfine
 --------------------------------------------
 1/18=20,19=15,26=5,38=1/1,3;
 2/9=110,12=2,15=1,17=6,18=5,40=1/2;
 3/5=4,6=6,7=111,11=2,25=1,30=1,71=1,74=-55,75=-7,116=2/1,2,3;
 4//1;
 5/5=2,38=5/2;
 6/7=2,8=2,9=2,10=2,28=1/1;
 7/30=1/1,2,3,16;
 1/18=20,19=15,26=5/3(2);
 2/9=110,15=1/2;
 99//99;
 2/9=110,15=1/2;
 3/5=4,6=6,7=111,11=2,25=1,30=1,71=1,74=-55,75=-7,116=2/1,2,3;
 4/5=5,16=3,69=1/1;
 5/5=2,38=5/2;
 7/30=1/1,2,3,16;
 1/18=20,19=15,26=5/3(-5);
 2/9=110,15=1/2;
 6/7=2,8=2,9=2,10=2,19=2,28=1/1;
 99/9=1/99;
 Leave Link    1 at Mon Apr 21 19:43:02 2025, MaxMem=   536870912 cpu:               3.7 elap:               0.4
 (Enter /home/szhao/Apps/g16/l101.exe)
 -------------------
 Title Card Required
 -------------------
 Symbolic Z-matrix:
 Charge =  0 Multiplicity = 1
 C                    -1   -1.62714   0.        0. 
 S                    -1    1.62714   0.        0. 
 H                    0    -2.20278  -0.92504   0. 
 H                    0    -2.2039    0.92434  -0.00015 
 
 Add virtual bond connecting atoms S2         and C1         Dist= 6.15D+00.
 ITRead=  2  2  0  0
 MicOpt= -2 -2 -1 -1
 NAtoms=      4 NQM=        2 NQMF=       2 NMMI=      0 NMMIF=      0
                NMic=       0 NMicF=      0.
                    Isotopes and Nuclear Properties:
 (Nuclear quadrupole moments (NQMom) in fm**2, nuclear magnetic moments (NMagM)
  in nuclear magnetons)

  Atom         1           2           3           4
 IAtWgt=          12          32           1           1
 AtmWgt=  12.0000000  31.9720718   1.0078250   1.0078250
 NucSpn=           0           0           1           1
 AtZEff=  -0.0000000  -0.0000000  -0.0000000  -0.0000000
 NQMom=    0.0000000   0.0000000   0.0000000   0.0000000
 NMagM=    0.0000000   0.0000000   2.7928460   2.7928460
 AtZNuc=   6.0000000  16.0000000   1.0000000   1.0000000
 Leave Link  101 at Mon Apr 21 19:43:03 2025, MaxMem=   536870912 cpu:               2.9 elap:               0.4
 (Enter /home/szhao/Apps/g16/l103.exe)

 GradGradGradGradGradGradGradGradGradGradGradGradGradGradGradGradGradGrad
 Berny optimization.
 Initialization pass.
                           ----------------------------
                           !    Initial Parameters    !
                           ! (Angstroms and Degrees)  !
 --------------------------                            --------------------------
 ! Name  Definition              Value          Derivative Info.                !
 --------------------------------------------------------------------------------
 ! X1    R(1,-1)                -1.6271         Frozen                          !
 ! Y1    R(1,-2)                 0.0            Frozen                          !
 ! Z1    R(1,-3)                 0.0            Frozen                          !
 ! X2    R(2,-1)                 1.6271         Frozen                          !
 ! Y2    R(2,-2)                 0.0            Frozen                          !
 ! Z2    R(2,-3)                 0.0            Frozen                          !
 ! R1    R(1,3)                  1.0895         estimate D2E/DX2                !
 ! R2    R(1,4)                  1.0895         estimate D2E/DX2                !
 ! A1    A(2,1,3)              121.8936         estimate D2E/DX2                !
 ! A2    A(2,1,4)              121.9628         estimate D2E/DX2                !
 ! A3    A(3,1,4)              116.1436         estimate D2E/DX2                !
 ! D1    D(2,1,4,3)            179.9911         estimate D2E/DX2                !
 --------------------------------------------------------------------------------
 Trust Radius=3.00D-01 FncErr=1.00D-07 GrdErr=1.00D-07 EigMax=2.50D+02 EigMin=1.00D-04
 Number of steps in this run=     22 maximum allowed number of steps=    100.
 GradGradGradGradGradGradGradGradGradGradGradGradGradGradGradGradGradGrad

 Leave Link  103 at Mon Apr 21 19:43:04 2025, MaxMem=   536870912 cpu:               0.2 elap:               0.4
 (Enter /home/szhao/Apps/g16/l202.exe)
                          Input orientation:                          
 ---------------------------------------------------------------------
 Center     Atomic      Atomic             Coordinates (Angstroms)
 Number     Number       Type             X           Y           Z
 ---------------------------------------------------------------------
      1          6           0       -1.627140    0.000000    0.000000
      2         16           0        1.627140    0.000000    0.000000
      3          1           0       -2.202782   -0.925037    0.000000
      4          1           0       -2.203896    0.924339   -0.000152
 ---------------------------------------------------------------------
                    Distance matrix (angstroms):
                    1          2          3          4
     1  C    0.000000
     2  S    3.254279   0.000000
     3  H    1.089522   3.940050   0.000000
     4  H    1.089518   3.940969   1.849376   0.000000
 Symmetry turned off by external request.
 Stoichiometry    CH2S
 Framework group  C1[X(CH2S)]
 Deg. of freedom     6
 Full point group                 C1      NOp   1
 Rotational constants (GHZ):         293.2322156           4.6327398           4.5606861
 Leave Link  202 at Mon Apr 21 19:43:04 2025, MaxMem=   536870912 cpu:               0.5 elap:               0.1
 (Enter /home/szhao/Apps/g16/l301.exe)
 Standard basis: 6-311+G(d,p) (5D, 7F)
 Ernie: Thresh=  0.10000D-02 Tol=  0.10000D-05 Strict=F.
    64 basis functions,   102 primitive gaussians,    66 cartesian basis functions
    12 alpha electrons       12 beta electrons
       nuclear repulsion energy        26.0223665314 Hartrees.
 IExCor= 4336 DFT=T Ex+Corr=M062X ExCW=0 ScaHFX=  0.540000
 ScaDFX=  1.000000  1.000000  1.000000  1.000000 ScalE2=  1.000000  1.000000
 IRadAn=      7 IRanWt=     -1 IRanGd=            0 ICorTp=0 IEmpDi=  4
 NAtoms=    4 NActive=    4 NUniq=    4 SFac= 1.00D+00 NAtFMM=   60 NAOKFM=F Big=F
 Integral buffers will be    131072 words long.
 Raffenetti 2 integral format.
 Two-electron integral symmetry is turned off.
 Leave Link  301 at Mon Apr 21 19:43:05 2025, MaxMem=   536870912 cpu:               0.9 elap:               0.2
 (Enter /home/szhao/Apps/g16/l302.exe)
 NPDir=0 NMtPBC=     1 NCelOv=     1 NCel=       1 NClECP=     1 NCelD=      1
         NCelK=      1 NCelE2=     1 NClLst=     1 CellRange=     0.0.
 One-electron integrals computed using PRISM.
 NBasis=    64 RedAO= T EigKep=  1.28D-02  NBF=    64
 NBsUse=    64 1.00D-06 EigRej= -1.00D+00 NBFU=    64
 Precomputing XC quadrature grid using
 IXCGrd= 4 IRadAn=           7 IRanWt=          -1 IRanGd=           0 AccXCQ= 0.00D+00.
 Generated NRdTot=       0 NPtTot=           0 NUsed=           0 NTot=          32
 NSgBfM=    65    65    65    65    65 MxSgAt=     4 MxSgA2=     4.
 Leave Link  302 at Mon Apr 21 19:43:05 2025, MaxMem=   536870912 cpu:               1.8 elap:               0.3
 (Enter /home/szhao/Apps/g16/l303.exe)
 DipDrv:  MaxL=1.
 Leave Link  303 at Mon Apr 21 19:43:06 2025, MaxMem=   536870912 cpu:               0.9 elap:               0.1
 (Enter /home/szhao/Apps/g16/l401.exe)
 ExpMin= 4.05D-02 ExpMax= 9.34D+04 ExpMxC= 3.17D+03 IAcc=3 IRadAn=         7 AccDes= 0.00D+00
 Harris functional with IExCor= 1009 and IRadAn=       7 diagonalized for initial guess.
 HarFok:  IExCor= 1009 AccDes= 0.00D+00 IRadAn=         7 IDoV= 1 UseB2=F ITyADJ=14
 ICtDFT=  3500011 ScaDFX=  1.000000  1.000000  1.000000  1.000000
 FoFCou: FMM=F IPFlag=           0 FMFlag=      100000 FMFlg1=           0
         NFxFlg=           0 DoJE=T BraDBF=F KetDBF=T FulRan=T
         wScrn=  0.000000 ICntrl=       500 IOpCl=  0 I1Cent=   200000004 NGrid=           0
         NMat0=    1 NMatS0=      1 NMatT0=    0 NMatD0=    1 NMtDS0=    0 NMtDT0=    0
 Symmetry not used in FoFCou.
 Harris En= -436.982521348317    
 JPrj=0 DoOrth=F DoCkMO=F.
 Initial guess <Sx>= 0.0000 <Sy>= 0.0000 <Sz>= 0.0000 <S**2>=-0.0000 S=-0.0000
 Leave Link  401 at Mon Apr 21 19:43:06 2025, MaxMem=   536870912 cpu:               3.0 elap:               0.5
 (Enter /home/szhao/Apps/g16/l502.exe)
 Keep R1 and R2 ints in memory in canonical form, NReq=11470680.
 FoFCou: FMM=F IPFlag=           0 FMFlag=           0 FMFlg1=           0
         NFxFlg=           0 DoJE=F BraDBF=F KetDBF=F FulRan=T
         wScrn=  0.000000 ICntrl=       600 IOpCl=  0 I1Cent=           0 NGrid=           0
         NMat0=    1 NMatS0=   2080 NMatT0=    0 NMatD0=    1 NMtDS0=    0 NMtDT0=    0
 Symmetry not used in FoFCou.
 Two-electron integral symmetry not used.
 UHF open shell SCF:
 Using DIIS extrapolation, IDIIS=  1040.
 NGot=   536870912 LenX=   532532574 LenY=   532527777
 Requested convergence on RMS density matrix=1.00D-08 within 128 cycles.
 Requested convergence on MAX density matrix=1.00D-06.
 Requested convergence on             energy=1.00D-06.
 No special actions if energy rises.

 Cycle   1  Pass 1  IDiag  1:
 E= -437.089160616987    
 DIIS: error= 4.07D-02 at cycle   1 NSaved=   1.
 NSaved= 1 IEnMin= 1 EnMin= -437.089160616987     IErMin= 1 ErrMin= 4.07D-02
 ErrMax= 4.07D-02  0.00D+00 EMaxC= 1.00D-01 BMatC= 3.45D-01 BMatP= 3.45D-01
 IDIUse=3 WtCom= 5.93D-01 WtEn= 4.07D-01
 Coeff-Com:  0.100D+01
 Coeff-En:   0.100D+01
 Coeff:      0.100D+01
 Gap=     0.307 Goal=   None    Shift=    0.000
 Gap=     0.307 Goal=   None    Shift=    0.000
 GapD=    0.307 DampG=1.000 DampE=0.500 DampFc=0.5000 IDamp=-1.
 Damping current iteration by 5.00D-01
 RMSDP=9.30D-03 MaxDP=2.05D-01              OVMax= 5.60D-01

 Cycle   2  Pass 1  IDiag  1:
 E= -437.023593681684     Delta-E=        0.065566935303 Rises=F Damp=T
 DIIS: error= 2.72D-02 at cycle   2 NSaved=   2.
 NSaved= 2 IEnMin= 1 EnMin= -437.089160616987     IErMin= 2 ErrMin= 2.72D-02
 ErrMax= 2.72D-02  0.00D+00 EMaxC= 1.00D-01 BMatC= 1.74D-01 BMatP= 3.45D-01
 IDIUse=3 WtCom= 7.28D-01 WtEn= 2.72D-01
 Coeff-Com:  0.379D+00 0.621D+00
 Coeff-En:   0.672D+00 0.328D+00
 Coeff:      0.459D+00 0.541D+00
 Gap=     0.068 Goal=   None    Shift=    0.000
 Gap=     0.068 Goal=   None    Shift=    0.000
 RMSDP=4.58D-03 MaxDP=1.16D-01 DE= 6.56D-02 OVMax= 5.89D-01

 Cycle   3  Pass 1  IDiag  1:
 E= -437.142237598207     Delta-E=       -0.118643916523 Rises=F Damp=F
 DIIS: error= 2.63D-02 at cycle   3 NSaved=   3.
 NSaved= 3 IEnMin= 3 EnMin= -437.142237598207     IErMin= 3 ErrMin= 2.63D-02
 ErrMax= 2.63D-02  0.00D+00 EMaxC= 1.00D-01 BMatC= 4.38D-02 BMatP= 1.74D-01
 IDIUse=3 WtCom= 7.37D-01 WtEn= 2.63D-01
 Coeff-Com: -0.669D-01 0.309D+00 0.758D+00
 Coeff-En:   0.000D+00 0.000D+00 0.100D+01
 Coeff:     -0.494D-01 0.228D+00 0.822D+00
 Gap=     0.150 Goal=   None    Shift=    0.000
 Gap=     0.150 Goal=   None    Shift=    0.000
 RMSDP=2.87D-03 MaxDP=5.68D-02 DE=-1.19D-01 OVMax= 2.10D-01

 Cycle   4  Pass 1  IDiag  1:
 E= -437.160992961191     Delta-E=       -0.018755362984 Rises=F Damp=F
 DIIS: error= 9.56D-03 at cycle   4 NSaved=   4.
 NSaved= 4 IEnMin= 4 EnMin= -437.160992961191     IErMin= 4 ErrMin= 9.56D-03
 ErrMax= 9.56D-03  0.00D+00 EMaxC= 1.00D-01 BMatC= 2.20D-02 BMatP= 4.38D-02
 IDIUse=3 WtCom= 9.04D-01 WtEn= 9.56D-02
 Coeff-Com:  0.565D-01-0.940D-01 0.244D+00 0.793D+00
 Coeff-En:   0.000D+00 0.000D+00 0.221D+00 0.779D+00
 Coeff:      0.511D-01-0.850D-01 0.242D+00 0.792D+00
 Gap=     0.142 Goal=   None    Shift=    0.000
 Gap=     0.142 Goal=   None    Shift=    0.000
 RMSDP=1.49D-03 MaxDP=2.57D-02 DE=-1.88D-02 OVMax= 1.06D-01

 Cycle   5  Pass 1  IDiag  1:
 E= -437.174967861675     Delta-E=       -0.013974900484 Rises=F Damp=F
 DIIS: error= 3.25D-03 at cycle   5 NSaved=   5.
 NSaved= 5 IEnMin= 5 EnMin= -437.174967861675     IErMin= 5 ErrMin= 3.25D-03
 ErrMax= 3.25D-03  0.00D+00 EMaxC= 1.00D-01 BMatC= 8.57D-04 BMatP= 2.20D-02
 IDIUse=3 WtCom= 9.68D-01 WtEn= 3.25D-02
 Coeff-Com: -0.412D-01 0.624D-01-0.609D-01-0.373D+00 0.141D+01
 Coeff-En:   0.000D+00 0.000D+00 0.000D+00 0.000D+00 0.100D+01
 Coeff:     -0.399D-01 0.603D-01-0.589D-01-0.361D+00 0.140D+01
 Gap=     0.151 Goal=   None    Shift=    0.000
 Gap=     0.151 Goal=   None    Shift=    0.000
 RMSDP=1.18D-03 MaxDP=1.79D-02 DE=-1.40D-02 OVMax= 6.88D-02

 Cycle   6  Pass 1  IDiag  1:
 E= -437.178218662993     Delta-E=       -0.003250801318 Rises=F Damp=F
 DIIS: error= 2.35D-03 at cycle   6 NSaved=   6.
 NSaved= 6 IEnMin= 6 EnMin= -437.178218662993     IErMin= 6 ErrMin= 2.35D-03
 ErrMax= 2.35D-03  0.00D+00 EMaxC= 1.00D-01 BMatC= 3.67D-04 BMatP= 8.57D-04
 IDIUse=3 WtCom= 9.76D-01 WtEn= 2.35D-02
 Coeff-Com:  0.428D-02-0.149D-01-0.754D-01 0.101D+00-0.381D+00 0.137D+01
 Coeff-En:   0.000D+00 0.000D+00 0.000D+00 0.000D+00 0.000D+00 0.100D+01
 Coeff:      0.418D-02-0.145D-01-0.737D-01 0.987D-01-0.372D+00 0.136D+01
 Gap=     0.159 Goal=   None    Shift=    0.000
 Gap=     0.159 Goal=   None    Shift=    0.000
 RMSDP=6.23D-04 MaxDP=1.25D-02 DE=-3.25D-03 OVMax= 4.77D-02

 Cycle   7  Pass 1  IDiag  1:
 E= -437.178887374490     Delta-E=       -0.000668711497 Rises=F Damp=F
 DIIS: error= 4.46D-04 at cycle   7 NSaved=   7.
 NSaved= 7 IEnMin= 7 EnMin= -437.178887374490     IErMin= 7 ErrMin= 4.46D-04
 ErrMax= 4.46D-04  0.00D+00 EMaxC= 1.00D-01 BMatC= 3.51D-05 BMatP= 3.67D-04
 IDIUse=3 WtCom= 9.96D-01 WtEn= 4.46D-03
 Coeff-Com:  0.405D-02-0.768D-02-0.193D-01 0.666D-01-0.159D+00 0.305D+00
 Coeff-Com:  0.810D+00
 Coeff-En:   0.000D+00 0.000D+00 0.000D+00 0.000D+00 0.000D+00 0.000D+00
 Coeff-En:   0.100D+01
 Coeff:      0.403D-02-0.765D-02-0.193D-01 0.663D-01-0.158D+00 0.304D+00
 Coeff:      0.811D+00
 Gap=     0.158 Goal=   None    Shift=    0.000
 Gap=     0.158 Goal=   None    Shift=    0.000
 RMSDP=8.05D-05 MaxDP=1.39D-03 DE=-6.69D-04 OVMax= 5.25D-03

 Cycle   8  Pass 1  IDiag  1:
 E= -437.178914511361     Delta-E=       -0.000027136871 Rises=F Damp=F
 DIIS: error= 1.29D-04 at cycle   8 NSaved=   8.
 NSaved= 8 IEnMin= 8 EnMin= -437.178914511361     IErMin= 8 ErrMin= 1.29D-04
 ErrMax= 1.29D-04  0.00D+00 EMaxC= 1.00D-01 BMatC= 1.29D-06 BMatP= 3.51D-05
 IDIUse=3 WtCom= 9.99D-01 WtEn= 1.29D-03
 Coeff-Com: -0.181D-02 0.276D-02-0.118D-03-0.154D-01 0.469D-01-0.587D-01
 Coeff-Com:  0.703D-01 0.956D+00
 Coeff-En:   0.000D+00 0.000D+00 0.000D+00 0.000D+00 0.000D+00 0.000D+00
 Coeff-En:   0.000D+00 0.100D+01
 Coeff:     -0.181D-02 0.276D-02-0.118D-03-0.154D-01 0.468D-01-0.587D-01
 Coeff:      0.702D-01 0.956D+00
 Gap=     0.157 Goal=   None    Shift=    0.000
 Gap=     0.157 Goal=   None    Shift=    0.000
 RMSDP=2.07D-05 MaxDP=4.07D-04 DE=-2.71D-05 OVMax= 1.50D-03

 Cycle   9  Pass 1  IDiag  1:
 E= -437.178916278043     Delta-E=       -0.000001766682 Rises=F Damp=F
 DIIS: error= 6.54D-05 at cycle   9 NSaved=   9.
 NSaved= 9 IEnMin= 9 EnMin= -437.178916278043     IErMin= 9 ErrMin= 6.54D-05
 ErrMax= 6.54D-05  0.00D+00 EMaxC= 1.00D-01 BMatC= 1.51D-07 BMatP= 1.29D-06
 IDIUse=1 WtCom= 1.00D+00 WtEn= 0.00D+00
 Coeff-Com: -0.148D-03 0.440D-03-0.107D-02-0.188D-02-0.728D-02 0.805D-02
 Coeff-Com: -0.330D-01-0.692D-01 0.110D+01
 Coeff:     -0.148D-03 0.440D-03-0.107D-02-0.188D-02-0.728D-02 0.805D-02
 Coeff:     -0.330D-01-0.692D-01 0.110D+01
 Gap=     0.157 Goal=   None    Shift=    0.000
 Gap=     0.157 Goal=   None    Shift=    0.000
 RMSDP=2.03D-05 MaxDP=4.35D-04 DE=-1.77D-06 OVMax= 1.60D-03

 Cycle  10  Pass 1  IDiag  1:
 E= -437.178916854900     Delta-E=       -0.000000576857 Rises=F Damp=F
 DIIS: error= 1.29D-05 at cycle  10 NSaved=  10.
 NSaved=10 IEnMin=10 EnMin= -437.178916854900     IErMin=10 ErrMin= 1.29D-05
 ErrMax= 1.29D-05  0.00D+00 EMaxC= 1.00D-01 BMatC= 4.49D-08 BMatP= 1.51D-07
 IDIUse=1 WtCom= 1.00D+00 WtEn= 0.00D+00
 Coeff-Com:  0.131D-05-0.653D-04-0.156D-03 0.923D-03-0.446D-04 0.362D-03
 Coeff-Com: -0.140D-01-0.378D-01 0.726D-01 0.978D+00
 Coeff:      0.131D-05-0.653D-04-0.156D-03 0.923D-03-0.446D-04 0.362D-03
 Coeff:     -0.140D-01-0.378D-01 0.726D-01 0.978D+00
 Gap=     0.157 Goal=   None    Shift=    0.000
 Gap=     0.157 Goal=   None    Shift=    0.000
 RMSDP=3.52D-06 MaxDP=4.59D-05 DE=-5.77D-07 OVMax= 2.36D-04

 Cycle  11  Pass 1  IDiag  1:
 E= -437.178916896376     Delta-E=       -0.000000041476 Rises=F Damp=F
 DIIS: error= 2.50D-06 at cycle  11 NSaved=  11.
 NSaved=11 IEnMin=11 EnMin= -437.178916896376     IErMin=11 ErrMin= 2.50D-06
 ErrMax= 2.50D-06  0.00D+00 EMaxC= 1.00D-01 BMatC= 4.53D-10 BMatP= 4.49D-08
 IDIUse=1 WtCom= 1.00D+00 WtEn= 0.00D+00
 Coeff-Com: -0.110D-04 0.157D-04-0.676D-04-0.110D-03 0.251D-03 0.899D-03
 Coeff-Com:  0.773D-03-0.470D-02-0.476D-01 0.280D-01 0.102D+01
 Coeff:     -0.110D-04 0.157D-04-0.676D-04-0.110D-03 0.251D-03 0.899D-03
 Coeff:      0.773D-03-0.470D-02-0.476D-01 0.280D-01 0.102D+01
 Gap=     0.157 Goal=   None    Shift=    0.000
 Gap=     0.157 Goal=   None    Shift=    0.000
 RMSDP=7.81D-07 MaxDP=1.71D-05 DE=-4.15D-08 OVMax= 6.11D-05

 Cycle  12  Pass 1  IDiag  1:
 E= -437.178916897510     Delta-E=       -0.000000001133 Rises=F Damp=F
 DIIS: error= 5.72D-07 at cycle  12 NSaved=  12.
 NSaved=12 IEnMin=12 EnMin= -437.178916897510     IErMin=12 ErrMin= 5.72D-07
 ErrMax= 5.72D-07  0.00D+00 EMaxC= 1.00D-01 BMatC= 3.40D-11 BMatP= 4.53D-10
 IDIUse=1 WtCom= 1.00D+00 WtEn= 0.00D+00
 Coeff-Com: -0.104D-05 0.150D-05-0.156D-04-0.173D-04 0.122D-05 0.210D-03
 Coeff-Com:  0.394D-03-0.502D-03-0.120D-01-0.224D-01 0.166D+00 0.868D+00
 Coeff:     -0.104D-05 0.150D-05-0.156D-04-0.173D-04 0.122D-05 0.210D-03
 Coeff:      0.394D-03-0.502D-03-0.120D-01-0.224D-01 0.166D+00 0.868D+00
 Gap=     0.157 Goal=   None    Shift=    0.000
 Gap=     0.157 Goal=   None    Shift=    0.000
 RMSDP=1.50D-07 MaxDP=3.27D-06 DE=-1.13D-09 OVMax= 1.20D-05

 Cycle  13  Pass 1  IDiag  1:
 E= -437.178916897562     Delta-E=       -0.000000000052 Rises=F Damp=F
 DIIS: error= 1.11D-07 at cycle  13 NSaved=  13.
 NSaved=13 IEnMin=13 EnMin= -437.178916897562     IErMin=13 ErrMin= 1.11D-07
 ErrMax= 1.11D-07  0.00D+00 EMaxC= 1.00D-01 BMatC= 3.56D-12 BMatP= 3.40D-11
 IDIUse=1 WtCom= 1.00D+00 WtEn= 0.00D+00
 Coeff-Com:  0.503D-07-0.984D-06 0.251D-05 0.132D-04-0.774D-05-0.346D-04
 Coeff-Com: -0.312D-04 0.120D-03 0.865D-03-0.286D-02-0.516D-01 0.171D+00
 Coeff-Com:  0.882D+00
 Coeff:      0.503D-07-0.984D-06 0.251D-05 0.132D-04-0.774D-05-0.346D-04
 Coeff:     -0.312D-04 0.120D-03 0.865D-03-0.286D-02-0.516D-01 0.171D+00
 Coeff:      0.882D+00
 Gap=     0.157 Goal=   None    Shift=    0.000
 Gap=     0.157 Goal=   None    Shift=    0.000
 RMSDP=4.97D-08 MaxDP=7.53D-07 DE=-5.24D-11 OVMax= 2.51D-06

 Cycle  14  Pass 1  IDiag  1:
 E= -437.178916897569     Delta-E=       -0.000000000007 Rises=F Damp=F
 DIIS: error= 5.83D-08 at cycle  14 NSaved=  14.
 NSaved=14 IEnMin=14 EnMin= -437.178916897569     IErMin=14 ErrMin= 5.83D-08
 ErrMax= 5.83D-08  0.00D+00 EMaxC= 1.00D-01 BMatC= 1.10D-12 BMatP= 3.56D-12
 IDIUse=1 WtCom= 1.00D+00 WtEn= 0.00D+00
 Coeff-Com:  0.162D-06 0.334D-06-0.172D-05-0.673D-05-0.875D-06 0.183D-04
 Coeff-Com: -0.507D-05-0.103D-03 0.802D-03 0.433D-02 0.656D-02-0.157D+00
 Coeff-Com: -0.457D+00 0.160D+01
 Coeff:      0.162D-06 0.334D-06-0.172D-05-0.673D-05-0.875D-06 0.183D-04
 Coeff:     -0.507D-05-0.103D-03 0.802D-03 0.433D-02 0.656D-02-0.157D+00
 Coeff:     -0.457D+00 0.160D+01
 Gap=     0.157 Goal=   None    Shift=    0.000
 Gap=     0.157 Goal=   None    Shift=    0.000
 RMSDP=6.32D-08 MaxDP=1.21D-06 DE=-6.71D-12 OVMax= 3.50D-06

 Cycle  15  Pass 1  IDiag  1:
 E= -437.178916897576     Delta-E=       -0.000000000007 Rises=F Damp=F
 DIIS: error= 4.88D-08 at cycle  15 NSaved=  15.
 NSaved=15 IEnMin=15 EnMin= -437.178916897576     IErMin=15 ErrMin= 4.88D-08
 ErrMax= 4.88D-08  0.00D+00 EMaxC= 1.00D-01 BMatC= 7.23D-13 BMatP= 1.10D-12
 IDIUse=1 WtCom= 1.00D+00 WtEn= 0.00D+00
 Coeff-Com: -0.458D-06 0.160D-06 0.405D-05 0.347D-05 0.189D-04-0.348D-04
 Coeff-Com: -0.287D-05 0.295D-03-0.300D-02-0.844D-02 0.536D-01 0.156D+00
 Coeff-Com: -0.482D-01-0.382D+01 0.467D+01
 Coeff:     -0.458D-06 0.160D-06 0.405D-05 0.347D-05 0.189D-04-0.348D-04
 Coeff:     -0.287D-05 0.295D-03-0.300D-02-0.844D-02 0.536D-01 0.156D+00
 Coeff:     -0.482D-01-0.382D+01 0.467D+01
 Gap=     0.157 Goal=   None    Shift=    0.000
 Gap=     0.157 Goal=   None    Shift=    0.000
 RMSDP=2.23D-07 MaxDP=4.32D-06 DE=-6.93D-12 OVMax= 1.24D-05

 Cycle  16  Pass 1  IDiag  1:
 E= -437.178916897589     Delta-E=       -0.000000000014 Rises=F Damp=F
 DIIS: error= 3.05D-08 at cycle  16 NSaved=  16.
 NSaved=16 IEnMin=16 EnMin= -437.178916897589     IErMin=16 ErrMin= 3.05D-08
 ErrMax= 3.05D-08  0.00D+00 EMaxC= 1.00D-01 BMatC= 2.97D-13 BMatP= 7.23D-13
 IDIUse=1 WtCom= 1.00D+00 WtEn= 0.00D+00
 Large coefficients: NSaved= 16 BigCof=    0.00 CofMax=   10.00 Det=-5.55D-15
 Inversion failed.  Reducing to 15 matrices.
 Coeff-Com:  0.672D-07 0.227D-06-0.430D-07-0.569D-05-0.201D-05 0.356D-04
 Coeff-Com: -0.464D-04 0.422D-03 0.323D-03-0.164D-01 0.664D-02 0.297D+00
 Coeff-Com: -0.211D-01-0.742D+00 0.148D+01
 Coeff:      0.672D-07 0.227D-06-0.430D-07-0.569D-05-0.201D-05 0.356D-04
 Coeff:     -0.464D-04 0.422D-03 0.323D-03-0.164D-01 0.664D-02 0.297D+00
 Coeff:     -0.211D-01-0.742D+00 0.148D+01
 Gap=     0.157 Goal=   None    Shift=    0.000
 Gap=     0.157 Goal=   None    Shift=    0.000
 RMSDP=8.02D-08 MaxDP=1.55D-06 DE=-1.36D-11 OVMax= 4.47D-06

 Cycle  17  Pass 1  IDiag  1:
 E= -437.178916897591     Delta-E=       -0.000000000002 Rises=F Damp=F
 DIIS: error= 4.59D-09 at cycle  17 NSaved=  16.
 NSaved=16 IEnMin=16 EnMin= -437.178916897591     IErMin=16 ErrMin= 4.59D-09
 ErrMax= 4.59D-09  0.00D+00 EMaxC= 1.00D-01 BMatC= 5.60D-15 BMatP= 2.97D-13
 IDIUse=1 WtCom= 1.00D+00 WtEn= 0.00D+00
 Large coefficients: NSaved= 16 BigCof=    0.00 CofMax=   10.00 Det=-2.84D-15
 Inversion failed.  Reducing to 15 matrices.
 Coeff-Com: -0.542D-07 0.104D-06 0.407D-06 0.253D-06-0.266D-05 0.917D-05
 Coeff-Com:  0.531D-04 0.131D-03 0.954D-03-0.810D-02-0.286D-01 0.143D+00
 Coeff-Com: -0.918D-01-0.170D+00 0.115D+01
 Coeff:     -0.542D-07 0.104D-06 0.407D-06 0.253D-06-0.266D-05 0.917D-05
 Coeff:      0.531D-04 0.131D-03 0.954D-03-0.810D-02-0.286D-01 0.143D+00
 Coeff:     -0.918D-01-0.170D+00 0.115D+01
 Gap=     0.157 Goal=   None    Shift=    0.000
 Gap=     0.157 Goal=   None    Shift=    0.000
 RMSDP=4.19D-09 MaxDP=7.69D-08 DE=-2.05D-12 OVMax= 2.54D-07

 SCF Done:  E(UM062X) =  -437.178916898     A.U. after   17 cycles
            NFock= 17  Conv=0.42D-08     -V/T= 2.0016
 <Sx>= 0.0000 <Sy>= 0.0000 <Sz>= 0.0000 <S**2>=-0.0000 S=-0.0000
 <L.S>=  0.00000000000    
 KE= 4.364737051776D+02 PE=-1.089830964365D+03 EE= 1.901559757582D+02
 Annihilation of the first spin contaminant:
 S**2 before annihilation    -0.0000,   after     0.0000
 Leave Link  502 at Mon Apr 21 19:43:15 2025, MaxMem=   536870912 cpu:              65.0 elap:               8.6
 (Enter /home/szhao/Apps/g16/l601.exe)
 Copying SCF densities to generalized density rwf, IOpCl= 1 IROHF=0.

 **********************************************************************

            Population analysis using the SCF density.

 **********************************************************************

 Alpha  occ. eigenvalues --  -89.91694 -10.66390  -8.27688  -6.20397  -6.18949
 Alpha  occ. eigenvalues --   -6.18937  -0.79866  -0.72006  -0.54759  -0.34788
 Alpha  occ. eigenvalues --   -0.29496  -0.29473
 Alpha virt. eigenvalues --   -0.13732  -0.12223   0.00896   0.04977   0.05599
 Alpha virt. eigenvalues --    0.06587   0.08392   0.08913   0.09200   0.13847
 Alpha virt. eigenvalues --    0.16615   0.17768   0.36336   0.37058   0.37372
 Alpha virt. eigenvalues --    0.43455   0.44755   0.55567   0.56116   0.61634
 Alpha virt. eigenvalues --    0.65867   0.74980   0.83221   0.83870   0.86602
 Alpha virt. eigenvalues --    0.86606   0.86951   1.04190   1.17779   1.18798
 Alpha virt. eigenvalues --    1.43039   1.50110   1.66775   1.70705   1.70854
 Alpha virt. eigenvalues --    1.71343   1.77753   1.90009   2.04823   2.36212
 Alpha virt. eigenvalues --    2.46590   2.47189   2.59147   2.70803   2.97181
 Alpha virt. eigenvalues --    3.66510   7.77325  17.46843  17.46975  17.48503
 Alpha virt. eigenvalues --   23.74340 189.02356
  Beta  occ. eigenvalues --  -89.91694 -10.66390  -8.27688  -6.20397  -6.18949
  Beta  occ. eigenvalues --   -6.18937  -0.79866  -0.72006  -0.54759  -0.34788
  Beta  occ. eigenvalues --   -0.29496  -0.29473
  Beta virt. eigenvalues --   -0.13732  -0.12223   0.00896   0.04977   0.05599
  Beta virt. eigenvalues --    0.06587   0.08392   0.08913   0.09200   0.13847
  Beta virt. eigenvalues --    0.16615   0.17768   0.36336   0.37058   0.37372
  Beta virt. eigenvalues --    0.43455   0.44755   0.55567   0.56116   0.61634
  Beta virt. eigenvalues --    0.65867   0.74980   0.83221   0.83870   0.86602
  Beta virt. eigenvalues --    0.86606   0.86951   1.04190   1.17779   1.18798
  Beta virt. eigenvalues --    1.43039   1.50110   1.66775   1.70705   1.70854
  Beta virt. eigenvalues --    1.71343   1.77753   1.90009   2.04823   2.36212
  Beta virt. eigenvalues --    2.46590   2.47189   2.59147   2.70803   2.97181
  Beta virt. eigenvalues --    3.66510   7.77325  17.46843  17.46975  17.48503
  Beta virt. eigenvalues --   23.74340 189.02356
          Condensed to atoms (all electrons):
               1          2          3          4
     1  C    5.556624   0.032765   0.335913   0.335968
     2  S    0.032765  16.056601   0.001025   0.001026
     3  H    0.335913   0.001025   0.514586  -0.027864
     4  H    0.335968   0.001026  -0.027864   0.514523
          Atomic-Atomic Spin Densities.
               1          2          3          4
     1  C    0.000000   0.000000  -0.000000  -0.000000
     2  S    0.000000   0.000000  -0.000000  -0.000000
     3  H   -0.000000  -0.000000  -0.000000  -0.000000
     4  H   -0.000000  -0.000000  -0.000000  -0.000000
 Mulliken charges and spin densities:
               1          2
     1  C   -0.261270   0.000000
     2  S   -0.091416   0.000000
     3  H    0.176340  -0.000000
     4  H    0.176347  -0.000000
 Sum of Mulliken charges =  -0.00000   0.00000
 Mulliken charges and spin densities with hydrogens summed into heavy atoms:
               1          2
     1  C    0.091416   0.000000
     2  S   -0.091416   0.000000
 Electronic spatial extent (au):  <R**2>=            290.8346
 Charge=             -0.0000 electrons
 Dipole moment (field-independent basis, Debye):
    X=             -4.0758    Y=             -0.0011    Z=             -0.0002  Tot=              4.0758
 Quadrupole moment (field-independent basis, Debye-Ang):
   XX=            -12.5862   YY=            -21.9504   ZZ=            -22.0243
   XY=             -0.0006   XZ=             -0.0001   YZ=             -0.0000
 Traceless Quadrupole moment (field-independent basis, Debye-Ang):
   XX=              6.2675   YY=             -3.0968   ZZ=             -3.1707
   XY=             -0.0006   XZ=             -0.0001   YZ=             -0.0000
 Octapole moment (field-independent basis, Debye-Ang**2):
  XXX=            -29.3690  YYY=             -0.0013  ZZZ=              0.0001  XYY=            -16.5541
  XXY=              0.0012  XXZ=             -0.0004  XZZ=            -15.4903  YZZ=              0.0002
  YYZ=             -0.0001  XYZ=              0.0001
 Hexadecapole moment (field-independent basis, Debye-Ang**3):
 XXXX=           -302.1583 YYYY=            -39.0306 ZZZZ=            -32.1132 XXXY=             -0.0241
 XXXZ=             -0.0042 YYYX=              0.0011 YYYZ=              0.0002 ZZZX=             -0.0010
 ZZZY=              0.0004 XXYY=            -65.8544 XXZZ=            -68.2068 YYZZ=            -12.2566
 XXYZ=             -0.0002 YYXZ=             -0.0000 ZZXY=             -0.0005
 N-N= 2.602236653139D+01 E-N=-1.089830964527D+03  KE= 4.364737051776D+02
                          Isotropic Fermi Contact Couplings
        Atom                 a.u.       MegaHertz       Gauss      10(-4) cm-1
     1  C(13)             -0.00000      -0.00000      -0.00000      -0.00000
     2  S(33)             -0.00000      -0.00000      -0.00000      -0.00000
     3  H(1)               0.00000       0.00000       0.00000       0.00000
     4  H(1)               0.00000       0.00000       0.00000       0.00000
 --------------------------------------------------------
       Center         ----  Spin Dipole Couplings  ----
                      3XX-RR        3YY-RR        3ZZ-RR
 --------------------------------------------------------
     1   Atom        0.000000      0.000000      0.000000
     2   Atom        0.000000      0.000000      0.000000
     3   Atom        0.000000      0.000000      0.000000
     4   Atom        0.000000      0.000000      0.000000
 --------------------------------------------------------
                        XY            XZ            YZ
 --------------------------------------------------------
     1   Atom        0.000000      0.000000      0.000000
     2   Atom        0.000000      0.000000      0.000000
     3   Atom        0.000000      0.000000      0.000000
     4   Atom        0.000000      0.000000      0.000000
 --------------------------------------------------------


 ---------------------------------------------------------------------------------
              Anisotropic Spin Dipole Couplings in Principal Axis System
 ---------------------------------------------------------------------------------

       Atom             a.u.   MegaHertz   Gauss  10(-4) cm-1        Axes

              Baa     0.0000     0.000     0.000     0.000  1.0000  0.0000  0.0000
     1 C(13)  Bbb     0.0000     0.000     0.000     0.000 -0.0000  1.0000  0.0000
              Bcc     0.0000     0.000     0.000     0.000  0.0000  0.0000  1.0000
 
              Baa     0.0000     0.000     0.000     0.000  1.0000  0.0000  0.0000
     2 S(33)  Bbb     0.0000     0.000     0.000     0.000 -0.0000  1.0000  0.0000
              Bcc     0.0000     0.000     0.000     0.000  0.0000  0.0000  1.0000
 
              Baa     0.0000     0.000     0.000     0.000  1.0000  0.0000  0.0000
     3 H(1)   Bbb     0.0000     0.000     0.000     0.000 -0.0000  1.0000  0.0000
              Bcc     0.0000     0.000     0.000     0.000  0.0000  0.0000  1.0000
 
              Baa     0.0000     0.000     0.000     0.000  1.0000  0.0000  0.0000
     4 H(1)   Bbb     0.0000     0.000     0.000     0.000 -0.0000  1.0000  0.0000
              Bcc     0.0000     0.000     0.000     0.000  0.0000  0.0000  1.0000
 

 ---------------------------------------------------------------------------------

 No NMR shielding tensors so no spin-rotation constants.
 Leave Link  601 at Mon Apr 21 19:43:16 2025, MaxMem=   536870912 cpu:               2.0 elap:               0.3
 (Enter /home/szhao/Apps/g16/l701.exe)
 ... and contract with generalized density number  0.
 Compute integral first derivatives.
 Leave Link  701 at Mon Apr 21 19:43:16 2025, MaxMem=   536870912 cpu:               1.3 elap:               0.2
 (Enter /home/szhao/Apps/g16/l702.exe)
 L702 exits ... SP integral derivatives will be done elsewhere.
 Leave Link  702 at Mon Apr 21 19:43:16 2025, MaxMem=   536870912 cpu:               0.4 elap:               0.2
 (Enter /home/szhao/Apps/g16/l703.exe)
 Integral derivatives from FoFJK, PRISM(SPDF).
 Compute integral first derivatives, UseDBF=F ICtDFT=           0.
 Calling FoFJK, ICntrl=      2127 FMM=F ISym2X=0 I1Cent= 0 IOpClX= 1 NMat=1 NMatS=1 NMatT=0.
 FoFJK:  IHMeth= 1 ICntrl=    2127 DoSepK=F KAlg= 0 I1Cent=           0 FoldK=F
 IRaf=         0 NMat=       1 IRICut=       1 DoRegI=T DoRafI=F ISym2E= 0 IDoP0=0 IntGTp=1.
 FoFCou: FMM=F IPFlag=           0 FMFlag=      100000 FMFlg1=         800
         NFxFlg=           0 DoJE=F BraDBF=F KetDBF=F FulRan=T
         wScrn=  0.000000 ICntrl=      2127 IOpCl=  1 I1Cent=           0 NGrid=           0
         NMat0=    1 NMatS0=      1 NMatT0=    0 NMatD0=    1 NMtDS0=    0 NMtDT0=    0
 Symmetry not used in FoFCou.
 Leave Link  703 at Mon Apr 21 19:43:17 2025, MaxMem=   536870912 cpu:               6.4 elap:               1.0
 (Enter /home/szhao/Apps/g16/l716.exe)
 Dipole        =-1.60352543D+00-4.18221903D-04-8.79615164D-05
 -------------------------------------------------------------------
 Center     Atomic                   Forces (Hartrees/Bohr)
 Number     Number              X              Y              Z
 -------------------------------------------------------------------
      1        6          -0.000000000   -0.000000000   -0.000000000
      2       16          -0.000000000   -0.000000000   -0.000000000
      3        1          -0.009528507    0.001388324   -0.000000199
      4        1          -0.009523178   -0.001395107    0.000000028
 -------------------------------------------------------------------
 Cartesian Forces:  Max     0.009528507 RMS     0.003930194
 Leave Link  716 at Mon Apr 21 19:43:18 2025, MaxMem=   536870912 cpu:               0.4 elap:               0.1
 (Enter /home/szhao/Apps/g16/l103.exe)

 GradGradGradGradGradGradGradGradGradGradGradGradGradGradGradGradGradGrad
 Berny optimization.
 FormGI is forming the generalized inverse of G from B-inverse, IUseBI=4.
 Internal  Forces:  Max     0.019051684 RMS     0.007144888
 Search for a local minimum.
 Step number   1 out of a maximum of   22
 All quantities printed in internal units (Hartrees-Bohrs-Radians)
 RMS Force = .64501D-02 SwitMx=.10000D-02 MixMth= 1
 Mixed Optimization -- RFO/linear search
 Second derivative matrix not updated -- first step.
 The second derivative matrix:
                          X1        Y1        Z1        X2        Y2
           X1           0.50000
           Y1           0.00000   0.50000
           Z1           0.00000   0.00000   0.50000
           X2           0.00000   0.00000   0.00000   0.50000
           Y2           0.00000   0.00000   0.00000   0.00000   0.50000
           Z2           0.00000   0.00000   0.00000   0.00000   0.00000
           R1           0.00000   0.00000   0.00000   0.00000   0.00000
           R2           0.00000   0.00000   0.00000   0.00000   0.00000
           A1           0.00000   0.00000   0.00000   0.00000   0.00000
           A2           0.00000   0.00000   0.00000   0.00000   0.00000
           A3           0.00000   0.00000   0.00000   0.00000   0.00000
           D1           0.00000   0.00000   0.00000   0.00000   0.00000
                          Z2        R1        R2        A1        A2
           Z2           0.50000
           R1           0.00000   0.34868
           R2           0.00000   0.00000   0.34868
           A1           0.00000   0.00000   0.00000   0.16000
           A2           0.00000   0.00000   0.00000   0.00000   0.16000
           A3           0.00000   0.00000   0.00000   0.00000   0.00000
           D1           0.00000   0.00000   0.00000   0.00000   0.00000
                          A3        D1
           A3           0.16000
           D1           0.00000   0.00241
 ITU=  0
     Eigenvalues ---    0.00241   0.16000   0.16000   0.34868   0.34868
     Eigenvalues --- 1000.000001000.000001000.000001000.000001000.00000
     Eigenvalues --- 1000.000001000.00000
 RFO step:  Lambda=-1.44689106D-03 EMin= 2.41201275D-03
 Linear search not attempted -- first point.
 Iteration  1 RMS(Cart)=  0.03183648 RMS(Int)=  0.00060723
 Iteration  2 RMS(Cart)=  0.00061550 RMS(Int)=  0.00000011
 Iteration  3 RMS(Cart)=  0.00000013 RMS(Int)=  0.00000001
 ITry= 1 IFail=0 DXMaxC= 7.10D-02 DCOld= 1.00D+10 DXMaxT= 3.00D-01 DXLimC= 3.00D+00 Rises=F
 Variable       Old X    -DE/DX   Delta X   Delta X   Delta X     New X
                                 (Linear)    (Quad)   (Total)
    X1       -3.07485  -0.01905   0.00000   0.00000   0.00000  -3.07485
    Y1        0.00000  -0.00000   0.00000   0.00000   0.00000   0.00000
    Z1        0.00000   0.00000   0.00000   0.00000   0.00000   0.00000
    X2        3.07485  -0.00000   0.00000   0.00000   0.00000   3.07485
    Y2        0.00000  -0.00000   0.00000   0.00000   0.00000   0.00000
    Z2        0.00000  -0.00000   0.00000   0.00000   0.00000   0.00000
    R1        2.05890   0.00386   0.00000   0.01101   0.01101   2.06991
    R2        2.05889   0.00386   0.00000   0.01102   0.01102   2.06991
    A1        2.12745   0.00606   0.00000   0.03753   0.03753   2.16498
    A2        2.12865   0.00605   0.00000   0.03746   0.03746   2.16611
    A3        2.02709  -0.01211   0.00000  -0.07499  -0.07499   1.95210
    D1        3.14144   0.00000   0.00000   0.00034   0.00034  -3.14141
         Item               Value     Threshold  Converged?
 Maximum Force            0.012107     0.000450     NO 
 RMS     Force            0.006450     0.000300     NO 
 Maximum Displacement     0.070992     0.001800     NO 
 RMS     Displacement     0.031918     0.001200     NO 
 Predicted change in Energy=-7.297235D-04
 Lowest energy point so far.  Saving SCF results.
 GradGradGradGradGradGradGradGradGradGradGradGradGradGradGradGradGradGrad

 Leave Link  103 at Mon Apr 21 19:43:18 2025, MaxMem=   536870912 cpu:               0.6 elap:               0.1
 (Enter /home/szhao/Apps/g16/l202.exe)
                          Input orientation:                          
 ---------------------------------------------------------------------
 Center     Atomic      Atomic             Coordinates (Angstroms)
 Number     Number       Type             X           Y           Z
 ---------------------------------------------------------------------
      1          6           0       -1.627140    0.000000    0.000000
      2         16           0        1.627140    0.000000    0.000000
      3          1           0       -2.240349   -0.907614    0.000167
      4          1           0       -2.241379    0.906917    0.000023
 ---------------------------------------------------------------------
                    Distance matrix (angstroms):
                    1          2          3          4
     1  C    0.000000
     2  S    3.254279   0.000000
     3  H    1.095349   3.972560   0.000000
     4  H    1.095349   3.973403   1.814532   0.000000
 Symmetry turned off by external request.
 Stoichiometry    CH2S
 Framework group  C1[X(CH2S)]
 Deg. of freedom     6
 Full point group                 C1      NOp   1
 Rotational constants (GHZ):         304.6021871           4.6146215           4.5457548
 Leave Link  202 at Mon Apr 21 19:43:18 2025, MaxMem=   536870912 cpu:               0.4 elap:               0.1
 (Enter /home/szhao/Apps/g16/l301.exe)
 Standard basis: 6-311+G(d,p) (5D, 7F)
 Ernie: Thresh=  0.10000D-02 Tol=  0.10000D-05 Strict=F.
    64 basis functions,   102 primitive gaussians,    66 cartesian basis functions
    12 alpha electrons       12 beta electrons
       nuclear repulsion energy        25.9617225884 Hartrees.
 IExCor= 4336 DFT=T Ex+Corr=M062X ExCW=0 ScaHFX=  0.540000
 ScaDFX=  1.000000  1.000000  1.000000  1.000000 ScalE2=  1.000000  1.000000
 IRadAn=      7 IRanWt=     -1 IRanGd=            0 ICorTp=0 IEmpDi=  4
 NAtoms=    4 NActive=    4 NUniq=    4 SFac= 1.00D+00 NAtFMM=   60 NAOKFM=F Big=F
 Integral buffers will be    131072 words long.
 Raffenetti 2 integral format.
 Two-electron integral symmetry is turned off.
 Leave Link  301 at Mon Apr 21 19:43:19 2025, MaxMem=   536870912 cpu:               0.9 elap:               0.2
 (Enter /home/szhao/Apps/g16/l302.exe)
 NPDir=0 NMtPBC=     1 NCelOv=     1 NCel=       1 NClECP=     1 NCelD=      1
         NCelK=      1 NCelE2=     1 NClLst=     1 CellRange=     0.0.
 One-electron integrals computed using PRISM.
 NBasis=    64 RedAO= T EigKep=  1.30D-02  NBF=    64
 NBsUse=    64 1.00D-06 EigRej= -1.00D+00 NBFU=    64
 Precomputing XC quadrature grid using
 IXCGrd= 4 IRadAn=           7 IRanWt=          -1 IRanGd=           0 AccXCQ= 0.00D+00.
 Generated NRdTot=       0 NPtTot=           0 NUsed=           0 NTot=          32
 NSgBfM=    65    65    65    65    65 MxSgAt=     4 MxSgA2=     4.
 Leave Link  302 at Mon Apr 21 19:43:19 2025, MaxMem=   536870912 cpu:               1.5 elap:               0.3
 (Enter /home/szhao/Apps/g16/l303.exe)
 DipDrv:  MaxL=1.
 Leave Link  303 at Mon Apr 21 19:43:20 2025, MaxMem=   536870912 cpu:               0.6 elap:               0.1
 (Enter /home/szhao/Apps/g16/l401.exe)
 Initial guess from the checkpoint file:  "opt.chk"
 B after Tr=    -0.005909    0.000001    0.000041
         Rot=    1.000000   -0.000001   -0.000007    0.000001 Ang=  -0.00 deg.
 Guess basis will be translated and rotated to current coordinates.
 JPrj=2 DoOrth=T DoCkMO=T.
 Initial guess <Sx>= 0.0000 <Sy>= 0.0000 <Sz>= 0.0000 <S**2>=-0.0000 S=-0.0000
 Generating alternative initial guess.
 ExpMin= 4.05D-02 ExpMax= 9.34D+04 ExpMxC= 3.17D+03 IAcc=3 IRadAn=         5 AccDes= 0.00D+00
 Harris functional with IExCor= 1009 and IRadAn=       5 diagonalized for initial guess.
 HarFok:  IExCor= 1009 AccDes= 0.00D+00 IRadAn=         5 IDoV= 1 UseB2=F ITyADJ=14
 ICtDFT=  3500011 ScaDFX=  1.000000  1.000000  1.000000  1.000000
 FoFCou: FMM=F IPFlag=           0 FMFlag=      100000 FMFlg1=           0
         NFxFlg=           0 DoJE=T BraDBF=F KetDBF=T FulRan=T
         wScrn=  0.000000 ICntrl=       500 IOpCl=  0 I1Cent=   200000004 NGrid=           0
         NMat0=    1 NMatS0=      1 NMatT0=    0 NMatD0=    1 NMtDS0=    0 NMtDT0=    0
 Symmetry not used in FoFCou.
 Harris En= -436.982093087399    
 Leave Link  401 at Mon Apr 21 19:43:21 2025, MaxMem=   536870912 cpu:               3.5 elap:               0.5
 (Enter /home/szhao/Apps/g16/l502.exe)
 Keep R1 and R2 ints in memory in canonical form, NReq=11470680.
 FoFCou: FMM=F IPFlag=           0 FMFlag=           0 FMFlg1=           0
         NFxFlg=           0 DoJE=F BraDBF=F KetDBF=F FulRan=T
         wScrn=  0.000000 ICntrl=       600 IOpCl=  0 I1Cent=           0 NGrid=           0
         NMat0=    1 NMatS0=   2080 NMatT0=    0 NMatD0=    1 NMtDS0=    0 NMtDT0=    0
 Symmetry not used in FoFCou.
 Two-electron integral symmetry not used.
 UHF open shell SCF:
 Using DIIS extrapolation, IDIIS=  1040.
 NGot=   536870912 LenX=   532532574 LenY=   532527777
 Requested convergence on RMS density matrix=1.00D-08 within 128 cycles.
 Requested convergence on MAX density matrix=1.00D-06.
 Requested convergence on             energy=1.00D-06.
 No special actions if energy rises.

 Cycle   1  Pass 1  IDiag  1:
 E= -437.179824899125    
 DIIS: error= 1.91D-03 at cycle   1 NSaved=   1.
 NSaved= 1 IEnMin= 1 EnMin= -437.179824899125     IErMin= 1 ErrMin= 1.91D-03
 ErrMax= 1.91D-03  0.00D+00 EMaxC= 1.00D-01 BMatC= 5.30D-04 BMatP= 5.30D-04
 IDIUse=3 WtCom= 9.81D-01 WtEn= 1.91D-02
 Coeff-Com:  0.100D+01
 Coeff-En:   0.100D+01
 Coeff:      0.100D+01
 Gap=     0.418 Goal=   None    Shift=    0.000
 Gap=     0.418 Goal=   None    Shift=    0.000
 GapD=    0.418 DampG=2.000 DampE=1.000 DampFc=2.0000 IDamp=-1.
 RMSDP=2.01D-04 MaxDP=3.99D-03              OVMax= 8.39D-03

 Cycle   2  Pass 1  IDiag  1:
 E= -437.180017842832     Delta-E=       -0.000192943706 Rises=F Damp=F
 DIIS: error= 2.29D-04 at cycle   2 NSaved=   2.
 NSaved= 2 IEnMin= 2 EnMin= -437.180017842832     IErMin= 2 ErrMin= 2.29D-04
 ErrMax= 2.29D-04  0.00D+00 EMaxC= 1.00D-01 BMatC= 1.19D-05 BMatP= 5.30D-04
 IDIUse=3 WtCom= 9.98D-01 WtEn= 2.29D-03
 Coeff-Com: -0.123D+00 0.112D+01
 Coeff-En:   0.000D+00 0.100D+01
 Coeff:     -0.123D+00 0.112D+01
 Gap=     0.157 Goal=   None    Shift=    0.000
 Gap=     0.157 Goal=   None    Shift=    0.000
 RMSDP=7.00D-05 MaxDP=1.42D-03 DE=-1.93D-04 OVMax= 2.15D-03

 Cycle   3  Pass 1  IDiag  1:
 E= -437.180026642479     Delta-E=       -0.000008799647 Rises=F Damp=F
 DIIS: error= 5.29D-05 at cycle   3 NSaved=   3.
 NSaved= 3 IEnMin= 3 EnMin= -437.180026642479     IErMin= 3 ErrMin= 5.29D-05
 ErrMax= 5.29D-05  0.00D+00 EMaxC= 1.00D-01 BMatC= 8.90D-07 BMatP= 1.19D-05
 IDIUse=1 WtCom= 1.00D+00 WtEn= 0.00D+00
 Coeff-Com: -0.238D-01 0.137D+00 0.886D+00
 Coeff:     -0.238D-01 0.137D+00 0.886D+00
 Gap=     0.157 Goal=   None    Shift=    0.000
 Gap=     0.157 Goal=   None    Shift=    0.000
 RMSDP=1.79D-05 MaxDP=3.62D-04 DE=-8.80D-06 OVMax= 5.98D-04

 Cycle   4  Pass 1  IDiag  1:
 E= -437.180027106521     Delta-E=       -0.000000464042 Rises=F Damp=F
 DIIS: error= 2.36D-05 at cycle   4 NSaved=   4.
 NSaved= 4 IEnMin= 4 EnMin= -437.180027106521     IErMin= 4 ErrMin= 2.36D-05
 ErrMax= 2.36D-05  0.00D+00 EMaxC= 1.00D-01 BMatC= 1.68D-07 BMatP= 8.90D-07
 IDIUse=1 WtCom= 1.00D+00 WtEn= 0.00D+00
 Coeff-Com:  0.593D-02-0.905D-01 0.249D+00 0.835D+00
 Coeff:      0.593D-02-0.905D-01 0.249D+00 0.835D+00
 Gap=     0.157 Goal=   None    Shift=    0.000
 Gap=     0.157 Goal=   None    Shift=    0.000
 RMSDP=6.66D-06 MaxDP=1.28D-04 DE=-4.64D-07 OVMax= 3.16D-04

 Cycle   5  Pass 1  IDiag  1:
 E= -437.180027201098     Delta-E=       -0.000000094577 Rises=F Damp=F
 DIIS: error= 8.46D-06 at cycle   5 NSaved=   5.
 NSaved= 5 IEnMin= 5 EnMin= -437.180027201098     IErMin= 5 ErrMin= 8.46D-06
 ErrMax= 8.46D-06  0.00D+00 EMaxC= 1.00D-01 BMatC= 7.90D-09 BMatP= 1.68D-07
 IDIUse=1 WtCom= 1.00D+00 WtEn= 0.00D+00
 Coeff-Com:  0.253D-02-0.266D-01 0.280D-01 0.143D+00 0.853D+00
 Coeff:      0.253D-02-0.266D-01 0.280D-01 0.143D+00 0.853D+00
 Gap=     0.157 Goal=   None    Shift=    0.000
 Gap=     0.157 Goal=   None    Shift=    0.000
 RMSDP=1.89D-06 MaxDP=3.05D-05 DE=-9.46D-08 OVMax= 1.14D-04

 Cycle   6  Pass 1  IDiag  1:
 E= -437.180027213297     Delta-E=       -0.000000012199 Rises=F Damp=F
 DIIS: error= 5.37D-06 at cycle   6 NSaved=   6.
 NSaved= 6 IEnMin= 6 EnMin= -437.180027213297     IErMin= 6 ErrMin= 5.37D-06
 ErrMax= 5.37D-06  0.00D+00 EMaxC= 1.00D-01 BMatC= 2.56D-09 BMatP= 7.90D-09
 IDIUse=1 WtCom= 1.00D+00 WtEn= 0.00D+00
 Coeff-Com: -0.463D-03 0.816D-02-0.385D-01-0.106D+00 0.230D+00 0.907D+00
 Coeff:     -0.463D-03 0.816D-02-0.385D-01-0.106D+00 0.230D+00 0.907D+00
 Gap=     0.157 Goal=   None    Shift=    0.000
 Gap=     0.157 Goal=   None    Shift=    0.000
 RMSDP=1.21D-06 MaxDP=2.43D-05 DE=-1.22D-08 OVMax= 9.19D-05

 Cycle   7  Pass 1  IDiag  1:
 E= -437.180027217258     Delta-E=       -0.000000003960 Rises=F Damp=F
 DIIS: error= 1.43D-06 at cycle   7 NSaved=   7.
 NSaved= 7 IEnMin= 7 EnMin= -437.180027217258     IErMin= 7 ErrMin= 1.43D-06
 ErrMax= 1.43D-06  0.00D+00 EMaxC= 1.00D-01 BMatC= 2.96D-10 BMatP= 2.56D-09
 IDIUse=1 WtCom= 1.00D+00 WtEn= 0.00D+00
 Coeff-Com: -0.525D-03 0.644D-02-0.145D-01-0.283D-01-0.145D+00 0.144D+00
 Coeff-Com:  0.104D+01
 Coeff:     -0.525D-03 0.644D-02-0.145D-01-0.283D-01-0.145D+00 0.144D+00
 Coeff:      0.104D+01
 Gap=     0.157 Goal=   None    Shift=    0.000
 Gap=     0.157 Goal=   None    Shift=    0.000
 RMSDP=5.76D-07 MaxDP=1.11D-05 DE=-3.96D-09 OVMax= 4.12D-05

 Cycle   8  Pass 1  IDiag  1:
 E= -437.180027217886     Delta-E=       -0.000000000628 Rises=F Damp=F
 DIIS: error= 2.60D-07 at cycle   8 NSaved=   8.
 NSaved= 8 IEnMin= 8 EnMin= -437.180027217886     IErMin= 8 ErrMin= 2.60D-07
 ErrMax= 2.60D-07  0.00D+00 EMaxC= 1.00D-01 BMatC= 1.20D-11 BMatP= 2.96D-10
 IDIUse=1 WtCom= 1.00D+00 WtEn= 0.00D+00
 Coeff-Com:  0.104D-03-0.145D-02 0.458D-02 0.764D-02 0.186D-01-0.582D-01
 Coeff-Com: -0.250D+00 0.128D+01
 Coeff:      0.104D-03-0.145D-02 0.458D-02 0.764D-02 0.186D-01-0.582D-01
 Coeff:     -0.250D+00 0.128D+01
 Gap=     0.157 Goal=   None    Shift=    0.000
 Gap=     0.157 Goal=   None    Shift=    0.000
 RMSDP=1.61D-07 MaxDP=2.69D-06 DE=-6.28D-10 OVMax= 1.07D-05

 Cycle   9  Pass 1  IDiag  1:
 E= -437.180027217939     Delta-E=       -0.000000000053 Rises=F Damp=F
 DIIS: error= 1.44D-07 at cycle   9 NSaved=   9.
 NSaved= 9 IEnMin= 9 EnMin= -437.180027217939     IErMin= 9 ErrMin= 1.44D-07
 ErrMax= 1.44D-07  0.00D+00 EMaxC= 1.00D-01 BMatC= 5.45D-12 BMatP= 1.20D-11
 IDIUse=1 WtCom= 1.00D+00 WtEn= 0.00D+00
 Coeff-Com: -0.178D-05 0.851D-04-0.706D-03-0.736D-03 0.328D-02 0.139D-01
 Coeff-Com:  0.245D-01-0.539D+00 0.150D+01
 Coeff:     -0.178D-05 0.851D-04-0.706D-03-0.736D-03 0.328D-02 0.139D-01
 Coeff:      0.245D-01-0.539D+00 0.150D+01
 Gap=     0.157 Goal=   None    Shift=    0.000
 Gap=     0.157 Goal=   None    Shift=    0.000
 RMSDP=1.26D-07 MaxDP=2.89D-06 DE=-5.33D-11 OVMax= 8.31D-06

 Cycle  10  Pass 1  IDiag  1:
 E= -437.180027217971     Delta-E=       -0.000000000032 Rises=F Damp=F
 DIIS: error= 1.24D-07 at cycle  10 NSaved=  10.
 NSaved=10 IEnMin=10 EnMin= -437.180027217971     IErMin=10 ErrMin= 1.24D-07
 ErrMax= 1.24D-07  0.00D+00 EMaxC= 1.00D-01 BMatC= 3.48D-12 BMatP= 5.45D-12
 IDIUse=1 WtCom= 1.00D+00 WtEn= 0.00D+00
 Coeff-Com: -0.681D-04 0.971D-03-0.319D-02-0.517D-02-0.124D-01 0.394D-01
 Coeff-Com:  0.168D+00-0.908D+00 0.197D+00 0.152D+01
 Coeff:     -0.681D-04 0.971D-03-0.319D-02-0.517D-02-0.124D-01 0.394D-01
 Coeff:      0.168D+00-0.908D+00 0.197D+00 0.152D+01
 Gap=     0.157 Goal=   None    Shift=    0.000
 Gap=     0.157 Goal=   None    Shift=    0.000
 RMSDP=1.82D-07 MaxDP=4.25D-06 DE=-3.17D-11 OVMax= 1.22D-05

 Cycle  11  Pass 1  IDiag  1:
 E= -437.180027218005     Delta-E=       -0.000000000034 Rises=F Damp=F
 DIIS: error= 9.90D-08 at cycle  11 NSaved=  11.
 NSaved=11 IEnMin=11 EnMin= -437.180027218005     IErMin=11 ErrMin= 9.90D-08
 ErrMax= 9.90D-08  0.00D+00 EMaxC= 1.00D-01 BMatC= 1.67D-12 BMatP= 3.48D-12
 IDIUse=1 WtCom= 1.00D+00 WtEn= 0.00D+00
 Coeff-Com:  0.325D-04-0.491D-03 0.187D-02 0.265D-02 0.534D-02-0.257D-01
 Coeff-Com: -0.922D-01 0.706D+00-0.880D+00-0.904D+00 0.219D+01
 Coeff:      0.325D-04-0.491D-03 0.187D-02 0.265D-02 0.534D-02-0.257D-01
 Coeff:     -0.922D-01 0.706D+00-0.880D+00-0.904D+00 0.219D+01
 Gap=     0.157 Goal=   None    Shift=    0.000
 Gap=     0.157 Goal=   None    Shift=    0.000
 RMSDP=2.23D-07 MaxDP=5.31D-06 DE=-3.44D-11 OVMax= 1.53D-05

 Cycle  12  Pass 1  IDiag  1:
 E= -437.180027218032     Delta-E=       -0.000000000026 Rises=F Damp=F
 DIIS: error= 6.35D-08 at cycle  12 NSaved=  12.
 NSaved=12 IEnMin=12 EnMin= -437.180027218032     IErMin=12 ErrMin= 6.35D-08
 ErrMax= 6.35D-08  0.00D+00 EMaxC= 1.00D-01 BMatC= 6.30D-13 BMatP= 1.67D-12
 IDIUse=1 WtCom= 1.00D+00 WtEn= 0.00D+00
 Coeff-Com: -0.200D-04 0.325D-03-0.147D-02-0.165D-02-0.361D-02 0.205D-01
 Coeff-Com:  0.771D-01-0.715D+00 0.136D+01 0.655D+00-0.359D+01 0.320D+01
 Coeff:     -0.200D-04 0.325D-03-0.147D-02-0.165D-02-0.361D-02 0.205D-01
 Coeff:      0.771D-01-0.715D+00 0.136D+01 0.655D+00-0.359D+01 0.320D+01
 Gap=     0.157 Goal=   None    Shift=    0.000
 Gap=     0.157 Goal=   None    Shift=    0.000
 RMSDP=2.16D-07 MaxDP=5.20D-06 DE=-2.64D-11 OVMax= 1.49D-05

 Cycle  13  Pass 1  IDiag  1:
 E= -437.180027218043     Delta-E=       -0.000000000012 Rises=F Damp=F
 DIIS: error= 1.66D-08 at cycle  13 NSaved=  13.
 NSaved=13 IEnMin=13 EnMin= -437.180027218043     IErMin=13 ErrMin= 1.66D-08
 ErrMax= 1.66D-08  0.00D+00 EMaxC= 1.00D-01 BMatC= 5.99D-14 BMatP= 6.30D-13
 IDIUse=1 WtCom= 1.00D+00 WtEn= 0.00D+00
 Coeff-Com: -0.274D-05 0.317D-04-0.481D-04-0.262D-03-0.267D-03 0.218D-02
 Coeff-Com: -0.538D-02 0.481D-01-0.208D+00 0.107D+00 0.475D+00-0.970D+00
 Coeff-Com:  0.155D+01
 Coeff:     -0.274D-05 0.317D-04-0.481D-04-0.262D-03-0.267D-03 0.218D-02
 Coeff:     -0.538D-02 0.481D-01-0.208D+00 0.107D+00 0.475D+00-0.970D+00
 Coeff:      0.155D+01
 Gap=     0.157 Goal=   None    Shift=    0.000
 Gap=     0.157 Goal=   None    Shift=    0.000
 RMSDP=5.30D-08 MaxDP=1.27D-06 DE=-1.16D-11 OVMax= 3.65D-06

 Cycle  14  Pass 1  IDiag  1:
 E= -437.180027218043     Delta-E=        0.000000000000 Rises=F Damp=F
 DIIS: error= 2.95D-09 at cycle  14 NSaved=  14.
 NSaved=14 IEnMin=13 EnMin= -437.180027218043     IErMin=14 ErrMin= 2.95D-09
 ErrMax= 2.95D-09  0.00D+00 EMaxC= 1.00D-01 BMatC= 1.29D-15 BMatP= 5.99D-14
 IDIUse=1 WtCom= 1.00D+00 WtEn= 0.00D+00
 Coeff-Com:  0.293D-07-0.330D-05 0.314D-04 0.185D-05 0.245D-04-0.261D-03
 Coeff-Com: -0.314D-02 0.290D-01-0.862D-01-0.175D-02 0.183D+00-0.219D+00
 Coeff-Com:  0.245D+00 0.854D+00
 Coeff:      0.293D-07-0.330D-05 0.314D-04 0.185D-05 0.245D-04-0.261D-03
 Coeff:     -0.314D-02 0.290D-01-0.862D-01-0.175D-02 0.183D+00-0.219D+00
 Coeff:      0.245D+00 0.854D+00
 Gap=     0.157 Goal=   None    Shift=    0.000
 Gap=     0.157 Goal=   None    Shift=    0.000
 RMSDP=3.00D-09 MaxDP=6.75D-08 DE= 4.55D-13 OVMax= 1.95D-07

 SCF Done:  E(UM062X) =  -437.180027218     A.U. after   14 cycles
            NFock= 14  Conv=0.30D-08     -V/T= 2.0016
 <Sx>= 0.0000 <Sy>= 0.0000 <Sz>= 0.0000 <S**2>=-0.0000 S=-0.0000
 <L.S>=  0.00000000000    
 KE= 4.364705384119D+02 PE=-1.089699345693D+03 EE= 1.900870574751D+02
 Annihilation of the first spin contaminant:
 S**2 before annihilation    -0.0000,   after     0.0000
 Leave Link  502 at Mon Apr 21 19:43:27 2025, MaxMem=   536870912 cpu:              48.5 elap:               6.4
 (Enter /home/szhao/Apps/g16/l701.exe)
 ... and contract with generalized density number  0.
 Compute integral first derivatives.
 Leave Link  701 at Mon Apr 21 19:43:28 2025, MaxMem=   536870912 cpu:               1.2 elap:               0.2
 (Enter /home/szhao/Apps/g16/l702.exe)
 L702 exits ... SP integral derivatives will be done elsewhere.
 Leave Link  702 at Mon Apr 21 19:43:28 2025, MaxMem=   536870912 cpu:               0.6 elap:               0.1
 (Enter /home/szhao/Apps/g16/l703.exe)
 Integral derivatives from FoFJK, PRISM(SPDF).
 Compute integral first derivatives, UseDBF=F ICtDFT=           0.
 Calling FoFJK, ICntrl=      2127 FMM=F ISym2X=0 I1Cent= 0 IOpClX= 1 NMat=1 NMatS=1 NMatT=0.
 FoFJK:  IHMeth= 1 ICntrl=    2127 DoSepK=F KAlg= 0 I1Cent=           0 FoldK=F
 IRaf=         0 NMat=       1 IRICut=       1 DoRegI=T DoRafI=F ISym2E= 0 IDoP0=0 IntGTp=1.
 FoFCou: FMM=F IPFlag=           0 FMFlag=      100000 FMFlg1=         800
         NFxFlg=           0 DoJE=F BraDBF=F KetDBF=F FulRan=T
         wScrn=  0.000000 ICntrl=      2127 IOpCl=  1 I1Cent=           0 NGrid=           0
         NMat0=    1 NMatS0=      1 NMatT0=    0 NMatD0=    1 NMtDS0=    0 NMtDT0=    0
 Symmetry not used in FoFCou.
 Leave Link  703 at Mon Apr 21 19:43:29 2025, MaxMem=   536870912 cpu:               6.2 elap:               0.8
 (Enter /home/szhao/Apps/g16/l716.exe)
 Dipole        =-1.57259371D+00-4.01446974D-04 1.06063565D-04
 -------------------------------------------------------------------
 Center     Atomic                   Forces (Hartrees/Bohr)
 Number     Number              X              Y              Z
 -------------------------------------------------------------------
      1        6          -0.000000000   -0.000000000   -0.000000000
      2       16          -0.000000000   -0.000000000   -0.000000000
      3        1          -0.004811792    0.001225147   -0.000000623
      4        1          -0.004805987   -0.001227407   -0.000000427
 -------------------------------------------------------------------
 Cartesian Forces:  Max     0.004811792 RMS     0.002026046
 Leave Link  716 at Mon Apr 21 19:43:29 2025, MaxMem=   536870912 cpu:               0.8 elap:               0.2
 (Enter /home/szhao/Apps/g16/l103.exe)

 GradGradGradGradGradGradGradGradGradGradGradGradGradGradGradGradGradGrad
 Berny optimization.
 Using GEDIIS/GDIIS optimizer.
 FormGI is forming the generalized inverse of G from B-inverse, IUseBI=4.
 Internal  Forces:  Max     0.009617780 RMS     0.003656479
 Search for a local minimum.
 Step number   2 out of a maximum of   22
 All quantities printed in internal units (Hartrees-Bohrs-Radians)
 RMS Force = .33649D-02 SwitMx=.10000D-02 MixMth= 1
 Mixed Optimization -- RFO/linear search
 Update second derivatives using D2CorX and points    1    2
 DE= -1.11D-03 DEPred=-7.30D-04 R= 1.52D+00
 TightC=F SS=  1.41D+00  RLast= 9.32D-02 DXNew= 5.0454D-01 2.7948D-01
 Trust test= 1.52D+00 RLast= 9.32D-02 DXMaxT set to 3.00D-01
 The second derivative matrix:
                          X1        Y1        Z1        X2        Y2
           X1           0.62993
           Y1           0.00006   0.50000
           Z1          -0.00002  -0.00000   0.50000
           X2          -0.00000  -0.00000   0.00000   0.50000
           Y2           0.00000   0.00000  -0.00000  -0.00000   0.50000
           Z2           0.00001   0.00000  -0.00000  -0.00000   0.00000
           R1          -0.02998  -0.00001   0.00001   0.00000  -0.00000
           R2          -0.03001  -0.00001   0.00001   0.00000  -0.00000
           A1          -0.03900  -0.00002   0.00001   0.00000  -0.00000
           A2          -0.03899  -0.00002   0.00001   0.00000  -0.00000
           A3           0.07799   0.00004  -0.00001  -0.00000   0.00000
           D1          -0.00004  -0.00000   0.00000   0.00000  -0.00000
                          Z2        R1        R2        A1        A2
           Z2           0.50000
           R1          -0.00000   0.34532
           R2          -0.00000  -0.00336   0.34532
           A1          -0.00000  -0.00708  -0.00708   0.14656
           A2          -0.00000  -0.00705  -0.00705  -0.01339   0.14666
           A3           0.00001   0.01412   0.01412   0.02683   0.02673
           D1          -0.00000   0.00001   0.00001   0.00001   0.00001
                          A3        D1
           A3           0.10644
           D1          -0.00002   0.00241
 ITU=  1  0
 Use linear search instead of GDIIS.
     Eigenvalues ---    0.00241   0.07740   0.16000   0.34423   0.34868
     Eigenvalues --- 1000.000001000.000001000.000001000.000001000.00000
     Eigenvalues --- 1000.000001000.00000
 RFO step:  Lambda=-2.33924194D-06 EMin= 2.41201930D-03
 Quartic linear search produced a step of  1.00528.
 Iteration  1 RMS(Cart)=  0.03247112 RMS(Int)=  0.00062729
 Iteration  2 RMS(Cart)=  0.00063416 RMS(Int)=  0.00000071
 Iteration  3 RMS(Cart)=  0.00000012 RMS(Int)=  0.00000071
 ITry= 1 IFail=0 DXMaxC= 7.02D-02 DCOld= 1.00D+10 DXMaxT= 3.00D-01 DXLimC= 3.00D+00 Rises=F
 Variable       Old X    -DE/DX   Delta X   Delta X   Delta X     New X
                                 (Linear)    (Quad)   (Total)
    X1       -3.07485  -0.00962   0.00000   0.00000   0.00000  -3.07485
    Y1        0.00000  -0.00000   0.00000   0.00000   0.00000   0.00000
    Z1        0.00000  -0.00000   0.00000   0.00000   0.00000   0.00000
    X2        3.07485  -0.00000   0.00000   0.00000   0.00000   3.07485
    Y2        0.00000  -0.00000   0.00000   0.00000   0.00000   0.00000
    Z2        0.00000   0.00000   0.00000   0.00000   0.00000   0.00000
    R1        2.06991   0.00168   0.01107  -0.00171   0.00936   2.07927
    R2        2.06991   0.00168   0.01108  -0.00171   0.00936   2.07927
    A1        2.16498   0.00323   0.03773   0.00047   0.03820   2.20318
    A2        2.16611   0.00322   0.03766   0.00041   0.03806   2.20418
    A3        1.95210  -0.00644  -0.07539  -0.00088  -0.07627   1.87583
    D1       -3.14141  -0.00000   0.00034  -0.00331  -0.00297   3.13881
         Item               Value     Threshold  Converged?
 Maximum Force            0.006445     0.000450     NO 
 RMS     Force            0.003365     0.000300     NO 
 Maximum Displacement     0.070192     0.001800     NO 
 RMS     Displacement     0.032542     0.001200     NO 
 Predicted change in Energy=-4.214782D-04
 Lowest energy point so far.  Saving SCF results.
 GradGradGradGradGradGradGradGradGradGradGradGradGradGradGradGradGradGrad

 Leave Link  103 at Mon Apr 21 19:43:30 2025, MaxMem=   536870912 cpu:               1.0 elap:               0.2
 (Enter /home/szhao/Apps/g16/l202.exe)
                          Input orientation:                          
 ---------------------------------------------------------------------
 Center     Atomic      Atomic             Coordinates (Angstroms)
 Number     Number       Type             X           Y           Z
 ---------------------------------------------------------------------
      1          6           0       -1.627140    0.000000    0.000000
      2         16           0        1.627140    0.000000    0.000000
      3          1           0       -2.277493   -0.887527   -0.001392
      4          1           0       -2.278379    0.886878   -0.001525
 ---------------------------------------------------------------------
                    Distance matrix (angstroms):
                    1          2          3          4
     1  C    0.000000
     2  S    3.254279   0.000000
     3  H    1.100303   4.004231   0.000000
     4  H    1.100303   4.004951   1.774405   0.000000
 Symmetry turned off by external request.
 Stoichiometry    CH2S
 Framework group  C1[X(CH2S)]
 Deg. of freedom     6
 Full point group                 C1      NOp   1
 Rotational constants (GHZ):         318.5338378           4.5966375           4.5312491
 Leave Link  202 at Mon Apr 21 19:43:30 2025, MaxMem=   536870912 cpu:               0.1 elap:               0.1
 (Enter /home/szhao/Apps/g16/l301.exe)
 Standard basis: 6-311+G(d,p) (5D, 7F)
 Ernie: Thresh=  0.10000D-02 Tol=  0.10000D-05 Strict=F.
    64 basis functions,   102 primitive gaussians,    66 cartesian basis functions
    12 alpha electrons       12 beta electrons
       nuclear repulsion energy        25.9085726562 Hartrees.
 IExCor= 4336 DFT=T Ex+Corr=M062X ExCW=0 ScaHFX=  0.540000
 ScaDFX=  1.000000  1.000000  1.000000  1.000000 ScalE2=  1.000000  1.000000
 IRadAn=      7 IRanWt=     -1 IRanGd=            0 ICorTp=0 IEmpDi=  4
 NAtoms=    4 NActive=    4 NUniq=    4 SFac= 1.00D+00 NAtFMM=   60 NAOKFM=F Big=F
 Integral buffers will be    131072 words long.
 Raffenetti 2 integral format.
 Two-electron integral symmetry is turned off.
 Leave Link  301 at Mon Apr 21 19:43:31 2025, MaxMem=   536870912 cpu:               1.0 elap:               0.3
 (Enter /home/szhao/Apps/g16/l302.exe)
 NPDir=0 NMtPBC=     1 NCelOv=     1 NCel=       1 NClECP=     1 NCelD=      1
         NCelK=      1 NCelE2=     1 NClLst=     1 CellRange=     0.0.
 One-electron integrals computed using PRISM.
 NBasis=    64 RedAO= T EigKep=  1.32D-02  NBF=    64
 NBsUse=    64 1.00D-06 EigRej= -1.00D+00 NBFU=    64
 Precomputing XC quadrature grid using
 IXCGrd= 4 IRadAn=           7 IRanWt=          -1 IRanGd=           0 AccXCQ= 0.00D+00.
 Generated NRdTot=       0 NPtTot=           0 NUsed=           0 NTot=          32
 NSgBfM=    65    65    65    65    65 MxSgAt=     4 MxSgA2=     4.
 Leave Link  302 at Mon Apr 21 19:43:31 2025, MaxMem=   536870912 cpu:               1.9 elap:               0.3
 (Enter /home/szhao/Apps/g16/l303.exe)
 DipDrv:  MaxL=1.
 Leave Link  303 at Mon Apr 21 19:43:32 2025, MaxMem=   536870912 cpu:               0.8 elap:               0.2
 (Enter /home/szhao/Apps/g16/l401.exe)
 Initial guess from the checkpoint file:  "opt.chk"
 B after Tr=    -0.005838    0.000008   -0.000370
         Rot=    1.000000   -0.000002    0.000068    0.000002 Ang=  -0.01 deg.
 Guess basis will be translated and rotated to current coordinates.
 JPrj=2 DoOrth=T DoCkMO=T.
 Initial guess <Sx>= 0.0000 <Sy>= 0.0000 <Sz>= 0.0000 <S**2>=-0.0000 S=-0.0000
 Generating alternative initial guess.
 ExpMin= 4.05D-02 ExpMax= 9.34D+04 ExpMxC= 3.17D+03 IAcc=3 IRadAn=         5 AccDes= 0.00D+00
 Harris functional with IExCor= 1009 and IRadAn=       5 diagonalized for initial guess.
 HarFok:  IExCor= 1009 AccDes= 0.00D+00 IRadAn=         5 IDoV= 1 UseB2=F ITyADJ=14
 ICtDFT=  3500011 ScaDFX=  1.000000  1.000000  1.000000  1.000000
 FoFCou: FMM=F IPFlag=           0 FMFlag=      100000 FMFlg1=           0
         NFxFlg=           0 DoJE=T BraDBF=F KetDBF=T FulRan=T
         wScrn=  0.000000 ICntrl=       500 IOpCl=  0 I1Cent=   200000004 NGrid=           0
         NMat0=    1 NMatS0=      1 NMatT0=    0 NMatD0=    1 NMtDS0=    0 NMtDT0=    0
 Symmetry not used in FoFCou.
 Harris En= -436.981236762712    
 Leave Link  401 at Mon Apr 21 19:43:32 2025, MaxMem=   536870912 cpu:               2.7 elap:               0.4
 (Enter /home/szhao/Apps/g16/l502.exe)
 Keep R1 and R2 ints in memory in canonical form, NReq=11470680.
 FoFCou: FMM=F IPFlag=           0 FMFlag=           0 FMFlg1=           0
         NFxFlg=           0 DoJE=F BraDBF=F KetDBF=F FulRan=T
         wScrn=  0.000000 ICntrl=       600 IOpCl=  0 I1Cent=           0 NGrid=           0
         NMat0=    1 NMatS0=   2080 NMatT0=    0 NMatD0=    1 NMtDS0=    0 NMtDT0=    0
 Symmetry not used in FoFCou.
 Two-electron integral symmetry not used.
 UHF open shell SCF:
 Using DIIS extrapolation, IDIIS=  1040.
 NGot=   536870912 LenX=   532532574 LenY=   532527777
 Requested convergence on RMS density matrix=1.00D-08 within 128 cycles.
 Requested convergence on MAX density matrix=1.00D-06.
 Requested convergence on             energy=1.00D-06.
 No special actions if energy rises.

 Cycle   1  Pass 1  IDiag  1:
 E= -437.180220992252    
 DIIS: error= 1.88D-03 at cycle   1 NSaved=   1.
 NSaved= 1 IEnMin= 1 EnMin= -437.180220992252     IErMin= 1 ErrMin= 1.88D-03
 ErrMax= 1.88D-03  0.00D+00 EMaxC= 1.00D-01 BMatC= 5.11D-04 BMatP= 5.11D-04
 IDIUse=3 WtCom= 9.81D-01 WtEn= 1.88D-02
 Coeff-Com:  0.100D+01
 Coeff-En:   0.100D+01
 Coeff:      0.100D+01
 Gap=     0.420 Goal=   None    Shift=    0.000
 Gap=     0.420 Goal=   None    Shift=    0.000
 GapD=    0.420 DampG=2.000 DampE=1.000 DampFc=2.0000 IDamp=-1.
 RMSDP=2.01D-04 MaxDP=4.07D-03              OVMax= 8.23D-03

 Cycle   2  Pass 1  IDiag  1:
 E= -437.180409248120     Delta-E=       -0.000188255868 Rises=F Damp=F
 DIIS: error= 2.26D-04 at cycle   2 NSaved=   2.
 NSaved= 2 IEnMin= 2 EnMin= -437.180409248120     IErMin= 2 ErrMin= 2.26D-04
 ErrMax= 2.26D-04  0.00D+00 EMaxC= 1.00D-01 BMatC= 1.13D-05 BMatP= 5.11D-04
 IDIUse=3 WtCom= 9.98D-01 WtEn= 2.26D-03
 Coeff-Com: -0.122D+00 0.112D+01
 Coeff-En:   0.000D+00 0.100D+01
 Coeff:     -0.122D+00 0.112D+01
 Gap=     0.157 Goal=   None    Shift=    0.000
 Gap=     0.157 Goal=   None    Shift=    0.000
 RMSDP=6.67D-05 MaxDP=1.30D-03 DE=-1.88D-04 OVMax= 2.13D-03

 Cycle   3  Pass 1  IDiag  1:
 E= -437.180417703902     Delta-E=       -0.000008455782 Rises=F Damp=F
 DIIS: error= 6.02D-05 at cycle   3 NSaved=   3.
 NSaved= 3 IEnMin= 3 EnMin= -437.180417703902     IErMin= 3 ErrMin= 6.02D-05
 ErrMax= 6.02D-05  0.00D+00 EMaxC= 1.00D-01 BMatC= 9.01D-07 BMatP= 1.13D-05
 IDIUse=1 WtCom= 1.00D+00 WtEn= 0.00D+00
 Coeff-Com: -0.253D-01 0.152D+00 0.874D+00
 Coeff:     -0.253D-01 0.152D+00 0.874D+00
 Gap=     0.157 Goal=   None    Shift=    0.000
 Gap=     0.157 Goal=   None    Shift=    0.000
 RMSDP=1.68D-05 MaxDP=3.48D-04 DE=-8.46D-06 OVMax= 5.70D-04

 Cycle   4  Pass 1  IDiag  1:
 E= -437.180418178460     Delta-E=       -0.000000474558 Rises=F Damp=F
 DIIS: error= 2.14D-05 at cycle   4 NSaved=   4.
 NSaved= 4 IEnMin= 4 EnMin= -437.180418178460     IErMin= 4 ErrMin= 2.14D-05
 ErrMax= 2.14D-05  0.00D+00 EMaxC= 1.00D-01 BMatC= 1.45D-07 BMatP= 9.01D-07
 IDIUse=1 WtCom= 1.00D+00 WtEn= 0.00D+00
 Coeff-Com:  0.609D-02-0.889D-01 0.215D+00 0.867D+00
 Coeff:      0.609D-02-0.889D-01 0.215D+00 0.867D+00
 Gap=     0.157 Goal=   None    Shift=    0.000
 Gap=     0.157 Goal=   None    Shift=    0.000
 RMSDP=6.38D-06 MaxDP=1.10D-04 DE=-4.75D-07 OVMax= 2.98D-04

 Cycle   5  Pass 1  IDiag  1:
 E= -437.180418284779     Delta-E=       -0.000000106319 Rises=F Damp=F
 DIIS: error= 8.06D-06 at cycle   5 NSaved=   5.
 NSaved= 5 IEnMin= 5 EnMin= -437.180418284779     IErMin= 5 ErrMin= 8.06D-06
 ErrMax= 8.06D-06  0.00D+00 EMaxC= 1.00D-01 BMatC= 8.97D-09 BMatP= 1.45D-07
 IDIUse=1 WtCom= 1.00D+00 WtEn= 0.00D+00
 Coeff-Com:  0.180D-02-0.155D-01-0.101D-01 0.380D-01 0.986D+00
 Coeff:      0.180D-02-0.155D-01-0.101D-01 0.380D-01 0.986D+00
 Gap=     0.157 Goal=   None    Shift=    0.000
 Gap=     0.157 Goal=   None    Shift=    0.000
 RMSDP=2.36D-06 MaxDP=3.27D-05 DE=-1.06D-07 OVMax= 1.36D-04

 Cycle   6  Pass 1  IDiag  1:
 E= -437.180418306359     Delta-E=       -0.000000021580 Rises=F Damp=F
 DIIS: error= 4.18D-06 at cycle   6 NSaved=   6.
 NSaved= 6 IEnMin= 6 EnMin= -437.180418306359     IErMin= 6 ErrMin= 4.18D-06
 ErrMax= 4.18D-06  0.00D+00 EMaxC= 1.00D-01 BMatC= 3.77D-09 BMatP= 8.97D-09
 IDIUse=1 WtCom= 1.00D+00 WtEn= 0.00D+00
 Coeff-Com: -0.114D-02 0.160D-01-0.530D-01-0.158D+00 0.127D+00 0.107D+01
 Coeff:     -0.114D-02 0.160D-01-0.530D-01-0.158D+00 0.127D+00 0.107D+01
 Gap=     0.157 Goal=   None    Shift=    0.000
 Gap=     0.157 Goal=   None    Shift=    0.000
 RMSDP=1.83D-06 MaxDP=2.47D-05 DE=-2.16D-08 OVMax= 1.14D-04

 Cycle   7  Pass 1  IDiag  1:
 E= -437.180418316044     Delta-E=       -0.000000009685 Rises=F Damp=F
 DIIS: error= 2.17D-06 at cycle   7 NSaved=   7.
 NSaved= 7 IEnMin= 7 EnMin= -437.180418316044     IErMin= 7 ErrMin= 2.17D-06
 ErrMax= 2.17D-06  0.00D+00 EMaxC= 1.00D-01 BMatC= 1.34D-09 BMatP= 3.77D-09
 IDIUse=1 WtCom= 1.00D+00 WtEn= 0.00D+00
 Coeff-Com: -0.761D-03 0.877D-02-0.136D-01-0.337D-01-0.272D+00 0.335D+00
 Coeff-Com:  0.976D+00
 Coeff:     -0.761D-03 0.877D-02-0.136D-01-0.337D-01-0.272D+00 0.335D+00
 Coeff:      0.976D+00
 Gap=     0.157 Goal=   None    Shift=    0.000
 Gap=     0.157 Goal=   None    Shift=    0.000
 RMSDP=1.26D-06 MaxDP=2.41D-05 DE=-9.69D-09 OVMax= 7.46D-05

 Cycle   8  Pass 1  IDiag  1:
 E= -437.180418320073     Delta-E=       -0.000000004028 Rises=F Damp=F
 DIIS: error= 1.25D-06 at cycle   8 NSaved=   8.
 NSaved= 8 IEnMin= 8 EnMin= -437.180418320073     IErMin= 8 ErrMin= 1.25D-06
 ErrMax= 1.25D-06  0.00D+00 EMaxC= 1.00D-01 BMatC= 4.23D-10 BMatP= 1.34D-09
 IDIUse=1 WtCom= 1.00D+00 WtEn= 0.00D+00
 Coeff-Com:  0.629D-03-0.813D-02 0.209D-01 0.439D-01 0.142D+00-0.425D+00
 Coeff-Com: -0.677D+00 0.190D+01
 Coeff:      0.629D-03-0.813D-02 0.209D-01 0.439D-01 0.142D+00-0.425D+00
 Coeff:     -0.677D+00 0.190D+01
 Gap=     0.157 Goal=   None    Shift=    0.000
 Gap=     0.157 Goal=   None    Shift=    0.000
 RMSDP=1.60D-06 MaxDP=3.68D-05 DE=-4.03D-09 OVMax= 1.05D-04

 Cycle   9  Pass 1  IDiag  1:
 E= -437.180418323521     Delta-E=       -0.000000003448 Rises=F Damp=F
 DIIS: error= 1.09D-06 at cycle   9 NSaved=   9.
 NSaved= 9 IEnMin= 9 EnMin= -437.180418323521     IErMin= 9 ErrMin= 1.09D-06
 ErrMax= 1.09D-06  0.00D+00 EMaxC= 1.00D-01 BMatC= 2.13D-10 BMatP= 4.23D-10
 IDIUse=1 WtCom= 1.00D+00 WtEn= 0.00D+00
 Coeff-Com: -0.281D-03 0.405D-02-0.136D-01-0.239D-01-0.420D-01 0.255D+00
 Coeff-Com:  0.321D+00-0.184D+01 0.234D+01
 Coeff:     -0.281D-03 0.405D-02-0.136D-01-0.239D-01-0.420D-01 0.255D+00
 Coeff:      0.321D+00-0.184D+01 0.234D+01
 Gap=     0.157 Goal=   None    Shift=    0.000
 Gap=     0.157 Goal=   None    Shift=    0.000
 RMSDP=1.89D-06 MaxDP=4.52D-05 DE=-3.45D-09 OVMax= 1.30D-04

 Cycle  10  Pass 1  IDiag  1:
 E= -437.180418326238     Delta-E=       -0.000000002717 Rises=F Damp=F
 DIIS: error= 8.10D-07 at cycle  10 NSaved=  10.
 NSaved=10 IEnMin=10 EnMin= -437.180418326238     IErMin=10 ErrMin= 8.10D-07
 ErrMax= 8.10D-07  0.00D+00 EMaxC= 1.00D-01 BMatC= 1.10D-10 BMatP= 2.13D-10
 IDIUse=1 WtCom= 1.00D+00 WtEn= 0.00D+00
 Coeff-Com: -0.351D-03 0.457D-02-0.119D-01-0.245D-01-0.842D-01 0.236D+00
 Coeff-Com:  0.405D+00-0.987D+00-0.201D-01 0.148D+01
 Coeff:     -0.351D-03 0.457D-02-0.119D-01-0.245D-01-0.842D-01 0.236D+00
 Coeff:      0.405D+00-0.987D+00-0.201D-01 0.148D+01
 Gap=     0.157 Goal=   None    Shift=    0.000
 Gap=     0.157 Goal=   None    Shift=    0.000
 RMSDP=1.35D-06 MaxDP=3.28D-05 DE=-2.72D-09 OVMax= 9.40D-05

 Cycle  11  Pass 1  IDiag  1:
 E= -437.180418327531     Delta-E=       -0.000000001293 Rises=F Damp=F
 DIIS: error= 5.39D-07 at cycle  11 NSaved=  11.
 NSaved=11 IEnMin=11 EnMin= -437.180418327531     IErMin=11 ErrMin= 5.39D-07
 ErrMax= 5.39D-07  0.00D+00 EMaxC= 1.00D-01 BMatC= 4.84D-11 BMatP= 1.10D-10
 IDIUse=1 WtCom= 1.00D+00 WtEn= 0.00D+00
 Coeff-Com:  0.217D-03-0.328D-02 0.119D-01 0.193D-01 0.343D-01-0.215D+00
 Coeff-Com: -0.270D+00 0.155D+01-0.204D+01-0.233D+00 0.214D+01
 Coeff:      0.217D-03-0.328D-02 0.119D-01 0.193D-01 0.343D-01-0.215D+00
 Coeff:     -0.270D+00 0.155D+01-0.204D+01-0.233D+00 0.214D+01
 Gap=     0.157 Goal=   None    Shift=    0.000
 Gap=     0.157 Goal=   None    Shift=    0.000
 RMSDP=2.05D-06 MaxDP=5.00D-05 DE=-1.29D-09 OVMax= 1.43D-04

 Cycle  12  Pass 1  IDiag  1:
 E= -437.180418328452     Delta-E=       -0.000000000921 Rises=F Damp=F
 DIIS: error= 1.39D-07 at cycle  12 NSaved=  12.
 NSaved=12 IEnMin=12 EnMin= -437.180418328452     IErMin=12 ErrMin= 1.39D-07
 ErrMax= 1.39D-07  0.00D+00 EMaxC= 1.00D-01 BMatC= 2.10D-12 BMatP= 4.84D-11
 IDIUse=1 WtCom= 1.00D+00 WtEn= 0.00D+00
 Coeff-Com:  0.118D-04-0.125D-03-0.391D-04 0.605D-03 0.132D-02-0.176D-02
 Coeff-Com: -0.155D-01-0.883D-01 0.258D+00-0.137D+00-0.274D+00 0.126D+01
 Coeff:      0.118D-04-0.125D-03-0.391D-04 0.605D-03 0.132D-02-0.176D-02
 Coeff:     -0.155D-01-0.883D-01 0.258D+00-0.137D+00-0.274D+00 0.126D+01
 Gap=     0.157 Goal=   None    Shift=    0.000
 Gap=     0.157 Goal=   None    Shift=    0.000
 RMSDP=3.93D-07 MaxDP=9.50D-06 DE=-9.21D-10 OVMax= 2.74D-05

 Cycle  13  Pass 1  IDiag  1:
 E= -437.180418328482     Delta-E=       -0.000000000029 Rises=F Damp=F
 DIIS: error= 3.11D-08 at cycle  13 NSaved=  13.
 NSaved=13 IEnMin=13 EnMin= -437.180418328482     IErMin=13 ErrMin= 3.11D-08
 ErrMax= 3.11D-08  0.00D+00 EMaxC= 1.00D-01 BMatC= 2.11D-13 BMatP= 2.10D-12
 IDIUse=1 WtCom= 1.00D+00 WtEn= 0.00D+00
 Coeff-Com: -0.117D-04 0.182D-03-0.760D-03-0.107D-02-0.185D-02 0.158D-01
 Coeff-Com:  0.133D-01-0.983D-01 0.161D+00-0.731D-02-0.201D+00 0.211D+00
 Coeff-Com:  0.910D+00
 Coeff:     -0.117D-04 0.182D-03-0.760D-03-0.107D-02-0.185D-02 0.158D-01
 Coeff:      0.133D-01-0.983D-01 0.161D+00-0.731D-02-0.201D+00 0.211D+00
 Coeff:      0.910D+00
 Gap=     0.157 Goal=   None    Shift=    0.000
 Gap=     0.157 Goal=   None    Shift=    0.000
 RMSDP=2.15D-08 MaxDP=4.40D-07 DE=-2.94D-11 OVMax= 1.32D-06

 Cycle  14  Pass 1  IDiag  1:
 E= -437.180418328482     Delta-E=        0.000000000000 Rises=F Damp=F
 DIIS: error= 3.49D-09 at cycle  14 NSaved=  14.
 NSaved=14 IEnMin=13 EnMin= -437.180418328482     IErMin=14 ErrMin= 3.49D-09
 ErrMax= 3.49D-09  0.00D+00 EMaxC= 1.00D-01 BMatC= 3.97D-15 BMatP= 2.11D-13
 IDIUse=1 WtCom= 1.00D+00 WtEn= 0.00D+00
 Coeff-Com: -0.340D-06 0.155D-05 0.237D-04-0.398D-04 0.241D-04-0.318D-03
 Coeff-Com: -0.157D-02 0.872D-02-0.195D-01 0.111D-01 0.186D-01-0.606D-01
 Coeff-Com: -0.572D-01 0.110D+01
 Coeff:     -0.340D-06 0.155D-05 0.237D-04-0.398D-04 0.241D-04-0.318D-03
 Coeff:     -0.157D-02 0.872D-02-0.195D-01 0.111D-01 0.186D-01-0.606D-01
 Coeff:     -0.572D-01 0.110D+01
 Gap=     0.157 Goal=   None    Shift=    0.000
 Gap=     0.157 Goal=   None    Shift=    0.000
 RMSDP=2.10D-09 MaxDP=3.19D-08 DE= 0.00D+00 OVMax= 1.15D-07

 SCF Done:  E(UM062X) =  -437.180418328     A.U. after   14 cycles
            NFock= 14  Conv=0.21D-08     -V/T= 2.0016
 <Sx>= 0.0000 <Sy>= 0.0000 <Sz>= 0.0000 <S**2>=-0.0000 S=-0.0000
 <L.S>=  0.00000000000    
 KE= 4.364697880332D+02 PE=-1.089582212033D+03 EE= 1.900234330154D+02
 Annihilation of the first spin contaminant:
 S**2 before annihilation    -0.0000,   after     0.0000
 Leave Link  502 at Mon Apr 21 19:43:39 2025, MaxMem=   536870912 cpu:              48.6 elap:               6.4
 (Enter /home/szhao/Apps/g16/l701.exe)
 ... and contract with generalized density number  0.
 Compute integral first derivatives.
 Leave Link  701 at Mon Apr 21 19:43:40 2025, MaxMem=   536870912 cpu:               1.2 elap:               0.5
 (Enter /home/szhao/Apps/g16/l702.exe)
 L702 exits ... SP integral derivatives will be done elsewhere.
 Leave Link  702 at Mon Apr 21 19:43:40 2025, MaxMem=   536870912 cpu:               0.4 elap:               0.1
 (Enter /home/szhao/Apps/g16/l703.exe)
 Integral derivatives from FoFJK, PRISM(SPDF).
 Compute integral first derivatives, UseDBF=F ICtDFT=           0.
 Calling FoFJK, ICntrl=      2127 FMM=F ISym2X=0 I1Cent= 0 IOpClX= 1 NMat=1 NMatS=1 NMatT=0.
 FoFJK:  IHMeth= 1 ICntrl=    2127 DoSepK=F KAlg= 0 I1Cent=           0 FoldK=F
 IRaf=         0 NMat=       1 IRICut=       1 DoRegI=T DoRafI=F ISym2E= 0 IDoP0=0 IntGTp=1.
 FoFCou: FMM=F IPFlag=           0 FMFlag=      100000 FMFlg1=         800
         NFxFlg=           0 DoJE=F BraDBF=F KetDBF=F FulRan=T
         wScrn=  0.000000 ICntrl=      2127 IOpCl=  1 I1Cent=           0 NGrid=           0
         NMat0=    1 NMatS0=      1 NMatT0=    0 NMatD0=    1 NMtDS0=    0 NMtDT0=    0
 Symmetry not used in FoFCou.
 Leave Link  703 at Mon Apr 21 19:43:41 2025, MaxMem=   536870912 cpu:               6.9 elap:               0.9
[...]
 IDIUse=1 WtCom= 1.00D+00 WtEn= 0.00D+00
 Coeff-Com:  0.420D-04-0.397D-03-0.480D-03 0.227D-02-0.455D-03-0.117D-01
 Coeff-Com:  0.123D-01 0.399D-02-0.539D-01 0.115D+00-0.151D+00 0.263D+00
 Coeff-Com:  0.821D+00
 Coeff:      0.420D-04-0.397D-03-0.480D-03 0.227D-02-0.455D-03-0.117D-01
 Coeff:      0.123D-01 0.399D-02-0.539D-01 0.115D+00-0.151D+00 0.263D+00
 Coeff:      0.821D+00
 Gap=     0.157 Goal=   None    Shift=    0.000
 Gap=     0.157 Goal=   None    Shift=    0.000
 RMSDP=4.71D-09 MaxDP=8.28D-08 DE=-4.55D-13 OVMax= 2.32D-07

 SCF Done:  E(UM062X) =  -437.180418548     A.U. after   13 cycles
            NFock= 13  Conv=0.47D-08     -V/T= 2.0016
 <Sx>= 0.0000 <Sy>= 0.0000 <Sz>= 0.0000 <S**2>= 0.0000 S= 0.0000
 <L.S>=  0.00000000000    
 KE= 4.364683329986D+02 PE=-1.089573603734D+03 EE= 1.900201143071D+02
 Annihilation of the first spin contaminant:
 S**2 before annihilation     0.0000,   after    -0.0000
 Leave Link  502 at Mon Apr 21 19:44:00 2025, MaxMem=   536870912 cpu:              47.3 elap:               6.4
 (Enter /home/szhao/Apps/g16/l701.exe)
 ... and contract with generalized density number  0.
 Compute integral first derivatives.
 Leave Link  701 at Mon Apr 21 19:44:01 2025, MaxMem=   536870912 cpu:               1.0 elap:               0.3
 (Enter /home/szhao/Apps/g16/l702.exe)
 L702 exits ... SP integral derivatives will be done elsewhere.
 Leave Link  702 at Mon Apr 21 19:44:01 2025, MaxMem=   536870912 cpu:               0.5 elap:               0.1
 (Enter /home/szhao/Apps/g16/l703.exe)
 Integral derivatives from FoFJK, PRISM(SPDF).
 Compute integral first derivatives, UseDBF=F ICtDFT=           0.
 Calling FoFJK, ICntrl=      2127 FMM=F ISym2X=0 I1Cent= 0 IOpClX= 1 NMat=1 NMatS=1 NMatT=0.
 FoFJK:  IHMeth= 1 ICntrl=    2127 DoSepK=F KAlg= 0 I1Cent=           0 FoldK=F
 IRaf=         0 NMat=       1 IRICut=       1 DoRegI=T DoRafI=F ISym2E= 0 IDoP0=0 IntGTp=1.
 FoFCou: FMM=F IPFlag=           0 FMFlag=      100000 FMFlg1=         800
         NFxFlg=           0 DoJE=F BraDBF=F KetDBF=F FulRan=T
         wScrn=  0.000000 ICntrl=      2127 IOpCl=  1 I1Cent=           0 NGrid=           0
         NMat0=    1 NMatS0=      1 NMatT0=    0 NMatD0=    1 NMtDS0=    0 NMtDT0=    0
 Symmetry not used in FoFCou.
 Leave Link  703 at Mon Apr 21 19:44:02 2025, MaxMem=   536870912 cpu:               6.7 elap:               0.9
 (Enter /home/szhao/Apps/g16/l716.exe)
 Dipole        =-1.53976079D+00-3.21968033D-04-5.60524842D-04
 -------------------------------------------------------------------
 Center     Atomic                   Forces (Hartrees/Bohr)
 Number     Number              X              Y              Z
 -------------------------------------------------------------------
      1        6          -0.000000000   -0.000000000   -0.000000000
      2       16          -0.000000000   -0.000000000   -0.000000000
      3        1           0.000061890    0.000089237    0.000006126
      4        1           0.000065378   -0.000086723    0.000006148
 -------------------------------------------------------------------
 Cartesian Forces:  Max     0.000089237 RMS     0.000044407
 Leave Link  716 at Mon Apr 21 19:44:03 2025, MaxMem=   536870912 cpu:               1.2 elap:               0.2
 (Enter /home/szhao/Apps/g16/l103.exe)

 GradGradGradGradGradGradGradGradGradGradGradGradGradGradGradGradGradGrad
 Berny optimization.
 Using GEDIIS/GDIIS optimizer.
 FormGI is forming the generalized inverse of G from B-inverse, IUseBI=4.
 Internal  Forces:  Max     0.000127268 RMS     0.000057881
 Search for a local minimum.
 Step number   5 out of a maximum of   22
 All quantities printed in internal units (Hartrees-Bohrs-Radians)
 RMS Force = .62936D-04 SwitMx=.10000D-02 MixMth= 2
 Mixed Optimization -- En-DIIS/RFO-DIIS
 Swapping is turned off.
 Update second derivatives using D2CorX and points    1    2    3    4    5
 DE= -7.37D-07 DEPred=-8.49D-07 R= 8.68D-01
 Trust test= 8.68D-01 RLast= 1.23D-02 DXMaxT set to 1.50D-01
 The second derivative matrix:
                          X1        Y1        Z1        X2        Y2
           X1           0.81058
           Y1          -0.00011   0.50000
           Z1           0.00336  -0.00000   0.51788
           X2          -0.00000   0.00000  -0.00000   0.50000
           Y2           0.00008  -0.00000   0.00000  -0.00000   0.50000
           Z2          -0.00051   0.00000  -0.00298   0.00000  -0.00000
           R1          -0.17678   0.00015  -0.00007   0.00000  -0.00007
           R2          -0.17685   0.00015  -0.00007   0.00000  -0.00007
           A1          -0.03254  -0.00002  -0.00107   0.00000   0.00000
           A2          -0.03382  -0.00002  -0.00120   0.00000   0.00000
           A3           0.06710   0.00005   0.00215  -0.00000  -0.00000
           D1          -0.00006  -0.00000   0.01472  -0.00000   0.00000
                          Z2        R1        R2        A1        A2
           Z2           0.50050
           R1          -0.00004   0.34076
           R2          -0.00004  -0.00791   0.34078
           A1           0.00018  -0.01135  -0.01135   0.14755
           A2           0.00020  -0.00439  -0.00439  -0.01233   0.14747
           A3          -0.00037   0.01513   0.01513   0.02441   0.02457
           D1          -0.00246  -0.00003  -0.00003   0.00036   0.00015
                          A3        D1
           A3           0.11146
           D1           0.00012   0.01218
 ITU=  0 -1  1  1  0
     Eigenvalues ---    0.01218   0.08388   0.15957   0.33596   0.34868
     Eigenvalues --- 1000.000001000.000001000.000001000.000001000.00000
     Eigenvalues --- 1000.000001000.00000
 En-DIIS/RFO-DIIS/Sim-DIIS IScMMF=       -3 using points:     5    4    3
 RFO step:  Lambda=-8.42951776D-08.
 NNeg= 0 NGDIIS= 3 SimSw=  2.50D-03 Rises=F DC= -7.37D-07 SmlDif=  1.00D-05
 NRisDI= 0 DoIntr=F SqrtH=F CThrHd= 10.0 CDAdj=  3.0
 RMS Error=  0.3189702460D-03 NUsed= 3 OKEnD=F EnDIS=F
 InvSVX:  RCond= 8.64D-07 Info=           0 Equed=N FErr=  7.31D-15 BErr=  1.11D-16
 DidBck=T Rises=F RFO-DIIS coefs:    0.62086    0.11858    0.26057
 Iteration  1 RMS(Cart)=  0.00042679 RMS(Int)=  0.00000142
 Iteration  2 RMS(Cart)=  0.00000013 RMS(Int)=  0.00000141
 ITry= 1 IFail=0 DXMaxC= 9.85D-04 DCOld= 1.00D+10 DXMaxT= 1.50D-01 DXLimC= 3.00D+00 Rises=F
 Variable       Old X    -DE/DX   Delta X   Delta X   Delta X     New X
                                 (Linear)    (Quad)   (Total)
    X1       -3.07485   0.00013   0.00000   0.00000   0.00000  -3.07485
    Y1        0.00000   0.00000   0.00000   0.00000   0.00000   0.00000
    Z1        0.00000   0.00001   0.00000   0.00000   0.00000   0.00000
    X2        3.07485  -0.00000  -0.00000   0.00000   0.00000   3.07485
    Y2        0.00000  -0.00000   0.00000   0.00000   0.00000   0.00000
    Z2        0.00000  -0.00000   0.00000   0.00000   0.00000   0.00000
    R1        2.08041  -0.00011  -0.00034   0.00000  -0.00033   2.08008
    R2        2.08041  -0.00011  -0.00034   0.00000  -0.00033   2.08008
    A1        2.20329   0.00000  -0.00004  -0.00000  -0.00004   2.20325
    A2        2.20419  -0.00000  -0.00001  -0.00006  -0.00007   2.20412
    A3        1.87570  -0.00000   0.00004   0.00007   0.00011   1.87581
    D1        3.14060   0.00001   0.00099  -0.00000   0.00099  -3.14159
         Item               Value     Threshold  Converged?
 Maximum Force            0.000109     0.000450     YES
 RMS     Force            0.000063     0.000300     YES
 Maximum Displacement     0.000985     0.001800     YES
 RMS     Displacement     0.000427     0.001200     YES
 Predicted change in Energy=-4.213957D-08
 Optimization completed.
    -- Stationary point found.
                           ----------------------------
                           !   Optimized Parameters   !
                           ! (Angstroms and Degrees)  !
 --------------------------                            --------------------------
 ! Name  Definition              Value          Derivative Info.                !
 --------------------------------------------------------------------------------
 ! X1    R(1,-1)                -1.6271         -DE/DX =    0.0001              !
 ! Y1    R(1,-2)                 0.0            -DE/DX =    0.0                 !
 ! Z1    R(1,-3)                 0.0            -DE/DX =    0.0                 !
 ! X2    R(2,-1)                 1.6271         -DE/DX =    0.0                 !
 ! Y2    R(2,-2)                 0.0            -DE/DX =    0.0                 !
 ! Z2    R(2,-3)                 0.0            -DE/DX =    0.0                 !
 ! R1    R(1,3)                  1.1009         -DE/DX =   -0.0001              !
 ! R2    R(1,4)                  1.1009         -DE/DX =   -0.0001              !
 ! A1    A(2,1,3)              126.2394         -DE/DX =    0.0                 !
 ! A2    A(2,1,4)              126.2907         -DE/DX =    0.0                 !
 ! A3    A(3,1,4)              107.4699         -DE/DX =    0.0                 !
 ! D1    D(2,1,4,3)           -180.0568         -DE/DX =    0.0                 !
 --------------------------------------------------------------------------------
 Lowest energy point so far.  Saving SCF results.
 Largest change from initial coordinates is atom    3       0.083 Angstoms.
 GradGradGradGradGradGradGradGradGradGradGradGradGradGradGradGradGradGrad

 Leave Link  103 at Mon Apr 21 19:44:04 2025, MaxMem=   536870912 cpu:               0.7 elap:               0.1
 (Enter /home/szhao/Apps/g16/l202.exe)
                          Input orientation:                          
 ---------------------------------------------------------------------
 Center     Atomic      Atomic             Coordinates (Angstroms)
 Number     Number       Type             X           Y           Z
 ---------------------------------------------------------------------
      1          6           0       -1.627140    0.000000    0.000000
      2         16           0        1.627140    0.000000    0.000000
      3          1           0       -2.277951   -0.887939   -0.000453
      4          1           0       -2.278746    0.887356   -0.000588
 ---------------------------------------------------------------------
                    Distance matrix (angstroms):
                    1          2          3          4
     1  C    0.000000
     2  S    3.254279   0.000000
     3  H    1.100905   4.004768   0.000000
     4  H    1.100905   4.005414   1.775296   0.000000
 Symmetry turned off by external request.
 Stoichiometry    CH2S
 Framework group  C1[X(CH2S)]
 Deg. of freedom     6
 Full point group                 C1      NOp   1
 Rotational constants (GHZ):         318.2149870           4.5964371           4.5309895
 Leave Link  202 at Mon Apr 21 19:44:04 2025, MaxMem=   536870912 cpu:               0.2 elap:               0.1
 (Enter /home/szhao/Apps/g16/l601.exe)
 Copying SCF densities to generalized density rwf, IOpCl= 1 IROHF=0.

 **********************************************************************

            Population analysis using the SCF density.

 **********************************************************************

 Alpha  occ. eigenvalues --  -89.92028 -10.66272  -8.28024  -6.20743  -6.19277
 Alpha  occ. eigenvalues --   -6.19266  -0.79694  -0.72293  -0.52771  -0.35620
 Alpha  occ. eigenvalues --   -0.29770  -0.29741
 Alpha virt. eigenvalues --   -0.14029  -0.11970   0.00758   0.05256   0.05480
 Alpha virt. eigenvalues --    0.06628   0.08407   0.08896   0.09298   0.14159
 Alpha virt. eigenvalues --    0.16708   0.17219   0.36396   0.37253   0.37290
 Alpha virt. eigenvalues --    0.44367   0.44623   0.56100   0.56302   0.60143
 Alpha virt. eigenvalues --    0.66573   0.75237   0.82884   0.83500   0.86313
 Alpha virt. eigenvalues --    0.86316   0.86670   1.05717   1.13416   1.16790
 Alpha virt. eigenvalues --    1.49342   1.50937   1.62299   1.70452   1.70648
 Alpha virt. eigenvalues --    1.71010   1.82015   1.85600   2.09884   2.37465
 Alpha virt. eigenvalues --    2.40341   2.46465   2.56970   2.71064   3.02625
 Alpha virt. eigenvalues --    3.61147   7.77054  17.46518  17.46633  17.48161
 Alpha virt. eigenvalues --   23.72938 189.02087
  Beta  occ. eigenvalues --  -89.92028 -10.66272  -8.28024  -6.20743  -6.19277
  Beta  occ. eigenvalues --   -6.19266  -0.79694  -0.72293  -0.52771  -0.35620
  Beta  occ. eigenvalues --   -0.29770  -0.29741
  Beta virt. eigenvalues --   -0.14029  -0.11970   0.00758   0.05256   0.05480
  Beta virt. eigenvalues --    0.06628   0.08407   0.08896   0.09298   0.14159
  Beta virt. eigenvalues --    0.16708   0.17219   0.36396   0.37253   0.37290
  Beta virt. eigenvalues --    0.44367   0.44623   0.56100   0.56302   0.60143
  Beta virt. eigenvalues --    0.66573   0.75237   0.82884   0.83500   0.86313
  Beta virt. eigenvalues --    0.86316   0.86670   1.05717   1.13416   1.16790
  Beta virt. eigenvalues --    1.49342   1.50937   1.62299   1.70452   1.70648
  Beta virt. eigenvalues --    1.71010   1.82015   1.85600   2.09884   2.37465
  Beta virt. eigenvalues --    2.40341   2.46465   2.56970   2.71064   3.02625
  Beta virt. eigenvalues --    3.61147   7.77054  17.46518  17.46633  17.48161
  Beta virt. eigenvalues --   23.72938 189.02087
          Condensed to atoms (all electrons):
               1          2          3          4
     1  C    5.571090   0.026127   0.330674   0.330715
     2  S    0.026127  16.047365   0.001466   0.001465
     3  H    0.330674   0.001466   0.534403  -0.034052
     4  H    0.330715   0.001465  -0.034052   0.534352
          Atomic-Atomic Spin Densities.
               1          2          3          4
     1  C    0.000000  -0.000000   0.000000  -0.000000
     2  S   -0.000000  -0.000000  -0.000000   0.000000
     3  H    0.000000  -0.000000  -0.000000   0.000000
     4  H   -0.000000   0.000000   0.000000   0.000000
 Mulliken charges and spin densities:
               1          2
     1  C   -0.258606   0.000000
     2  S   -0.076423  -0.000000
     3  H    0.167509  -0.000000
     4  H    0.167520   0.000000
 Sum of Mulliken charges =  -0.00000  -0.00000
 Mulliken charges and spin densities with hydrogens summed into heavy atoms:
               1          2
     1  C    0.076423   0.000000
     2  S   -0.076423  -0.000000
 Electronic spatial extent (au):  <R**2>=            292.5752
 Charge=             -0.0000 electrons
 Dipole moment (field-independent basis, Debye):
    X=             -3.9137    Y=             -0.0008    Z=             -0.0014  Tot=              3.9137
 Quadrupole moment (field-independent basis, Debye-Ang):
   XX=            -12.0512   YY=            -22.2681   ZZ=            -21.9983
   XY=             -0.0001   XZ=             -0.0004   YZ=              0.0000
 Traceless Quadrupole moment (field-independent basis, Debye-Ang):
   XX=              6.7214   YY=             -3.4956   ZZ=             -3.2258
   XY=             -0.0001   XZ=             -0.0004   YZ=              0.0000
 Octapole moment (field-independent basis, Debye-Ang**2):
  XXX=            -29.9479  YYY=             -0.0007  ZZZ=              0.0009  XYY=            -15.6633
  XXY=             -0.0000  XXZ=             -0.0030  XZZ=            -15.2034  YZZ=              0.0002
  YYZ=             -0.0005  XYZ=              0.0000
 Hexadecapole moment (field-independent basis, Debye-Ang**3):
 XXXX=           -297.0252 YYYY=            -39.3036 ZZZZ=            -31.8985 XXXY=             -0.0152
 XXXZ=             -0.0236 YYYX=              0.0008 YYYZ=              0.0002 ZZZX=             -0.0066
 ZZZY=              0.0003 XXYY=            -67.1269 XXZZ=            -68.5757 YYZZ=            -12.1777
 XXYZ=             -0.0001 YYXZ=             -0.0002 ZZXY=             -0.0005
 N-N= 2.590473788022D+01 E-N=-1.089573604216D+03  KE= 4.364683329986D+02
                          Isotropic Fermi Contact Couplings
        Atom                 a.u.       MegaHertz       Gauss      10(-4) cm-1
     1  C(13)              0.00000       0.00000       0.00000       0.00000
     2  S(33)              0.00000       0.00000       0.00000       0.00000
     3  H(1)              -0.00000      -0.00000      -0.00000      -0.00000
     4  H(1)               0.00000       0.00000       0.00000       0.00000
 --------------------------------------------------------
       Center         ----  Spin Dipole Couplings  ----
                      3XX-RR        3YY-RR        3ZZ-RR
 --------------------------------------------------------
     1   Atom        0.000000     -0.000000     -0.000000
     2   Atom       -0.000000      0.000000      0.000000
     3   Atom        0.000000     -0.000000     -0.000000
     4   Atom       -0.000000      0.000000     -0.000000
 --------------------------------------------------------
                        XY            XZ            YZ
 --------------------------------------------------------
     1   Atom       -0.000000      0.000000      0.000000
     2   Atom        0.000010      0.000007     -0.000000
     3   Atom       -0.000000      0.000000     -0.000000
     4   Atom       -0.000000      0.000000      0.000000
 --------------------------------------------------------


 ---------------------------------------------------------------------------------
              Anisotropic Spin Dipole Couplings in Principal Axis System
 ---------------------------------------------------------------------------------

       Atom             a.u.   MegaHertz   Gauss  10(-4) cm-1        Axes

              Baa    -0.0000    -0.000    -0.000    -0.000 -0.6947 -0.0519  0.7175
     1 C(13)  Bbb    -0.0000    -0.000    -0.000    -0.000  0.0003  0.9974  0.0724
              Bcc     0.0000     0.000     0.000     0.000  0.7193 -0.0505  0.6928
 
              Baa    -0.0000    -0.001    -0.000    -0.000  0.7073 -0.5788 -0.4058
     2 S(33)  Bbb     0.0000     0.000     0.000     0.000 -0.0002 -0.5743  0.8187
              Bcc     0.0000     0.001     0.000     0.000  0.7069  0.5790  0.4063
 
              Baa    -0.0000    -0.000    -0.000    -0.000 -0.4600  0.4761  0.7495
     3 H(1)   Bbb    -0.0000    -0.000    -0.000    -0.000  0.4668  0.8477 -0.2520
              Bcc     0.0000     0.000     0.000     0.000  0.7553 -0.2339  0.6122
 
              Baa    -0.0000    -0.000    -0.000    -0.000  0.7287  0.2612 -0.6331
     4 H(1)   Bbb     0.0000     0.000     0.000     0.000 -0.5552  0.7665 -0.3228
              Bcc     0.0000     0.000     0.000     0.000  0.4010  0.5867  0.7035
 

 ---------------------------------------------------------------------------------

 No NMR shielding tensors so no spin-rotation constants.
 Leave Link  601 at Mon Apr 21 19:44:04 2025, MaxMem=   536870912 cpu:               2.2 elap:               0.3
 (Enter /home/szhao/Apps/g16/l9999.exe)
 1\1\GINC-NODE06\FOpt\UM062X\6-311+G(d,p)\C1H2S1\SZHAO\21-Apr-2025\0\\#
 p opt UM062X/6-311+G** nosymm int=superfine\\Title Card Required\\0,1\
 C,-1.62713956,0.,0.\S,1.62713956,0.,0.\H,-2.2779509391,-0.8879392029,-
 0.0004532052\H,-2.2787460433,0.8873562012,-0.000587613\\Version=ES64L-
 G16RevA.03\HF=-437.1804185\S2=0.\S2-1=0.\S2A=0.\RMSD=4.706e-09\RMSF=4.
 441e-05\Dipole=-1.5397608,-0.000322,-0.0005605\Quadrupole=4.9971669,-2
 .5988837,-2.3982832,-0.0000548,-0.0003325,0.0000147\PG=C01 [X(C1H2S1)]
 \\@


 THE UNDERLYING PHYSICAL LAWS NECESSARY FOR THE 
 MATHEMATICAL THEORY OF A LARGE PART OF PHYSICS AND THE
 WHOLE OF CHEMISTRY ARE THUS COMPLETELY KNOWN, AND THE
 DIFFICULTY IS ONLY THAT THE EXACT APPLICATION OF THESE
 LAWS LEADS TO EQUATIONS MUCH TOO COMPLICATED 
 TO BE SOLUBLE.

                                        -- P. A. M. DIRAC, 1929
 Job cpu time:       0 days  0 hours  5 minutes 45.4 seconds.
 Elapsed time:       0 days  0 hours  0 minutes 49.4 seconds.
 File lengths (MBytes):  RWF=     22 Int=      0 D2E=      0 Chk=      2 Scr=      2
 Normal termination of Gaussian 16 at Mon Apr 21 19:44:05 2025.
