Title Card Required                                                     
FOpt      UM062X                                                      6-311+G(d,p)        
Number of atoms                            I                4
Info1-9                                    I   N=           9
          13          13           0           0           0         100
           2          18        -502
Full Title                                 C   N=           2
Title Card Required     
Route                                      C   N=           4
#p opt UM062X/6-311+G** nosymm int=superfine    
Charge                                     I                1
Multiplicity                               I                2
Number of electrons                        I               13
Number of alpha electrons                  I                7
Number of beta electrons                   I                6
Number of basis functions                  I               56
Number of independent functions            I               56
Number of point charges in /Mol/           I                0
Number of translation vectors              I                0
Atomic numbers                             I   N=           4
           6           6           1           1
Nuclear charges                            R   N=           4
  6.00000000E+00  6.00000000E+00  1.00000000E+00  1.00000000E+00
Current cartesian coordinates              R   N=          12
 -1.71428395E+00  0.00000000E+00  0.00000000E+00  1.71428395E+00  0.00000000E+00
  0.00000000E+00 -3.79485919E+00  0.00000000E+00  0.00000000E+00  3.79481761E+00
  0.00000000E+00  0.00000000E+00
Number of symbols in /Mol/                 I                0
Force Field                                I                0
Atom Types                                 C   N=           4
                                                
Int Atom Types                             I   N=           4
           0           0           0           0
MM charges                                 R   N=           4
  0.00000000E+00  0.00000000E+00  0.00000000E+00  0.00000000E+00
Integer atomic weights                     I   N=           4
          12          12           1           1
Real atomic weights                        R   N=           4
  1.20000000E+01  1.20000000E+01  1.00782504E+00  1.00782504E+00
Atom fragment info                         I   N=           4
           0           0           0           0
Atom residue num                           I   N=           4
           0           0           0           0
Nuclear spins                              I   N=           4
           0           0           1           1
Nuclear ZEff                               R   N=           4
 -3.60000000E+00 -3.60000000E+00 -1.00000000E+00 -1.00000000E+00
Nuclear ZNuc                               R   N=           4
  6.00000000E+00  6.00000000E+00  1.00000000E+00  1.00000000E+00
Nuclear QMom                               R   N=           4
  0.00000000E+00  0.00000000E+00  0.00000000E+00  0.00000000E+00
Nuclear GFac                               R   N=           4
  0.00000000E+00  0.00000000E+00  2.79284600E+00  2.79284600E+00
MicOpt                                     I   N=           4
          -2          -2          -1          -1
Number of residues                         I                0
Number of secondary structures             I                0
Redundant internal dimensions              I   N=           4
          12           8           4           0
Redundant internal coordinate indices      I   N=          48
           1          -1           0           0           1          -2
           0           0           1          -3           0           0
           2          -1           0           0           2          -2
           0           0           2          -3           0           0
           1           3           0           0           2           4
           0           0           2           1           3          -4
           1           2           4          -4           2           1
           3          -8           1           2           4          -8
Redundant internal coordinates             R   N=          12
 -1.71428395E+00  0.00000000E+00  0.00000000E+00  1.71428395E+00  0.00000000E+00
  0.00000000E+00  2.08057524E+00  2.08053366E+00  3.14159265E+00  3.14159265E+00
  3.14159265E+00  3.14159265E+00
ZRed-IntVec                                I   N=          12
          -1          -1          -1          -1          -1          -1
           0           0           0           0           0           0
ZRed-FPVec                                 R   N=          12
  0.00000000E+00  0.00000000E+00  0.00000000E+00  0.00000000E+00  0.00000000E+00
  0.00000000E+00  0.00000000E+00  0.00000000E+00  0.00000000E+00  0.00000000E+00
  0.00000000E+00  0.00000000E+00
ZRed-Constraint1                           R   N=          12
 -1.71428395E+00  0.00000000E+00  0.00000000E+00  1.71428395E+00  0.00000000E+00
  0.00000000E+00  2.08057524E+00  2.08053366E+00  3.14159265E+00  3.14159265E+00
  3.14159265E+00  3.14159265E+00
ZRed-Constraint2                           R   N=          12
 -1.71428395E+00  0.00000000E+00  0.00000000E+00  1.71428395E+00  0.00000000E+00
  0.00000000E+00  0.00000000E+00  0.00000000E+00  0.00000000E+00  0.00000000E+00
  0.00000000E+00  0.00000000E+00
Number of contracted shells                I               20
Number of primitive shells                 I               38
Pure/Cartesian d shells                    I                0
Pure/Cartesian f shells                    I                0
Highest angular momentum                   I                2
Largest degree of contraction              I                6
Shell types                                I   N=          20
           0          -1          -1          -1          -1          -2
           0          -1          -1          -1          -1          -2
           0           0           0           1           0           0
           0           1
Number of primitives per shell             I   N=          20
           6           3           1           1           1           1
           6           3           1           1           1           1
           3           1           1           1           3           1
           1           1
Shell to atom map                          I   N=          20
           1           1           1           1           1           1
           2           2           2           2           2           2
           3           3           3           3           4           4
           4           4
Primitive exponents                        R   N=          38
  4.56324000E+03  6.82024000E+02  1.54973000E+02  4.44553000E+01  1.30290000E+01
  1.82773000E+00  2.09642000E+01  4.80331000E+00  1.45933000E+00  4.83456000E-01
  1.45585000E-01  4.38000000E-02  6.26000000E-01  4.56324000E+03  6.82024000E+02
  1.54973000E+02  4.44553000E+01  1.30290000E+01  1.82773000E+00  2.09642000E+01
  4.80331000E+00  1.45933000E+00  4.83456000E-01  1.45585000E-01  4.38000000E-02
  6.26000000E-01  3.38650000E+01  5.09479000E+00  1.15879000E+00  3.25840000E-01
  1.02741000E-01  7.50000000E-01  3.38650000E+01  5.09479000E+00  1.15879000E+00
  3.25840000E-01  1.02741000E-01  7.50000000E-01
Contraction coefficients                   R   N=          38
  1.96665025E-03  1.52306019E-02  7.61269097E-02  2.60801033E-01  6.16462078E-01
  2.21006028E-01  1.14660081E-01  9.19999648E-01 -3.03068213E-03  1.00000000E+00
  1.00000000E+00  1.00000000E+00  1.00000000E+00  1.96665025E-03  1.52306019E-02
  7.61269097E-02  2.60801033E-01  6.16462078E-01  2.21006028E-01  1.14660081E-01
  9.19999648E-01 -3.03068213E-03  1.00000000E+00  1.00000000E+00  1.00000000E+00
  1.00000000E+00  2.54938145E-02  1.90373109E-01  8.52161486E-01  1.00000000E+00
  1.00000000E+00  1.00000000E+00  2.54938145E-02  1.90373109E-01  8.52161486E-01
  1.00000000E+00  1.00000000E+00  1.00000000E+00
P(S=P) Contraction coefficients            R   N=          38
  0.00000000E+00  0.00000000E+00  0.00000000E+00  0.00000000E+00  0.00000000E+00
  0.00000000E+00  4.02486927E-02  2.37593957E-01  8.15853851E-01  1.00000000E+00
  1.00000000E+00  1.00000000E+00  0.00000000E+00  0.00000000E+00  0.00000000E+00
  0.00000000E+00  0.00000000E+00  0.00000000E+00  0.00000000E+00  4.02486927E-02
  2.37593957E-01  8.15853851E-01  1.00000000E+00  1.00000000E+00  1.00000000E+00
  0.00000000E+00  0.00000000E+00  0.00000000E+00  0.00000000E+00  0.00000000E+00
  0.00000000E+00  0.00000000E+00  0.00000000E+00  0.00000000E+00  0.00000000E+00
  0.00000000E+00  0.00000000E+00  0.00000000E+00
Coordinates of each shell                  R   N=          60
 -1.71428395E+00  0.00000000E+00  0.00000000E+00 -1.71428395E+00  0.00000000E+00
  0.00000000E+00 -1.71428395E+00  0.00000000E+00  0.00000000E+00 -1.71428395E+00
  0.00000000E+00  0.00000000E+00 -1.71428395E+00  0.00000000E+00  0.00000000E+00
 -1.71428395E+00  0.00000000E+00  0.00000000E+00  1.71428395E+00  0.00000000E+00
  0.00000000E+00  1.71428395E+00  0.00000000E+00  0.00000000E+00  1.71428395E+00
  0.00000000E+00  0.00000000E+00  1.71428395E+00  0.00000000E+00  0.00000000E+00
  1.71428395E+00  0.00000000E+00  0.00000000E+00  1.71428395E+00  0.00000000E+00
  0.00000000E+00 -3.79485919E+00  0.00000000E+00  0.00000000E+00 -3.79485919E+00
  0.00000000E+00  0.00000000E+00 -3.79485919E+00  0.00000000E+00  0.00000000E+00
 -3.79485919E+00  0.00000000E+00  0.00000000E+00  3.79481761E+00  0.00000000E+00
  0.00000000E+00  3.79481761E+00  0.00000000E+00  0.00000000E+00  3.79481761E+00
  0.00000000E+00  0.00000000E+00  3.79481761E+00  0.00000000E+00  0.00000000E+00
Num ILSW                                   I              100
ILSW                                       I   N=         100
           1           0           0           0           2           0
           0           0           0           0        4336          -1
           7           0           0           0           2           0
           0           0           0           0           1           0
           1           1           0           0           0           0
           0           0      100000           0          -1           0
           0           0           0           0           0           0
           0           0           0           1           0           0
           0 -2000000000           1           0           0           0
           0           0           4          52           0           0
           0           0          55           0           0           0
           0           0           0           4           0           1
           0           0           0           0           0           0
           0           0           0           0           0           0
           0           0           0           0           0           0
           0           0           0           0           0           0
           0           0           0           0
Num RLSW                                   I               52
RLSW                                       R   N=          52
  1.00000000E+00  1.00000000E+00  1.00000000E+00  1.00000000E+00  5.40000000E-01
  0.00000000E+00  0.00000000E+00  1.00000000E+00  0.00000000E+00  0.00000000E+00
  0.00000000E+00  0.00000000E+00  1.00000000E+00  0.00000000E+00  0.00000000E+00
  0.00000000E+00  0.00000000E+00  1.00000000E+00  0.00000000E+00  0.00000000E+00
  0.00000000E+00  0.00000000E+00  1.00000000E+00  0.00000000E+00  0.00000000E+00
  0.00000000E+00  0.00000000E+00  1.00000000E+00  0.00000000E+00  0.00000000E+00
  0.00000000E+00  0.00000000E+00  1.00000000E+00  0.00000000E+00  0.00000000E+00
  0.00000000E+00  0.00000000E+00  0.00000000E+00  1.00000000E+00  1.00000000E+00
  0.00000000E+00  1.00000000E+00  0.00000000E+00  0.00000000E+00  0.00000000E+00
  0.00000000E+00  0.00000000E+00  0.00000000E+00  0.00000000E+00  0.00000000E+00
  0.00000000E+00  0.00000000E+00
MxBond                                     I                2
NBond                                      I   N=           4
           2           2           1           1
IBond                                      I   N=           8
           2           3           1           4           1           0
           2           0
RBond                                      R   N=           8
  1.00000000E+00  1.00000000E+00  1.00000000E+00  1.00000000E+00  1.00000000E+00
  0.00000000E+00  1.00000000E+00  0.00000000E+00
Virial Ratio                               R      2.014653448433022E+00
SCF Energy                                 R     -7.667353793782047E+01
Total Energy                               R     -7.667353793782047E+01
S**2                                       R      7.525301912005666E-01
S**2 after annihilation                    R      7.500040640597407E-01
RMS Force                                  R      6.254538999321539E-05
RMS Density                                R      5.297679667549215E-10
Job Status                                 I                1
Nuclear derivative order                   I                1
External E-field                           R   N=          35
  0.00000000E+00  0.00000000E+00  0.00000000E+00  0.00000000E+00  0.00000000E+00
  0.00000000E+00  0.00000000E+00  0.00000000E+00  0.00000000E+00  0.00000000E+00
  0.00000000E+00  0.00000000E+00  0.00000000E+00  0.00000000E+00  0.00000000E+00
  0.00000000E+00  0.00000000E+00  0.00000000E+00  0.00000000E+00  0.00000000E+00
  0.00000000E+00  0.00000000E+00  0.00000000E+00  0.00000000E+00  0.00000000E+00
  0.00000000E+00  0.00000000E+00  0.00000000E+00  0.00000000E+00  0.00000000E+00
  0.00000000E+00  0.00000000E+00  0.00000000E+00  0.00000000E+00  0.00000000E+00
IOpCl                                      I                1
IROHF                                      I                0
Alpha Orbital Energies                     R   N=          56
 -1.10071890E+01 -1.10069101E+01 -1.08155992E+00 -9.95127610E-01 -8.22638469E-01
 -6.18712756E-01 -5.98242342E-01 -3.77869779E-01 -3.58084624E-01 -3.23555929E-01
 -1.41300855E-01 -1.16699332E-01 -1.02643377E-01 -8.85658909E-02 -8.62724614E-02
 -5.35591149E-02 -5.06214382E-02  8.57585896E-03  3.38694625E-02  6.51980303E-02
  2.34404177E-01  3.11644705E-01  3.26245627E-01  3.29945712E-01  3.56764514E-01
  3.63807746E-01  4.32303060E-01  5.21625038E-01  5.47930833E-01  7.10440333E-01
  7.21423076E-01  7.27341426E-01  9.75805228E-01  9.77256881E-01  1.02004606E+00
  1.02765272E+00  1.08311727E+00  1.08424529E+00  1.17340921E+00  1.45246441E+00
  1.46026766E+00  1.53134205E+00  1.75829974E+00  1.77259074E+00  2.01207281E+00
  2.25842113E+00  2.36849745E+00  2.39447370E+00  2.42559677E+00  2.42770380E+00
  2.45230880E+00  2.71866766E+00  2.97859496E+00  3.08067743E+00  2.32061534E+01
  2.33233303E+01
Beta Orbital Energies                      R   N=          56
 -1.10045845E+01 -1.10043956E+01 -1.04598245E+00 -9.76811640E-01 -8.12507661E-01
 -5.79394651E-01 -3.97261950E-01 -3.40706410E-01 -3.03094390E-01 -2.92883934E-01
 -1.50949099E-01 -1.19934026E-01 -1.08054193E-01 -9.22458875E-02 -9.07128579E-02
 -5.35779527E-02 -5.11120657E-02 -1.01834887E-03  3.47775727E-02  6.70047805E-02
  2.38925694E-01  3.14978438E-01  3.26677335E-01  3.35425050E-01  3.41653116E-01
  3.60750023E-01  4.23389376E-01  5.24972274E-01  5.58343058E-01  7.03932679E-01
  7.34533192E-01  7.40083693E-01  1.00604287E+00  1.02890529E+00  1.03332537E+00
  1.04266080E+00  1.10888761E+00  1.13192278E+00  1.19576376E+00  1.46078350E+00
  1.47078313E+00  1.54277383E+00  1.77622240E+00  1.78375321E+00  2.03675647E+00
  2.27407442E+00  2.40317088E+00  2.41246031E+00  2.44388627E+00  2.46133622E+00
  2.47270659E+00  2.76936554E+00  3.00403057E+00  3.09695677E+00  2.32168455E+01
  2.33343988E+01
Alpha MO coefficients                      R   N=        3136
  4.00297834E-01  3.29190251E-01  9.21492907E-04  9.08636277E-16 -3.28309141E-15
  7.04755949E-03 -2.11397123E-03 -1.08871923E-15  3.98976230E-15 -3.35631806E-03
  6.31826545E-04  4.22496813E-16 -2.00495645E-15 -3.95745882E-04  1.34646095E-03
 -1.02859994E-16  8.54979672E-16 -4.08475973E-04 -4.24509065E-16 -1.69941891E-05
  7.72514527E-04  1.24212115E-17  3.97911840E-01  3.27228330E-01 -9.17267841E-04
  1.58318657E-15 -3.18677418E-15  7.00387801E-03  2.10161073E-03 -1.88274095E-15
  3.85065204E-15 -3.32665618E-03 -6.54273670E-04  8.54629504E-16 -1.62078827E-15
 -4.28691174E-04 -1.33244556E-03 -2.22225539E-16  1.99174802E-16 -4.05031424E-04
  3.84579345E-16 -1.68904658E-05  7.66151182E-04 -2.67313896E-16  1.11183880E-04
 -2.55927557E-03  3.00502535E-03 -1.57227522E-03  9.91792793E-17 -5.85347369E-16
  1.09968216E-04 -2.53599485E-03  3.00008378E-03  1.56122042E-03  3.05492172E-16
 -5.35361636E-16 -3.97942876E-01 -3.27211410E-01 -7.05138219E-04  1.17513695E-15
 -2.32792574E-15 -7.31681576E-03  2.09695235E-03 -1.34102708E-15  2.84090839E-15
  4.94366435E-03  3.75621191E-03  5.83762820E-16 -1.21948733E-15 -5.43517072E-03
 -2.32043272E-03 -1.33488920E-16  3.18776015E-16  5.83791925E-04 -2.92985810E-16
  1.73007817E-05 -1.07734354E-03  1.86572958E-16  4.00328676E-01  3.29173385E-01
 -7.10642204E-04  1.61548728E-15 -2.98398840E-15  7.35901233E-03  2.10979709E-03
 -1.94809851E-15  3.62379196E-15 -4.96350787E-03  3.75239759E-03  8.91053142E-16
 -1.69886802E-15  5.43265566E-03 -2.32843797E-03 -2.61698456E-16  5.09674410E-16
 -5.86279079E-04  3.64568356E-16 -1.74020587E-05  1.08203851E-03 -1.79524949E-16
 -1.94774645E-04  3.93662798E-03 -8.46536520E-04  1.86942693E-03  1.99439492E-16
 -4.46943745E-16  1.95376026E-04 -3.95219091E-03  8.64555271E-04  1.87894775E-03
  2.42981907E-16 -4.57881355E-16 -8.49791615E-02 -1.39056553E-01  6.54008417E-04
 -5.18796182E-17 -7.11400869E-16  3.98908398E-01  1.20255649E-02 -1.75678724E-15
  3.26164988E-16  2.62199413E-01  2.25912736E-03  8.32772739E-16 -7.36592736E-16
 -1.84511757E-03 -1.89108780E-02 -9.02859942E-16  5.16174374E-16 -5.77995190E-03
  7.82931000E-17 -2.00642531E-03  1.76870805E-02 -8.88404157E-17 -8.49825923E-02
 -1.39062123E-01 -6.49305879E-04 -5.51677405E-16  6.44070364E-16  3.98923772E-01
 -1.20198421E-02  1.43330392E-15  1.25383609E-15  2.62209034E-01 -2.25855397E-03
 -1.00276467E-15  6.60103739E-16 -1.84674889E-03  1.89115712E-02  7.57066416E-16
 -3.39941295E-16 -5.78014586E-03 -4.57665353E-17 -2.00650671E-03  1.76877155E-02
 -2.43993676E-16  7.22773896E-02  8.76874176E-02 -2.25583671E-02  1.23364602E-02
 -5.39470481E-17  9.17786506E-17  7.22846043E-02  8.76949514E-02 -2.25589585E-02
 -1.23375050E-02  2.50103131E-16 -5.07205591E-17 -7.34283651E-02 -1.20235603E-01
 -8.02061979E-02  1.14223951E-16  4.75831643E-16  3.49379499E-01 -1.12688471E-01
 -9.53210874E-16 -7.85450164E-16  2.45883874E-01 -4.18158034E-02  3.69519772E-17
  2.08451066E-16 -1.28523061E-01 -5.14233326E-02 -2.43955197E-16 -2.27377903E-16
 -1.89691910E-03 -3.33823121E-17 -1.69394682E-03  9.76603640E-03  2.21098892E-16
  7.34241515E-02  1.20228612E-01 -8.02121421E-02 -7.13797557E-16 -8.25046480E-16
 -3.49358511E-01 -1.12696733E-01  5.66819896E-16 -5.14628697E-16 -2.45866615E-01
 -4.18179244E-02 -7.04849863E-16 -4.26308189E-16  1.28522955E-01 -5.14217319E-02
  5.08887317E-16  1.75466211E-16  1.89665475E-03  3.98325277E-16  1.69384164E-03
 -9.76516565E-03  3.29493632E-17  1.15596906E-01  1.44718528E-01 -1.13663438E-02
  1.95046069E-02  5.83568675E-16  7.76126878E-17 -1.15599023E-01 -1.44718552E-01
  1.13648089E-02  1.95045611E-02  3.66657751E-16 -2.75392149E-16 -9.32511561E-03
 -1.60020725E-02  1.78981885E-01  1.14346297E-16 -6.87727472E-16  4.94551859E-02
  2.73492668E-01 -2.53441615E-15 -2.52715070E-15  4.01896673E-02  1.35555541E-01
 -3.52267996E-16 -7.17045123E-16 -6.90756164E-03 -2.51936951E-03 -9.46094174E-17
 -1.88827249E-16 -2.45083232E-03  1.48170941E-16 -3.73822602E-04  5.67508079E-03
 -1.96065306E-16 -9.32728559E-03 -1.60057356E-02 -1.78980835E-01  9.46885345E-16
  1.20839096E-15  4.94664746E-02 -2.73489973E-01  9.39630436E-16  1.37093043E-15
  4.02012995E-02 -1.35553077E-01  8.30231099E-16  9.02304781E-16 -6.91501890E-03
  2.52265751E-03 -1.07716439E-16  1.53530326E-16 -2.45069054E-03  1.51501520E-17
 -3.73885056E-04  5.67507118E-03 -8.95220252E-17 -1.16787932E-01 -1.58527647E-01
 -1.03276890E-02 -1.74413306E-02  7.45120407E-17  2.55975021E-17 -1.16786361E-01
 -1.58522569E-01 -1.03281183E-02  1.74406710E-02  7.36017460E-17 -1.41744506E-16
  5.16179980E-16  9.27422471E-16 -1.54793681E-15 -4.73034064E-02  1.92585335E-01
 -3.32163796E-15 -2.78558226E-15 -7.61785258E-02  3.10144079E-01 -6.71958227E-16
  9.47050882E-15 -6.25818281E-02  2.54788014E-01  9.93451268E-15  2.97935393E-15
  2.58677198E-04 -1.05311703E-03 -4.01317329E-16  1.79524333E-02 -6.15863724E-16
 -4.57405923E-17 -4.40952990E-03 -4.04262476E-16 -6.42910350E-16 -1.17951041E-15
 -4.73034063E-02  1.92585498E-01  2.43709442E-15 -2.44051058E-15 -7.61786002E-02
  3.10144596E-01  3.95705891E-15  1.19212260E-14 -6.25817752E-02  2.54788026E-01
 -5.64967254E-15  6.58803983E-15  2.58727811E-04 -1.05332458E-03  1.25560667E-16
 -1.79523758E-02 -3.24573268E-16 -6.47267540E-16  4.40951931E-03  3.47183478E-16
  4.28821282E-15  5.48270934E-15  2.70452341E-16 -3.53408972E-03  1.43882607E-02
 -1.40018434E-15 -6.22878410E-15 -1.17682780E-14  3.18348403E-16 -3.53418791E-03
  1.43886760E-02  7.30422471E-16  1.27945765E-15 -2.84166578E-15  1.90732656E-01
  4.68482863E-02 -4.38096122E-15 -3.68293600E-15  3.08965147E-01  7.58889040E-02
 -3.36888351E-15 -1.74575121E-14  2.54316581E-01  6.24659392E-02 -2.39342627E-14
 -1.15257734E-14  3.04057618E-03  7.46843129E-04  1.42707294E-16  4.49302105E-03
  4.78334422E-16  1.05515959E-15  1.82923462E-02 -8.00722411E-16 -1.29217280E-15
 -2.54046640E-15  1.90732599E-01  4.68483342E-02  3.19126547E-15 -3.92162294E-15
  3.08965274E-01  7.58890220E-02  1.27432281E-14 -1.22259774E-14  2.54316296E-01
  6.24659555E-02  2.69556038E-14 -9.53821773E-15  3.04036720E-03  7.46791568E-04
  8.37602396E-16 -4.49301584E-03  6.69783786E-16 -3.13714976E-16 -1.82923444E-02
  1.62978100E-15 -2.22875612E-15 -1.12097749E-14 -3.43963626E-16  1.56745922E-02
  3.85003668E-03 -1.79030814E-15  3.61562799E-17  6.77705562E-16 -1.85936869E-16
  1.56750267E-02  3.85014887E-03 -5.87746426E-16 -1.01489959E-15  1.76013940E-15
 -5.27520691E-02  2.14768714E-01  2.94978688E-15  2.01262886E-15 -8.24550942E-02
  3.35698284E-01  5.87799985E-15  4.24716892E-15 -8.47573586E-02  3.45071396E-01
 -1.72140233E-14 -2.36773325E-15 -1.26310273E-02  5.14245753E-02 -2.85329463E-17
 -1.90862738E-02 -2.66489934E-16  1.33660671E-17  4.68802356E-03  4.11595901E-16
  7.64341039E-16  7.54571502E-16  5.27520346E-02 -2.14768401E-01 -2.93462350E-15
  4.67199961E-16  8.24551218E-02 -3.35698074E-01 -5.08939673E-15  3.14767132E-15
  8.47572771E-02 -3.45070792E-01  1.40360310E-14 -6.46981695E-15  1.26309751E-02
 -5.14243295E-02 -2.41365315E-16 -1.90863615E-02  1.49728460E-16  5.26656914E-16
  4.68804012E-03 -9.80492209E-16 -3.97765022E-15  4.83372750E-15 -3.02695602E-16
 -5.33040864E-03  2.17016084E-02  9.43195501E-16  1.67795302E-15 -2.71269085E-16
 -5.65311936E-17  5.33045777E-03 -2.17017942E-02  2.81439905E-16  4.87626041E-16
 -4.29777005E-16  2.12031976E-01  5.20798845E-02 -1.55017651E-15 -4.14391078E-16
  3.30701472E-01  8.12278373E-02 -4.67572931E-15 -1.11814095E-15  3.49727651E-01
  8.59010883E-02  2.99579458E-14  9.67628270E-15  6.84454882E-02  1.68117885E-02
  6.80505861E-17 -4.84060829E-03 -3.63543172E-17  5.50743574E-16 -1.97074918E-02
 -5.38656234E-16 -8.68850648E-16 -1.44499393E-15 -2.12031844E-01 -5.20798277E-02
  1.49248568E-15 -2.03548260E-15 -3.30701503E-01 -8.12277947E-02  1.11392838E-14
 -1.15610476E-15 -3.49727347E-01 -8.59009706E-02 -2.64623485E-14  1.42599654E-14
 -6.84452449E-02 -1.68117229E-02 -4.16091052E-16 -4.84061812E-03 -3.26999331E-16
  4.76035007E-17 -1.97075126E-02  3.94882300E-16  1.40907198E-15 -3.71687572E-16
  2.05990359E-17  2.31367648E-02  5.68291525E-03 -1.12161373E-15 -2.61921810E-15
 -7.07346159E-15  4.58103145E-16 -2.31369855E-02 -5.68296800E-03 -6.80943671E-02
 -1.15275802E-01  1.38793289E-01  3.04551728E-15  1.39378049E-16  3.58060871E-01
  1.99025851E-01  5.19730363E-15  1.26044029E-15  6.89046709E-01  2.28327906E-01
  6.16716270E-15  7.22514432E-16  5.71438071E-01  2.13427234E-01  1.67291747E-15
  6.14156842E-16  2.46163059E-02  1.53674069E-16 -2.41657585E-03 -3.33916738E-02
 -3.21987193E-17  6.80935354E-02  1.15274482E-01  1.38796792E-01  2.57556572E-18
  3.03890064E-15 -3.58056743E-01  1.99030333E-01 -7.33439825E-17  4.73430870E-15
 -6.89042973E-01  2.28331784E-01 -2.02462171E-16  5.64637001E-15 -5.71439552E-01
  2.13424518E-01  8.19274183E-17  1.18084483E-15 -2.46160051E-02  6.05861486E-17
  2.41656928E-03  3.33911956E-02 -1.09915105E-16 -1.13736580E-01 -2.51426180E-01
 -2.19765445E-01  4.81157690E-04  1.78765855E-16  6.27530382E-17  1.13733689E-01
  2.51418091E-01  2.19756027E-01  4.80830976E-04  2.04435676E-16  4.92814766E-16
  2.68113313E-02  4.67625602E-02  4.39141757E-02 -2.08832007E-17 -6.32687111E-16
 -1.66596125E-01  7.75377786E-02  2.87200385E-16 -3.49962262E-17 -3.86571440E-01
  9.64571896E-02 -4.27044936E-17 -4.81916596E-16  9.05955972E-01 -5.29913729E-01
  1.64789099E-16  9.47835692E-16  7.20502404E-03 -1.96199834E-17 -8.35525554E-05
 -1.21598555E-02 -4.87157962E-17  2.68121706E-02  4.67640434E-02 -4.39066280E-02
  4.28974870E-16 -3.53718503E-17 -1.66600815E-01 -7.75277350E-02  6.02662830E-16
 -7.30003547E-16 -3.86584840E-01 -9.64318520E-02  6.78613349E-16 -4.72010255E-17
  9.06067093E-01  5.29852775E-01 -2.55909133E-15  1.50659460E-15  7.20461330E-03
 -1.00682611E-16 -8.35023289E-05 -1.21593230E-02 -1.34164161E-16 -7.15825008E-03
  9.24145025E-02 -1.57163465E-01 -1.16008527E-02  9.65676414E-17 -1.20375389E-16
 -7.15750534E-03  9.24163889E-02 -1.57171049E-01  1.15993098E-02 -3.01176514E-16
  1.16316857E-16 -3.77862933E-03 -7.24149951E-03 -8.91494163E-02 -1.25377166E-17
  7.93849183E-16  4.33980127E-02 -1.43525738E-01 -1.28972145E-15  5.54779272E-16
 -2.55555873E-02 -1.87958930E-01  1.13857812E-16 -2.66385464E-15  2.68156262E+00
  1.85599347E+00  2.22251796E-15  1.03727443E-15 -9.24637274E-03  1.02605003E-16
  5.15480199E-04  1.40431480E-02  3.46463728E-17  3.77897233E-03  7.24225708E-03
 -8.91387340E-02  5.34982400E-16 -3.00363298E-16 -4.34043554E-02 -1.43509583E-01
  7.63323243E-16 -2.22067502E-15  2.55742535E-02 -1.87916318E-01  1.93740037E-16
  3.82378505E-15 -2.68148199E+00  1.85594962E+00 -5.88918597E-15 -3.66715135E-15
  9.24965083E-03 -6.25324504E-17 -5.15652597E-04 -1.40481618E-02 -2.98992332E-16
  3.12444902E-02 -6.02096053E-04  1.99724540E-01  1.80216718E-02 -3.94359026E-17
  8.87019285E-17 -3.12530957E-02  5.78325722E-04 -1.99814822E-01  1.80190312E-02
 -1.41526447E-16  2.95686907E-18  1.18443215E-03  1.00955585E-03  9.28252720E-02
 -3.60522892E-16  6.50522413E-16  1.98061042E-02  1.43155881E-01 -8.93276068E-16
  8.91362300E-16 -1.55378263E-01  3.46827118E-01 -3.86985109E-16  1.30558621E-15
 -4.71566027E-01 -5.60908859E-01  4.75764857E-15 -3.13749312E-15 -2.52578366E-02
  1.84479855E-16  1.34703477E-03  3.85945751E-02  8.06172694E-17  1.18607765E-03
  1.01245739E-03 -9.28265876E-02 -3.03050840E-16  5.02136125E-16  1.97948262E-02
 -1.43159348E-01 -3.33161701E-16  3.38114694E-16 -1.55401245E-01 -3.46823768E-01
 -1.85630045E-15  1.37894449E-15 -4.71891943E-01  5.61150235E-01  2.51633459E-15
 -2.57540479E-15 -2.52572672E-02 -1.12644790E-16  1.34702607E-03  3.85936169E-02
 -5.20632094E-17  5.70197310E-02  1.99468050E-01  7.08464935E-01 -2.15748825E-02
 -2.77017366E-16 -4.90455050E-16  5.70138274E-02  1.99465272E-01  7.08417798E-01
  2.15765991E-02  2.66164353E-16  3.08573291E-16  3.65804204E-17  6.63776118E-17
  3.59136199E-16  1.88569823E-02 -7.67729908E-02 -2.97156061E-17  5.69037191E-16
  2.17384333E-02 -8.85045174E-02 -1.37926593E-15  2.58195418E-15  5.98143806E-02
 -2.43524005E-01 -1.52696653E-14 -2.48203517E-15 -1.54676624E-01  6.29739607E-01
 -2.19127675E-16 -7.50872637E-03  8.66247762E-17  3.67160446E-16  1.84429165E-03
 -1.05406267E-16 -1.88981405E-16 -5.90151113E-16  1.88566791E-02 -7.67717480E-02
  6.68936759E-16 -9.10427522E-16  2.17380644E-02 -8.85029809E-02 -2.01721887E-16
 -1.39379333E-15  5.98135712E-02 -2.43520675E-01  4.16256135E-15 -1.63467710E-15
 -1.54671548E-01  6.29718822E-01 -1.85006093E-16  7.50855232E-03  4.38747323E-17
  1.99576509E-16 -1.84424862E-03  6.20485505E-16  1.98485713E-15  7.72668835E-15
 -9.22011365E-17 -1.16115610E-03  4.72743981E-03  2.20675439E-16  5.25895630E-16
  3.53772825E-15  8.82999185E-17 -1.16102206E-03  4.72689486E-03  1.70679347E-16
  3.05677384E-16 -6.33429084E-16 -7.61351208E-02 -1.87003042E-02 -1.02484516E-15
 -1.20540998E-15 -9.46189841E-02 -2.32403568E-02 -2.17159927E-15  1.43235355E-15
 -2.42352225E-01 -5.95265257E-02  3.37364441E-14  1.71187001E-14  6.28615984E-01
  1.54400643E-01 -3.56522938E-17 -1.93875463E-03  3.09724130E-17 -1.71046202E-16
 -7.89330432E-03 -1.17947394E-16 -1.93484107E-16  8.46176335E-17 -7.61338287E-02
 -1.86999846E-02  3.20706427E-16  1.48972344E-16 -9.46173721E-02 -2.32399521E-02
  3.02307331E-15  3.78971194E-15 -2.42348626E-01 -5.95256319E-02 -2.66916892E-14
  1.49750192E-14  6.28594325E-01  1.54395294E-01  1.82874920E-16  1.93871661E-03
 -1.11613647E-16 -3.49628211E-16  7.89314802E-03  5.75378409E-17  1.00253488E-15
  1.50883745E-15  1.64686658E-16  4.12920685E-03  1.01421319E-03 -7.01219657E-16
 -2.22488980E-15 -9.12872584E-15 -4.83154229E-18  4.12866671E-03  1.01408075E-03
 -6.99696469E-17 -1.20863612E-16  2.79593614E-16 -1.84068126E-02  7.49396769E-02
  1.68113978E-16  2.29972733E-16 -2.16196469E-02  8.80202345E-02  2.82227013E-15
  1.19078525E-15 -6.33907655E-02  2.58082706E-01 -8.29606527E-14 -2.74777916E-14
  3.95959861E-01 -1.61207151E+00 -1.52700988E-16  5.96875492E-03 -6.91411151E-17