 Entering Gaussian System, Link 0=g16
 Initial command:
 /home/szhao/Apps/g16/l1.exe "/home/szhao/tmp/Gau-159013.inp" -scrdir="/home/szhao/tmp/"
 Default is to use a total of  16 processors:
                               16 via shared-memory
                                1 via Linda
 Entering Link 1 = /home/szhao/Apps/g16/l1.exe PID=    159014.
  
 Copyright (c) 1988,1990,1992,1993,1995,1998,2003,2009,2016,
            Gaussian, Inc.  All Rights Reserved.
  
 This is part of the Gaussian(R) 16 program.  It is based on
 the Gaussian(R) 09 system (copyright 2009, Gaussian, Inc.),
 the Gaussian(R) 03 system (copyright 2003, Gaussian, Inc.),
 the Gaussian(R) 98 system (copyright 1998, Gaussian, Inc.),
 the Gaussian(R) 94 system (copyright 1995, Gaussian, Inc.),
 the Gaussian 92(TM) system (copyright 1992, Gaussian, Inc.),
 the Gaussian 90(TM) system (copyright 1990, Gaussian, Inc.),
 the Gaussian 88(TM) system (copyright 1988, Gaussian, Inc.),
 the Gaussian 86(TM) system (copyright 1986, Carnegie Mellon
 University), and the Gaussian 82(TM) system (copyright 1983,
 Carnegie Mellon University). Gaussian is a federally registered
 trademark of Gaussian, Inc.
  
 This software contains proprietary and confidential information,
 including trade secrets, belonging to Gaussian, Inc.
  
 This software is provided under written license and may be
 used, copied, transmitted, or stored only in accord with that
 written license.
  
 The following legend is applicable only to US Government
 contracts under FAR:
  
                    RESTRICTED RIGHTS LEGEND
  
 Use, reproduction and disclosure by the US Government is
 subject to restrictions as set forth in subparagraphs (a)
 and (c) of the Commercial Computer Software - Restricted
 Rights clause in FAR 52.227-19.
  
 Gaussian, Inc.
 340 Quinnipiac St., Bldg. 40, Wallingford CT 06492
  
  
 ---------------------------------------------------------------
 Warning -- This program may not be used in any manner that
 competes with the business of Gaussian, Inc. or will provide
 assistance to any competitor of Gaussian, Inc.  The licensee
 of this program is prohibited from giving any competitor of
 Gaussian, Inc. access to this program.  By using this program,
 the user acknowledges that Gaussian, Inc. is engaged in the
 business of creating and licensing software in the field of
 computational chemistry and represents and warrants to the
 licensee that it is not a competitor of Gaussian, Inc. and that
 it will not use this program in any manner prohibited above.
 ---------------------------------------------------------------
  

 Cite this work as:
 Gaussian 16, Revision A.03,
 M. J. Frisch, G. W. Trucks, H. B. Schlegel, G. E. Scuseria, 
 M. A. Robb, J. R. Cheeseman, G. Scalmani, V. Barone, 
 G. A. Petersson, H. Nakatsuji, X. Li, M. Caricato, A. V. Marenich, 
 J. Bloino, B. G. Janesko, R. Gomperts, B. Mennucci, H. P. Hratchian, 
 J. V. Ortiz, A. F. Izmaylov, J. L. Sonnenberg, D. Williams-Young, 
 F. Ding, F. Lipparini, F. Egidi, J. Goings, B. Peng, A. Petrone, 
 T. Henderson, D. Ranasinghe, V. G. Zakrzewski, J. Gao, N. Rega, 
 G. Zheng, W. Liang, M. Hada, M. Ehara, K. Toyota, R. Fukuda, 
 J. Hasegawa, M. Ishida, T. Nakajima, Y. Honda, O. Kitao, H. Nakai, 
 T. Vreven, K. Throssell, J. A. Montgomery, Jr., J. E. Peralta, 
 F. Ogliaro, M. J. Bearpark, J. J. Heyd, E. N. Brothers, K. N. Kudin, 
 V. N. Staroverov, T. A. Keith, R. Kobayashi, J. Normand, 
 K. Raghavachari, A. P. Rendell, J. C. Burant, S. S. Iyengar, 
 J. Tomasi, M. Cossi, J. M. Millam, M. Klene, C. Adamo, R. Cammi, 
 J. W. Ochterski, R. L. Martin, K. Morokuma, O. Farkas, 
 J. B. Foresman, and D. J. Fox, Gaussian, Inc., Wallingford CT, 2016.
 
 ******************************************
 Gaussian 16:  ES64L-G16RevA.03 25-Dec-2016
                21-Apr-2025 
 ******************************************
 %chk=opt.chk
 %mem=4GB
 %nprocshared=8
 Will use up to    8 processors via shared memory.
 --------------------------------------------
 #p opt UM062X/6-311+G** nosymm int=superfine
 --------------------------------------------
 1/18=20,19=15,26=5,38=1/1,3;
 2/9=110,12=2,15=1,17=6,18=5,40=1/2;
 3/5=4,6=6,7=111,11=2,25=1,30=1,71=1,74=-55,75=-7,116=2/1,2,3;
 4//1;
 5/5=2,38=5/2;
 6/7=2,8=2,9=2,10=2,28=1/1;
 7/30=1/1,2,3,16;
 1/18=20,19=15,26=5/3(2);
 2/9=110,15=1/2;
 99//99;
 2/9=110,15=1/2;
 3/5=4,6=6,7=111,11=2,25=1,30=1,71=1,74=-55,75=-7,116=2/1,2,3;
 4/5=5,16=3,69=1/1;
 5/5=2,38=5/2;
 7/30=1/1,2,3,16;
 1/18=20,19=15,26=5/3(-5);
 2/9=110,15=1/2;
 6/7=2,8=2,9=2,10=2,19=2,28=1/1;
 99/9=1/99;
 Leave Link    1 at Mon Apr 21 20:17:19 2025, MaxMem=   536870912 cpu:               1.3 elap:               0.2
 (Enter /home/szhao/Apps/g16/l101.exe)
 -------------------
 Title Card Required
 -------------------
 Symbolic Z-matrix:
 Charge =  1 Multiplicity = 2
 Si                   -1   -2.87629   0.        0. 
 Si                   -1    2.87629   0.        0. 
 H                    0     3.07437  -1.45402   0. 
 H                    0    -3.07369  -0.72694   1.25938 
 H                    0     3.07431   0.72706  -1.25921 
 H                    0     3.07343   0.72707   1.25935 
 H                    0    -3.0744    1.45402  -0.00003 
 H                    0    -3.07402  -0.7272   -1.25918 
 
 Add virtual bond connecting atoms Si2        and Si1        Dist= 1.09D+01.
 ITRead=  2  2  0  0  0  0  0  0
 MicOpt= -2 -2 -1 -1 -1 -1 -1 -1
 NAtoms=      8 NQM=        6 NQMF=       2 NMMI=      0 NMMIF=      0
                NMic=       0 NMicF=      0.
                    Isotopes and Nuclear Properties:
 (Nuclear quadrupole moments (NQMom) in fm**2, nuclear magnetic moments (NMagM)
  in nuclear magnetons)

  Atom         1           2           3           4           5           6           7           8
 IAtWgt=          28          28           1           1           1           1           1           1
 AtmWgt=  27.9769284  27.9769284   1.0078250   1.0078250   1.0078250   1.0078250   1.0078250   1.0078250
 NucSpn=           0           0           1           1           1           1           1           1
 AtZEff=  -0.0000000  -0.0000000  -0.0000000  -0.0000000  -0.0000000  -0.0000000  -0.0000000  -0.0000000
 NQMom=    0.0000000   0.0000000   0.0000000   0.0000000   0.0000000   0.0000000   0.0000000   0.0000000
 NMagM=    0.0000000   0.0000000   2.7928460   2.7928460   2.7928460   2.7928460   2.7928460   2.7928460
 AtZNuc=  14.0000000  14.0000000   1.0000000   1.0000000   1.0000000   1.0000000   1.0000000   1.0000000
 Leave Link  101 at Mon Apr 21 20:17:20 2025, MaxMem=   536870912 cpu:               2.6 elap:               0.3
 (Enter /home/szhao/Apps/g16/l103.exe)

 GradGradGradGradGradGradGradGradGradGradGradGradGradGradGradGradGradGrad
 Berny optimization.
 Initialization pass.
                           ----------------------------
                           !    Initial Parameters    !
                           ! (Angstroms and Degrees)  !
 --------------------------                            --------------------------
 ! Name  Definition              Value          Derivative Info.                !
 --------------------------------------------------------------------------------
 ! X1    R(1,-1)                -2.8763         Frozen                          !
 ! Y1    R(1,-2)                 0.0            Frozen                          !
 ! Z1    R(1,-3)                 0.0            Frozen                          !
 ! X2    R(2,-1)                 2.8763         Frozen                          !
 ! Y2    R(2,-2)                 0.0            Frozen                          !
 ! Z2    R(2,-3)                 0.0            Frozen                          !
 ! R1    R(1,4)                  1.4675         estimate D2E/DX2                !
 ! R2    R(1,7)                  1.4675         estimate D2E/DX2                !
 ! R3    R(1,8)                  1.4675         estimate D2E/DX2                !
 ! R4    R(2,3)                  1.4675         estimate D2E/DX2                !
 ! R5    R(2,5)                  1.4675         estimate D2E/DX2                !
 ! R6    R(2,6)                  1.4675         estimate D2E/DX2                !
 ! A1    A(2,1,4)               97.7308         estimate D2E/DX2                !
 ! A2    A(2,1,7)               97.7588         estimate D2E/DX2                !
 ! A3    A(2,1,8)               97.7435         estimate D2E/DX2                !
 ! A4    A(4,1,7)              118.2095         estimate D2E/DX2                !
 ! A5    A(4,1,8)              118.2153         estimate D2E/DX2                !
 ! A6    A(7,1,8)              118.2164         estimate D2E/DX2                !
 ! A7    A(1,2,3)               97.7576         estimate D2E/DX2                !
 ! A8    A(1,2,5)               97.755          estimate D2E/DX2                !
 ! A9    A(1,2,6)               97.7205         estimate D2E/DX2                !
 ! A10   A(3,2,5)              118.2102         estimate D2E/DX2                !
 ! A11   A(3,2,6)              118.2156         estimate D2E/DX2                !
 ! A12   A(5,2,6)              118.2155         estimate D2E/DX2                !
 ! D1    D(4,1,2,3)             60.0055         estimate D2E/DX2                !
 ! D2    D(4,1,2,5)           -179.9926         estimate D2E/DX2                !
 ! D3    D(4,1,2,6)            -59.9939         estimate D2E/DX2                !
 ! D4    D(7,1,2,3)           -179.9987         estimate D2E/DX2                !
 ! D5    D(7,1,2,5)            -59.9967         estimate D2E/DX2                !
 ! D6    D(7,1,2,6)             60.002          estimate D2E/DX2                !
 ! D7    D(8,1,2,3)            -59.9927         estimate D2E/DX2                !
 ! D8    D(8,1,2,5)             60.0092         estimate D2E/DX2                !
 ! D9    D(8,1,2,6)           -179.9921         estimate D2E/DX2                !
 --------------------------------------------------------------------------------
 Trust Radius=3.00D-01 FncErr=1.00D-07 GrdErr=1.00D-07 EigMax=2.50D+02 EigMin=1.00D-04
 Number of steps in this run=     43 maximum allowed number of steps=    100.
 GradGradGradGradGradGradGradGradGradGradGradGradGradGradGradGradGradGrad

 Leave Link  103 at Mon Apr 21 20:17:21 2025, MaxMem=   536870912 cpu:               0.7 elap:               0.4
 (Enter /home/szhao/Apps/g16/l202.exe)
                          Input orientation:                          
 ---------------------------------------------------------------------
 Center     Atomic      Atomic             Coordinates (Angstroms)
 Number     Number       Type             X           Y           Z
 ---------------------------------------------------------------------
      1         14           0       -2.876292    0.000000    0.000000
      2         14           0        2.876292    0.000000    0.000000
      3          1           0        3.074372   -1.454024    0.000000
      4          1           0       -3.073694   -0.726942    1.259381
      5          1           0        3.074306    0.727060   -1.259209
      6          1           0        3.073433    0.727070    1.259353
      7          1           0       -3.074404    1.454020   -0.000034
      8          1           0       -3.074016   -0.727201   -1.259181
 ---------------------------------------------------------------------
                    Distance matrix (angstroms):
                    1          2          3          4          5
     1  Si   0.000000
     2  Si   5.752584   0.000000
     3  H    6.125731   1.467454   0.000000
     4  H    1.467464   6.125097   6.317705   0.000000
     5  H    6.125671   1.467458   2.518479   6.801126   0.000000
     6  H    6.124854   1.467470   2.518560   6.316750   2.518563
     7  H    1.467454   6.125761   6.801776   2.518475   6.318277
     8  H    1.467465   6.125400   6.317949   2.518561   6.317970
                    6          7          8
     6  H    0.000000
     7  H    6.317469   0.000000
     8  H    6.800666   2.518566   0.000000
 Symmetry turned off by external request.
 Stoichiometry    H6Si2(1+,2)
 Framework group  C1[X(H6Si2)]
 Deg. of freedom    18
 Full point group                 C1      NOp   1
 Rotational constants (GHZ):          39.5281440           0.9599869           0.9599859
 Leave Link  202 at Mon Apr 21 20:17:21 2025, MaxMem=   536870912 cpu:               1.5 elap:               0.3
 (Enter /home/szhao/Apps/g16/l301.exe)
 Standard basis: 6-311+G(d,p) (5D, 7F)
 Ernie: Thresh=  0.10000D-02 Tol=  0.10000D-05 Strict=F.
    96 basis functions,   148 primitive gaussians,    98 cartesian basis functions
    17 alpha electrons       16 beta electrons
       nuclear repulsion energy        57.5744155834 Hartrees.
 IExCor= 4336 DFT=T Ex+Corr=M062X ExCW=0 ScaHFX=  0.540000
 ScaDFX=  1.000000  1.000000  1.000000  1.000000 ScalE2=  1.000000  1.000000
 IRadAn=      7 IRanWt=     -1 IRanGd=            0 ICorTp=0 IEmpDi=  4
 NAtoms=    8 NActive=    8 NUniq=    8 SFac= 1.00D+00 NAtFMM=   60 NAOKFM=F Big=F
 Integral buffers will be    131072 words long.
 Raffenetti 2 integral format.
 Two-electron integral symmetry is turned off.
 Leave Link  301 at Mon Apr 21 20:17:22 2025, MaxMem=   536870912 cpu:               1.5 elap:               0.5
 (Enter /home/szhao/Apps/g16/l302.exe)
 NPDir=0 NMtPBC=     1 NCelOv=     1 NCel=       1 NClECP=     1 NCelD=      1
         NCelK=      1 NCelE2=     1 NClLst=     1 CellRange=     0.0.
 One-electron integrals computed using PRISM.
 NBasis=    96 RedAO= T EigKep=  1.35D-02  NBF=    96
 NBsUse=    96 1.00D-06 EigRej= -1.00D+00 NBFU=    96
 Precomputing XC quadrature grid using
 IXCGrd= 4 IRadAn=           7 IRanWt=          -1 IRanGd=           0 AccXCQ= 0.00D+00.
 Generated NRdTot=       0 NPtTot=           0 NUsed=           0 NTot=          32
 NSgBfM=    86    86    86    86    86 MxSgAt=     8 MxSgA2=     8.
 Leave Link  302 at Mon Apr 21 20:17:23 2025, MaxMem=   536870912 cpu:               2.6 elap:               0.6
 (Enter /home/szhao/Apps/g16/l303.exe)
 DipDrv:  MaxL=1.
 Leave Link  303 at Mon Apr 21 20:17:24 2025, MaxMem=   536870912 cpu:               0.7 elap:               0.2
 (Enter /home/szhao/Apps/g16/l401.exe)
 ExpMin= 3.31D-02 ExpMax= 6.94D+04 ExpMxC= 2.33D+03 IAcc=3 IRadAn=         7 AccDes= 0.00D+00
 Harris functional with IExCor= 1009 and IRadAn=       7 diagonalized for initial guess.
 HarFok:  IExCor= 1009 AccDes= 0.00D+00 IRadAn=         7 IDoV= 1 UseB2=F ITyADJ=14
 ICtDFT=  3500011 ScaDFX=  1.000000  1.000000  1.000000  1.000000
 FoFCou: FMM=F IPFlag=           0 FMFlag=      100000 FMFlg1=           0
         NFxFlg=           0 DoJE=T BraDBF=F KetDBF=T FulRan=T
         wScrn=  0.000000 ICntrl=       500 IOpCl=  0 I1Cent=   200000004 NGrid=           0
         NMat0=    1 NMatS0=      1 NMatT0=    0 NMatD0=    1 NMtDS0=    0 NMtDT0=    0
 Symmetry not used in FoFCou.
 Harris En= -581.887217986756    
 JPrj=0 DoOrth=F DoCkMO=F.
 Initial guess <Sx>= 0.0000 <Sy>= 0.0000 <Sz>= 0.5000 <S**2>= 0.7500 S= 0.5000
 Leave Link  401 at Mon Apr 21 20:17:25 2025, MaxMem=   536870912 cpu:               3.9 elap:               0.6
 (Enter /home/szhao/Apps/g16/l502.exe)
 Keep R1 and R2 ints in memory in canonical form, NReq=29092346.
 FoFCou: FMM=F IPFlag=           0 FMFlag=           0 FMFlg1=           0
         NFxFlg=           0 DoJE=F BraDBF=F KetDBF=F FulRan=T
         wScrn=  0.000000 ICntrl=       600 IOpCl=  0 I1Cent=           0 NGrid=           0
         NMat0=    1 NMatS0=   4656 NMatT0=    0 NMatD0=    1 NMtDS0=    0 NMtDT0=    0
 Symmetry not used in FoFCou.
 Two-electron integral symmetry not used.
 UHF open shell SCF:
 Using DIIS extrapolation, IDIIS=  1040.
 NGot=   536870912 LenX=   515167018 LenY=   515156973
 Requested convergence on RMS density matrix=1.00D-08 within 128 cycles.
 Requested convergence on MAX density matrix=1.00D-06.
 Requested convergence on             energy=1.00D-06.
 No special actions if energy rises.

 Cycle   1  Pass 1  IDiag  1:
 E= -582.095399099716    
 DIIS: error= 2.77D-02 at cycle   1 NSaved=   1.
 NSaved= 1 IEnMin= 1 EnMin= -582.095399099716     IErMin= 1 ErrMin= 2.77D-02
 ErrMax= 2.77D-02  0.00D+00 EMaxC= 1.00D-01 BMatC= 2.14D-01 BMatP= 2.14D-01
 IDIUse=3 WtCom= 7.23D-01 WtEn= 2.77D-01
 Coeff-Com:  0.100D+01
 Coeff-En:   0.100D+01
 Coeff:      0.100D+01
 Gap=     0.066 Goal=   None    Shift=    0.000
 Gap=     0.320 Goal=   None    Shift=    0.000
 GapD=    0.066 DampG=0.500 DampE=0.500 DampFc=0.2500 IDamp=-1.
 Damping current iteration by 2.50D-01
 RMSDP=2.52D-03 MaxDP=6.63D-02              OVMax= 8.33D-02

 Cycle   2  Pass 1  IDiag  1:
 E= -582.104352892412     Delta-E=       -0.008953792696 Rises=F Damp=T
 DIIS: error= 2.10D-02 at cycle   2 NSaved=   2.
 NSaved= 2 IEnMin= 2 EnMin= -582.104352892412     IErMin= 2 ErrMin= 2.10D-02
 ErrMax= 2.10D-02  0.00D+00 EMaxC= 1.00D-01 BMatC= 1.06D-01 BMatP= 2.14D-01
 IDIUse=3 WtCom= 7.90D-01 WtEn= 2.10D-01
 Coeff-Com: -0.212D+01 0.312D+01
 Coeff-En:   0.000D+00 0.100D+01
 Coeff:     -0.168D+01 0.268D+01
 Gap=     0.067 Goal=   None    Shift=    0.000
 Gap=     0.322 Goal=   None    Shift=    0.000
 RMSDP=1.58D-03 MaxDP=2.83D-02 DE=-8.95D-03 OVMax= 1.81D-02

 Cycle   3  Pass 1  IDiag  1:
 E= -582.126351042537     Delta-E=       -0.021998150125 Rises=F Damp=F
 DIIS: error= 8.23D-04 at cycle   3 NSaved=   3.
 NSaved= 3 IEnMin= 3 EnMin= -582.126351042537     IErMin= 3 ErrMin= 8.23D-04
 ErrMax= 8.23D-04  0.00D+00 EMaxC= 1.00D-01 BMatC= 1.03D-04 BMatP= 1.06D-01
 IDIUse=3 WtCom= 9.92D-01 WtEn= 8.23D-03
 Coeff-Com:  0.257D-01-0.382D-01 0.101D+01
 Coeff-En:   0.000D+00 0.000D+00 0.100D+01
 Coeff:      0.255D-01-0.379D-01 0.101D+01
 Gap=     0.067 Goal=   None    Shift=    0.000
 Gap=     0.324 Goal=   None    Shift=    0.000
 RMSDP=1.15D-04 MaxDP=3.95D-03 DE=-2.20D-02 OVMax= 4.36D-03

 Cycle   4  Pass 1  IDiag  1:
 E= -582.126405906180     Delta-E=       -0.000054863644 Rises=F Damp=F
 DIIS: error= 2.35D-04 at cycle   4 NSaved=   4.
 NSaved= 4 IEnMin= 4 EnMin= -582.126405906180     IErMin= 4 ErrMin= 2.35D-04
 ErrMax= 2.35D-04  0.00D+00 EMaxC= 1.00D-01 BMatC= 1.12D-05 BMatP= 1.03D-04
 IDIUse=3 WtCom= 9.98D-01 WtEn= 2.35D-03
 Coeff-Com: -0.133D-01 0.156D-01-0.289D-01 0.103D+01
 Coeff-En:   0.000D+00 0.000D+00 0.000D+00 0.100D+01
 Coeff:     -0.133D-01 0.156D-01-0.288D-01 0.103D+01
 Gap=     0.067 Goal=   None    Shift=    0.000
 Gap=     0.323 Goal=   None    Shift=    0.000
 RMSDP=4.28D-05 MaxDP=1.06D-03 DE=-5.49D-05 OVMax= 1.44D-03

 Cycle   5  Pass 1  IDiag  1:
 E= -582.126414866132     Delta-E=       -0.000008959952 Rises=F Damp=F
 DIIS: error= 1.12D-04 at cycle   5 NSaved=   5.
 NSaved= 5 IEnMin= 5 EnMin= -582.126414866132     IErMin= 5 ErrMin= 1.12D-04
 ErrMax= 1.12D-04  0.00D+00 EMaxC= 1.00D-01 BMatC= 1.81D-06 BMatP= 1.12D-05
 IDIUse=3 WtCom= 9.99D-01 WtEn= 1.12D-03
 Coeff-Com:  0.935D-02-0.115D-01-0.900D-01-0.301D+00 0.139D+01
 Coeff-En:   0.000D+00 0.000D+00 0.000D+00 0.000D+00 0.100D+01
 Coeff:      0.934D-02-0.114D-01-0.898D-01-0.301D+00 0.139D+01
 Gap=     0.067 Goal=   None    Shift=    0.000
 Gap=     0.323 Goal=   None    Shift=    0.000
 RMSDP=2.38D-05 MaxDP=8.67D-04 DE=-8.96D-06 OVMax= 9.39D-04

 Cycle   6  Pass 1  IDiag  1:
 E= -582.126416873243     Delta-E=       -0.000002007111 Rises=F Damp=F
 DIIS: error= 1.59D-05 at cycle   6 NSaved=   6.
 NSaved= 6 IEnMin= 6 EnMin= -582.126416873243     IErMin= 6 ErrMin= 1.59D-05
 ErrMax= 1.59D-05  0.00D+00 EMaxC= 1.00D-01 BMatC= 5.34D-08 BMatP= 1.81D-06
 IDIUse=1 WtCom= 1.00D+00 WtEn= 0.00D+00
 Coeff-Com: -0.638D-03 0.829D-03 0.126D-01-0.346D-01-0.123D+00 0.114D+01
 Coeff:     -0.638D-03 0.829D-03 0.126D-01-0.346D-01-0.123D+00 0.114D+01
 Gap=     0.067 Goal=   None    Shift=    0.000
 Gap=     0.324 Goal=   None    Shift=    0.000
 RMSDP=3.32D-06 MaxDP=1.16D-04 DE=-2.01D-06 OVMax= 1.34D-04

 Cycle   7  Pass 1  IDiag  1:
 E= -582.126416928186     Delta-E=       -0.000000054943 Rises=F Damp=F
 DIIS: error= 2.82D-06 at cycle   7 NSaved=   7.
 NSaved= 7 IEnMin= 7 EnMin= -582.126416928186     IErMin= 7 ErrMin= 2.82D-06
 ErrMax= 2.82D-06  0.00D+00 EMaxC= 1.00D-01 BMatC= 1.95D-09 BMatP= 5.34D-08
 IDIUse=1 WtCom= 1.00D+00 WtEn= 0.00D+00
 Coeff-Com: -0.276D-03 0.333D-03 0.203D-02 0.175D-01-0.473D-01-0.120D+00
 Coeff-Com:  0.115D+01
 Coeff:     -0.276D-03 0.333D-03 0.203D-02 0.175D-01-0.473D-01-0.120D+00
 Coeff:      0.115D+01
 Gap=     0.067 Goal=   None    Shift=    0.000
 Gap=     0.324 Goal=   None    Shift=    0.000
 RMSDP=1.06D-06 MaxDP=3.68D-05 DE=-5.49D-08 OVMax= 8.88D-05

 Cycle   8  Pass 1  IDiag  1:
 E= -582.126416929343     Delta-E=       -0.000000001156 Rises=F Damp=F
 DIIS: error= 3.12D-06 at cycle   8 NSaved=   8.
 NSaved= 8 IEnMin= 8 EnMin= -582.126416929343     IErMin= 7 ErrMin= 2.82D-06
 ErrMax= 3.12D-06  0.00D+00 EMaxC= 1.00D-01 BMatC= 1.43D-09 BMatP= 1.95D-09
 IDIUse=1 WtCom= 1.00D+00 WtEn= 0.00D+00
 Coeff-Com: -0.147D-03 0.176D-03 0.731D-03 0.118D-01-0.240D-01-0.112D+00
 Coeff-Com:  0.677D+00 0.447D+00
 Coeff:     -0.147D-03 0.176D-03 0.731D-03 0.118D-01-0.240D-01-0.112D+00
 Coeff:      0.677D+00 0.447D+00
 Gap=     0.067 Goal=   None    Shift=    0.000
 Gap=     0.324 Goal=   None    Shift=    0.000
 RMSDP=4.26D-07 MaxDP=2.15D-05 DE=-1.16D-09 OVMax= 5.88D-05

 Cycle   9  Pass 1  IDiag  1:
 E= -582.126416930080     Delta-E=       -0.000000000737 Rises=F Damp=F
 DIIS: error= 3.40D-07 at cycle   9 NSaved=   9.
 NSaved= 9 IEnMin= 9 EnMin= -582.126416930080     IErMin= 9 ErrMin= 3.40D-07
 ErrMax= 3.40D-07  0.00D+00 EMaxC= 1.00D-01 BMatC= 2.25D-11 BMatP= 1.43D-09
 IDIUse=1 WtCom= 1.00D+00 WtEn= 0.00D+00
 Coeff-Com:  0.178D-04-0.198D-04-0.231D-03-0.152D-02 0.429D-02 0.113D-01
 Coeff-Com: -0.121D+00 0.495D-01 0.106D+01
 Coeff:      0.178D-04-0.198D-04-0.231D-03-0.152D-02 0.429D-02 0.113D-01
 Coeff:     -0.121D+00 0.495D-01 0.106D+01
 Gap=     0.067 Goal=   None    Shift=    0.000
 Gap=     0.324 Goal=   None    Shift=    0.000
 RMSDP=9.16D-08 MaxDP=3.45D-06 DE=-7.37D-10 OVMax= 7.13D-06

 Cycle  10  Pass 1  IDiag  1:
 E= -582.126416930095     Delta-E=       -0.000000000015 Rises=F Damp=F
 DIIS: error= 5.92D-08 at cycle  10 NSaved=  10.
 NSaved=10 IEnMin=10 EnMin= -582.126416930095     IErMin=10 ErrMin= 5.92D-08
 ErrMax= 5.92D-08  0.00D+00 EMaxC= 1.00D-01 BMatC= 3.14D-13 BMatP= 2.25D-11
 IDIUse=1 WtCom= 1.00D+00 WtEn= 0.00D+00
 Coeff-Com:  0.400D-06-0.149D-05 0.638D-04 0.296D-03-0.101D-02-0.196D-02
 Coeff-Com:  0.291D-01-0.230D-01-0.343D+00 0.134D+01
 Coeff:      0.400D-06-0.149D-05 0.638D-04 0.296D-03-0.101D-02-0.196D-02
 Coeff:      0.291D-01-0.230D-01-0.343D+00 0.134D+01
 Gap=     0.067 Goal=   None    Shift=    0.000
 Gap=     0.324 Goal=   None    Shift=    0.000
 RMSDP=2.15D-08 MaxDP=4.90D-07 DE=-1.55D-11 OVMax= 1.09D-06

 Cycle  11  Pass 1  IDiag  1:
 E= -582.126416930098     Delta-E=       -0.000000000003 Rises=F Damp=F
 DIIS: error= 1.38D-08 at cycle  11 NSaved=  11.
 NSaved=11 IEnMin=11 EnMin= -582.126416930098     IErMin=11 ErrMin= 1.38D-08
 ErrMax= 1.38D-08  0.00D+00 EMaxC= 1.00D-01 BMatC= 2.06D-14 BMatP= 3.14D-13
 IDIUse=1 WtCom= 1.00D+00 WtEn= 0.00D+00
 Coeff-Com: -0.144D-05 0.190D-05-0.120D-05 0.397D-04-0.531D-04-0.407D-03
 Coeff-Com:  0.201D-02 0.198D-02 0.553D-02-0.254D+00 0.124D+01
 Coeff:     -0.144D-05 0.190D-05-0.120D-05 0.397D-04-0.531D-04-0.407D-03
 Coeff:      0.201D-02 0.198D-02 0.553D-02-0.254D+00 0.124D+01
 Gap=     0.067 Goal=   None    Shift=    0.000
 Gap=     0.324 Goal=   None    Shift=    0.000
 RMSDP=3.97D-09 MaxDP=9.57D-08 DE=-2.50D-12 OVMax= 1.91D-07

 SCF Done:  E(UM062X) =  -582.126416930     A.U. after   11 cycles
            NFock= 11  Conv=0.40D-08     -V/T= 2.0016
 <Sx>= 0.0000 <Sy>= 0.0000 <Sz>= 0.5000 <S**2>= 0.7538 S= 0.5019
 <L.S>=  0.00000000000    
 KE= 5.812032837734D+02 PE=-1.494739145534D+03 EE= 2.738350292466D+02
 Annihilation of the first spin contaminant:
 S**2 before annihilation     0.7538,   after     0.7500
 Leave Link  502 at Mon Apr 21 20:17:36 2025, MaxMem=   536870912 cpu:              83.6 elap:              11.0
 (Enter /home/szhao/Apps/g16/l601.exe)
 Copying SCF densities to generalized density rwf, IOpCl= 1 IROHF=0.

 **********************************************************************

            Population analysis using the SCF density.

 **********************************************************************

 Alpha  occ. eigenvalues --  -67.21320 -67.21320  -5.76169  -5.76169  -4.07852
 Alpha  occ. eigenvalues --   -4.07852  -4.07042  -4.07042  -4.07042  -4.07042
 Alpha  occ. eigenvalues --   -0.79804  -0.79674  -0.60188  -0.60187  -0.60178
 Alpha  occ. eigenvalues --   -0.60177  -0.37946
 Alpha virt. eigenvalues --   -0.31238  -0.10828  -0.10450  -0.08792  -0.08791
 Alpha virt. eigenvalues --   -0.08460  -0.07566  -0.07565  -0.07304  -0.06692
 Alpha virt. eigenvalues --   -0.06692  -0.05907  -0.05907  -0.04988  -0.00003
 Alpha virt. eigenvalues --    0.14739   0.14739   0.15534   0.15920   0.15920
 Alpha virt. eigenvalues --    0.20159   0.22936   0.24046   0.25675   0.25677
 Alpha virt. eigenvalues --    0.26498   0.26499   0.30424   0.33748   0.38555
 Alpha virt. eigenvalues --    0.38556   0.38578   0.38580   0.57605   0.58089
 Alpha virt. eigenvalues --    0.70237   0.70239   0.70347   0.70349   1.02739
 Alpha virt. eigenvalues --    1.03542   1.03543   1.04735   1.04736   1.07716
 Alpha virt. eigenvalues --    1.13785   1.13785   1.29867   1.29868   1.29904
 Alpha virt. eigenvalues --    1.29905   1.31478   1.31709   1.44045   1.44048
 Alpha virt. eigenvalues --    1.44331   1.44334   1.69589   1.71735   1.94937
 Alpha virt. eigenvalues --    1.94939   1.95113   1.95116   2.43547   2.43551
 Alpha virt. eigenvalues --    2.43754   2.43756   2.46559   2.50700   5.38061
 Alpha virt. eigenvalues --    5.38495  11.24222  11.27233  11.40704  11.40704
 Alpha virt. eigenvalues --   11.41241  11.41241 140.96647 140.97186
  Beta  occ. eigenvalues --  -67.21034 -67.21034  -5.76073  -5.76073  -4.07181
  Beta  occ. eigenvalues --   -4.07181  -4.06943  -4.06943  -4.06943  -4.06943
  Beta  occ. eigenvalues --   -0.78062  -0.78039  -0.60048  -0.60047  -0.60039
  Beta  occ. eigenvalues --   -0.60038
  Beta virt. eigenvalues --   -0.27683  -0.24178  -0.14173  -0.10163  -0.10162
  Beta virt. eigenvalues --   -0.10102  -0.08317  -0.08114  -0.08114  -0.07338
  Beta virt. eigenvalues --   -0.05874  -0.05873  -0.05315  -0.05315  -0.05305
  Beta virt. eigenvalues --    0.00447   0.12149   0.14401   0.14402   0.14850
  Beta virt. eigenvalues --    0.14850   0.15973   0.23070   0.24177   0.24906
  Beta virt. eigenvalues --    0.24908   0.26146   0.26147   0.29075   0.32615
  Beta virt. eigenvalues --    0.41436   0.41436   0.41449   0.41450   0.61109
  Beta virt. eigenvalues --    0.61583   0.71005   0.71007   0.71170   0.71172
  Beta virt. eigenvalues --    1.01622   1.03785   1.03785   1.04930   1.04930
  Beta virt. eigenvalues --    1.06671   1.14049   1.14049   1.30808   1.30809
  Beta virt. eigenvalues --    1.30851   1.30853   1.32076   1.32262   1.44577
  Beta virt. eigenvalues --    1.44580   1.44869   1.44872   1.70409   1.72567
  Beta virt. eigenvalues --    1.96015   1.96018   1.96178   1.96181   2.44101
  Beta virt. eigenvalues --    2.44104   2.44332   2.44334   2.46897   2.51097
  Beta virt. eigenvalues --    5.39350   5.39797  11.25923  11.28957  11.41378
  Beta virt. eigenvalues --   11.41379  11.41911  11.41912 140.97149 140.97688
          Condensed to atoms (all electrons):
               1          2          3          4          5          6
     1  Si  12.349230   0.022512  -0.000466   0.364733  -0.000466  -0.000467
     2  Si   0.022512  12.349229   0.364742  -0.000466   0.364740   0.364728
     3  H   -0.000466   0.364742   0.682371   0.000004  -0.017424  -0.017421
     4  H    0.364733  -0.000466   0.000004   0.682392   0.000001   0.000004
     5  H   -0.000466   0.364740  -0.017424   0.000001   0.682377  -0.017421
     6  H   -0.000467   0.364728  -0.017421   0.000004  -0.017421   0.682393
     7  H    0.364742  -0.000466   0.000001  -0.017424   0.000004   0.000004
     8  H    0.364734  -0.000466   0.000004  -0.017421   0.000004   0.000001
               7          8
     1  Si   0.364742   0.364734
     2  Si  -0.000466  -0.000466
     3  H    0.000001   0.000004
     4  H   -0.017424  -0.017421
     5  H    0.000004   0.000004
     6  H    0.000004   0.000001
     7  H    0.682370  -0.017420
     8  H   -0.017420   0.682379
          Atomic-Atomic Spin Densities.
               1          2          3          4          5          6
     1  Si   0.585930   0.022288  -0.000491  -0.018540  -0.000491  -0.000492
     2  Si   0.022288   0.585930  -0.018534  -0.000491  -0.018537  -0.018542
     3  H   -0.000491  -0.018534  -0.003505   0.000004   0.002738   0.002738
     4  H   -0.018540  -0.000491   0.000004  -0.003497   0.000001   0.000004
     5  H   -0.000491  -0.018537   0.002738   0.000001  -0.003503   0.002738
     6  H   -0.000492  -0.018542   0.002738   0.000004   0.002738  -0.003493
     7  H   -0.018534  -0.000491   0.000001   0.002738   0.000004   0.000004
     8  H   -0.018539  -0.000491   0.000004   0.002738   0.000004   0.000001
               7          8
     1  Si  -0.018534  -0.018539
     2  Si  -0.000491  -0.000491
     3  H    0.000001   0.000004
     4  H    0.002738   0.002738
     5  H    0.000004   0.000004
     6  H    0.000004   0.000001
     7  H   -0.003505   0.002738
     8  H    0.002738  -0.003498
 Mulliken charges and spin densities:
               1          2
     1  Si   0.535448   0.551131
     2  Si   0.535448   0.551131
     3  H   -0.011811  -0.017044
     4  H   -0.011823  -0.017043
     5  H   -0.011816  -0.017045
     6  H   -0.011822  -0.017041
     7  H   -0.011810  -0.017044
     8  H   -0.011815  -0.017043
 Sum of Mulliken charges =   1.00000   1.00000
 Mulliken charges and spin densities with hydrogens summed into heavy atoms:
               1          2
     1  Si   0.500000   0.500000
     2  Si   0.500000   0.500000
 Electronic spatial extent (au):  <R**2>=           1101.4257
 Charge=              1.0000 electrons
 Dipole moment (field-independent basis, Debye):
    X=              0.0000    Y=              0.0000    Z=             -0.0000  Tot=              0.0000
 Quadrupole moment (field-independent basis, Debye-Ang):
   XX=             17.1685   YY=            -26.3580   ZZ=            -26.3579
   XY=              0.0002   XZ=              0.0005   YZ=              0.0001
 Traceless Quadrupole moment (field-independent basis, Debye-Ang):
   XX=             29.0176   YY=            -14.5089   ZZ=            -14.5088
   XY=              0.0002   XZ=              0.0005   YZ=              0.0001
 Octapole moment (field-independent basis, Debye-Ang**2):
  XXX=              0.0001  YYY=              0.0000  ZZZ=             -0.0004  XYY=             -0.0000
  XXY=              0.0000  XXZ=              0.0005  XZZ=              0.0000  YZZ=              0.0000
  YYZ=             -0.0003  XYZ=             -0.0004
 Hexadecapole moment (field-independent basis, Debye-Ang**3):
 XXXX=           -948.0801 YYYY=            -68.6058 ZZZZ=            -68.6065 XXXY=              0.0084
 XXXZ=              0.0092 YYYX=             -3.1641 YYYZ=             -0.0002 ZZZX=              0.0022
 ZZZY=             -0.0003 XXYY=           -237.8870 XXZZ=           -237.8901 YYZZ=            -22.8685
 XXYZ=              0.0003 YYXZ=              0.0011 ZZXY=              3.1664
 N-N= 5.757441558339D+01 E-N=-1.494739145414D+03  KE= 5.812032837734D+02
                          Isotropic Fermi Contact Couplings
        Atom                 a.u.       MegaHertz       Gauss      10(-4) cm-1
     1  Si(29)             0.12138    -107.87430     -38.49223     -35.98299
     2  Si(29)             0.12138    -107.87378     -38.49205     -35.98282
     3  H(1)              -0.00396     -17.71056      -6.31957      -5.90761
     4  H(1)              -0.00396     -17.70535      -6.31771      -5.90587
     5  H(1)              -0.00396     -17.70852      -6.31884      -5.90693
     6  H(1)              -0.00396     -17.70323      -6.31695      -5.90516
     7  H(1)              -0.00396     -17.71062      -6.31959      -5.90763
     8  H(1)              -0.00396     -17.70609      -6.31797      -5.90612
 --------------------------------------------------------
       Center         ----  Spin Dipole Couplings  ----
                      3XX-RR        3YY-RR        3ZZ-RR
 --------------------------------------------------------
     1   Atom        0.908396     -0.454160     -0.454235
     2   Atom        0.908394     -0.454160     -0.454235
     3   Atom        0.004343      0.007558     -0.011900
     4   Atom        0.004340     -0.007038      0.002698
     5   Atom        0.004342     -0.007036      0.002694
     6   Atom        0.004339     -0.007036      0.002697
     7   Atom        0.004343      0.007558     -0.011900
     8   Atom        0.004341     -0.007034      0.002693
 --------------------------------------------------------
                        XY            XZ            YZ
 --------------------------------------------------------
     1   Atom        0.000372     -0.000181     -0.000003
     2   Atom        0.000342      0.000471     -0.000002
     3   Atom       -0.002929      0.000005      0.000000
     4   Atom        0.001464     -0.002532     -0.008425
     5   Atom        0.001468     -0.002532     -0.008425
     6   Atom        0.001462      0.002532      0.008427
     7   Atom       -0.002929     -0.000002     -0.000000
     8   Atom        0.001467      0.002532      0.008427
 --------------------------------------------------------


 ---------------------------------------------------------------------------------
              Anisotropic Spin Dipole Couplings in Principal Axis System
 ---------------------------------------------------------------------------------

       Atom             a.u.   MegaHertz   Gauss  10(-4) cm-1        Axes

              Baa    -0.4542    48.187    17.194    16.073  0.0001  0.0347  0.9994
     1 Si(29) Bbb    -0.4542    48.179    17.192    16.071 -0.0003  0.9994 -0.0347
              Bcc     0.9084   -96.366   -34.386   -32.144  1.0000  0.0003 -0.0001
 
              Baa    -0.4542    48.187    17.194    16.073 -0.0004  0.0345  0.9994
     2 Si(29) Bbb    -0.4542    48.179    17.191    16.071 -0.0002  0.9994 -0.0345
              Bcc     0.9084   -96.366   -34.386   -32.144  1.0000  0.0003  0.0003
 
              Baa    -0.0119    -6.350    -2.266    -2.118 -0.0003 -0.0001  1.0000
     3 H(1)   Bbb     0.0026     1.392     0.497     0.464  0.8606  0.5093  0.0003
              Bcc     0.0093     4.957     1.769     1.654 -0.5093  0.8606 -0.0001
 
              Baa    -0.0119    -6.349    -2.266    -2.118 -0.0001  0.8661  0.4999
     4 H(1)   Bbb     0.0026     1.393     0.497     0.465  0.8609 -0.2542  0.4407
              Bcc     0.0093     4.956     1.769     1.653 -0.5088 -0.4304  0.7456
 
              Baa    -0.0119    -6.349    -2.266    -2.118 -0.0003  0.8661  0.4999
     5 H(1)   Bbb     0.0026     1.393     0.497     0.465  0.8607 -0.2543  0.4411
              Bcc     0.0093     4.957     1.769     1.653 -0.5091 -0.4304  0.7453
 
              Baa    -0.0119    -6.350    -2.266    -2.118 -0.0000  0.8661 -0.5000
     6 H(1)   Bbb     0.0026     1.393     0.497     0.465  0.8610 -0.2543 -0.4405
              Bcc     0.0093     4.956     1.768     1.653  0.5086  0.4305  0.7457
 
              Baa    -0.0119    -6.350    -2.266    -2.118  0.0001  0.0000  1.0000
     7 H(1)   Bbb     0.0026     1.392     0.497     0.464  0.8605  0.5094 -0.0001
              Bcc     0.0093     4.957     1.769     1.654 -0.5094  0.8605  0.0000
 
              Baa    -0.0119    -6.349    -2.266    -2.118 -0.0002  0.8660 -0.5000
     8 H(1)   Bbb     0.0026     1.393     0.497     0.465  0.8608 -0.2543 -0.4409
              Bcc     0.0093     4.956     1.769     1.653  0.5090  0.4305  0.7454
 

 ---------------------------------------------------------------------------------

 No NMR shielding tensors so no spin-rotation constants.
 Leave Link  601 at Mon Apr 21 20:17:37 2025, MaxMem=   536870912 cpu:               2.5 elap:               0.4
 (Enter /home/szhao/Apps/g16/l701.exe)
 ... and contract with generalized density number  0.
 Compute integral first derivatives.
 Leave Link  701 at Mon Apr 21 20:17:37 2025, MaxMem=   536870912 cpu:               1.3 elap:               0.2
 (Enter /home/szhao/Apps/g16/l702.exe)
 L702 exits ... SP integral derivatives will be done elsewhere.
 Leave Link  702 at Mon Apr 21 20:17:37 2025, MaxMem=   536870912 cpu:               0.5 elap:               0.1
 (Enter /home/szhao/Apps/g16/l703.exe)
 Integral derivatives from FoFJK, PRISM(SPDF).
 Compute integral first derivatives, UseDBF=F ICtDFT=           0.
 Calling FoFJK, ICntrl=      2127 FMM=F ISym2X=0 I1Cent= 0 IOpClX= 1 NMat=1 NMatS=1 NMatT=0.
 FoFJK:  IHMeth= 1 ICntrl=    2127 DoSepK=F KAlg= 0 I1Cent=           0 FoldK=F
 IRaf=         0 NMat=       1 IRICut=       1 DoRegI=T DoRafI=F ISym2E= 0 IDoP0=0 IntGTp=1.
 FoFCou: FMM=F IPFlag=           0 FMFlag=      100000 FMFlg1=         800
         NFxFlg=           0 DoJE=F BraDBF=F KetDBF=F FulRan=T
         wScrn=  0.000000 ICntrl=      2127 IOpCl=  1 I1Cent=           0 NGrid=           0
         NMat0=    1 NMatS0=      1 NMatT0=    0 NMatD0=    1 NMtDS0=    0 NMtDT0=    0
 Symmetry not used in FoFCou.
 Leave Link  703 at Mon Apr 21 20:17:39 2025, MaxMem=   536870912 cpu:              13.4 elap:               1.9
 (Enter /home/szhao/Apps/g16/l716.exe)
 Dipole        = 4.35748060D-06 1.46377747D-06-1.09942657D-05
 -------------------------------------------------------------------
 Center     Atomic                   Forces (Hartrees/Bohr)
 Number     Number              X              Y              Z
 -------------------------------------------------------------------
      1       14          -0.000000000   -0.000000000   -0.000000000
      2       14          -0.000000000   -0.000000000   -0.000000000
      3        1          -0.002205492    0.000384471    0.000002297
      4        1           0.002199338    0.000193789   -0.000343213
      5        1          -0.002199524   -0.000192806    0.000340362
      6        1          -0.002198676   -0.000197837   -0.000344341
      7        1           0.002205500   -0.000384275   -0.000003781
      8        1           0.002198916    0.000197276    0.000341636
 -------------------------------------------------------------------
 Cartesian Forces:  Max     0.002205500 RMS     0.001117848
 Leave Link  716 at Mon Apr 21 20:17:39 2025, MaxMem=   536870912 cpu:               0.3 elap:               0.1
 (Enter /home/szhao/Apps/g16/l103.exe)

 GradGradGradGradGradGradGradGradGradGradGradGradGradGradGradGradGradGrad
 Berny optimization.
 FormGI is forming the generalized inverse of G from B-inverse, IUseBI=4.
 Internal  Forces:  Max     0.006603754 RMS     0.002824483
 Search for a local minimum.
 Step number   1 out of a maximum of   43
 All quantities printed in internal units (Hartrees-Bohrs-Radians)
 RMS Force = .25535D-02 SwitMx=.10000D-02 MixMth= 1
 Mixed Optimization -- RFO/linear search
 Second derivative matrix not updated -- first step.
 ITU=  0
     Eigenvalues ---    0.00230   0.07635   0.07635   0.07636   0.07637
     Eigenvalues ---    0.16000   0.16000   0.16000   0.16000   0.16000
     Eigenvalues ---    0.16000   0.18377   0.18377   0.18377   0.18378
     Eigenvalues ---    0.18378   0.183781000.000001000.000001000.00000
     Eigenvalues --- 1000.000001000.000001000.000001000.000001000.00000
     Eigenvalues --- 1000.000001000.000001000.000001000.000001000.00000
     Eigenvalues --- 1000.000001000.000001000.00000
 RFO step:  Lambda=-1.09059631D-03 EMin= 2.30000000D-03
 Linear search not attempted -- first point.
 Iteration  1 RMS(Cart)=  0.03594095 RMS(Int)=  0.00083073
 Iteration  2 RMS(Cart)=  0.00075107 RMS(Int)=  0.00059439
 Iteration  3 RMS(Cart)=  0.00000210 RMS(Int)=  0.00059439
 Iteration  4 RMS(Cart)=  0.00000001 RMS(Int)=  0.00059439
 ITry= 1 IFail=0 DXMaxC= 8.55D-02 DCOld= 1.00D+10 DXMaxT= 3.00D-01 DXLimC= 3.00D+00 Rises=F
 Variable       Old X    -DE/DX   Delta X   Delta X   Delta X     New X
                                 (Linear)    (Quad)   (Total)
    X1       -5.43540   0.00660   0.00000   0.00000   0.00000  -5.43540
    Y1        0.00000   0.00001   0.00000   0.00000   0.00000   0.00000
    Z1        0.00000  -0.00001   0.00000   0.00000   0.00000   0.00000
    X2        5.43540  -0.00660   0.00000   0.00000   0.00000   5.43540
    Y2        0.00000  -0.00001   0.00000   0.00000   0.00000   0.00000
    Z2        0.00000  -0.00000   0.00000   0.00000   0.00000   0.00000
    R1        2.77311  -0.00069   0.00000  -0.00371  -0.00371   2.76939
    R2        2.77309  -0.00068   0.00000  -0.00367  -0.00367   2.76942
    R3        2.77311  -0.00069   0.00000  -0.00372  -0.00372   2.76939
    R4        2.77309  -0.00068   0.00000  -0.00367  -0.00367   2.76942
    R5        2.77309  -0.00068   0.00000  -0.00370  -0.00370   2.76939
    R6        2.77312  -0.00069   0.00000  -0.00373  -0.00373   2.76939
    A1        1.70572  -0.00489   0.00000  -0.03032  -0.03079   1.67493
    A2        1.70621  -0.00490   0.00000  -0.03045  -0.03091   1.67530
    A3        1.70595  -0.00488   0.00000  -0.03033  -0.03079   1.67515
    A4        2.06315   0.00223   0.00000   0.01385   0.01253   2.07568
    A5        2.06325   0.00222   0.00000   0.01378   0.01247   2.07572
    A6        2.06326   0.00222   0.00000   0.01378   0.01247   2.07573
    A7        1.70619  -0.00490   0.00000  -0.03045  -0.03091   1.67528
    A8        1.70615  -0.00489   0.00000  -0.03033  -0.03080   1.67535
    A9        1.70554  -0.00488   0.00000  -0.03032  -0.03079   1.67476
   A10        2.06316   0.00223   0.00000   0.01384   0.01252   2.07568
   A11        2.06325   0.00222   0.00000   0.01379   0.01248   2.07573
   A12        2.06325   0.00222   0.00000   0.01378   0.01247   2.07572
    D1        1.04729  -0.00000   0.00000  -0.00001  -0.00001   1.04729
    D2       -3.14146  -0.00000   0.00000  -0.00000  -0.00000  -3.14147
    D3       -1.04709  -0.00000   0.00000   0.00000  -0.00000  -1.04709
    D4       -3.14157   0.00000   0.00000   0.00003   0.00003  -3.14154
    D5       -1.04714   0.00000   0.00000   0.00003   0.00003  -1.04711
    D6        1.04723   0.00000   0.00000   0.00004   0.00004   1.04727
    D7       -1.04707  -0.00000   0.00000  -0.00001  -0.00001  -1.04708
    D8        1.04736  -0.00000   0.00000  -0.00001  -0.00001   1.04735
    D9       -3.14146  -0.00000   0.00000  -0.00001  -0.00001  -3.14146
         Item               Value     Threshold  Converged?
 Maximum Force            0.004904     0.000450     NO 
 RMS     Force            0.002553     0.000300     NO 
 Maximum Displacement     0.085486     0.001800     NO 
 RMS     Displacement     0.036466     0.001200     NO 
 Predicted change in Energy=-5.480244D-04
 Lowest energy point so far.  Saving SCF results.
 GradGradGradGradGradGradGradGradGradGradGradGradGradGradGradGradGradGrad

 Leave Link  103 at Mon Apr 21 20:17:40 2025, MaxMem=   536870912 cpu:               3.2 elap:               0.5
 (Enter /home/szhao/Apps/g16/l202.exe)
                          Input orientation:                          
 ---------------------------------------------------------------------
 Center     Atomic      Atomic             Coordinates (Angstroms)
 Number     Number       Type             X           Y           Z
 ---------------------------------------------------------------------
      1         14           0       -2.876292    0.000000    0.000000
      2         14           0        2.876292    0.000000    0.000000
      3          1           0        3.029135   -1.457520    0.000001
      4          1           0       -3.028630   -0.728666    1.262350
      5          1           0        3.029233    0.728795   -1.262203
      6          1           0        3.028373    0.728771    1.262318
      7          1           0       -3.029166    1.457516   -0.000079
      8          1           0       -3.028948   -0.728907   -1.262170
 ---------------------------------------------------------------------
                    Distance matrix (angstroms):
                    1          2          3          4          5
     1  Si   0.000000
     2  Si   5.752584   0.000000
     3  H    6.082634   1.465512   0.000000
     4  H    1.465499   6.082153   6.230672   0.000000
     5  H    6.082723   1.465499   2.524505   6.722742   0.000000
     6  H    6.081910   1.465498   2.524542   6.229881   2.524521
     7  H    1.465512   6.082663   6.723128   2.524504   6.231228
     8  H    1.465497   6.082453   6.230916   2.524520   6.231087
                    6          7          8
     6  H    0.000000
     7  H    6.230450   0.000000
     8  H    6.722277   2.524544   0.000000
 Symmetry turned off by external request.
 Stoichiometry    H6Si2(1+,2)
 Framework group  C1[X(H6Si2)]
 Deg. of freedom    18
 Full point group                 C1      NOp   1
 Rotational constants (GHZ):          39.3408271           0.9629770           0.9629766
 Leave Link  202 at Mon Apr 21 20:17:40 2025, MaxMem=   536870912 cpu:               0.5 elap:               0.1
 (Enter /home/szhao/Apps/g16/l301.exe)
 Standard basis: 6-311+G(d,p) (5D, 7F)
 Ernie: Thresh=  0.10000D-02 Tol=  0.10000D-05 Strict=F.
    96 basis functions,   148 primitive gaussians,    98 cartesian basis functions
    17 alpha electrons       16 beta electrons
       nuclear repulsion energy        57.6729330151 Hartrees.
 IExCor= 4336 DFT=T Ex+Corr=M062X ExCW=0 ScaHFX=  0.540000
 ScaDFX=  1.000000  1.000000  1.000000  1.000000 ScalE2=  1.000000  1.000000
 IRadAn=      7 IRanWt=     -1 IRanGd=            0 ICorTp=0 IEmpDi=  4
 NAtoms=    8 NActive=    8 NUniq=    8 SFac= 1.00D+00 NAtFMM=   60 NAOKFM=F Big=F
 Integral buffers will be    131072 words long.
 Raffenetti 2 integral format.
 Two-electron integral symmetry is turned off.
 Leave Link  301 at Mon Apr 21 20:17:40 2025, MaxMem=   536870912 cpu:               0.7 elap:               0.1
 (Enter /home/szhao/Apps/g16/l302.exe)
 NPDir=0 NMtPBC=     1 NCelOv=     1 NCel=       1 NClECP=     1 NCelD=      1
         NCelK=      1 NCelE2=     1 NClLst=     1 CellRange=     0.0.
 One-electron integrals computed using PRISM.
 NBasis=    96 RedAO= T EigKep=  1.36D-02  NBF=    96
 NBsUse=    96 1.00D-06 EigRej= -1.00D+00 NBFU=    96
 Precomputing XC quadrature grid using
 IXCGrd= 4 IRadAn=           7 IRanWt=          -1 IRanGd=           0 AccXCQ= 0.00D+00.
 Generated NRdTot=       0 NPtTot=           0 NUsed=           0 NTot=          32
 NSgBfM=    86    86    86    86    86 MxSgAt=     8 MxSgA2=     8.
 Leave Link  302 at Mon Apr 21 20:17:41 2025, MaxMem=   536870912 cpu:               1.3 elap:               0.2
 (Enter /home/szhao/Apps/g16/l303.exe)
 DipDrv:  MaxL=1.
 Leave Link  303 at Mon Apr 21 20:17:41 2025, MaxMem=   536870912 cpu:               0.4 elap:               0.1
 (Enter /home/szhao/Apps/g16/l401.exe)
 Initial guess from the checkpoint file:  "opt.chk"
 B after Tr=     0.000000    0.000000   -0.000005
         Rot=    1.000000    0.000000    0.000000    0.000001 Ang=   0.00 deg.
 Guess basis will be translated and rotated to current coordinates.
 JPrj=2 DoOrth=T DoCkMO=T.
 Initial guess <Sx>= 0.0000 <Sy>= 0.0000 <Sz>= 0.5000 <S**2>= 0.7538 S= 0.5019
 Generating alternative initial guess.
 ExpMin= 3.31D-02 ExpMax= 6.94D+04 ExpMxC= 2.33D+03 IAcc=3 IRadAn=         5 AccDes= 0.00D+00
 Harris functional with IExCor= 1009 and IRadAn=       5 diagonalized for initial guess.
 HarFok:  IExCor= 1009 AccDes= 0.00D+00 IRadAn=         5 IDoV= 1 UseB2=F ITyADJ=14
 ICtDFT=  3500011 ScaDFX=  1.000000  1.000000  1.000000  1.000000
 FoFCou: FMM=F IPFlag=           0 FMFlag=      100000 FMFlg1=           0
         NFxFlg=           0 DoJE=T BraDBF=F KetDBF=T FulRan=T
         wScrn=  0.000000 ICntrl=       500 IOpCl=  0 I1Cent=   200000004 NGrid=           0
         NMat0=    1 NMatS0=      1 NMatT0=    0 NMatD0=    1 NMtDS0=    0 NMtDT0=    0
 Symmetry not used in FoFCou.
 Harris En= -581.886663690176    
 Leave Link  401 at Mon Apr 21 20:17:41 2025, MaxMem=   536870912 cpu:               3.5 elap:               0.5
 (Enter /home/szhao/Apps/g16/l502.exe)
 Keep R1 and R2 ints in memory in canonical form, NReq=29092346.
 FoFCou: FMM=F IPFlag=           0 FMFlag=           0 FMFlg1=           0
         NFxFlg=           0 DoJE=F BraDBF=F KetDBF=F FulRan=T
         wScrn=  0.000000 ICntrl=       600 IOpCl=  0 I1Cent=           0 NGrid=           0
         NMat0=    1 NMatS0=   4656 NMatT0=    0 NMatD0=    1 NMtDS0=    0 NMtDT0=    0
 Symmetry not used in FoFCou.
 Two-electron integral symmetry not used.
 UHF open shell SCF:
 Using DIIS extrapolation, IDIIS=  1040.
 NGot=   536870912 LenX=   515167018 LenY=   515156973
 Requested convergence on RMS density matrix=1.00D-08 within 128 cycles.
 Requested convergence on MAX density matrix=1.00D-06.
 Requested convergence on             energy=1.00D-06.
 No special actions if energy rises.

 Cycle   1  Pass 1  IDiag  1:
 E= -582.126910668508    
 DIIS: error= 2.35D-03 at cycle   1 NSaved=   1.
 NSaved= 1 IEnMin= 1 EnMin= -582.126910668508     IErMin= 1 ErrMin= 2.35D-03
 ErrMax= 2.35D-03  0.00D+00 EMaxC= 1.00D-01 BMatC= 4.85D-04 BMatP= 4.85D-04
 IDIUse=3 WtCom= 9.76D-01 WtEn= 2.35D-02
 Coeff-Com:  0.100D+01
 Coeff-En:   0.100D+01
 Coeff:      0.100D+01
 Gap=     0.418 Goal=   None    Shift=    0.000
 Gap=     0.624 Goal=   None    Shift=    0.000
 GapD=    0.418 DampG=2.000 DampE=1.000 DampFc=2.0000 IDamp=-1.
 RMSDP=2.50D-04 MaxDP=5.78D-03              OVMax= 1.88D-02

 Cycle   2  Pass 1  IDiag  1:
 E= -582.127218025272     Delta-E=       -0.000307356764 Rises=F Damp=F
 DIIS: error= 6.58D-04 at cycle   2 NSaved=   2.
 NSaved= 2 IEnMin= 2 EnMin= -582.127218025272     IErMin= 2 ErrMin= 6.58D-04
 ErrMax= 6.58D-04  0.00D+00 EMaxC= 1.00D-01 BMatC= 2.10D-05 BMatP= 4.85D-04
 IDIUse=3 WtCom= 9.93D-01 WtEn= 6.58D-03
 Coeff-Com: -0.137D+00 0.114D+01
 Coeff-En:   0.000D+00 0.100D+01
 Coeff:     -0.136D+00 0.114D+01
 Gap=     0.066 Goal=   None    Shift=    0.000
 Gap=     0.326 Goal=   None    Shift=    0.000
 RMSDP=1.53D-04 MaxDP=3.86D-03 DE=-3.07D-04 OVMax= 9.13D-03

 Cycle   3  Pass 1  IDiag  1:
 E= -582.127251871651     Delta-E=       -0.000033846379 Rises=F Damp=F
 DIIS: error= 1.87D-04 at cycle   3 NSaved=   3.
 NSaved= 3 IEnMin= 3 EnMin= -582.127251871651     IErMin= 3 ErrMin= 1.87D-04
 ErrMax= 1.87D-04  0.00D+00 EMaxC= 1.00D-01 BMatC= 3.50D-06 BMatP= 2.10D-05
 IDIUse=3 WtCom= 9.98D-01 WtEn= 1.87D-03
 Coeff-Com: -0.230D-01-0.649D-01 0.109D+01
 Coeff-En:   0.000D+00 0.000D+00 0.100D+01
 Coeff:     -0.230D-01-0.648D-01 0.109D+01
 Gap=     0.066 Goal=   None    Shift=    0.000
 Gap=     0.326 Goal=   None    Shift=    0.000
 RMSDP=4.79D-05 MaxDP=1.17D-03 DE=-3.38D-05 OVMax= 2.50D-03

 Cycle   4  Pass 1  IDiag  1:
 E= -582.127256058976     Delta-E=       -0.000004187325 Rises=F Damp=F
 DIIS: error= 5.80D-05 at cycle   4 NSaved=   4.
 NSaved= 4 IEnMin= 4 EnMin= -582.127256058976     IErMin= 4 ErrMin= 5.80D-05
 ErrMax= 5.80D-05  0.00D+00 EMaxC= 1.00D-01 BMatC= 4.14D-07 BMatP= 3.50D-06
 IDIUse=1 WtCom= 1.00D+00 WtEn= 0.00D+00
 Coeff-Com:  0.178D-01-0.172D+00 0.948D-02 0.114D+01
 Coeff:      0.178D-01-0.172D+00 0.948D-02 0.114D+01
 Gap=     0.066 Goal=   None    Shift=    0.000
 Gap=     0.327 Goal=   None    Shift=    0.000
 RMSDP=2.62D-05 MaxDP=6.41D-04 DE=-4.19D-06 OVMax= 1.34D-03

 Cycle   5  Pass 1  IDiag  1:
 E= -582.127256683992     Delta-E=       -0.000000625016 Rises=F Damp=F
 DIIS: error= 1.34D-05 at cycle   5 NSaved=   5.
 NSaved= 5 IEnMin= 5 EnMin= -582.127256683992     IErMin= 5 ErrMin= 1.34D-05
 ErrMax= 1.34D-05  0.00D+00 EMaxC= 1.00D-01 BMatC= 1.82D-08 BMatP= 4.14D-07
 IDIUse=1 WtCom= 1.00D+00 WtEn= 0.00D+00
 Coeff-Com: -0.233D-02 0.390D-01-0.453D-01-0.254D+00 0.126D+01
 Coeff:     -0.233D-02 0.390D-01-0.453D-01-0.254D+00 0.126D+01
 Gap=     0.066 Goal=   None    Shift=    0.000
 Gap=     0.327 Goal=   None    Shift=    0.000
 RMSDP=1.56D-06 MaxDP=4.15D-05 DE=-6.25D-07 OVMax= 1.10D-04

 Cycle   6  Pass 1  IDiag  1:
 E= -582.127256702170     Delta-E=       -0.000000018179 Rises=F Damp=F
 DIIS: error= 1.53D-06 at cycle   6 NSaved=   6.
 NSaved= 6 IEnMin= 6 EnMin= -582.127256702170     IErMin= 6 ErrMin= 1.53D-06
 ErrMax= 1.53D-06  0.00D+00 EMaxC= 1.00D-01 BMatC= 8.48D-10 BMatP= 1.82D-08
 IDIUse=1 WtCom= 1.00D+00 WtEn= 0.00D+00
 Coeff-Com: -0.865D-03 0.105D-01-0.241D-03-0.882D-01 0.143D+00 0.936D+00
 Coeff:     -0.865D-03 0.105D-01-0.241D-03-0.882D-01 0.143D+00 0.936D+00
 Gap=     0.066 Goal=   None    Shift=    0.000
 Gap=     0.327 Goal=   None    Shift=    0.000
 RMSDP=3.62D-07 MaxDP=9.36D-06 DE=-1.82D-08 OVMax= 1.23D-05

 Cycle   7  Pass 1  IDiag  1:
 E= -582.127256702520     Delta-E=       -0.000000000349 Rises=F Damp=F
 DIIS: error= 4.53D-07 at cycle   7 NSaved=   7.
 NSaved= 7 IEnMin= 7 EnMin= -582.127256702520     IErMin= 7 ErrMin= 4.53D-07
 ErrMax= 4.53D-07  0.00D+00 EMaxC= 1.00D-01 BMatC= 3.45D-11 BMatP= 8.48D-10
 IDIUse=1 WtCom= 1.00D+00 WtEn= 0.00D+00
 Coeff-Com:  0.102D-03-0.183D-02 0.432D-02 0.749D-02-0.568D-01 0.437D-01
 Coeff-Com:  0.100D+01
 Coeff:      0.102D-03-0.183D-02 0.432D-02 0.749D-02-0.568D-01 0.437D-01
 Coeff:      0.100D+01
 Gap=     0.066 Goal=   None    Shift=    0.000
 Gap=     0.327 Goal=   None    Shift=    0.000
 RMSDP=1.39D-07 MaxDP=3.63D-06 DE=-3.49D-10 OVMax= 5.01D-06

 Cycle   8  Pass 1  IDiag  1:
 E= -582.127256702538     Delta-E=       -0.000000000018 Rises=F Damp=F
 DIIS: error= 4.86D-08 at cycle   8 NSaved=   8.
 NSaved= 8 IEnMin= 8 EnMin= -582.127256702538     IErMin= 8 ErrMin= 4.86D-08
 ErrMax= 4.86D-08  0.00D+00 EMaxC= 1.00D-01 BMatC= 6.96D-13 BMatP= 3.45D-11
 IDIUse=1 WtCom= 1.00D+00 WtEn= 0.00D+00
 Coeff-Com:  0.119D-04-0.861D-04-0.426D-03 0.173D-02 0.168D-02-0.313D-01
 Coeff-Com: -0.367D-01 0.107D+01
 Coeff:      0.119D-04-0.861D-04-0.426D-03 0.173D-02 0.168D-02-0.313D-01
 Coeff:     -0.367D-01 0.107D+01
 Gap=     0.066 Goal=   None    Shift=    0.000
 Gap=     0.327 Goal=   None    Shift=    0.000
 RMSDP=1.50D-08 MaxDP=3.48D-07 DE=-1.80D-11 OVMax= 6.01D-07

 Cycle   9  Pass 1  IDiag  1:
 E= -582.127256702538     Delta-E=       -0.000000000000 Rises=F Damp=F
 DIIS: error= 1.62D-08 at cycle   9 NSaved=   9.
 NSaved= 9 IEnMin= 9 EnMin= -582.127256702538     IErMin= 9 ErrMin= 1.62D-08
 ErrMax= 1.62D-08  0.00D+00 EMaxC= 1.00D-01 BMatC= 8.13D-14 BMatP= 6.96D-13
 IDIUse=1 WtCom= 1.00D+00 WtEn= 0.00D+00
 Coeff-Com: -0.467D-05 0.892D-04-0.278D-03-0.177D-03 0.262D-02-0.295D-02
 Coeff-Com: -0.545D-01 0.731D-01 0.982D+00
 Coeff:     -0.467D-05 0.892D-04-0.278D-03-0.177D-03 0.262D-02-0.295D-02
 Coeff:     -0.545D-01 0.731D-01 0.982D+00
 Gap=     0.066 Goal=   None    Shift=    0.000
 Gap=     0.327 Goal=   None    Shift=    0.000
 RMSDP=4.44D-09 MaxDP=2.10D-07 DE=-3.41D-13 OVMax= 5.35D-07

 SCF Done:  E(UM062X) =  -582.127256703     A.U. after    9 cycles
            NFock=  9  Conv=0.44D-08     -V/T= 2.0016
 <Sx>= 0.0000 <Sy>= 0.0000 <Sz>= 0.5000 <S**2>= 0.7540 S= 0.5020
 <L.S>=  0.00000000000    
 KE= 5.812104910240D+02 PE=-1.494947452474D+03 EE= 2.739367717325D+02
 Annihilation of the first spin contaminant:
 S**2 before annihilation     0.7540,   after     0.7500
 Leave Link  502 at Mon Apr 21 20:17:53 2025, MaxMem=   536870912 cpu:              82.0 elap:              11.2
 (Enter /home/szhao/Apps/g16/l701.exe)
 ... and contract with generalized density number  0.
 Compute integral first derivatives.
 Leave Link  701 at Mon Apr 21 20:17:54 2025, MaxMem=   536870912 cpu:               2.2 elap:               0.5
 (Enter /home/szhao/Apps/g16/l702.exe)
 L702 exits ... SP integral derivatives will be done elsewhere.
 Leave Link  702 at Mon Apr 21 20:17:54 2025, MaxMem=   536870912 cpu:               0.9 elap:               0.2
 (Enter /home/szhao/Apps/g16/l703.exe)
 Integral derivatives from FoFJK, PRISM(SPDF).
 Compute integral first derivatives, UseDBF=F ICtDFT=           0.
 Calling FoFJK, ICntrl=      2127 FMM=F ISym2X=0 I1Cent= 0 IOpClX= 1 NMat=1 NMatS=1 NMatT=0.
 FoFJK:  IHMeth= 1 ICntrl=    2127 DoSepK=F KAlg= 0 I1Cent=           0 FoldK=F
 IRaf=         0 NMat=       1 IRICut=       1 DoRegI=T DoRafI=F ISym2E= 0 IDoP0=0 IntGTp=1.
 FoFCou: FMM=F IPFlag=           0 FMFlag=      100000 FMFlg1=         800
         NFxFlg=           0 DoJE=F BraDBF=F KetDBF=F FulRan=T
         wScrn=  0.000000 ICntrl=      2127 IOpCl=  1 I1Cent=           0 NGrid=           0
         NMat0=    1 NMatS0=      1 NMatT0=    0 NMatD0=    1 NMtDS0=    0 NMtDT0=    0
 Symmetry not used in FoFCou.
 Leave Link  703 at Mon Apr 21 20:17:56 2025, MaxMem=   536870912 cpu:               9.6 elap:               1.3
 (Enter /home/szhao/Apps/g16/l716.exe)
 Dipole        =-2.02428995D-07 2.20006813D-07 4.79099613D-06
 -------------------------------------------------------------------
 Center     Atomic                   Forces (Hartrees/Bohr)
 Number     Number              X              Y              Z
 -------------------------------------------------------------------
      1       14          -0.000000000   -0.000000000   -0.000000000
      2       14          -0.000000000   -0.000000000   -0.000000000
      3        1          -0.001159993    0.000150868    0.000001318
      4        1           0.001164262    0.000075347   -0.000127468
      5        1          -0.001164793   -0.000075209    0.000127024
      6        1          -0.001163590   -0.000076466   -0.000126450
      7        1           0.001160050   -0.000150902   -0.000001696
      8        1           0.001164145    0.000076482    0.000126045
 -------------------------------------------------------------------
 Cartesian Forces:  Max     0.001164793 RMS     0.000586144
 Leave Link  716 at Mon Apr 21 20:17:57 2025, MaxMem=   536870912 cpu:               1.0 elap:               0.5
 (Enter /home/szhao/Apps/g16/l103.exe)

 GradGradGradGradGradGradGradGradGradGradGradGradGradGradGradGradGradGrad
 Berny optimization.
 Using GEDIIS/GDIIS optimizer.
 FormGI is forming the generalized inverse of G from B-inverse, IUseBI=4.
 Internal  Forces:  Max     0.003488456 RMS     0.001537163
 Search for a local minimum.
 Step number   2 out of a maximum of   43
 All quantities printed in internal units (Hartrees-Bohrs-Radians)
 RMS Force = .14094D-02 SwitMx=.10000D-02 MixMth= 1
 Mixed Optimization -- RFO/linear search
 Update second derivatives using D2CorX and points    1    2
 DE= -8.40D-04 DEPred=-5.48D-04 R= 1.53D+00
 TightC=F SS=  1.41D+00  RLast= 8.20D-02 DXNew= 5.0454D-01 2.4596D-01
 Trust test= 1.53D+00 RLast= 8.20D-02 DXMaxT set to 3.00D-01
 ITU=  1  0
 Use linear search instead of GDIIS.
     Eigenvalues ---    0.00230   0.07152   0.07823   0.07823   0.07824
     Eigenvalues ---    0.07824   0.16000   0.16000   0.16000   0.16000
     Eigenvalues ---    0.16000   0.18377   0.18377   0.18378   0.18378
     Eigenvalues ---    0.18378   0.183891000.000001000.000001000.00000
     Eigenvalues --- 1000.000001000.000001000.000001000.000001000.00000
     Eigenvalues --- 1000.000001000.000001000.000001000.000001000.00000
     Eigenvalues --- 1000.000001000.000001000.00000
 RFO step:  Lambda=-2.47774142D-06 EMin= 2.30000000D-03
 Quartic linear search produced a step of  1.36655.
 Iteration  1 RMS(Cart)=  0.05125641 RMS(Int)=  0.00242213
 Iteration  2 RMS(Cart)=  0.00118187 RMS(Int)=  0.00214664
 Iteration  3 RMS(Cart)=  0.00000675 RMS(Int)=  0.00214664
 Iteration  4 RMS(Cart)=  0.00000011 RMS(Int)=  0.00214664
 ITry= 1 IFail=0 DXMaxC= 1.21D-01 DCOld= 1.00D+10 DXMaxT= 3.00D-01 DXLimC= 3.00D+00 Rises=F
 Variable       Old X    -DE/DX   Delta X   Delta X   Delta X     New X
                                 (Linear)    (Quad)   (Total)
    X1       -5.43540   0.00349   0.00000   0.00000   0.00000  -5.43540
    Y1        0.00000  -0.00000   0.00000   0.00000   0.00000   0.00000
    Z1        0.00000  -0.00000   0.00000   0.00000   0.00000   0.00000
    X2        5.43540  -0.00349   0.00000   0.00000   0.00000   5.43540
    Y2        0.00000   0.00000   0.00000   0.00000   0.00000   0.00000
    Z2        0.00000   0.00000   0.00000   0.00000   0.00000   0.00000
    R1        2.76939  -0.00027  -0.00507   0.00143  -0.00365   2.76575
    R2        2.76942  -0.00027  -0.00502   0.00134  -0.00368   2.76574
    R3        2.76939  -0.00027  -0.00508   0.00144  -0.00364   2.76575
    R4        2.76942  -0.00027  -0.00502   0.00134  -0.00368   2.76574
    R5        2.76939  -0.00027  -0.00506   0.00141  -0.00365   2.76575
    R6        2.76939  -0.00027  -0.00509   0.00145  -0.00364   2.76575
    A1        1.67493  -0.00281  -0.04208  -0.00069  -0.04380   1.63114
    A2        1.67530  -0.00280  -0.04224  -0.00037  -0.04364   1.63166
    A3        1.67515  -0.00281  -0.04208  -0.00070  -0.04381   1.63134
    A4        2.07568   0.00100   0.01713   0.00015   0.01236   2.08803
    A5        2.07572   0.00100   0.01704   0.00030   0.01241   2.08813
    A6        2.07573   0.00099   0.01704   0.00017   0.01228   2.08801
    A7        1.67528  -0.00280  -0.04224  -0.00037  -0.04364   1.63164
    A8        1.67535  -0.00281  -0.04209  -0.00070  -0.04382   1.63153
    A9        1.67476  -0.00281  -0.04207  -0.00069  -0.04379   1.63097
   A10        2.07568   0.00100   0.01711   0.00016   0.01235   2.08803
   A11        2.07573   0.00099   0.01705   0.00016   0.01229   2.08802
   A12        2.07572   0.00100   0.01704   0.00030   0.01241   2.08813
    D1        1.04729   0.00000  -0.00001   0.00006   0.00005   1.04734
    D2       -3.14147  -0.00000  -0.00000   0.00003   0.00003  -3.14144
    D3       -1.04709   0.00000  -0.00000   0.00009   0.00009  -1.04700
    D4       -3.14154   0.00000   0.00004   0.00003   0.00007  -3.14147
    D5       -1.04711   0.00000   0.00005  -0.00000   0.00005  -1.04706
    D6        1.04727   0.00000   0.00005   0.00006   0.00011   1.04738
    D7       -1.04708  -0.00000  -0.00002   0.00001  -0.00001  -1.04710
    D8        1.04735  -0.00000  -0.00001  -0.00002  -0.00004   1.04731
    D9       -3.14146  -0.00000  -0.00001   0.00003   0.00003  -3.14144
         Item               Value     Threshold  Converged?
 Maximum Force            0.002811     0.000450     NO 
 RMS     Force            0.001409     0.000300     NO 
 Maximum Displacement     0.121150     0.001800     NO 
 RMS     Displacement     0.051647     0.001200     NO 
 Predicted change in Energy=-3.729760D-04
 Lowest energy point so far.  Saving SCF results.
 GradGradGradGradGradGradGradGradGradGradGradGradGradGradGradGradGradGrad

 Leave Link  103 at Mon Apr 21 20:17:57 2025, MaxMem=   536870912 cpu:               1.0 elap:               0.3
 (Enter /home/szhao/Apps/g16/l202.exe)
                          Input orientation:                          
 ---------------------------------------------------------------------
 Center     Atomic      Atomic             Coordinates (Angstroms)
 Number     Number       Type             X           Y           Z
 ---------------------------------------------------------------------
      1         14           0       -2.876292    0.000000    0.000000
      2         14           0        2.876292    0.000000    0.000000
      3          1           0        2.965287   -1.460856   -0.000022
      4          1           0       -2.964551   -0.730290    1.265276
      5          1           0        2.965123    0.730470   -1.265132
      6          1           0        2.964310    0.730371    1.265248
      7          1           0       -2.965315    1.460854   -0.000159
      8          1           0       -2.964853   -0.730554   -1.265104
 ---------------------------------------------------------------------
                    Distance matrix (angstroms):
                    1          2          3          4          5
     1  Si   0.000000
     2  Si   5.752584   0.000000
     3  H    6.021474   1.463565   0.000000
     4  H    1.463570   6.020772   6.107184   0.000000
     5  H    6.021319   1.463570   2.530299   6.610433   0.000000
     6  H    6.020543   1.463572   2.530294   6.106139   2.530380
     7  H    1.463564   6.021500   6.611235   2.530304   6.107677
     8  H    1.463571   6.021061   6.107400   2.530380   6.107308
                    6          7          8
     6  H    0.000000
     7  H    6.106989   0.000000
     8  H    6.609990   2.530287   0.000000
 Symmetry turned off by external request.
 Stoichiometry    H6Si2(1+,2)
 Framework group  C1[X(H6Si2)]
 Deg. of freedom    18
 Full point group                 C1      NOp   1
 Rotational constants (GHZ):          39.1606337           0.9671983           0.9671973
 Leave Link  202 at Mon Apr 21 20:17:57 2025, MaxMem=   536870912 cpu:               0.3 elap:               0.2
 (Enter /home/szhao/Apps/g16/l301.exe)
 Standard basis: 6-311+G(d,p) (5D, 7F)
 Ernie: Thresh=  0.10000D-02 Tol=  0.10000D-05 Strict=F.
    96 basis functions,   148 primitive gaussians,    98 cartesian basis functions
    17 alpha electrons       16 beta electrons
       nuclear repulsion energy        57.7988720459 Hartrees.
 IExCor= 4336 DFT=T Ex+Corr=M062X ExCW=0 ScaHFX=  0.540000
 ScaDFX=  1.000000  1.000000  1.000000  1.000000 ScalE2=  1.000000  1.000000
 IRadAn=      7 IRanWt=     -1 IRanGd=            0 ICorTp=0 IEmpDi=  4
 NAtoms=    8 NActive=    8 NUniq=    8 SFac= 1.00D+00 NAtFMM=   60 NAOKFM=F Big=F
 Integral buffers will be    131072 words long.
 Raffenetti 2 integral format.
 Two-electron integral symmetry is turned off.
 Leave Link  301 at Mon Apr 21 20:17:58 2025, MaxMem=   536870912 cpu:               0.6 elap:               0.1
 (Enter /home/szhao/Apps/g16/l302.exe)
 NPDir=0 NMtPBC=     1 NCelOv=     1 NCel=       1 NClECP=     1 NCelD=      1
         NCelK=      1 NCelE2=     1 NClLst=     1 CellRange=     0.0.
 One-electron integrals computed using PRISM.
 NBasis=    96 RedAO= T EigKep=  1.37D-02  NBF=    96
 NBsUse=    96 1.00D-06 EigRej= -1.00D+00 NBFU=    96
 Precomputing XC quadrature grid using
 IXCGrd= 4 IRadAn=           7 IRanWt=          -1 IRanGd=           0 AccXCQ= 0.00D+00.
 Generated NRdTot=       0 NPtTot=           0 NUsed=           0 NTot=          32
 NSgBfM=    86    86    86    86    86 MxSgAt=     8 MxSgA2=     8.
 Leave Link  302 at Mon Apr 21 20:17:58 2025, MaxMem=   536870912 cpu:               2.4 elap:               0.3
 (Enter /home/szhao/Apps/g16/l303.exe)
 DipDrv:  MaxL=1.
 Leave Link  303 at Mon Apr 21 20:17:58 2025, MaxMem=   536870912 cpu:               0.5 elap:               0.1
 (Enter /home/szhao/Apps/g16/l401.exe)
 Initial guess from the checkpoint file:  "opt.chk"
 B after Tr=     0.000000    0.000000   -0.000006
         Rot=    1.000000    0.000000    0.000000   -0.000001 Ang=   0.00 deg.
 Guess basis will be translated and rotated to current coordinates.
 JPrj=2 DoOrth=T DoCkMO=T.
 Initial guess <Sx>= 0.0000 <Sy>= 0.0000 <Sz>= 0.5000 <S**2>= 0.7540 S= 0.5020
 Generating alternative initial guess.
 ExpMin= 3.31D-02 ExpMax= 6.94D+04 ExpMxC= 2.33D+03 IAcc=3 IRadAn=         5 AccDes= 0.00D+00
 Harris functional with IExCor= 1009 and IRadAn=       5 diagonalized for initial guess.
 HarFok:  IExCor= 1009 AccDes= 0.00D+00 IRadAn=         5 IDoV= 1 UseB2=F ITyADJ=14
 ICtDFT=  3500011 ScaDFX=  1.000000  1.000000  1.000000  1.000000
 FoFCou: FMM=F IPFlag=           0 FMFlag=      100000 FMFlg1=           0
         NFxFlg=           0 DoJE=T BraDBF=F KetDBF=T FulRan=T
         wScrn=  0.000000 ICntrl=       500 IOpCl=  0 I1Cent=   200000004 NGrid=           0
         NMat0=    1 NMatS0=      1 NMatT0=    0 NMatD0=    1 NMtDS0=    0 NMtDT0=    0
 Symmetry not used in FoFCou.
 Harris En= -581.886594067545    
 Leave Link  401 at Mon Apr 21 20:17:59 2025, MaxMem=   536870912 cpu:               3.3 elap:               0.5
 (Enter /home/szhao/Apps/g16/l502.exe)
 Keep R1 and R2 ints in memory in canonical form, NReq=29092346.
 FoFCou: FMM=F IPFlag=           0 FMFlag=           0 FMFlg1=           0
         NFxFlg=           0 DoJE=F BraDBF=F KetDBF=F FulRan=T
         wScrn=  0.000000 ICntrl=       600 IOpCl=  0 I1Cent=           0 NGrid=           0
         NMat0=    1 NMatS0=   4656 NMatT0=    0 NMatD0=    1 NMtDS0=    0 NMtDT0=    0
 Symmetry not used in FoFCou.
 Two-electron integral symmetry not used.
 UHF open shell SCF:
 Using DIIS extrapolation, IDIIS=  1040.
 NGot=   536870912 LenX=   515167018 LenY=   515156973
 Requested convergence on RMS density matrix=1.00D-08 within 128 cycles.
 Requested convergence on MAX density matrix=1.00D-06.
 Requested convergence on             energy=1.00D-06.
 No special actions if energy rises.

 Cycle   1  Pass 1  IDiag  1:
 E= -582.126911416086    
 DIIS: error= 3.40D-03 at cycle   1 NSaved=   1.
 NSaved= 1 IEnMin= 1 EnMin= -582.126911416086     IErMin= 1 ErrMin= 3.40D-03
 ErrMax= 3.40D-03  0.00D+00 EMaxC= 1.00D-01 BMatC= 1.00D-03 BMatP= 1.00D-03
 IDIUse=3 WtCom= 9.66D-01 WtEn= 3.40D-02
 Coeff-Com:  0.100D+01
 Coeff-En:   0.100D+01
 Coeff:      0.100D+01
 Gap=     0.409 Goal=   None    Shift=    0.000
 Gap=     0.607 Goal=   None    Shift=    0.000
 GapD=    0.409 DampG=2.000 DampE=1.000 DampFc=2.0000 IDamp=-1.
 RMSDP=3.87D-04 MaxDP=8.45D-03              OVMax= 2.93D-02

 Cycle   2  Pass 1  IDiag  1:
 E= -582.127590561034     Delta-E=       -0.000679144948 Rises=F Damp=F
 DIIS: error= 9.87D-04 at cycle   2 NSaved=   2.
 NSaved= 2 IEnMin= 2 EnMin= -582.127590561034     IErMin= 2 ErrMin= 9.87D-04
 ErrMax= 9.87D-04  0.00D+00 EMaxC= 1.00D-01 BMatC= 4.69D-05 BMatP= 1.00D-03
 IDIUse=3 WtCom= 9.90D-01 WtEn= 9.87D-03
 Coeff-Com: -0.149D+00 0.115D+01
 Coeff-En:   0.000D+00 0.100D+01
 Coeff:     -0.147D+00 0.115D+01
 Gap=     0.065 Goal=   None    Shift=    0.000
 Gap=     0.329 Goal=   None    Shift=    0.000
 RMSDP=2.36D-04 MaxDP=5.84D-03 DE=-6.79D-04 OVMax= 1.42D-02

 Cycle   3  Pass 1  IDiag  1:
 E= -582.127669604934     Delta-E=       -0.000079043900 Rises=F Damp=F
 DIIS: error= 2.97D-04 at cycle   3 NSaved=   3.
 NSaved= 3 IEnMin= 3 EnMin= -582.127669604934     IErMin= 3 ErrMin= 2.97D-04
 ErrMax= 2.97D-04  0.00D+00 EMaxC= 1.00D-01 BMatC= 7.51D-06 BMatP= 4.69D-05
 IDIUse=3 WtCom= 9.97D-01 WtEn= 2.97D-03
 Coeff-Com: -0.139D-01-0.148D+00 0.116D+01
 Coeff-En:   0.000D+00 0.000D+00 0.100D+01
 Coeff:     -0.139D-01-0.148D+00 0.116D+01
 Gap=     0.065 Goal=   None    Shift=    0.000
 Gap=     0.329 Goal=   None    Shift=    0.000
 RMSDP=7.69D-05 MaxDP=1.88D-03 DE=-7.90D-05 OVMax= 4.01D-03

 Cycle   4  Pass 1  IDiag  1:
 E= -582.127679207584     Delta-E=       -0.000009602650 Rises=F Damp=F
 DIIS: error= 7.63D-05 at cycle   4 NSaved=   4.
 NSaved= 4 IEnMin= 4 EnMin= -582.127679207584     IErMin= 4 ErrMin= 7.63D-05
 ErrMax= 7.63D-05  0.00D+00 EMaxC= 1.00D-01 BMatC= 8.55D-07 BMatP= 7.51D-06
 IDIUse=1 WtCom= 1.00D+00 WtEn= 0.00D+00
 Coeff-Com:  0.192D-01-0.180D+00 0.112D+00 0.105D+01
 Coeff:      0.192D-01-0.180D+00 0.112D+00 0.105D+01
 Gap=     0.065 Goal=   None    Shift=    0.000
 Gap=     0.329 Goal=   None    Shift=    0.000
 RMSDP=3.37D-05 MaxDP=8.65D-04 DE=-9.60D-06 OVMax= 1.74D-03

 Cycle   5  Pass 1  IDiag  1:
 E= -582.127680309372     Delta-E=       -0.000001101788 Rises=F Damp=F
 DIIS: error= 2.09D-05 at cycle   5 NSaved=   5.
 NSaved= 5 IEnMin= 5 EnMin= -582.127680309372     IErMin= 5 ErrMin= 2.09D-05
 ErrMax= 2.09D-05  0.00D+00 EMaxC= 1.00D-01 BMatC= 4.18D-08 BMatP= 8.55D-07
 IDIUse=1 WtCom= 1.00D+00 WtEn= 0.00D+00
 Coeff-Com: -0.278D-02 0.438D-01-0.732D-01-0.242D+00 0.127D+01
 Coeff:     -0.278D-02 0.438D-01-0.732D-01-0.242D+00 0.127D+01
 Gap=     0.065 Goal=   None    Shift=    0.000
 Gap=     0.330 Goal=   None    Shift=    0.000
 RMSDP=2.26D-06 MaxDP=6.40D-05 DE=-1.10D-06 OVMax= 1.69D-04

 Cycle   6  Pass 1  IDiag  1:
 E= -582.127680351150     Delta-E=       -0.000000041778 Rises=F Damp=F
 DIIS: error= 2.30D-06 at cycle   6 NSaved=   6.
 NSaved= 6 IEnMin= 6 EnMin= -582.127680351150     IErMin= 6 ErrMin= 2.30D-06
 ErrMax= 2.30D-06  0.00D+00 EMaxC= 1.00D-01 BMatC= 1.87D-09 BMatP= 4.18D-08
 IDIUse=1 WtCom= 1.00D+00 WtEn= 0.00D+00
 Coeff-Com: -0.964D-03 0.115D-01-0.984D-02-0.819D-01 0.168D+00 0.914D+00
 Coeff:     -0.964D-03 0.115D-01-0.984D-02-0.819D-01 0.168D+00 0.914D+00
 Gap=     0.065 Goal=   None    Shift=    0.000
 Gap=     0.330 Goal=   None    Shift=    0.000
 RMSDP=5.59D-07 MaxDP=1.49D-05 DE=-4.18D-08 OVMax= 2.60D-05

 Cycle   7  Pass 1  IDiag  1:
 E= -582.127680351868     Delta-E=       -0.000000000718 Rises=F Damp=F
 DIIS: error= 8.20D-07 at cycle   7 NSaved=   7.
 NSaved= 7 IEnMin= 7 EnMin= -582.127680351868     IErMin= 7 ErrMin= 8.20D-07
 ErrMax= 8.20D-07  0.00D+00 EMaxC= 1.00D-01 BMatC= 1.45D-10 BMatP= 1.87D-09
 IDIUse=1 WtCom= 1.00D+00 WtEn= 0.00D+00
 Coeff-Com:  0.419D-05-0.640D-03 0.390D-02-0.199D-02-0.373D-01 0.136D+00
 Coeff-Com:  0.900D+00
 Coeff:      0.419D-05-0.640D-03 0.390D-02-0.199D-02-0.373D-01 0.136D+00
 Coeff:      0.900D+00
 Gap=     0.065 Goal=   None    Shift=    0.000
 Gap=     0.330 Goal=   None    Shift=    0.000
 RMSDP=2.82D-07 MaxDP=1.18D-05 DE=-7.18D-10 OVMax= 2.98D-05

 Cycle   8  Pass 1  IDiag  1:
 E= -582.127680351880     Delta-E=       -0.000000000012 Rises=F Damp=F
 DIIS: error= 1.06D-06 at cycle   8 NSaved=   8.
 NSaved= 8 IEnMin= 8 EnMin= -582.127680351880     IErMin= 7 ErrMin= 8.20D-07
 ErrMax= 1.06D-06  0.00D+00 EMaxC= 1.00D-01 BMatC= 1.30D-10 BMatP= 1.45D-10
 IDIUse=1 WtCom= 1.00D+00 WtEn= 0.00D+00
 Coeff-Com:  0.985D-04-0.156D-02 0.355D-02 0.693D-02-0.409D-01-0.573D-02
 Coeff-Com:  0.588D+00 0.449D+00
 Coeff:      0.985D-04-0.156D-02 0.355D-02 0.693D-02-0.409D-01-0.573D-02
 Coeff:      0.588D+00 0.449D+00
 Gap=     0.065 Goal=   None    Shift=    0.000
 Gap=     0.330 Goal=   None    Shift=    0.000
 RMSDP=1.22D-07 MaxDP=6.84D-06 DE=-1.24D-11 OVMax= 1.76D-05

 Cycle   9  Pass 1  IDiag  1:
 E= -582.127680351952     Delta-E=       -0.000000000072 Rises=F Damp=F
 DIIS: error= 6.16D-08 at cycle   9 NSaved=   9.
 NSaved= 9 IEnMin= 9 EnMin= -582.127680351952     IErMin= 9 ErrMin= 6.16D-08
 ErrMax= 6.16D-08  0.00D+00 EMaxC= 1.00D-01 BMatC= 1.20D-12 BMatP= 1.30D-10
 IDIUse=1 WtCom= 1.00D+00 WtEn= 0.00D+00
 Coeff-Com: -0.749D-05 0.177D-03-0.727D-03 0.814D-04 0.629D-02-0.187D-01
 Coeff-Com: -0.907D-01-0.461D-02 0.111D+01
 Coeff:     -0.749D-05 0.177D-03-0.727D-03 0.814D-04 0.629D-02-0.187D-01
 Coeff:     -0.907D-01-0.461D-02 0.111D+01
 Gap=     0.065 Goal=   None    Shift=    0.000
 Gap=     0.330 Goal=   None    Shift=    0.000
 RMSDP=1.47D-08 MaxDP=4.79D-07 DE=-7.19D-11 OVMax= 9.70D-07

 Cycle  10  Pass 1  IDiag  1:
 E= -582.127680351952     Delta-E=       -0.000000000000 Rises=F Damp=F
 DIIS: error= 1.85D-08 at cycle  10 NSaved=  10.
 NSaved=10 IEnMin=10 EnMin= -582.127680351952     IErMin=10 ErrMin= 1.85D-08
 ErrMax= 1.85D-08  0.00D+00 EMaxC= 1.00D-01 BMatC= 7.20D-14 BMatP= 1.20D-12
 IDIUse=1 WtCom= 1.00D+00 WtEn= 0.00D+00
 Coeff-Com: -0.583D-05 0.851D-04-0.174D-03-0.413D-03 0.187D-02 0.313D-02
 Coeff-Com: -0.337D-01-0.315D-01-0.818D-01 0.114D+01
 Coeff:     -0.583D-05 0.851D-04-0.174D-03-0.413D-03 0.187D-02 0.313D-02
 Coeff:     -0.337D-01-0.315D-01-0.818D-01 0.114D+01
 Gap=     0.065 Goal=   None    Shift=    0.000
 Gap=     0.330 Goal=   None    Shift=    0.000
 RMSDP=3.44D-09 MaxDP=1.30D-07 DE=-2.27D-13 OVMax= 1.27D-07

 SCF Done:  E(UM062X) =  -582.127680352     A.U. after   10 cycles
            NFock= 10  Conv=0.34D-08     -V/T= 2.0016
 <Sx>= 0.0000 <Sy>= 0.0000 <Sz>= 0.5000 <S**2>= 0.7542 S= 0.5021
 <L.S>=  0.00000000000    
 KE= 5.812173639419D+02 PE=-1.495211122636D+03 EE= 2.740672062961D+02
 Annihilation of the first spin contaminant:
 S**2 before annihilation     0.7542,   after     0.7500
 Leave Link  502 at Mon Apr 21 20:18:11 2025, MaxMem=   536870912 cpu:              87.6 elap:              11.8
 (Enter /home/szhao/Apps/g16/l701.exe)
 ... and contract with generalized density number  0.
 Compute integral first derivatives.
 Leave Link  701 at Mon Apr 21 20:18:12 2025, MaxMem=   536870912 cpu:               4.4 elap:               0.8
 (Enter /home/szhao/Apps/g16/l702.exe)
 L702 exits ... SP integral derivatives will be done elsewhere.
 Leave Link  702 at Mon Apr 21 20:18:12 2025, MaxMem=   536870912 cpu:               0.4 elap:               0.2
 (Enter /home/szhao/Apps/g16/l703.exe)
 Integral derivatives from FoFJK, PRISM(SPDF).
 Compute integral first derivatives, UseDBF=F ICtDFT=           0.
 Calling FoFJK, ICntrl=      2127 FMM=F ISym2X=0 I1Cent= 0 IOpClX= 1 NMat=1 NMatS=1 NMatT=0.
 FoFJK:  IHMeth= 1 ICntrl=    2127 DoSepK=F KAlg= 0 I1Cent=           0 FoldK=F
 IRaf=         0 NMat=       1 IRICut=       1 DoRegI=T DoRafI=F ISym2E= 0 IDoP0=0 IntGTp=1.
 FoFCou: FMM=F IPFlag=           0 FMFlag=      100000 FMFlg1=         800
         NFxFlg=           0 DoJE=F BraDBF=F KetDBF=F FulRan=T
         wScrn=  0.000000 ICntrl=      2127 IOpCl=  1 I1Cent=           0 NGrid=           0
         NMat0=    1 NMatS0=      1 NMatT0=    0 NMatD0=    1 NMtDS0=    0 NMtDT0=    0
 Symmetry not used in FoFCou.
 Leave Link  703 at Mon Apr 21 20:18:14 2025, MaxMem=   536870912 cpu:               9.6 elap:               1.3
 (Enter /home/szhao/Apps/g16/l716.exe)
 Dipole        =-7.86387429D-07-1.00358811D-06 1.82035296D-05
 -------------------------------------------------------------------
 Center     Atomic                   Forces (Hartrees/Bohr)
 Number     Number              X              Y              Z
 -------------------------------------------------------------------
      1       14          -0.000000000   -0.000000000   -0.000000000
      2       14          -0.000000000   -0.000000000   -0.000000000
      3        1          -0.000078719   -0.000119409   -0.000000100
      4        1           0.000078870   -0.000058289    0.000099991
      5        1          -0.000079362    0.000058572   -0.000099930
      6        1          -0.000078707    0.000058341    0.000099245
      7        1           0.000078720    0.000119566    0.000000770
      8        1           0.000079153   -0.000058832   -0.000099359
 -------------------------------------------------------------------
 Cartesian Forces:  Max     0.000119566 RMS     0.000070512
 Leave Link  716 at Mon Apr 21 20:18:14 2025, MaxMem=   536870912 cpu:               0.7 elap:               0.4
 (Enter /home/szhao/Apps/g16/l103.exe)

 GradGradGradGradGradGradGradGradGradGradGradGradGradGradGradGradGradGrad
 Berny optimization.
 Using GEDIIS/GDIIS optimizer.
 FormGI is forming the generalized inverse of G from B-inverse, IUseBI=4.
 Internal  Forces:  Max     0.000236787 RMS     0.000124488
 Search for a local minimum.
 Step number   3 out of a maximum of   43
 All quantities printed in internal units (Hartrees-Bohrs-Radians)
 RMS Force = .12161D-03 SwitMx=.10000D-02 MixMth= 2
 Mixed Optimization -- En-DIIS/RFO-DIIS
 Update second derivatives using D2CorX and points    1    2    3
 DE= -4.24D-04 DEPred=-3.73D-04 R= 1.14D+00
 TightC=F SS=  1.41D+00  RLast= 1.12D-01 DXNew= 5.0454D-01 3.3512D-01
 Trust test= 1.14D+00 RLast= 1.12D-01 DXMaxT set to 3.35D-01
 ITU=  1  1  0
 Use linear search instead of GDIIS.
     Eigenvalues ---    0.00230   0.06030   0.08014   0.08014   0.08015
     Eigenvalues ---    0.08015   0.16000   0.16000   0.16000   0.16000
     Eigenvalues ---    0.16000   0.18377   0.18377   0.18378   0.18378
     Eigenvalues ---    0.18378   0.184321000.000001000.000001000.00000
     Eigenvalues --- 1000.000001000.000001000.000001000.000001000.00000
     Eigenvalues --- 1000.000001000.000001000.000001000.000001000.00000
     Eigenvalues --- 1000.000001000.000001000.00000
 RFO step:  Lambda=-6.88093722D-07 EMin= 2.29999990D-03
 Quartic linear search produced a step of  0.09208.
 Iteration  1 RMS(Cart)=  0.00499519 RMS(Int)=  0.00013699
 Iteration  2 RMS(Cart)=  0.00001095 RMS(Int)=  0.00013658
[...]
    D2       -3.14143   0.00000   0.00000  -0.00000  -0.00000  -3.14143
    D3       -1.04699  -0.00000   0.00000  -0.00001  -0.00001  -1.04700
    D4       -3.14146  -0.00000   0.00000  -0.00001  -0.00001  -3.14147
    D5       -1.04705   0.00000   0.00000  -0.00001  -0.00000  -1.04706
    D6        1.04738  -0.00000   0.00000  -0.00001  -0.00001   1.04737
    D7       -1.04708   0.00000   0.00000   0.00000   0.00000  -1.04708
    D8        1.04733   0.00000   0.00000   0.00000   0.00000   1.04733
    D9       -3.14142   0.00000   0.00000  -0.00000  -0.00000  -3.14143
         Item               Value     Threshold  Converged?
 Maximum Force            0.000010     0.000450     YES
 RMS     Force            0.000005     0.000300     YES
 Maximum Displacement     0.000378     0.001800     YES
 RMS     Displacement     0.000132     0.001200     YES
 Predicted change in Energy=-3.413604D-09
 Optimization completed.
    -- Stationary point found.
                           ----------------------------
                           !   Optimized Parameters   !
                           ! (Angstroms and Degrees)  !
 --------------------------                            --------------------------
 ! Name  Definition              Value          Derivative Info.                !
 --------------------------------------------------------------------------------
 ! X1    R(1,-1)                -2.8763         -DE/DX =    0.0                 !
 ! Y1    R(1,-2)                 0.0            -DE/DX =    0.0                 !
 ! Z1    R(1,-3)                 0.0            -DE/DX =    0.0                 !
 ! X2    R(2,-1)                 2.8763         -DE/DX =    0.0                 !
 ! Y2    R(2,-2)                 0.0            -DE/DX =    0.0                 !
 ! Z2    R(2,-3)                 0.0            -DE/DX =    0.0                 !
 ! R1    R(1,4)                  1.4638         -DE/DX =    0.0                 !
 ! R2    R(1,7)                  1.4638         -DE/DX =    0.0                 !
 ! R3    R(1,8)                  1.4638         -DE/DX =    0.0                 !
 ! R4    R(2,3)                  1.4638         -DE/DX =    0.0                 !
 ! R5    R(2,5)                  1.4638         -DE/DX =    0.0                 !
 ! R6    R(2,6)                  1.4638         -DE/DX =    0.0                 !
 ! A1    A(2,1,4)               93.2146         -DE/DX =    0.0                 !
 ! A2    A(2,1,7)               93.245          -DE/DX =    0.0                 !
 ! A3    A(2,1,8)               93.2261         -DE/DX =    0.0                 !
 ! A4    A(4,1,7)              119.6843         -DE/DX =    0.0                 !
 ! A5    A(4,1,8)              119.6894         -DE/DX =    0.0                 !
 ! A6    A(7,1,8)              119.6834         -DE/DX =    0.0                 !
 ! A7    A(1,2,3)               93.244          -DE/DX =    0.0                 !
 ! A8    A(1,2,5)               93.2364         -DE/DX =    0.0                 !
 ! A9    A(1,2,6)               93.2055         -DE/DX =    0.0                 !
 ! A10   A(3,2,5)              119.6842         -DE/DX =    0.0                 !
 ! A11   A(3,2,6)              119.6836         -DE/DX =    0.0                 !
 ! A12   A(5,2,6)              119.6894         -DE/DX =    0.0                 !
 ! D1    D(4,1,2,3)             60.0088         -DE/DX =    0.0                 !
 ! D2    D(4,1,2,5)           -179.9904         -DE/DX =    0.0                 !
 ! D3    D(4,1,2,6)            -59.9882         -DE/DX =    0.0                 !
 ! D4    D(7,1,2,3)           -179.9924         -DE/DX =    0.0                 !
 ! D5    D(7,1,2,5)            -59.9916         -DE/DX =    0.0                 !
 ! D6    D(7,1,2,6)             60.0106         -DE/DX =    0.0                 !
 ! D7    D(8,1,2,3)            -59.9933         -DE/DX =    0.0                 !
 ! D8    D(8,1,2,5)             60.0074         -DE/DX =    0.0                 !
 ! D9    D(8,1,2,6)           -179.9904         -DE/DX =    0.0                 !
 --------------------------------------------------------------------------------
 Lowest energy point so far.  Saving SCF results.
 Largest change from initial coordinates is atom    5       0.116 Angstoms.
 GradGradGradGradGradGradGradGradGradGradGradGradGradGradGradGradGradGrad

 Leave Link  103 at Mon Apr 21 20:18:30 2025, MaxMem=   536870912 cpu:               1.1 elap:               0.2
 (Enter /home/szhao/Apps/g16/l202.exe)
                          Input orientation:                          
 ---------------------------------------------------------------------
 Center     Atomic      Atomic             Coordinates (Angstroms)
 Number     Number       Type             X           Y           Z
 ---------------------------------------------------------------------
      1         14           0       -2.876292    0.000000    0.000000
      2         14           0        2.876292    0.000000    0.000000
      3          1           0        2.959125   -1.461461   -0.000032
      4          1           0       -2.958376   -0.730581    1.265791
      5          1           0        2.958932    0.730777   -1.265642
      6          1           0        2.958143    0.730663    1.265759
      7          1           0       -2.959152    1.461459   -0.000163
      8          1           0       -2.958671   -0.730862   -1.265610
 ---------------------------------------------------------------------
                    Distance matrix (angstroms):
                    1          2          3          4          5
     1  Si   0.000000
     2  Si   5.752584   0.000000
     3  H    6.015643   1.463806   0.000000
     4  H    1.463801   6.014925   6.095352   0.000000
     5  H    6.015457   1.463801   2.531339   6.599868   0.000000
     6  H    6.014702   1.463801   2.531331   6.094295   2.531401
     7  H    1.463806   6.015669   6.600717   2.531340   6.095823
     8  H    1.463801   6.015207   6.095553   2.531401   6.095442
                    6          7          8
     6  H    0.000000
     7  H    6.095163   0.000000
     8  H    6.599437   2.531329   0.000000
 Symmetry turned off by external request.
 Stoichiometry    H6Si2(1+,2)
 Framework group  C1[X(H6Si2)]
 Deg. of freedom    18
 Full point group                 C1      NOp   1
 Rotational constants (GHZ):          39.1286947           0.9675980           0.9675971
 Leave Link  202 at Mon Apr 21 20:18:31 2025, MaxMem=   536870912 cpu:               0.2 elap:               0.1
 (Enter /home/szhao/Apps/g16/l601.exe)
 Copying SCF densities to generalized density rwf, IOpCl= 1 IROHF=0.

 **********************************************************************

            Population analysis using the SCF density.

 **********************************************************************

 Alpha  occ. eigenvalues --  -67.21196 -67.21196  -5.76069  -5.76069  -4.07771
 Alpha  occ. eigenvalues --   -4.07771  -4.06948  -4.06948  -4.06947  -4.06947
 Alpha  occ. eigenvalues --   -0.79870  -0.79741  -0.60381  -0.60380  -0.60369
 Alpha  occ. eigenvalues --   -0.60368  -0.37132
 Alpha virt. eigenvalues --   -0.30664  -0.11109  -0.11106  -0.09438  -0.08475
 Alpha virt. eigenvalues --   -0.08474  -0.07433  -0.07433  -0.07345  -0.06590
 Alpha virt. eigenvalues --   -0.06590  -0.05792  -0.05791  -0.04907  -0.00320
 Alpha virt. eigenvalues --    0.14756   0.14757   0.15643   0.15834   0.15834
 Alpha virt. eigenvalues --    0.20285   0.22939   0.23912   0.26224   0.26226
 Alpha virt. eigenvalues --    0.26423   0.26424   0.29900   0.33929   0.38681
 Alpha virt. eigenvalues --    0.38683   0.38717   0.38720   0.59024   0.59453
 Alpha virt. eigenvalues --    0.69633   0.69635   0.69827   0.69830   1.02924
 Alpha virt. eigenvalues --    1.03493   1.03494   1.04667   1.04668   1.07840
 Alpha virt. eigenvalues --    1.13498   1.13498   1.29830   1.30097   1.31599
 Alpha virt. eigenvalues --    1.31600   1.31600   1.31601   1.43187   1.43190
 Alpha virt. eigenvalues --    1.43414   1.43416   1.70189   1.72459   1.95623
 Alpha virt. eigenvalues --    1.95625   1.95630   1.95633   2.43870   2.43872
 Alpha virt. eigenvalues --    2.44188   2.44192   2.46150   2.50252   5.38286
 Alpha virt. eigenvalues --    5.38451  11.23875  11.26844  11.41337  11.41338
 Alpha virt. eigenvalues --   11.41879  11.41880 140.96982 140.97213
  Beta  occ. eigenvalues --  -67.20904 -67.20904  -5.75981  -5.75981  -4.07085
  Beta  occ. eigenvalues --   -4.07085  -4.06846  -4.06846  -4.06846  -4.06846
  Beta  occ. eigenvalues --   -0.78122  -0.78095  -0.60314  -0.60314  -0.60304
  Beta  occ. eigenvalues --   -0.60303
  Beta virt. eigenvalues --   -0.27336  -0.23671  -0.14701  -0.10246  -0.09929
  Beta virt. eigenvalues --   -0.09926  -0.09408  -0.08065  -0.08064  -0.07462
  Beta virt. eigenvalues --   -0.05940  -0.05940  -0.05191  -0.05190  -0.04906
  Beta virt. eigenvalues --    0.00407   0.11981   0.14333   0.14333   0.14756
  Beta virt. eigenvalues --    0.14756   0.16151   0.22919   0.24162   0.25570
  Beta virt. eigenvalues --    0.25574   0.26121   0.26122   0.28341   0.32611
  Beta virt. eigenvalues --    0.41805   0.41805   0.41806   0.41806   0.62512
  Beta virt. eigenvalues --    0.62939   0.70316   0.70318   0.70574   0.70576
  Beta virt. eigenvalues --    1.01951   1.03743   1.03743   1.04880   1.04880
  Beta virt. eigenvalues --    1.06976   1.13782   1.13782   1.30430   1.30648
  Beta virt. eigenvalues --    1.32712   1.32713   1.32713   1.32715   1.43695
  Beta virt. eigenvalues --    1.43698   1.43928   1.43930   1.70933   1.73226
  Beta virt. eigenvalues --    1.96647   1.96649   1.96664   1.96666   2.44469
  Beta virt. eigenvalues --    2.44471   2.44772   2.44775   2.46422   2.50598
  Beta virt. eigenvalues --    5.39615   5.39788  11.25643  11.28640  11.42048
  Beta virt. eigenvalues --   11.42049  11.42586  11.42588 140.97496 140.97727
          Condensed to atoms (all electrons):
               1          2          3          4          5          6
     1  Si  12.330979   0.021891  -0.000377   0.373043  -0.000377  -0.000377
     2  Si   0.021891  12.330979   0.373051  -0.000377   0.373048   0.373041
     3  H   -0.000377   0.373051   0.674606   0.000003  -0.018791  -0.018792
     4  H    0.373043  -0.000377   0.000003   0.674616   0.000001   0.000003
     5  H   -0.000377   0.373048  -0.018791   0.000001   0.674605  -0.018789
     6  H   -0.000377   0.373041  -0.018792   0.000003  -0.018789   0.674622
     7  H    0.373051  -0.000377   0.000001  -0.018791   0.000003   0.000003
     8  H    0.373045  -0.000377   0.000003  -0.018789   0.000003   0.000001
               7          8
     1  Si   0.373051   0.373045
     2  Si  -0.000377  -0.000377
     3  H    0.000001   0.000003
     4  H   -0.018791  -0.018789
     5  H    0.000003   0.000003
     6  H    0.000003   0.000001
     7  H    0.674606  -0.018791
     8  H   -0.018791   0.674611
          Atomic-Atomic Spin Densities.
               1          2          3          4          5          6
     1  Si   0.582607   0.021699  -0.000402  -0.010517  -0.000402  -0.000403
     2  Si   0.021699   0.582608  -0.010517  -0.000402  -0.010515  -0.010518
     3  H   -0.000402  -0.010517  -0.015307   0.000004   0.001182   0.001183
     4  H   -0.010517  -0.000402   0.000004  -0.015304   0.000001   0.000004
     5  H   -0.000402  -0.010515   0.001182   0.000001  -0.015307   0.001184
     6  H   -0.000403  -0.010518   0.001183   0.000004   0.001184  -0.015303
     7  H   -0.010516  -0.000402   0.000001   0.001183   0.000004   0.000004
     8  H   -0.010516  -0.000402   0.000004   0.001184   0.000004   0.000001
               7          8
     1  Si  -0.010516  -0.010516
     2  Si  -0.000402  -0.000402
     3  H    0.000001   0.000004
     4  H    0.001183   0.001184
     5  H    0.000004   0.000004
     6  H    0.000004   0.000001
     7  H   -0.015307   0.001182
     8  H    0.001182  -0.015306
 Mulliken charges and spin densities:
               1          2
     1  Si   0.529121   0.571551
     2  Si   0.529121   0.571551
     3  H   -0.009705  -0.023852
     4  H   -0.009709  -0.023849
     5  H   -0.009703  -0.023850
     6  H   -0.009713  -0.023849
     7  H   -0.009705  -0.023852
     8  H   -0.009707  -0.023850
 Sum of Mulliken charges =   1.00000   1.00000
 Mulliken charges and spin densities with hydrogens summed into heavy atoms:
               1          2
     1  Si   0.500000   0.500000
     2  Si   0.500000   0.500000
 Electronic spatial extent (au):  <R**2>=           1086.1871
 Charge=              1.0000 electrons
 Dipole moment (field-independent basis, Debye):
    X=             -0.0000    Y=             -0.0000    Z=              0.0000  Tot=              0.0000
 Quadrupole moment (field-independent basis, Debye-Ang):
   XX=             18.0003   YY=            -26.2382   ZZ=            -26.2379
   XY=              0.0007   XZ=              0.0000   YZ=             -0.0000
 Traceless Quadrupole moment (field-independent basis, Debye-Ang):
   XX=             29.4922   YY=            -14.7462   ZZ=            -14.7460
   XY=              0.0007   XZ=              0.0000   YZ=             -0.0000
 Octapole moment (field-independent basis, Debye-Ang**2):
  XXX=             -0.0000  YYY=              0.0000  ZZZ=              0.0002  XYY=             -0.0000
  XXY=             -0.0000  XXZ=              0.0009  XZZ=              0.0000  YZZ=              0.0000
  YYZ=             -0.0003  XYZ=             -0.0003
 Hexadecapole moment (field-independent basis, Debye-Ang**3):
 XXXX=           -919.2259 YYYY=            -68.3028 ZZZZ=            -68.3036 XXXY=              0.0167
 XXXZ=              0.0028 YYYX=             -3.1081 YYYZ=             -0.0000 ZZZX=              0.0002
 ZZZY=              0.0001 XXYY=           -234.1909 XXZZ=           -234.1928 YYZZ=            -22.7680
 XXYZ=             -0.0009 YYXZ=              0.0005 ZZXY=              3.1141
 N-N= 5.780206427762D+01 E-N=-1.495216164981D+03  KE= 5.812155181494D+02
                          Isotropic Fermi Contact Couplings
        Atom                 a.u.       MegaHertz       Gauss      10(-4) cm-1
     1  Si(29)             0.08853     -78.68010     -28.07502     -26.24486
     2  Si(29)             0.08853     -78.68016     -28.07504     -26.24488
     3  H(1)              -0.00624     -27.88565      -9.95029      -9.30165
     4  H(1)              -0.00624     -27.88266      -9.94923      -9.30066
     5  H(1)              -0.00624     -27.88460      -9.94992      -9.30130
     6  H(1)              -0.00624     -27.88171      -9.94889      -9.30034
     7  H(1)              -0.00624     -27.88576      -9.95033      -9.30169
     8  H(1)              -0.00624     -27.88359      -9.94956      -9.30097
 --------------------------------------------------------
       Center         ----  Spin Dipole Couplings  ----
                      3XX-RR        3YY-RR        3ZZ-RR
 --------------------------------------------------------
     1   Atom        0.942338     -0.471193     -0.471145
     2   Atom        0.942338     -0.471193     -0.471145
     3   Atom        0.004700      0.008081     -0.012781
     4   Atom        0.004700     -0.007568      0.002868
     5   Atom        0.004700     -0.007565      0.002864
     6   Atom        0.004700     -0.007567      0.002867
     7   Atom        0.004700      0.008081     -0.012781
     8   Atom        0.004700     -0.007564      0.002863
 --------------------------------------------------------
                        XY            XZ            YZ
 --------------------------------------------------------
     1   Atom        0.000395     -0.000167      0.000000
     2   Atom        0.000368      0.000450      0.000000
     3   Atom       -0.001426      0.000005      0.000001
     4   Atom        0.000714     -0.001232     -0.009033
     5   Atom        0.000718     -0.001232     -0.009034
     6   Atom        0.000712      0.001232      0.009034
     7   Atom       -0.001427     -0.000002     -0.000002
     8   Atom        0.000717      0.001232      0.009035
 --------------------------------------------------------


 ---------------------------------------------------------------------------------
              Anisotropic Spin Dipole Couplings in Principal Axis System
 ---------------------------------------------------------------------------------

       Atom             a.u.   MegaHertz   Gauss  10(-4) cm-1        Axes

              Baa    -0.4712    49.986    17.836    16.674 -0.0003  1.0000 -0.0074
     1 Si(29) Bbb    -0.4711    49.981    17.834    16.672  0.0001  0.0074  1.0000
              Bcc     0.9423   -99.967   -35.671   -33.345  1.0000  0.0003 -0.0001
 
              Baa    -0.4712    49.986    17.836    16.674 -0.0003  1.0000 -0.0047
     2 Si(29) Bbb    -0.4711    49.981    17.834    16.672 -0.0003  0.0047  1.0000
              Bcc     0.9423   -99.967   -35.671   -33.345  1.0000  0.0003  0.0003
 
              Baa    -0.0128    -6.819    -2.433    -2.275 -0.0003 -0.0000  1.0000
     3 H(1)   Bbb     0.0042     2.229     0.796     0.744  0.9392  0.3433  0.0003
              Bcc     0.0086     4.590     1.638     1.531 -0.3433  0.9392 -0.0001
 
              Baa    -0.0128    -6.820    -2.433    -2.275 -0.0002  0.8661  0.4999
     4 H(1)   Bbb     0.0042     2.230     0.796     0.744  0.9394 -0.1713  0.2970
              Bcc     0.0086     4.589     1.638     1.531 -0.3428 -0.4697  0.8136
 
              Baa    -0.0128    -6.820    -2.433    -2.275 -0.0003  0.8660  0.5000
     5 H(1)   Bbb     0.0042     2.230     0.796     0.744  0.9392 -0.1714  0.2974
              Bcc     0.0086     4.590     1.638     1.531 -0.3433 -0.4698  0.8133
 
              Baa    -0.0128    -6.820    -2.433    -2.275 -0.0001  0.8660 -0.5000
     6 H(1)   Bbb     0.0042     2.231     0.796     0.744  0.9395 -0.1713 -0.2968
              Bcc     0.0086     4.589     1.638     1.531  0.3427  0.4697  0.8136
 
              Baa    -0.0128    -6.819    -2.433    -2.275  0.0001  0.0001  1.0000
     7 H(1)   Bbb     0.0042     2.229     0.796     0.744  0.9392  0.3433 -0.0001
              Bcc     0.0086     4.590     1.638     1.531 -0.3433  0.9392 -0.0001
 
              Baa    -0.0128    -6.820    -2.433    -2.275 -0.0003  0.8660 -0.5001
     8 H(1)   Bbb     0.0042     2.230     0.796     0.744  0.9393 -0.1713 -0.2972
              Bcc     0.0086     4.590     1.638     1.531  0.3431  0.4698  0.8134
 

 ---------------------------------------------------------------------------------

 No NMR shielding tensors so no spin-rotation constants.
 Leave Link  601 at Mon Apr 21 20:18:31 2025, MaxMem=   536870912 cpu:               2.3 elap:               0.3
 (Enter /home/szhao/Apps/g16/l9999.exe)
 1\1\GINC-NODE05\FOpt\UM062X\6-311+G(d,p)\H6Si2(1+,2)\SZHAO\21-Apr-2025
 \0\\#p opt UM062X/6-311+G** nosymm int=superfine\\Title Card Required\
 \1,2\Si,-2.87629201,0.,0.\Si,2.87629201,0.,0.\H,2.9591249558,-1.461460
 8236,-0.0000316695\H,-2.9583761172,-0.7305814201,1.2657910103\H,2.9589
 321037,0.7307768931,-1.2656417363\H,2.9581429251,0.730663334,1.2657590
 12\H,-2.9591524704,1.4614593125,-0.0001633521\H,-2.9586705976,-0.73086
 152,-1.2656102395\\Version=ES64L-G16RevA.03\HF=-582.1276836\S2=0.75420
 3\S2-1=0.\S2A=0.750014\RMSD=1.288e-09\RMSF=4.696e-06\Dipole=-0.0000007
 ,-0.0000006,0.0000098\Quadrupole=21.9267304,-10.9634622,-10.9632682,0.
 0005339,0.0000133,-0.000021\PG=C01 [X(H6Si2)]\\@


 LIVE PURE, SPEAK TRUE, RIGHT WRONG, FOLLOW THE KING...
 ELSE, WHEREFORE BORN......
           IDYLLS OF THE KING, TENNYSON
 Job cpu time:       0 days  0 hours  7 minutes 13.4 seconds.
 Elapsed time:       0 days  0 hours  1 minutes  2.2 seconds.
 File lengths (MBytes):  RWF=     22 Int=      0 D2E=      0 Chk=      3 Scr=      2
 Normal termination of Gaussian 16 at Mon Apr 21 20:18:32 2025.
