Title Card Required                                                     
FOpt      UM062X                                                      6-311+G(d,p)        
Number of atoms                            I                4
Info1-9                                    I   N=           9
          15          14           0           0           0         110
           2          18        -502
Full Title                                 C   N=           2
Title Card Required     
Route                                      C   N=           8
#p opt UM062X/6-311+G** nosymm int=superfine SCF=(MaxCycle=2
00,NoVarAcc,noincfock) guess=read   
Charge                                     I                0
Multiplicity                               I                1
Number of electrons                        I               26
Number of alpha electrons                  I               13
Number of beta electrons                   I               13
Number of basis functions                  I               64
Number of independent functions            I               64
Number of point charges in /Mol/           I                0
Number of translation vectors              I                0
Atomic numbers                             I   N=           4
           8          16           1           1
Nuclear charges                            R   N=           4
  8.00000000E+00  1.60000000E+01  1.00000000E+00  1.00000000E+00
Current cartesian coordinates              R   N=          12
 -2.24122841E+00  0.00000000E+00  0.00000000E+00  2.24122841E+00  0.00000000E+00
  0.00000000E+00 -2.36288092E+00 -3.15205817E-01  1.79838907E+00  2.11122793E+00
 -2.13095218E+00 -1.37690042E+00
Number of symbols in /Mol/                 I                0
Force Field                                I                0
Atom Types                                 C   N=           4
                                                
Int Atom Types                             I   N=           4
           0           0           0           0
MM charges                                 R   N=           4
  0.00000000E+00  0.00000000E+00  0.00000000E+00  0.00000000E+00
Integer atomic weights                     I   N=           4
          16          32           1           1
Real atomic weights                        R   N=           4
  1.59949146E+01  3.19720718E+01  1.00782504E+00  1.00782504E+00
Atom fragment info                         I   N=           4
           0           0           0           0
Atom residue num                           I   N=           4
           0           0           0           0
Nuclear spins                              I   N=           4
           0           0           1           1
Nuclear ZEff                               R   N=           4
 -5.60000000E+00 -1.36000000E+01 -1.00000000E+00 -1.00000000E+00
Nuclear ZNuc                               R   N=           4
  8.00000000E+00  1.60000000E+01  1.00000000E+00  1.00000000E+00
Nuclear QMom                               R   N=           4
  0.00000000E+00  0.00000000E+00  0.00000000E+00  0.00000000E+00
Nuclear GFac                               R   N=           4
  0.00000000E+00  0.00000000E+00  2.79284600E+00  2.79284600E+00
MicOpt                                     I   N=           4
          -2          -2          -1          -1
Number of residues                         I                0
Number of secondary structures             I                0
Redundant internal dimensions              I   N=           4
          11           8           2           1
Redundant internal coordinate indices      I   N=          44
           1          -1           0           0           1          -2
           0           0           1          -3           0           0
           2          -1           0           0           2          -2
           0           0           2          -3           0           0
           1           3           0           0           2           4
           0           0           2           1           3           0
           1           2           4           0           3           1
           2           4
Redundant internal coordinates             R   N=          11
 -2.24122841E+00  0.00000000E+00  0.00000000E+00  2.24122841E+00  0.00000000E+00
  0.00000000E+00  1.82985172E+00  2.54041573E+00  1.63732757E+00  1.51960105E+00
  1.97094674E+00
ZRed-IntVec                                I   N=          11
          -1          -1          -1          -1          -1          -1
           0           0           0           0           0
ZRed-FPVec                                 R   N=          11
  0.00000000E+00  0.00000000E+00  0.00000000E+00  0.00000000E+00  0.00000000E+00
  0.00000000E+00  0.00000000E+00  0.00000000E+00  0.00000000E+00  0.00000000E+00
  0.00000000E+00
ZRed-Constraint1                           R   N=          11
 -2.24122841E+00  0.00000000E+00  0.00000000E+00  2.24122841E+00  0.00000000E+00
  0.00000000E+00  1.82911975E+00  2.53958759E+00  1.62148707E+00  1.51770835E+00
  1.88905999E+00
ZRed-Constraint2                           R   N=          11
 -2.24122841E+00  0.00000000E+00  0.00000000E+00  2.24122841E+00  0.00000000E+00
  0.00000000E+00  0.00000000E+00  0.00000000E+00  0.00000000E+00  0.00000000E+00
  0.00000000E+00
Number of contracted shells                I               27
Number of primitive shells                 I               49
Pure/Cartesian d shells                    I                0
Pure/Cartesian f shells                    I                0
Highest angular momentum                   I                2
Largest degree of contraction              I                6
Shell types                                I   N=          27
           0          -1          -1          -1          -1          -2
           0           0           0           0           0           0
          -1           1           1           1           1           1
          -2           0           0           0           1           0
           0           0           1
Number of primitives per shell             I   N=          27
           6           3           1           1           1           1
           6           3           1           1           1           1
           1           4           2           1           1           1
           1           3           1           1           1           3
           1           1           1
Shell to atom map                          I   N=          27
           1           1           1           1           1           1
           2           2           2           2           2           2
           2           2           2           2           2           2
           2           3           3           3           3           4
           4           4           4
Primitive exponents                        R   N=          49
  8.58850000E+03  1.29723000E+03  2.99296000E+02  8.73771000E+01  2.56789000E+01
  3.74004000E+00  4.21175000E+01  9.62837000E+00  2.85332000E+00  9.05661000E-01
  2.55611000E-01  8.45000000E-02  1.29200000E+00  9.34134000E+04  1.39617000E+04
  3.16991000E+03  9.02456000E+02  2.97158000E+02  1.08702000E+02  1.08702000E+02
  4.31553000E+01  1.81079000E+01  5.56009000E+00  2.13183000E+00  4.20403000E-01
  1.36045000E-01  4.05000000E-02  4.95040000E+02  1.17221000E+02  3.77749000E+01
  1.40584000E+01  5.56574000E+00  2.26297000E+00  8.07994000E-01  2.77460000E-01
  7.71410000E-02  6.50000000E-01  3.38650000E+01  5.09479000E+00  1.15879000E+00
  3.25840000E-01  1.02741000E-01  7.50000000E-01  3.38650000E+01  5.09479000E+00
  1.15879000E+00  3.25840000E-01  1.02741000E-01  7.50000000E-01
Contraction coefficients                   R   N=          49
  1.89515008E-03  1.43859006E-02  7.07320031E-02  2.40001011E-01  5.94797026E-01
  2.80802012E-01  1.13889012E-01  9.20811101E-01 -3.27447036E-03  1.00000000E+00
  1.00000000E+00  1.00000000E+00  1.00000000E+00  7.42999957E-04  5.79299966E-03
  2.99539983E-02  1.19027993E-01  3.68431979E-01  5.77298966E-01  1.43186060E-01
  6.24465262E-01  2.83366119E-01  1.00000000E+00  1.00000000E+00  1.00000000E+00
  1.00000000E+00  1.00000000E+00  8.30900251E-03  6.40240194E-02  2.77614084E-01
  7.45076225E-01  6.13711672E-01  4.43817763E-01  1.00000000E+00  1.00000000E+00
  1.00000000E+00  1.00000000E+00  2.54938145E-02  1.90373109E-01  8.52161486E-01
  1.00000000E+00  1.00000000E+00  1.00000000E+00  2.54938145E-02  1.90373109E-01
  8.52161486E-01  1.00000000E+00  1.00000000E+00  1.00000000E+00
P(S=P) Contraction coefficients            R   N=          49
  0.00000000E+00  0.00000000E+00  0.00000000E+00  0.00000000E+00  0.00000000E+00
  0.00000000E+00  3.65113974E-02  2.37152983E-01  8.19701941E-01  1.00000000E+00
  1.00000000E+00  1.00000000E+00  0.00000000E+00  0.00000000E+00  0.00000000E+00
  0.00000000E+00  0.00000000E+00  0.00000000E+00  0.00000000E+00  0.00000000E+00
  0.00000000E+00  0.00000000E+00  0.00000000E+00  0.00000000E+00  0.00000000E+00
  0.00000000E+00  1.00000000E+00  0.00000000E+00  0.00000000E+00  0.00000000E+00
  0.00000000E+00  0.00000000E+00  0.00000000E+00  0.00000000E+00  0.00000000E+00
  0.00000000E+00  0.00000000E+00  0.00000000E+00  0.00000000E+00  0.00000000E+00
  0.00000000E+00  0.00000000E+00  0.00000000E+00  0.00000000E+00  0.00000000E+00
  0.00000000E+00  0.00000000E+00  0.00000000E+00  0.00000000E+00
Coordinates of each shell                  R   N=          81
 -2.24122841E+00  0.00000000E+00  0.00000000E+00 -2.24122841E+00  0.00000000E+00
  0.00000000E+00 -2.24122841E+00  0.00000000E+00  0.00000000E+00 -2.24122841E+00
  0.00000000E+00  0.00000000E+00 -2.24122841E+00  0.00000000E+00  0.00000000E+00
 -2.24122841E+00  0.00000000E+00  0.00000000E+00  2.24122841E+00  0.00000000E+00
  0.00000000E+00  2.24122841E+00  0.00000000E+00  0.00000000E+00  2.24122841E+00
  0.00000000E+00  0.00000000E+00  2.24122841E+00  0.00000000E+00  0.00000000E+00
  2.24122841E+00  0.00000000E+00  0.00000000E+00  2.24122841E+00  0.00000000E+00
  0.00000000E+00  2.24122841E+00  0.00000000E+00  0.00000000E+00  2.24122841E+00
  0.00000000E+00  0.00000000E+00  2.24122841E+00  0.00000000E+00  0.00000000E+00
  2.24122841E+00  0.00000000E+00  0.00000000E+00  2.24122841E+00  0.00000000E+00
  0.00000000E+00  2.24122841E+00  0.00000000E+00  0.00000000E+00  2.24122841E+00
  0.00000000E+00  0.00000000E+00 -2.36288092E+00 -3.15205817E-01  1.79838907E+00
 -2.36288092E+00 -3.15205817E-01  1.79838907E+00 -2.36288092E+00 -3.15205817E-01
  1.79838907E+00 -2.36288092E+00 -3.15205817E-01  1.79838907E+00  2.11122793E+00
 -2.13095218E+00 -1.37690042E+00  2.11122793E+00 -2.13095218E+00 -1.37690042E+00
  2.11122793E+00 -2.13095218E+00 -1.37690042E+00  2.11122793E+00 -2.13095218E+00
 -1.37690042E+00
Num ILSW                                   I              100
ILSW                                       I   N=         100
           1           0           0           1           2           0
           0           0           0           0        4336          -1
           7           0           0           0           2           0
           0           0           0           0           1           0
           1           1           0           0           0           0
           0           0      100000           0          -1           0
           0           0           0           0           0           0
           0           0           0           1           0           0
           0 -2000000000           1           0           0           0
           0           0           4          52           0           0
           0           0          55           0           0           0
           0           0           0           4           0           1
           0           0           0           0           0           0
           0           0           0           0           0           0
           0           0           0           0           0           0
           0           0           0           0           0           0
           0           0           0           0
Num RLSW                                   I               52
RLSW                                       R   N=          52
  1.00000000E+00  1.00000000E+00  1.00000000E+00  1.00000000E+00  5.40000000E-01
  0.00000000E+00  0.00000000E+00  1.00000000E+00  0.00000000E+00  0.00000000E+00
  0.00000000E+00  0.00000000E+00  1.00000000E+00  0.00000000E+00  0.00000000E+00
  0.00000000E+00  0.00000000E+00  1.00000000E+00  0.00000000E+00  0.00000000E+00
  0.00000000E+00  0.00000000E+00  1.00000000E+00  0.00000000E+00  0.00000000E+00
  0.00000000E+00  0.00000000E+00  1.00000000E+00  0.00000000E+00  0.00000000E+00
  0.00000000E+00  0.00000000E+00  1.00000000E+00  0.00000000E+00  0.00000000E+00
  0.00000000E+00  0.00000000E+00  0.00000000E+00  1.00000000E+00  1.00000000E+00
  0.00000000E+00  1.00000000E+00  0.00000000E+00  0.00000000E+00  0.00000000E+00
  0.00000000E+00  0.00000000E+00  0.00000000E+00  0.00000000E+00  0.00000000E+00
  0.00000000E+00  0.00000000E+00
MxBond                                     I                2
NBond                                      I   N=           4
           2           2           1           1
IBond                                      I   N=           8
           2           3           1           4           1           0
           2           0
RBond                                      R   N=           8
  1.00000000E-01  1.00000000E+00  1.00000000E-01  1.00000000E+00  1.00000000E+00
  0.00000000E+00  1.00000000E+00  0.00000000E+00
Virial Ratio                               R      2.002078752691201E+00
SCF Energy                                 R     -4.744818471084166E+02
Total Energy                               R     -4.744818471084166E+02
S**2                                       R      1.243449787580175E-14
S**2 after annihilation                    R     -9.769962616701291E-13
RMS Force                                  R      3.759747286380419E-06
RMS Density                                R      1.177171656855433E-09
Job Status                                 I                1
Nuclear derivative order                   I                1
External E-field                           R   N=          35
  0.00000000E+00  0.00000000E+00  0.00000000E+00  0.00000000E+00  0.00000000E+00
  0.00000000E+00  0.00000000E+00  0.00000000E+00  0.00000000E+00  0.00000000E+00
  0.00000000E+00  0.00000000E+00  0.00000000E+00  0.00000000E+00  0.00000000E+00
  0.00000000E+00  0.00000000E+00  0.00000000E+00  0.00000000E+00  0.00000000E+00
  0.00000000E+00  0.00000000E+00  0.00000000E+00  0.00000000E+00  0.00000000E+00
  0.00000000E+00  0.00000000E+00  0.00000000E+00  0.00000000E+00  0.00000000E+00
  0.00000000E+00  0.00000000E+00  0.00000000E+00  0.00000000E+00  0.00000000E+00
IOpCl                                      I                1
IROHF                                      I                0
Alpha Orbital Energies                     R   N=          64
 -8.99712827E+01 -1.96732531E+01 -8.33154576E+00 -6.25372341E+00 -6.25006025E+00
 -6.24463015E+00 -1.09260126E+00 -8.29520140E-01 -5.31300800E-01 -4.91884804E-01
 -4.07086462E-01 -3.97775092E-01 -3.46050762E-01 -1.39639166E-01  1.54252955E-02
  4.12712646E-02  4.82872544E-02  5.75252397E-02  7.60130548E-02  1.53054578E-01
  1.95039673E-01  1.99979265E-01  2.16793936E-01  2.71367815E-01  3.15151573E-01
  3.39654428E-01  3.51991957E-01  4.05080303E-01  5.49886101E-01  6.15942272E-01
  7.18414023E-01  7.28148433E-01  7.95198377E-01  8.01170915E-01  9.76550523E-01
  1.04956912E+00  1.09198165E+00  1.15521611E+00  1.37462092E+00  1.39771427E+00
  1.41191998E+00  1.47362360E+00  1.50513333E+00  1.65303354E+00  1.66879146E+00
  1.79385250E+00  2.07255718E+00  2.10244596E+00  2.48765247E+00  2.56580117E+00
  2.89315944E+00  2.93495359E+00  3.17520257E+00  3.18859716E+00  3.85605252E+00
  5.05550800E+00  5.08258717E+00  5.53322470E+00  7.85598192E+00  1.74146758E+01
  1.74606568E+01  1.74666547E+01  4.98903337E+01  1.89120244E+02
Beta Orbital Energies                      R   N=          64
 -8.99712827E+01 -1.96732531E+01 -8.33154576E+00 -6.25372341E+00 -6.25006025E+00
 -6.24463015E+00 -1.09260126E+00 -8.29520140E-01 -5.31300800E-01 -4.91884804E-01
 -4.07086462E-01 -3.97775092E-01 -3.46050762E-01 -1.39639166E-01  1.54252955E-02
  4.12712646E-02  4.82872544E-02  5.75252397E-02  7.60130548E-02  1.53054578E-01
  1.95039673E-01  1.99979265E-01  2.16793936E-01  2.71367815E-01  3.15151573E-01
  3.39654428E-01  3.51991957E-01  4.05080303E-01  5.49886101E-01  6.15942272E-01
  7.18414023E-01  7.28148433E-01  7.95198377E-01  8.01170915E-01  9.76550523E-01
  1.04956912E+00  1.09198165E+00  1.15521611E+00  1.37462092E+00  1.39771427E+00
  1.41191998E+00  1.47362360E+00  1.50513333E+00  1.65303354E+00  1.66879146E+00
  1.79385250E+00  2.07255718E+00  2.10244596E+00  2.48765247E+00  2.56580117E+00
  2.89315944E+00  2.93495359E+00  3.17520257E+00  3.18859716E+00  3.85605252E+00
  5.05550800E+00  5.08258717E+00  5.53322470E+00  7.85598192E+00  1.74146758E+01
  1.74606568E+01  1.74666547E+01  4.98903337E+01  1.89120244E+02
Alpha MO coefficients                      R   N=        4096
 -2.74882966E-07  7.29740141E-07 -6.78323999E-06 -4.01316479E-07  1.62589749E-06
 -6.93738096E-06  1.49734233E-05  1.57730326E-06 -8.31934999E-06 -1.46828232E-05
  6.01490074E-06  1.12351386E-07 -2.94672783E-06  2.31141651E-04  1.36595614E-04
 -1.12714356E-05  4.49765254E-05 -7.05820774E-06 -1.08819438E-06  4.71629804E-07
  1.04395028E-05  5.10792482E-07  4.10787612E-01  6.54410561E-01  1.53540506E-02
 -4.35986656E-03  1.65525281E-03 -1.01312072E-03  7.52182267E-05 -6.63187473E-05
 -2.08645517E-05 -1.22867351E-05 -5.45955447E-05 -6.48799588E-05 -3.78799794E-05
  1.39835496E-05  2.20236741E-05  1.31119557E-05 -3.27496033E-06  2.39055134E-06
  2.24368094E-06 -2.49031014E-05 -1.38089603E-04 -8.94331165E-05  2.02283102E-04
  1.61201025E-04  9.96897401E-05 -1.74621231E-06  3.33399140E-06  6.55242946E-05
 -5.54501199E-05  4.34282348E-06 -6.58011661E-06  1.81302075E-05 -9.81868512E-05
  6.44982897E-06  6.14326161E-08 -1.32377209E-05  1.98764868E-05 -1.82872792E-04
  2.62211636E-04 -1.06789281E-05 -1.41224761E-04 -9.16534331E-05  5.52861468E-01
  4.69676083E-01  5.82937771E-04 -2.29106088E-04  1.23062583E-03  8.10810570E-03
 -1.76802645E-04  2.47607515E-05 -1.39722085E-04 -3.32443215E-03 -1.27373171E-04
 -3.07094955E-05  2.27800664E-04  3.01611300E-03  5.11191991E-04 -5.81567526E-05
  2.75786221E-04  1.36926779E-04 -1.75635601E-05 -3.93550125E-05 -1.97656648E-05
  2.69420623E-06  9.11829708E-08  2.30125271E-07 -7.60798246E-07  2.86037284E-06
 -7.18301408E-05 -6.43797490E-06 -8.07292109E-04  4.37765713E-04  1.29721419E-05
  5.09221103E-05  8.38091503E-06  1.57986380E-09 -1.78676419E-07 -1.53975022E-05
 -1.98271179E-06  4.44246265E-07  8.34375073E-05  1.40824991E-05  3.30684893E-06
 -1.13706017E-04 -6.62426715E-05 -3.32784577E-05  1.68349939E-04  3.44551877E-05
 -1.41611292E-05 -3.00871491E-05  1.03483821E-05  2.71514288E-05  3.31994512E-05
  1.42606947E-05  8.34399918E-05 -9.22180965E-05 -8.78842664E-04 -1.71214555E-05
 -7.68210409E-05  4.29426366E-04  3.79329873E-05 -1.79126787E-04  1.51995810E-04
  6.14499483E-05 -3.33689770E-05 -2.52569675E-05 -6.48869759E-06 -1.24678543E-05
 -7.52615808E-05 -4.37461480E-06  2.41960214E-05  2.15298144E-05  4.00972010E-04
  2.70224637E-05 -1.39834061E-04 -4.16804528E-04 -1.52183174E-04  3.26632100E-05
 -2.30271749E-04  3.11509343E-03  1.90314678E-03 -1.71402636E-04  7.16776393E-04
 -1.32529497E-04 -2.14318880E-05  2.07962179E-05  1.21796284E-04  5.92326501E-06
 -1.19761037E-01 -3.20484729E-01  5.16066188E-01  5.98839508E-01  4.33927263E-02
 -1.62401016E-02  1.59341688E-03 -9.12034608E-04 -2.35948688E-04 -1.27397182E-04
 -1.41565797E-03 -1.60750019E-03 -9.19922007E-04 -3.26489860E-03 -3.62656795E-03
 -2.07619252E-03 -3.74108823E-04 -3.66802682E-04 -1.91224227E-04 -3.12868020E-04
 -1.47453089E-03 -9.41857064E-04  2.61547237E-03  2.01577519E-03  1.22338421E-03
 -3.56767389E-04 -2.10557814E-05  9.71802502E-04 -2.44211937E-04 -3.28906941E-05
 -1.16059207E-04  6.06384537E-04 -1.58748181E-03  1.66377562E-04  2.12905149E-05
 -2.63532024E-04  9.43143293E-05 -1.66817673E-03  3.33371159E-03 -1.08532122E-04
 -1.32502600E-03 -8.61490124E-04 -4.61283707E-07 -2.15398037E-05 -4.58258056E-05
 -2.08698255E-06  1.32655946E-05  3.20018841E-04  2.11171485E-04  1.28649164E-05
 -6.90497143E-05 -9.15734361E-04 -8.92706573E-04  1.16007638E-04 -5.12652917E-04
  1.28207773E-03  9.91454418E-04 -9.41933162E-05  3.05526186E-04 -3.25847368E-05
 -2.60458183E-05  3.24544384E-05 -1.34083265E-04  3.66911085E-06 -3.62879880E-04
 -9.94603917E-04  1.85977139E-03  1.45303252E-03  2.83649738E-05  1.28694507E-04
 -5.22247593E-04 -2.39808113E-03  4.45201198E-04  3.01609994E-04  3.67912980E-01
 -7.61563049E-02 -4.85272219E-02  6.88520850E-01 -1.42467930E-01 -9.07611975E-02
  5.35479166E-02 -1.10012210E-02 -7.03095174E-03 -7.76024984E-03  1.30732334E-03
  8.68909110E-04  4.99150386E-03 -8.79501262E-04 -6.05591847E-04  6.81686242E-05
 -1.98391485E-04  1.91244315E-04 -3.12357344E-04 -3.59672982E-04 -3.32003595E-05
  9.82805498E-04 -7.93718697E-04  1.86315169E-04  4.36668711E-05 -1.96265057E-04
  1.39746230E-04 -2.53092728E-04 -1.03178807E-04  1.23855870E-04 -2.02339730E-04
 -1.35426371E-04 -4.61584154E-08 -4.84781874E-06 -1.87538087E-05  3.93513872E-06
  8.31182876E-06  7.06465446E-05  7.15441061E-05 -2.32028124E-06 -3.37830781E-05
 -1.61115918E-04 -2.41453416E-04 -3.79603091E-07 -9.35647203E-05 -5.05010449E-05
  1.61592940E-04  2.99847842E-06 -1.51265592E-04 -2.88299087E-06 -1.84377909E-06
  1.24538786E-05 -3.26987301E-05  6.96257104E-06 -8.34976266E-04 -2.26102835E-03
  4.01385258E-03  4.01578040E-03 -7.30375825E-04 -2.25692516E-04 -6.16870478E-04
 -4.32090799E-04 -1.58710556E-03 -1.03963741E-03  9.03940297E-02  3.08349923E-01
  2.01943847E-01  1.68924404E-01  5.75974546E-01  3.77217861E-01  1.28541618E-02
  4.36671652E-02  2.85923152E-02 -1.81061273E-03 -5.67083126E-03 -3.70871061E-03
  1.07944335E-03  3.57725291E-03  2.34360123E-03  1.02694297E-04 -2.30448877E-04
 -5.34418302E-04  3.63608153E-04 -3.63856261E-04  3.38181830E-07  1.32375003E-04
  2.83676679E-04  4.26204057E-05 -1.87138665E-05 -6.47633323E-05 -5.36739012E-04
 -1.73984030E-04  1.18078029E-03  2.19749195E-06  5.16801450E-04  3.40870604E-04
  4.66355444E-07  2.39398130E-06  9.24543294E-07 -2.73698423E-06  5.09835293E-06
 -2.77137426E-05 -3.27706514E-06  3.90137595E-06 -1.33301118E-05  1.28055707E-04
  1.84653940E-05 -4.53736327E-06  9.83063497E-05 -1.83041303E-04  2.82116936E-05
  3.49395713E-05 -1.52176274E-04  1.68669963E-05  1.12258154E-05 -7.69744679E-06
  1.91510057E-07 -4.19900439E-06  4.50755088E-05  1.22267898E-04 -2.17893820E-04
 -2.15864079E-04  5.98353622E-05 -5.07099497E-05 -3.08869374E-05  3.42497131E-05
  1.15275928E-03 -1.77328850E-03 -1.10780611E-03 -2.08128517E-01  3.18291488E-01
 -2.05027566E-03 -3.88118920E-01  5.93546965E-01 -1.68684948E-04 -2.84072773E-02
  4.34374285E-02  4.96993840E-05  3.83661819E-03 -5.84910779E-03 -1.25083838E-05
 -2.19970528E-03  3.40344727E-03 -3.11487624E-04 -2.40314891E-04 -2.00800477E-04
 -1.98325630E-04  1.57333305E-04  1.92330147E-05 -2.61939344E-04  3.35696391E-04
 -4.21112276E-05  8.16841428E-06  6.93228231E-06  2.04457177E-06  2.26411266E-05
  1.53654778E-05 -1.47528779E-06 -4.74532396E-05  8.44155667E-05 -1.17293934E-01
 -1.93013453E-01  2.93712323E-03 -8.39699361E-03  4.52742801E-02  5.61614650E-01
  2.80525505E-03 -1.36575686E-02  7.37934006E-02  4.33733743E-01  1.92675791E-02
 -6.84361838E-03  3.23217533E-02 -3.81250737E-02 -1.40749502E-02  1.49928193E-03
 -9.05160647E-03  9.51369040E-03 -3.66628701E-04 -3.88926684E-03  5.24772935E-03
  8.80186324E-05  2.70375559E-03  7.65799589E-03 -1.58425224E-02 -2.94000040E-02
  5.00144015E-02  3.72070875E-02  1.07135567E-02 -7.12265651E-03  1.62158066E-04
 -1.20805042E-04  4.32325561E-03  5.00005920E-04  4.97464974E-05  8.35399790E-03
  1.00610734E-03  1.24641960E-04 -9.81683991E-03 -1.21499747E-03 -1.97721921E-04
 -2.39221338E-02 -1.72015822E-03  4.26267521E-04 -4.40933671E-03 -1.96246423E-03
  3.08803061E-05 -3.59025037E-03 -5.06446591E-04  1.08517748E-03  5.32802518E-03
  5.23177754E-04  1.08764346E-01  7.93642593E-02  2.29902418E-02  1.03556329E-03
  4.01308363E-03 -2.24514099E-02  5.05746789E-03  5.40809762E-03 -2.78448443E-03
 -7.60781493E-04  1.12441022E-03  7.62929166E-04  1.24055275E-02  2.06615487E-02
  2.12654927E-02  8.61745502E-04 -1.15757558E-02 -6.43714279E-02  3.16423034E-02
  1.37696917E-03 -1.69612631E-02 -3.87973842E-02  2.69526869E-02 -1.07436706E-03
 -3.97272927E-03 -2.41431136E-02 -1.13844658E-02  1.27131818E-03 -5.20205231E-03
 -2.50863189E-03  1.14758508E-03  3.97327733E-04  1.96317928E-03 -4.64726219E-04
  3.30759079E-02  9.40170124E-02 -1.97578794E-01 -3.64076837E-01  6.57488559E-01
  4.13473777E-01 -5.54310223E-03  4.47666762E-03 -2.65685811E-04 -2.31790467E-03
 -9.27957399E-05  1.44236922E-02  8.82786120E-03 -1.20848794E-04  2.87548351E-02
  1.76282597E-02  1.26178231E-04 -3.97170012E-02 -2.46606566E-02  4.94553810E-03
 -5.50931224E-02 -3.23271033E-02 -1.13222330E-02 -9.81322618E-03 -1.57817808E-03
 -7.53177384E-03 -7.75619470E-04  2.21887993E-02 -6.76083136E-03  1.14738182E-05
 -1.77648199E-02 -2.60372700E-02  1.14243401E-02  1.08461983E-03 -1.05102476E-03
  5.84136326E-03  1.00969027E-01  1.30298924E-01  3.67714386E-03  2.61636113E-03
  1.90269616E-02  1.23791630E-02  3.74364944E-02  6.25517474E-02 -2.41512127E-02
 -4.09444263E-02  2.44177039E-01 -1.87981450E-01 -3.38370756E-02 -5.85707651E-02
  3.49222899E-01 -2.85597038E-01 -3.86571725E-02 -3.86399138E-02  2.38409885E-01
 -5.41199293E-02  4.70604651E-03 -2.98826668E-03  2.66314395E-02  1.83162060E-02
  1.08284851E-03 -5.40636959E-03 -2.90359175E-03 -9.87529622E-05  2.07261954E-03
  5.91913058E-03 -1.26972862E-02 -2.31674444E-02  4.49760714E-02  2.95880157E-02
  6.14425458E-03 -3.68863253E-03  1.44847746E-05 -5.02618112E-03 -9.35725953E-03
  1.63200569E-03 -7.41965709E-03 -1.80140430E-02  3.17423078E-03 -1.41475967E-02
  2.37218471E-02 -4.69688271E-03  1.89485090E-02  5.60701674E-02 -8.27315937E-03
  4.39230617E-02  1.53431434E-02 -6.46034325E-03  1.78871606E-02  3.19483425E-03
 -8.98287813E-03 -7.41577001E-04 -6.02565534E-03 -2.91588529E-04  1.64578109E-01
  2.58122951E-01  7.65775910E-02  4.85008763E-03  5.15671312E-03 -2.99357241E-02
  2.11192700E-04  2.84513882E-03 -8.02214705E-03  2.83562800E-03  5.39263045E-05
  1.28144440E-03  2.24831986E-03  3.89954516E-03  3.70177019E-02  4.26901342E-02
 -2.61038127E-03 -1.52375163E-02  5.42578921E-02  6.16740732E-02 -3.75694401E-03
  4.04637016E-03  5.51390953E-02  5.62855577E-02  8.54090299E-03 -1.03293023E-02
  7.58009972E-03  7.83937046E-03 -8.49481913E-03 -9.90451969E-04  3.00994331E-03
  1.95393856E-03  2.46650061E-03  1.63830632E-03  1.13344446E-02  3.23848030E-02
 -6.96372867E-02 -1.27030911E-01  2.32005554E-01  2.85433992E-01  1.85042914E-02
  9.14145640E-04 -1.80519967E-02 -1.39142173E-02 -5.30701740E-04 -6.78458247E-02
 -4.40615728E-02 -1.08790837E-03 -1.32099454E-01 -8.57847508E-02  3.35981878E-03
  1.92271098E-01  1.24710834E-01 -1.20915307E-03  3.35190233E-01  2.18049275E-01
  3.60747363E-03  8.83896629E-02  6.25451093E-02 -4.51377392E-04 -3.68113470E-03
 -3.74617916E-02  3.74908414E-02 -5.82606361E-03 -1.09230818E-02 -2.47548677E-02
  1.44211997E-02  4.54151787E-03  3.76724978E-03  5.13841858E-03 -1.55603787E-01
 -2.79728789E-01 -1.30417926E-01 -3.97621567E-03 -2.14336290E-02 -1.44582930E-02
 -1.25985958E-02 -2.15501106E-02 -1.89799126E-01  1.33322850E-01 -6.61414830E-03
  7.62529210E-02 -2.79880538E-01  1.94250556E-01 -1.00677500E-02  4.14934323E-02
 -2.86147541E-01  1.81031065E-01 -2.52154580E-02  9.40460012E-03 -4.45087823E-02
  4.23694256E-02  7.92058221E-03  2.65798170E-03 -1.04768749E-02  6.69505488E-03
 -4.87231533E-03  3.67703510E-03  3.53067480E-03  1.00838511E-02 -2.16609273E-02
 -4.05448138E-02  8.49875270E-02  4.40634576E-02  1.34206509E-02 -3.18849951E-02
 -9.89416467E-03  9.07056899E-03 -5.48136346E-02 -7.99810592E-03  9.80239197E-03
 -1.05693547E-01 -1.51728141E-02  1.89877241E-02  1.44322768E-01  2.12470753E-02
 -2.79856705E-02  3.27389738E-01  5.02535424E-02 -5.21881897E-02  1.34480094E-01
  3.49410456E-02 -3.57205922E-02  1.17641308E-02 -3.31299784E-03  2.92542622E-03
 -1.88757636E-02 -1.44304067E-02 -3.32448256E-03  1.88960017E-02 -2.02329721E-02
 -2.12962179E-02  1.59312617E-02 -4.71562896E-03  6.58781634E-03  1.64355437E-02
  1.06751789E-02  1.12588613E-02  3.29173113E-03 -6.00405327E-04  5.91065381E-03
  1.01095272E-02  8.76188048E-02  2.60112447E-01  6.49670971E-02 -3.54439845E-02
  1.29487064E-01  3.79086091E-01  9.48355784E-02 -2.08275757E-02  1.33386556E-01
  3.49631580E-01  9.23275515E-02 -2.13001804E-02  1.62135229E-02  7.93489529E-02
  1.17045721E-02  3.94268498E-03  5.07295492E-03  1.14339869E-02  5.17031955E-03
  1.70811053E-03 -3.62502413E-03 -1.03639047E-02  2.23557687E-02  4.11595804E-02
 -7.90773549E-02 -8.34504147E-02 -1.82592480E-02  1.82880123E-02  2.19363834E-03
  4.41911167E-03  2.88881557E-02  8.62200284E-03  1.63570407E-02  5.56442431E-02
  1.69466393E-02  3.16942315E-02 -7.61306184E-02 -2.66597495E-02 -4.71198492E-02
 -1.73478248E-01 -3.78447758E-02 -8.77981870E-02 -7.35647549E-02 -3.01903754E-03
 -2.81634483E-02 -4.21991336E-03 -8.07431649E-05  8.88548578E-03  2.08623364E-03
 -5.12086108E-03  5.48980572E-03 -1.48224511E-03  2.11473987E-02  9.48227322E-03
  3.01158689E-02  7.59256808E-03  3.16160238E-02  6.00985704E-02  4.13421753E-02
 -6.76253684E-04  5.88959348E-03  1.64096314E-03 -3.98540275E-03 -6.73638827E-03
 -1.82678305E-02  5.11098105E-02 -2.35904048E-02  2.16373044E-02 -2.67406561E-02
  7.45377674E-02 -3.46034658E-02  2.78634837E-02 -3.11196379E-02  6.79575053E-02