 Entering Gaussian System, Link 0=g16
 Initial command:
 /home/szhao/Apps/g16/l1.exe "/home/szhao/tmp/Gau-122874.inp" -scrdir="/home/szhao/tmp/"
 Default is to use a total of  16 processors:
                               16 via shared-memory
                                1 via Linda
 Entering Link 1 = /home/szhao/Apps/g16/l1.exe PID=    122933.
  
 Copyright (c) 1988,1990,1992,1993,1995,1998,2003,2009,2016,
            Gaussian, Inc.  All Rights Reserved.
  
 This is part of the Gaussian(R) 16 program.  It is based on
 the Gaussian(R) 09 system (copyright 2009, Gaussian, Inc.),
 the Gaussian(R) 03 system (copyright 2003, Gaussian, Inc.),
 the Gaussian(R) 98 system (copyright 1998, Gaussian, Inc.),
 the Gaussian(R) 94 system (copyright 1995, Gaussian, Inc.),
 the Gaussian 92(TM) system (copyright 1992, Gaussian, Inc.),
 the Gaussian 90(TM) system (copyright 1990, Gaussian, Inc.),
 the Gaussian 88(TM) system (copyright 1988, Gaussian, Inc.),
 the Gaussian 86(TM) system (copyright 1986, Carnegie Mellon
 University), and the Gaussian 82(TM) system (copyright 1983,
 Carnegie Mellon University). Gaussian is a federally registered
 trademark of Gaussian, Inc.
  
 This software contains proprietary and confidential information,
 including trade secrets, belonging to Gaussian, Inc.
  
 This software is provided under written license and may be
 used, copied, transmitted, or stored only in accord with that
 written license.
  
 The following legend is applicable only to US Government
 contracts under FAR:
  
                    RESTRICTED RIGHTS LEGEND
  
 Use, reproduction and disclosure by the US Government is
 subject to restrictions as set forth in subparagraphs (a)
 and (c) of the Commercial Computer Software - Restricted
 Rights clause in FAR 52.227-19.
  
 Gaussian, Inc.
 340 Quinnipiac St., Bldg. 40, Wallingford CT 06492
  
  
 ---------------------------------------------------------------
 Warning -- This program may not be used in any manner that
 competes with the business of Gaussian, Inc. or will provide
 assistance to any competitor of Gaussian, Inc.  The licensee
 of this program is prohibited from giving any competitor of
 Gaussian, Inc. access to this program.  By using this program,
 the user acknowledges that Gaussian, Inc. is engaged in the
 business of creating and licensing software in the field of
 computational chemistry and represents and warrants to the
 licensee that it is not a competitor of Gaussian, Inc. and that
 it will not use this program in any manner prohibited above.
 ---------------------------------------------------------------
  

 Cite this work as:
 Gaussian 16, Revision A.03,
 M. J. Frisch, G. W. Trucks, H. B. Schlegel, G. E. Scuseria, 
 M. A. Robb, J. R. Cheeseman, G. Scalmani, V. Barone, 
 G. A. Petersson, H. Nakatsuji, X. Li, M. Caricato, A. V. Marenich, 
 J. Bloino, B. G. Janesko, R. Gomperts, B. Mennucci, H. P. Hratchian, 
 J. V. Ortiz, A. F. Izmaylov, J. L. Sonnenberg, D. Williams-Young, 
 F. Ding, F. Lipparini, F. Egidi, J. Goings, B. Peng, A. Petrone, 
 T. Henderson, D. Ranasinghe, V. G. Zakrzewski, J. Gao, N. Rega, 
 G. Zheng, W. Liang, M. Hada, M. Ehara, K. Toyota, R. Fukuda, 
 J. Hasegawa, M. Ishida, T. Nakajima, Y. Honda, O. Kitao, H. Nakai, 
 T. Vreven, K. Throssell, J. A. Montgomery, Jr., J. E. Peralta, 
 F. Ogliaro, M. J. Bearpark, J. J. Heyd, E. N. Brothers, K. N. Kudin, 
 V. N. Staroverov, T. A. Keith, R. Kobayashi, J. Normand, 
 K. Raghavachari, A. P. Rendell, J. C. Burant, S. S. Iyengar, 
 J. Tomasi, M. Cossi, J. M. Millam, M. Klene, C. Adamo, R. Cammi, 
 J. W. Ochterski, R. L. Martin, K. Morokuma, O. Farkas, 
 J. B. Foresman, and D. J. Fox, Gaussian, Inc., Wallingford CT, 2016.
 
 ******************************************
 Gaussian 16:  ES64L-G16RevA.03 25-Dec-2016
                21-Apr-2025 
 ******************************************
 %chk=force.chk
 %mem=4GB
 %nprocshared=8
 Will use up to    8 processors via shared memory.
 ---------------------------------------------------
 #p UM062X/6-311+G** force int=superfine pop=saveNBO
 ---------------------------------------------------
 1/10=7,30=1,38=1/1,3;
 2/12=2,17=6,18=5,40=1/2;
 3/5=4,6=6,7=111,11=2,25=1,30=1,71=1,74=-55,75=-7,116=2/1,2,3;
 4//1;
 5/5=2,38=5/2;
 6/7=2,8=2,9=2,10=2,28=1,40=1,73=1/1,7;
 7/29=1/1,2,3,16;
 1/10=7,30=1/3;
 99//99;
 Leave Link    1 at Mon Apr 21 19:53:56 2025, MaxMem=   536870912 cpu:               3.2 elap:               1.5
 (Enter /home/szhao/Apps/g16/l101.exe)
 -------------------
 Title Card Required
 -------------------
 Symbolic Z-matrix:
 Charge =  0 Multiplicity = 1
 O                    -1.49356   0.        0. 
 O                     1.49356   0.        0. 
 
 ITRead=  0  0
 MicOpt= -1 -1
 NAtoms=      2 NQM=        2 NQMF=       0 NMMI=      0 NMMIF=      0
                NMic=       0 NMicF=      0.
                    Isotopes and Nuclear Properties:
 (Nuclear quadrupole moments (NQMom) in fm**2, nuclear magnetic moments (NMagM)
  in nuclear magnetons)

  Atom         1           2
 IAtWgt=          16          16
 AtmWgt=  15.9949146  15.9949146
 NucSpn=           0           0
 AtZEff=  -0.0000000  -0.0000000
 NQMom=    0.0000000   0.0000000
 NMagM=    0.0000000   0.0000000
 AtZNuc=   8.0000000   8.0000000
 Leave Link  101 at Mon Apr 21 19:53:58 2025, MaxMem=   536870912 cpu:               1.8 elap:               0.4
 (Enter /home/szhao/Apps/g16/l103.exe)

 GradGradGradGradGradGradGradGradGradGradGradGradGradGradGradGradGradGrad
 Berny optimization.
 Initialization pass.
 Trust Radius=3.00D-01 FncErr=1.00D-07 GrdErr=1.00D-07 EigMax=2.50D+02 EigMin=1.00D-04
 Number of steps in this run=      2 maximum allowed number of steps=      2.
 GradGradGradGradGradGradGradGradGradGradGradGradGradGradGradGradGradGrad

 Leave Link  103 at Mon Apr 21 19:53:58 2025, MaxMem=   536870912 cpu:               0.8 elap:               0.4
 (Enter /home/szhao/Apps/g16/l202.exe)
                          Input orientation:                          
 ---------------------------------------------------------------------
 Center     Atomic      Atomic             Coordinates (Angstroms)
 Number     Number       Type             X           Y           Z
 ---------------------------------------------------------------------
      1          8           0       -1.493562    0.000000    0.000000
      2          8           0        1.493562    0.000000    0.000000
 ---------------------------------------------------------------------
 Stoichiometry    O2
 Framework group  D*H[C*(O.O)]
 Deg. of freedom     1
 Full point group                 D*H     NOp   8
 Largest Abelian subgroup         D2H     NOp   8
 Largest concise Abelian subgroup C2      NOp   2
                         Standard orientation:                         
 ---------------------------------------------------------------------
 Center     Atomic      Atomic             Coordinates (Angstroms)
 Number     Number       Type             X           Y           Z
 ---------------------------------------------------------------------
      1          8           0        0.000000    0.000000    1.493562
      2          8           0        0.000000    0.000000   -1.493562
 ---------------------------------------------------------------------
 Rotational constants (GHZ):           0.0000000           7.0820464           7.0820464
 Leave Link  202 at Mon Apr 21 19:53:59 2025, MaxMem=   536870912 cpu:               1.3 elap:               0.4
 (Enter /home/szhao/Apps/g16/l301.exe)
 Standard basis: 6-311+G(d,p) (5D, 7F)
 Ernie: Thresh=  0.10000D-02 Tol=  0.10000D-05 Strict=F.
 There are    12 symmetry adapted cartesian basis functions of AG  symmetry.
 There are     1 symmetry adapted cartesian basis functions of B1G symmetry.
 There are     5 symmetry adapted cartesian basis functions of B2G symmetry.
 There are     5 symmetry adapted cartesian basis functions of B3G symmetry.
 There are     1 symmetry adapted cartesian basis functions of AU  symmetry.
 There are    12 symmetry adapted cartesian basis functions of B1U symmetry.
 There are     5 symmetry adapted cartesian basis functions of B2U symmetry.
 There are     5 symmetry adapted cartesian basis functions of B3U symmetry.
 There are    11 symmetry adapted basis functions of AG  symmetry.
 There are     1 symmetry adapted basis functions of B1G symmetry.
 There are     5 symmetry adapted basis functions of B2G symmetry.
 There are     5 symmetry adapted basis functions of B3G symmetry.
 There are     1 symmetry adapted basis functions of AU  symmetry.
 There are    11 symmetry adapted basis functions of B1U symmetry.
 There are     5 symmetry adapted basis functions of B2U symmetry.
 There are     5 symmetry adapted basis functions of B3U symmetry.
    44 basis functions,    72 primitive gaussians,    46 cartesian basis functions
     8 alpha electrons        8 beta electrons
       nuclear repulsion energy        11.3377755657 Hartrees.
 IExCor= 4336 DFT=T Ex+Corr=M062X ExCW=0 ScaHFX=  0.540000
 ScaDFX=  1.000000  1.000000  1.000000  1.000000 ScalE2=  1.000000  1.000000
 IRadAn=      7 IRanWt=     -1 IRanGd=            0 ICorTp=0 IEmpDi=  4
 NAtoms=    2 NActive=    2 NUniq=    1 SFac= 4.00D+00 NAtFMM=   60 NAOKFM=F Big=F
 Integral buffers will be    131072 words long.
 Raffenetti 2 integral format.
 Two-electron integral symmetry is turned on.
 Leave Link  301 at Mon Apr 21 19:54:00 2025, MaxMem=   536870912 cpu:               2.2 elap:               0.5
 (Enter /home/szhao/Apps/g16/l302.exe)
 NPDir=0 NMtPBC=     1 NCelOv=     1 NCel=       1 NClECP=     1 NCelD=      1
         NCelK=      1 NCelE2=     1 NClLst=     1 CellRange=     0.0.
 One-electron integrals computed using PRISM.
 One-electron integral symmetry used in STVInt
 NBasis=    44 RedAO= T EigKep=  3.96D-02  NBF=    11     1     5     5     1    11     5     5
 NBsUse=    44 1.00D-06 EigRej= -1.00D+00 NBFU=    11     1     5     5     1    11     5     5
 Precomputing XC quadrature grid using
 IXCGrd= 4 IRadAn=           7 IRanWt=          -1 IRanGd=           0 AccXCQ= 0.00D+00.
 Generated NRdTot=       0 NPtTot=           0 NUsed=           0 NTot=          32
 NSgBfM=    46    46    46    46    46 MxSgAt=     2 MxSgA2=     2.
 Leave Link  302 at Mon Apr 21 19:54:01 2025, MaxMem=   536870912 cpu:               1.4 elap:               0.6
 (Enter /home/szhao/Apps/g16/l303.exe)
 DipDrv:  MaxL=1.
 Leave Link  303 at Mon Apr 21 19:54:02 2025, MaxMem=   536870912 cpu:               0.5 elap:               0.4
 (Enter /home/szhao/Apps/g16/l401.exe)
 ExpMin= 8.45D-02 ExpMax= 8.59D+03 ExpMxC= 1.30D+03 IAcc=3 IRadAn=         7 AccDes= 0.00D+00
 Harris functional with IExCor= 1009 and IRadAn=       7 diagonalized for initial guess.
 HarFok:  IExCor= 1009 AccDes= 0.00D+00 IRadAn=         7 IDoV= 1 UseB2=F ITyADJ=14
 ICtDFT=  3500011 ScaDFX=  1.000000  1.000000  1.000000  1.000000
 FoFCou: FMM=F IPFlag=           0 FMFlag=      100000 FMFlg1=           0
         NFxFlg=           0 DoJE=T BraDBF=F KetDBF=T FulRan=T
         wScrn=  0.000000 ICntrl=       500 IOpCl=  0 I1Cent=   200000004 NGrid=           0
         NMat0=    1 NMatS0=      1 NMatT0=    0 NMatD0=    1 NMtDS0=    0 NMtDT0=    0
 Petite list used in FoFCou.
 Harris En= -149.880569072411    
 JPrj=0 DoOrth=F DoCkMO=F.
 Initial guess orbital symmetries:
 Alpha Orbitals:
       Occupied  (SGU) (SGG) (SGG) (SGU) (SGG) (PIU) (PIU) (PIG)
       Virtual   (PIG) (SGU) (SGG) (SGU) (PIU) (PIU) (SGG) (PIG)
                 (PIG) (SGU) (SGG) (PIU) (PIU) (PIG) (PIG) (SGU)
                 (SGG) (SGU) (DLTG) (DLTU) (DLTG) (DLTU) (PIU)
                 (PIU) (SGG) (PIG) (PIG) (SGU) (SGG) (PIU) (PIU)
                 (PIG) (PIG) (SGU) (SGG) (SGU)
 Beta  Orbitals:
       Occupied  (SGU) (SGG) (SGG) (SGU) (SGG) (PIU) (PIU) (PIG)
       Virtual   (PIG) (SGU) (SGG) (SGU) (PIU) (PIU) (SGG) (PIG)
                 (PIG) (SGU) (SGG) (PIU) (PIU) (PIG) (PIG) (SGU)
                 (SGG) (SGU) (DLTG) (DLTU) (DLTG) (DLTU) (PIU)
                 (PIU) (SGG) (PIG) (PIG) (SGU) (SGG) (PIU) (PIU)
                 (PIG) (PIG) (SGU) (SGG) (SGU)
 Initial guess <Sx>= 0.0000 <Sy>= 0.0000 <Sz>= 0.0000 <S**2>=-0.0000 S=-0.0000
 Leave Link  401 at Mon Apr 21 19:54:02 2025, MaxMem=   536870912 cpu:               1.7 elap:               0.3
 (Enter /home/szhao/Apps/g16/l502.exe)
 Keep R1 and R2 ints in memory in symmetry-blocked form, NReq=7471005.
 FoFCou: FMM=F IPFlag=           0 FMFlag=           0 FMFlg1=           0
         NFxFlg=           0 DoJE=F BraDBF=F KetDBF=F FulRan=T
         wScrn=  0.000000 ICntrl=       600 IOpCl=  0 I1Cent=           0 NGrid=           0
         NMat0=    1 NMatS0=    990 NMatT0=    0 NMatD0=    1 NMtDS0=    0 NMtDT0=    0
 Petite list used in FoFCou.
 UHF open shell SCF:
 Using DIIS extrapolation, IDIIS=  1040.
 NGot=   536870912 LenX=   536724438 LenY=   536721881
 Requested convergence on RMS density matrix=1.00D-08 within 128 cycles.
 Requested convergence on MAX density matrix=1.00D-06.
 Requested convergence on             energy=1.00D-06.
 No special actions if energy rises.
 Integral accuracy reduced to 1.0D-05 until final iterations.

 Cycle   1  Pass 0  IDiag  1:
 E= -149.806168165798    
 DIIS: error= 2.70D-02 at cycle   1 NSaved=   1.
 NSaved= 1 IEnMin= 1 EnMin= -149.806168165798     IErMin= 1 ErrMin= 2.70D-02
 ErrMax= 2.70D-02  0.00D+00 EMaxC= 1.00D-01 BMatC= 8.93D-02 BMatP= 8.93D-02
 IDIUse=3 WtCom= 7.30D-01 WtEn= 2.70D-01
 Coeff-Com:  0.100D+01
 Coeff-En:   0.100D+01
 Coeff:      0.100D+01
 Gap=     0.098 Goal=   None    Shift=    0.000
 Gap=     0.098 Goal=   None    Shift=    0.000
 GapD=    0.098 DampG=0.500 DampE=0.500 DampFc=0.2500 IDamp=-1.
 Damping current iteration by 2.50D-01
 RMSDP=1.89D-03 MaxDP=3.30D-02              OVMax= 3.86D-02

 Cycle   2  Pass 0  IDiag  1:
 E= -149.808382006745     Delta-E=       -0.002213840946 Rises=F Damp=T
 DIIS: error= 2.01D-02 at cycle   2 NSaved=   2.
 NSaved= 2 IEnMin= 2 EnMin= -149.808382006745     IErMin= 2 ErrMin= 2.01D-02
 ErrMax= 2.01D-02  0.00D+00 EMaxC= 1.00D-01 BMatC= 4.90D-02 BMatP= 8.93D-02
 IDIUse=3 WtCom= 7.99D-01 WtEn= 2.01D-01
 Coeff-Com: -0.261D+01 0.361D+01
 Coeff-En:   0.000D+00 0.100D+01
 Coeff:     -0.208D+01 0.308D+01
 Gap=     0.099 Goal=   None    Shift=    0.000
 Gap=     0.099 Goal=   None    Shift=    0.000
 RMSDP=1.15D-03 MaxDP=1.70D-02 DE=-2.21D-03 OVMax= 1.57D-02

 Cycle   3  Pass 0  IDiag  1:
 E= -149.814737049420     Delta-E=       -0.006355042675 Rises=F Damp=F
 DIIS: error= 3.24D-03 at cycle   3 NSaved=   3.
 NSaved= 3 IEnMin= 3 EnMin= -149.814737049420     IErMin= 3 ErrMin= 3.24D-03
 ErrMax= 3.24D-03  0.00D+00 EMaxC= 1.00D-01 BMatC= 9.21D-04 BMatP= 4.90D-02
 IDIUse=3 WtCom= 9.68D-01 WtEn= 3.24D-02
 Coeff-Com: -0.817D+00 0.108D+01 0.736D+00
 Coeff-En:   0.000D+00 0.000D+00 0.100D+01
 Coeff:     -0.790D+00 0.105D+01 0.744D+00
 Gap=     0.099 Goal=   None    Shift=    0.000
 Gap=     0.099 Goal=   None    Shift=    0.000
 RMSDP=1.83D-04 MaxDP=3.15D-03 DE=-6.36D-03 OVMax= 4.22D-03

 Cycle   4  Pass 0  IDiag  1:
 E= -149.814900443993     Delta-E=       -0.000163394573 Rises=F Damp=F
 DIIS: error= 2.12D-04 at cycle   4 NSaved=   4.
 NSaved= 4 IEnMin= 4 EnMin= -149.814900443993     IErMin= 4 ErrMin= 2.12D-04
 ErrMax= 2.12D-04  0.00D+00 EMaxC= 1.00D-01 BMatC= 3.80D-06 BMatP= 9.21D-04
 IDIUse=3 WtCom= 9.98D-01 WtEn= 2.12D-03
 Coeff-Com:  0.201D+00-0.268D+00-0.169D+00 0.124D+01
 Coeff-En:   0.000D+00 0.000D+00 0.000D+00 0.100D+01
 Coeff:      0.201D+00-0.267D+00-0.169D+00 0.124D+01
 Gap=     0.099 Goal=   None    Shift=    0.000
 Gap=     0.099 Goal=   None    Shift=    0.000
 RMSDP=3.28D-05 MaxDP=2.77D-04 DE=-1.63D-04 OVMax= 7.91D-04

 Cycle   5  Pass 0  IDiag  1:
 E= -149.814902825992     Delta-E=       -0.000002381999 Rises=F Damp=F
 DIIS: error= 7.45D-06 at cycle   5 NSaved=   5.
 NSaved= 5 IEnMin= 5 EnMin= -149.814902825992     IErMin= 5 ErrMin= 7.45D-06
 ErrMax= 7.45D-06  0.00D+00 EMaxC= 1.00D-01 BMatC= 8.22D-09 BMatP= 3.80D-06
 IDIUse=1 WtCom= 1.00D+00 WtEn= 0.00D+00
 Coeff-Com: -0.129D-01 0.172D-01 0.120D-01-0.950D-01 0.108D+01
 Coeff:     -0.129D-01 0.172D-01 0.120D-01-0.950D-01 0.108D+01
 Gap=     0.099 Goal=   None    Shift=    0.000
 Gap=     0.099 Goal=   None    Shift=    0.000
 RMSDP=1.57D-06 MaxDP=1.52D-05 DE=-2.38D-06 OVMax= 2.78D-05

 Initial convergence to 1.0D-05 achieved.  Increase integral accuracy.
 Cycle   6  Pass 1  IDiag  1:
 E= -149.814896755846     Delta-E=        0.000006070146 Rises=F Damp=F
 DIIS: error= 5.76D-06 at cycle   1 NSaved=   1.
 NSaved= 1 IEnMin= 1 EnMin= -149.814896755846     IErMin= 1 ErrMin= 5.76D-06
 ErrMax= 5.76D-06  0.00D+00 EMaxC= 1.00D-01 BMatC= 1.81D-09 BMatP= 1.81D-09
 IDIUse=1 WtCom= 1.00D+00 WtEn= 0.00D+00
 Coeff-Com:  0.100D+01
 Coeff:      0.100D+01
 Gap=     0.099 Goal=   None    Shift=    0.000
 Gap=     0.099 Goal=   None    Shift=    0.000
 RMSDP=1.57D-06 MaxDP=1.52D-05 DE= 6.07D-06 OVMax= 1.07D-05

 Cycle   7  Pass 1  IDiag  1:
 E= -149.814896756414     Delta-E=       -0.000000000568 Rises=F Damp=F
 DIIS: error= 6.84D-07 at cycle   2 NSaved=   2.
 NSaved= 2 IEnMin= 2 EnMin= -149.814896756414     IErMin= 2 ErrMin= 6.84D-07
 ErrMax= 6.84D-07  0.00D+00 EMaxC= 1.00D-01 BMatC= 5.40D-11 BMatP= 1.81D-09
 IDIUse=1 WtCom= 1.00D+00 WtEn= 0.00D+00
 Coeff-Com: -0.612D-01 0.106D+01
 Coeff:     -0.612D-01 0.106D+01
 Gap=     0.099 Goal=   None    Shift=    0.000
 Gap=     0.099 Goal=   None    Shift=    0.000
 RMSDP=1.16D-07 MaxDP=1.72D-06 DE=-5.68D-10 OVMax= 2.13D-06

 Cycle   8  Pass 1  IDiag  1:
 E= -149.814896756422     Delta-E=       -0.000000000009 Rises=F Damp=F
 DIIS: error= 5.21D-07 at cycle   3 NSaved=   3.
 NSaved= 3 IEnMin= 3 EnMin= -149.814896756422     IErMin= 3 ErrMin= 5.21D-07
 ErrMax= 5.21D-07  0.00D+00 EMaxC= 1.00D-01 BMatC= 3.02D-11 BMatP= 5.40D-11
 IDIUse=1 WtCom= 1.00D+00 WtEn= 0.00D+00
 Coeff-Com: -0.403D-01 0.475D+00 0.565D+00
 Coeff:     -0.403D-01 0.475D+00 0.565D+00
 Gap=     0.099 Goal=   None    Shift=    0.000
 Gap=     0.099 Goal=   None    Shift=    0.000
 RMSDP=2.94D-08 MaxDP=4.40D-07 DE=-8.73D-12 OVMax= 6.30D-07

 Cycle   9  Pass 1  IDiag  1:
 E= -149.814896756428     Delta-E=       -0.000000000005 Rises=F Damp=F
 DIIS: error= 1.98D-08 at cycle   4 NSaved=   4.
 NSaved= 4 IEnMin= 4 EnMin= -149.814896756428     IErMin= 4 ErrMin= 1.98D-08
 ErrMax= 1.98D-08  0.00D+00 EMaxC= 1.00D-01 BMatC= 2.83D-14 BMatP= 3.02D-11
 IDIUse=1 WtCom= 1.00D+00 WtEn= 0.00D+00
 Coeff-Com: -0.782D-03-0.119D-01-0.306D-01 0.104D+01
 Coeff:     -0.782D-03-0.119D-01-0.306D-01 0.104D+01
 Gap=     0.099 Goal=   None    Shift=    0.000
 Gap=     0.099 Goal=   None    Shift=    0.000
 RMSDP=2.33D-09 MaxDP=3.45D-08 DE=-5.26D-12 OVMax= 4.53D-08

 SCF Done:  E(UM062X) =  -149.814896756     A.U. after    9 cycles
            NFock=  9  Conv=0.23D-08     -V/T= 2.0039
 <Sx>= 0.0000 <Sy>= 0.0000 <Sz>= 0.0000 <S**2>=-0.0000 S=-0.0000
 <L.S>=  0.00000000000    
 KE= 1.492388664710D+02 PE=-3.776068063018D+02 EE= 6.721526750868D+01
 Annihilation of the first spin contaminant:
 S**2 before annihilation    -0.0000,   after    -0.0000
 Leave Link  502 at Mon Apr 21 19:54:04 2025, MaxMem=   536870912 cpu:               5.0 elap:               0.8
 (Enter /home/szhao/Apps/g16/l601.exe)
 Copying SCF densities to generalized density rwf, IOpCl= 1 IROHF=0.

 **********************************************************************

            Population analysis using the SCF density.

 **********************************************************************

 Orbital symmetries:
 Alpha Orbitals:
       Occupied  (SGG) (SGU) (SGG) (SGU) (PIU) (PIG) (SGG) (PIU)
       Virtual   (PIG) (SGU) (SGG) (SGU) (PIU) (PIU) (PIG) (SGG)
                 (PIG) (SGU) (SGG) (PIU) (PIU) (PIG) (PIG) (SGU)
                 (SGG) (SGU) (PIU) (?A) (PIG) (?B) (?A) (?B) (PIU)
                 (?A) (PIG) (?B) (SGG) (PIU) (PIG) (PIU) (PIG)
                 (SGU) (SGG) (SGU)
 Beta  Orbitals:
       Occupied  (SGG) (SGU) (SGG) (SGU) (PIU) (PIG) (SGG) (PIU)
       Virtual   (PIG) (SGU) (SGG) (SGU) (PIU) (PIU) (PIG) (SGG)
                 (PIG) (SGU) (SGG) (PIU) (PIU) (PIG) (PIG) (SGU)
                 (SGG) (SGU) (PIU) (?A) (PIG) (?B) (?A) (?B) (PIU)
                 (?A) (PIG) (?B) (SGG) (PIU) (PIG) (PIU) (PIG)
                 (SGU) (SGG) (SGU)
 Unable to determine electronic state:  partially filled degenerate orbitals.
 Alpha  occ. eigenvalues --  -19.82965 -19.82962  -1.10685  -1.09871  -0.48911
 Alpha  occ. eigenvalues --   -0.48430  -0.41801  -0.40493
 Alpha virt. eigenvalues --   -0.30601  -0.29017   0.09707   0.12651   0.14470
 Alpha virt. eigenvalues --    0.14511   0.19726   0.19943   0.19985   0.29516
 Alpha virt. eigenvalues --    0.96912   0.99625   1.00854   1.01691   1.03011
 Alpha virt. eigenvalues --    1.06828   1.23958   1.29951   2.75399   2.75402
 Alpha virt. eigenvalues --    2.75633   2.76646   2.78977   2.79032   2.79070
 Alpha virt. eigenvalues --    2.79106   2.79199   2.79773   4.84181   4.87544
 Alpha virt. eigenvalues --    4.89723   4.90733   4.92967   4.96247  49.63692
 Alpha virt. eigenvalues --   49.65242
  Beta  occ. eigenvalues --  -19.82965 -19.82962  -1.10685  -1.09871  -0.48911
  Beta  occ. eigenvalues --   -0.48430  -0.41801  -0.40493
  Beta virt. eigenvalues --   -0.30601  -0.29017   0.09707   0.12651   0.14470
  Beta virt. eigenvalues --    0.14511   0.19726   0.19943   0.19985   0.29516
  Beta virt. eigenvalues --    0.96912   0.99625   1.00854   1.01691   1.03011
  Beta virt. eigenvalues --    1.06828   1.23958   1.29951   2.75399   2.75402
  Beta virt. eigenvalues --    2.75633   2.76646   2.78977   2.79032   2.79070
  Beta virt. eigenvalues --    2.79106   2.79199   2.79773   4.84181   4.87544
  Beta virt. eigenvalues --    4.89723   4.90733   4.92967   4.96247  49.63692
  Beta virt. eigenvalues --   49.65242
          Condensed to atoms (all electrons):
               1          2
     1  O    7.931023   0.068977
     2  O    0.068977   7.931023
          Atomic-Atomic Spin Densities.
               1          2
     1  O   -0.000000   0.000000
     2  O    0.000000  -0.000000
 Mulliken charges and spin densities:
               1          2
     1  O   -0.000000  -0.000000
     2  O   -0.000000  -0.000000
 Sum of Mulliken charges =  -0.00000  -0.00000
 Mulliken charges and spin densities with hydrogens summed into heavy atoms:
               1          2
     1  O   -0.000000  -0.000000
     2  O   -0.000000  -0.000000
 Electronic spatial extent (au):  <R**2>=            150.7750
 Charge=             -0.0000 electrons
 Dipole moment (field-independent basis, Debye):
    X=             -0.0000    Y=              0.0000    Z=             -0.0000  Tot=              0.0000
 Quadrupole moment (field-independent basis, Debye-Ang):
   XX=            -10.1904   YY=            -12.0214   ZZ=             -9.1515
   XY=              0.0000   XZ=             -0.0000   YZ=              0.0000
 Traceless Quadrupole moment (field-independent basis, Debye-Ang):
   XX=              0.2640   YY=             -1.5670   ZZ=              1.3029
   XY=              0.0000   XZ=             -0.0000   YZ=              0.0000
 Octapole moment (field-independent basis, Debye-Ang**2):
  XXX=             -0.0000  YYY=              0.0000  ZZZ=             -0.0000  XYY=             -0.0000
  XXY=              0.0000  XXZ=              0.0000  XZZ=             -0.0000  YZZ=              0.0000
  YYZ=              0.0000  XYZ=              0.0000
 Hexadecapole moment (field-independent basis, Debye-Ang**3):
 XXXX=             -8.4919 YYYY=            -10.1324 ZZZZ=           -137.8973 XXXY=             -0.0000
 XXXZ=              0.0000 YYYX=             -0.0000 YYYZ=              0.0000 ZZZX=              0.0000
 ZZZY=              0.0000 XXYY=             -3.1040 XXZZ=            -24.8266 YYZZ=            -29.3602
 XXYZ=              0.0000 YYXZ=              0.0000 ZZXY=             -0.0000
 N-N= 1.133777556569D+01 E-N=-3.776068067401D+02  KE= 1.492388664710D+02
 Symmetry AG   KE= 6.933548761330D+01
 Symmetry B1G  KE= 1.060758890126D-35
 Symmetry B2G  KE= 1.549135969552D-32
 Symmetry B3G  KE= 5.203989808742D+00
 Symmetry AU   KE= 1.012340123611D-35
 Symmetry B1U  KE= 6.487648174061D+01
 Symmetry B2U  KE= 5.096021105947D+00
 Symmetry B3U  KE= 4.726886202364D+00
 Symmetry AG   SP=-9.209026511250D-15
 Symmetry B1G  SP= 4.078234730057D-49
 Symmetry B2G  SP=-1.146936602081D-47
 Symmetry B3G  SP= 1.351954801671D-15
 Symmetry AU   SP= 1.829056356311D-49
 Symmetry B1U  SP=-4.286027453452D-15
 Symmetry B2U  SP=-6.317898015420D-16
 Symmetry B3U  SP=-2.287667373212D-16
                          Isotropic Fermi Contact Couplings
        Atom                 a.u.       MegaHertz       Gauss      10(-4) cm-1
     1  O(17)             -0.00000       0.00000       0.00000       0.00000
     2  O(17)             -0.00000       0.00000       0.00000       0.00000
 --------------------------------------------------------
       Center         ----  Spin Dipole Couplings  ----
                      3XX-RR        3YY-RR        3ZZ-RR
 --------------------------------------------------------
     1   Atom        0.000000      0.000000      0.000000
     2   Atom        0.000000      0.000000      0.000000
 --------------------------------------------------------
                        XY            XZ            YZ
 --------------------------------------------------------
     1   Atom        0.000000      0.000000      0.000000
     2   Atom        0.000000      0.000000      0.000000
 --------------------------------------------------------


 ---------------------------------------------------------------------------------
              Anisotropic Spin Dipole Couplings in Principal Axis System
 ---------------------------------------------------------------------------------

       Atom             a.u.   MegaHertz   Gauss  10(-4) cm-1        Axes

              Baa     0.0000    -0.000    -0.000    -0.000  1.0000  0.0000  0.0000
     1 O(17)  Bbb     0.0000    -0.000    -0.000    -0.000 -0.0000  1.0000  0.0000
              Bcc     0.0000    -0.000    -0.000    -0.000  0.0000  0.0000  1.0000
 
              Baa     0.0000    -0.000    -0.000    -0.000  1.0000  0.0000  0.0000
     2 O(17)  Bbb     0.0000    -0.000    -0.000    -0.000 -0.0000  1.0000  0.0000
              Bcc     0.0000    -0.000    -0.000    -0.000  0.0000  0.0000  1.0000
 

 ---------------------------------------------------------------------------------

 No NMR shielding tensors so no spin-rotation constants.
 Leave Link  601 at Mon Apr 21 19:54:04 2025, MaxMem=   536870912 cpu:               1.7 elap:               0.3
 (Enter /home/szhao/Apps/g16/l607.exe)
 ******************************Gaussian NBO Version 3.1******************************
             N A T U R A L   A T O M I C   O R B I T A L   A N D
          N A T U R A L   B O N D   O R B I T A L   A N A L Y S I S
 ******************************Gaussian NBO Version 3.1******************************
       /RESON  / : Allow strongly delocalized NBO set

 Analyzing the SCF density

 Job title: Title Card Required                                             

 Storage needed:      6104 in NPA,      7902 in NBO ( 536870884 available)
 GSVD:  LWork=        -648 too small for GESVD, short by        5510 words or        5510 for optimal perf.


 NATURAL POPULATIONS:  Natural atomic orbital occupancies 
                                                          
   NAO  Atom  No  lang   Type(AO)    Occupancy
 --------------------------------------------
     1    O    1  S      Cor( 1S)     2.00000
     2    O    1  S      Val( 2S)     1.99896
     3    O    1  S      Ryd( 3S)     0.00002
     4    O    1  S      Ryd( 4S)     0.00000
     5    O    1  S      Ryd( 5S)     0.00000
     6    O    1  px     Val( 2p)     0.99961
     7    O    1  px     Ryd( 3p)     0.00037
     8    O    1  px     Ryd( 4p)     0.00001
     9    O    1  px     Ryd( 5p)     0.00000
    10    O    1  py     Val( 2p)     1.99905
    11    O    1  py     Ryd( 3p)     0.00082
    12    O    1  py     Ryd( 4p)     0.00013
    13    O    1  py     Ryd( 5p)     0.00000
    14    O    1  pz     Val( 2p)     1.00057
    15    O    1  pz     Ryd( 3p)     0.00033
    16    O    1  pz     Ryd( 5p)     0.00000
    17    O    1  pz     Ryd( 4p)     0.00000
    18    O    1  dxy    Ryd( 3d)     0.00000
    19    O    1  dxz    Ryd( 3d)     0.00000
    20    O    1  dyz    Ryd( 3d)     0.00000
    21    O    1  dx2y2  Ryd( 3d)     0.00008
    22    O    1  dz2    Ryd( 3d)     0.00004
 
    23    O    2  S      Cor( 1S)     2.00000
    24    O    2  S      Val( 2S)     1.99896
    25    O    2  S      Ryd( 3S)     0.00002
    26    O    2  S      Ryd( 4S)     0.00000
    27    O    2  S      Ryd( 5S)     0.00000
    28    O    2  px     Val( 2p)     0.99961
    29    O    2  px     Ryd( 3p)     0.00037
    30    O    2  px     Ryd( 4p)     0.00001
    31    O    2  px     Ryd( 5p)     0.00000
    32    O    2  py     Val( 2p)     1.99905
    33    O    2  py     Ryd( 3p)     0.00082
    34    O    2  py     Ryd( 4p)     0.00013
    35    O    2  py     Ryd( 5p)     0.00000
    36    O    2  pz     Val( 2p)     1.00057
    37    O    2  pz     Ryd( 3p)     0.00033
    38    O    2  pz     Ryd( 5p)     0.00000
    39    O    2  pz     Ryd( 4p)     0.00000
    40    O    2  dxy    Ryd( 3d)     0.00000
    41    O    2  dxz    Ryd( 3d)     0.00000
    42    O    2  dyz    Ryd( 3d)     0.00000
    43    O    2  dx2y2  Ryd( 3d)     0.00008
    44    O    2  dz2    Ryd( 3d)     0.00004


 Summary of Natural Population Analysis:                  
                                                          
                                       Natural Population 
                Natural  -----------------------------------------------
    Atom  No    Charge         Core      Valence    Rydberg      Total
 -----------------------------------------------------------------------
      O    1   -0.00000      2.00000     5.99818    0.00182     8.00000
      O    2   -0.00000      2.00000     5.99818    0.00182     8.00000
 =======================================================================
   * Total *   -0.00000      4.00000    11.99636    0.00364    16.00000

                                 Natural Population      
 --------------------------------------------------------
   Core                       4.00000 (100.0000% of   4)
   Valence                   11.99636 ( 99.9697% of  12)
   Natural Minimal Basis     15.99636 ( 99.9773% of  16)
   Natural Rydberg Basis      0.00364 (  0.0227% of  16)
 --------------------------------------------------------

    Atom  No          Natural Electron Configuration
 ----------------------------------------------------------------------------
      O    1      [core]2S( 2.00)2p( 4.00)
      O    2      [core]2S( 2.00)2p( 4.00)


 ***************************************************
 *******         Alpha spin orbitals         *******
 ***************************************************


 NATURAL POPULATIONS:  Natural atomic orbital occupancies 
                                                          
   NAO  Atom  No  lang   Type(AO)    Occupancy      Energy
 ----------------------------------------------------------
     1    O    1  S      Cor( 1S)     1.00000     -19.80883
     2    O    1  S      Val( 2S)     0.99948      -1.12272
     3    O    1  S      Ryd( 3S)     0.00001       0.24585
     4    O    1  S      Ryd( 4S)     0.00000       1.37344
     5    O    1  S      Ryd( 5S)     0.00000      49.44920
     6    O    1  px     Val( 2p)     0.49980      -0.35492
     7    O    1  px     Ryd( 3p)     0.00019       0.51282
     8    O    1  px     Ryd( 4p)     0.00001       0.80841
     9    O    1  px     Ryd( 5p)     0.00000       4.74246
    10    O    1  py     Val( 2p)     0.99952      -0.48624
    11    O    1  py     Ryd( 3p)     0.00041       0.50936
    12    O    1  py     Ryd( 4p)     0.00007       0.81978
    13    O    1  py     Ryd( 5p)     0.00000       4.78105
    14    O    1  pz     Val( 2p)     0.50029      -0.35380
    15    O    1  pz     Ryd( 3p)     0.00017       0.53934
    16    O    1  pz     Ryd( 4p)     0.00000       0.85576
    17    O    1  pz     Ryd( 5p)     0.00000       4.73529
    18    O    1  dxy    Ryd( 3d)     0.00000       2.79004
    19    O    1  dxz    Ryd( 3d)     0.00000       2.75481
    20    O    1  dyz    Ryd( 3d)     0.00000       2.79099
    21    O    1  dx2y2  Ryd( 3d)     0.00004       2.78220
    22    O    1  dz2    Ryd( 3d)     0.00002       2.76654
 
    23    O    2  S      Cor( 1S)     1.00000     -19.80883
    24    O    2  S      Val( 2S)     0.99948      -1.12272
    25    O    2  S      Ryd( 3S)     0.00001       0.24585
    26    O    2  S      Ryd( 4S)     0.00000       1.37344
    27    O    2  S      Ryd( 5S)     0.00000      49.44920
    28    O    2  px     Val( 2p)     0.49980      -0.35492
    29    O    2  px     Ryd( 3p)     0.00019       0.51282
    30    O    2  px     Ryd( 4p)     0.00001       0.80841
    31    O    2  px     Ryd( 5p)     0.00000       4.74246
    32    O    2  py     Val( 2p)     0.99952      -0.48624
    33    O    2  py     Ryd( 3p)     0.00041       0.50936
    34    O    2  py     Ryd( 4p)     0.00007       0.81978
    35    O    2  py     Ryd( 5p)     0.00000       4.78105
    36    O    2  pz     Val( 2p)     0.50029      -0.35380
    37    O    2  pz     Ryd( 3p)     0.00017       0.53934
    38    O    2  pz     Ryd( 4p)     0.00000       0.85576
    39    O    2  pz     Ryd( 5p)     0.00000       4.73529
    40    O    2  dxy    Ryd( 3d)     0.00000       2.79004
    41    O    2  dxz    Ryd( 3d)     0.00000       2.75481
    42    O    2  dyz    Ryd( 3d)     0.00000       2.79099
    43    O    2  dx2y2  Ryd( 3d)     0.00004       2.78220
    44    O    2  dz2    Ryd( 3d)     0.00002       2.76654

 WARNING:  Population inversion found on atom  O    1
           Population inversion found on atom  O    2


 Summary of Natural Population Analysis:                  
                                                          
                                       Natural Population 
                Natural  -----------------------------------------------
    Atom  No    Charge         Core      Valence    Rydberg      Total
 -----------------------------------------------------------------------
      O    1    0.00000      1.00000     2.99909    0.00091     4.00000
      O    2    0.00000      1.00000     2.99909    0.00091     4.00000
 =======================================================================
   * Total *    0.00000      2.00000     5.99818    0.00182     8.00000

                                 Natural Population      
 --------------------------------------------------------
   Core                       2.00000 (100.0000% of   2)
   Valence                    5.99818 ( 99.9697% of   6)
   Natural Minimal Basis      7.99818 ( 99.9773% of   8)
   Natural Rydberg Basis      0.00182 (  0.0227% of   8)
 --------------------------------------------------------

    Atom  No          Natural Electron Configuration
 ----------------------------------------------------------------------------
      O    1      [core]2S( 1.00)2p( 2.00)
      O    2      [core]2S( 1.00)2p( 2.00)


 NATURAL BOND ORBITAL ANALYSIS, alpha spin orbitals:

                       Occupancies       Lewis Structure    Low   High
           Occ.    -------------------  -----------------   occ   occ
  Cycle   Thresh.   Lewis   Non-Lewis     CR  BD  3C  LP    (L)   (NL)   Dev
 =============================================================================
   1(1)    0.90     7.99971   0.00029      2   2   0   4     0      0    0.00
 -----------------------------------------------------------------------------

 Structure accepted: No low occupancy Lewis orbitals

 --------------------------------------------------------
   Core                      2.00000 (100.000% of   2)
   Valence Lewis             5.99971 ( 99.995% of   6)
  ==================       ============================
   Total Lewis               7.99971 ( 99.996% of   8)
  -----------------------------------------------------
   Valence non-Lewis         0.00000 (  0.000% of   8)
   Rydberg non-Lewis         0.00029 (  0.004% of   8)
  ==================       ============================
   Total non-Lewis           0.00029 (  0.004% of   8)
 --------------------------------------------------------


       (Occupancy)   Bond orbital/ Coefficients/ Hybrids
 ---------------------------------------------------------------------------------
     1. (1.00000) BD ( 1) O   1 - O   2  
                ( 50.00%)   0.7071* O   1 s(  0.09%)p99.99( 99.91%)d 0.01(  0.00%)
                                            0.0000 -0.0300 -0.0003 -0.0015  0.0001
                                            0.0000  0.0000  0.0000  0.0000  0.0000
                                            0.0000  0.0000  0.0000  0.9994  0.0177
                                           -0.0003 -0.0011  0.0000  0.0000  0.0000
                                           -0.0003 -0.0034
                ( 50.00%)   0.7071* O   2 s(  0.09%)p99.99( 99.91%)d 0.01(  0.00%)
                                            0.0000 -0.0300 -0.0003 -0.0015  0.0001
                                            0.0000  0.0000  0.0000  0.0000  0.0000
                                            0.0000  0.0000  0.0000 -0.9994 -0.0177
                                            0.0003  0.0011  0.0000  0.0000  0.0000
                                           -0.0003 -0.0034
     2. (1.00000) BD ( 2) O   1 - O   2  
                ( 50.00%)   0.7071* O   1 s(  0.00%)p 1.00(100.00%)d 0.00(  0.00%)
                                            0.0000  0.0000  0.0000  0.0000  0.0000
                                            0.9998  0.0194  0.0037  0.0009  0.0000
                                            0.0000  0.0000  0.0000  0.0000  0.0000
                                            0.0000  0.0000  0.0000 -0.0019  0.0000
                                            0.0000  0.0000
                ( 50.00%)   0.7071* O   2 s(  0.00%)p 1.00(100.00%)d 0.00(  0.00%)
                                            0.0000  0.0000  0.0000  0.0000  0.0000
                                            0.9998  0.0194  0.0037  0.0009  0.0000
                                            0.0000  0.0000  0.0000  0.0000  0.0000
                                            0.0000  0.0000  0.0000  0.0019  0.0000
                                            0.0000  0.0000
     3. (1.00000) CR ( 1) O   1           s(100.00%)
                                            1.0000 -0.0000  0.0000  0.0000 -0.0000
                                            0.0000  0.0000  0.0000  0.0000  0.0000
                                            0.0000  0.0000  0.0000 -0.0000 -0.0000
                                            0.0000 -0.0000  0.0000  0.0000  0.0000
                                           -0.0000 -0.0000
     4. (1.00000) CR ( 1) O   2           s(100.00%)
                                            1.0000 -0.0000  0.0000  0.0000 -0.0000
                                            0.0000  0.0000  0.0000  0.0000  0.0000
                                            0.0000  0.0000  0.0000  0.0000  0.0000
                                           -0.0000  0.0000  0.0000  0.0000  0.0000
                                           -0.0000 -0.0000
     5. (0.99999) LP ( 1) O   1           s( 99.90%)p 0.00(  0.09%)d 0.00(  0.01%)
                                            0.0000  0.9995 -0.0000 -0.0000  0.0000
                                            0.0000  0.0000  0.0000  0.0000  0.0000
                                            0.0000  0.0000  0.0000  0.0300  0.0021
                                           -0.0000  0.0006  0.0000  0.0000  0.0000
                                            0.0062  0.0038
     6. (0.99987) LP ( 2) O   1           s(  0.00%)p 1.00(100.00%)d 0.00(  0.00%)
                                            0.0000  0.0000  0.0000  0.0000  0.0000
                                            0.0000  0.0000  0.0000  0.0000  0.9998
                                           -0.0186 -0.0017  0.0001  0.0000  0.0000
                                            0.0000  0.0000  0.0000  0.0000 -0.0004
                                            0.0000  0.0000
     7. (0.99999) LP ( 1) O   2           s( 99.90%)p 0.00(  0.09%)d 0.00(  0.01%)
                                            0.0000  0.9995 -0.0000 -0.0000  0.0000
                                            0.0000  0.0000  0.0000  0.0000  0.0000
                                            0.0000  0.0000  0.0000 -0.0300 -0.0021
                                            0.0000 -0.0006  0.0000  0.0000  0.0000
                                            0.0062  0.0038
     8. (0.99987) LP ( 2) O   2           s(  0.00%)p 1.00(100.00%)d 0.00(  0.00%)
                                            0.0000  0.0000  0.0000  0.0000  0.0000
                                            0.0000  0.0000  0.0000  0.0000  0.9998
                                           -0.0186 -0.0017  0.0001  0.0000  0.0000
                                            0.0000  0.0000  0.0000  0.0000  0.0004
                                            0.0000  0.0000
     9. (0.00013) RY*( 1) O   1           s(  0.00%)p 1.00( 99.96%)d 0.00(  0.04%)
                                            0.0000  0.0000  0.0000  0.0000  0.0000
                                            0.0000  0.0000  0.0000  0.0000  0.0120
                                            0.7091 -0.7046  0.0146  0.0000  0.0000
                                            0.0000  0.0000  0.0000  0.0000 -0.0201
                                            0.0000  0.0000
    10. (0.00001) RY*( 2) O   1           s( 94.13%)p 0.05(  4.88%)d 0.01(  0.99%)
    11. (0.00000) RY*( 3) O   1           s(100.00%)p 0.00(  0.00%)d 0.00(  0.00%)
    12. (0.00000) RY*( 4) O   1           s(  0.00%)p 1.00(100.00%)
    13. (0.00000) RY*( 5) O   1           s(  0.00%)p 1.00(100.00%)
    14. (0.00000) RY*( 6) O   1           s(  0.00%)p 1.00(100.00%)
    15. (0.00000) RY*( 7) O   1           s(100.00%)p 0.00(  0.00%)d 0.00(  0.00%)
    16. (0.00000) RY*( 8) O   1           s(  0.00%)p 1.00(100.00%)
    17. (0.00000) RY*( 9) O   1           s(  0.00%)p 1.00(100.00%)
    18. (0.00000) RY*(10) O   1           s(  0.00%)p 1.00(100.00%)
    19. (0.00000) RY*(11) O   1           s(  3.92%)p24.53( 96.05%)d 0.01(  0.04%)
    20. (0.00000) RY*(12) O   1           s(  0.94%)p99.99( 99.06%)
    21. (0.00000) RY*(13) O   1           s(  0.00%)p 0.00(  0.00%)d 1.00(100.00%)
    22. (0.00000) RY*(14) O   1           s(  0.00%)p 0.00(  0.00%)d 1.00(100.00%)
    23. (0.00000) RY*(15) O   1           s(  0.00%)p 1.00(  0.04%)d99.99( 99.96%)
    24. (0.00000) RY*(16) O   1           s(  0.07%)p 0.05(  0.00%)d99.99( 99.93%)
    25. (0.00000) RY*(17) O   1           s(  0.96%)p 0.01(  0.01%)d99.99( 99.03%)
    26. (0.00013) RY*( 1) O   2           s(  0.00%)p 1.00( 99.96%)d 0.00(  0.04%)
                                            0.0000  0.0000  0.0000  0.0000  0.0000
                                            0.0000  0.0000  0.0000  0.0000  0.0120
                                            0.7091 -0.7046  0.0146  0.0000  0.0000
                                            0.0000  0.0000  0.0000  0.0000  0.0201
                                            0.0000  0.0000
    27. (0.00001) RY*( 2) O   2           s( 94.13%)p 0.05(  4.88%)d 0.01(  0.99%)
    28. (0.00000) RY*( 3) O   2           s(100.00%)p 0.00(  0.00%)d 0.00(  0.00%)
    29. (0.00000) RY*( 4) O   2           s(  0.00%)p 1.00(100.00%)
    30. (0.00000) RY*( 5) O   2           s(  0.00%)p 1.00(100.00%)
    31. (0.00000) RY*( 6) O   2           s(  0.00%)p 1.00(100.00%)
    32. (0.00000) RY*( 7) O   2           s(100.00%)p 0.00(  0.00%)d 0.00(  0.00%)
    33. (0.00000) RY*( 8) O   2           s(  0.00%)p 1.00(100.00%)
    34. (0.00000) RY*( 9) O   2           s(  0.00%)p 1.00(100.00%)
    35. (0.00000) RY*(10) O   2           s(  0.00%)p 1.00(100.00%)
    36. (0.00000) RY*(11) O   2           s(  3.92%)p24.53( 96.05%)d 0.01(  0.04%)
    37. (0.00000) RY*(12) O   2           s(  0.94%)p99.99( 99.06%)
    38. (0.00000) RY*(13) O   2           s(  0.00%)p 0.00(  0.00%)d 1.00(100.00%)
    39. (0.00000) RY*(14) O   2           s(  0.00%)p 0.00(  0.00%)d 1.00(100.00%)
    40. (0.00000) RY*(15) O   2           s(  0.00%)p 1.00(  0.04%)d99.99( 99.96%)
    41. (0.00000) RY*(16) O   2           s(  0.07%)p 0.05(  0.00%)d99.99( 99.93%)
    42. (0.00000) RY*(17) O   2           s(  0.96%)p 0.01(  0.01%)d99.99( 99.03%)
    43. (0.00000) BD*( 1) O   1 - O   2  
                ( 50.00%)   0.7071* O   1 s(  0.09%)p99.99( 99.91%)d 0.01(  0.00%)
                ( 50.00%)  -0.7071* O   2 s(  0.09%)p99.99( 99.91%)d 0.01(  0.00%)
    44. (0.00000) BD*( 2) O   1 - O   2  
                ( 50.00%)   0.7071* O   1 s(  0.00%)p 1.00(100.00%)d 0.00(  0.00%)
                ( 50.00%)  -0.7071* O   2 s(  0.00%)p 1.00(100.00%)d 0.00(  0.00%)


 NHO Directionality and "Bond Bending" (deviations from line of nuclear centers)

         [Thresholds for printing:  angular deviation  >  1.0 degree]
                                    hybrid p-character > 25.0%
                                    orbital occupancy  >  0.10e

                                Line of Centers        Hybrid 1              Hybrid 2
                                ---------------  -------------------   ------------------
                NBO               Theta   Phi    Theta   Phi    Dev    Theta   Phi    Dev
 ========================================================================================
     2. BD (   2) O   1 - O   2   180.0    0.0    90.0    0.0  90.0     90.0    0.0  90.0
     6. LP (   2) O   1             --     --     90.0   90.0   --       --     --    --
     8. LP (   2) O   2             --     --     90.0   90.0   --       --     --    --


 Second Order Perturbation Theory Analysis of Fock Matrix in NBO Basis

     Threshold for printing:   0.25 kcal/mol
                                                                              E(2)  E(j)-E(i) F(i,j)
         Donor NBO (i)                     Acceptor NBO (j)                 kcal/mol   a.u.    a.u. 
 ===================================================================================================

 within unit  1
       None above threshold


 Natural Bond Orbitals (Summary):

                                                            Principal Delocalizations
           NBO                        Occupancy    Energy   (geminal,vicinal,remote)
 ====================================================================================
 Molecular unit  1  (O2)
     1. BD (   1) O   1 - O   2          1.00000    -0.42034   
     2. BD (   2) O   1 - O   2          1.00000    -0.40493   
     3. CR (   1) O   1                  1.00000   -19.80883   
     4. CR (   1) O   2                  1.00000   -19.80883   
     5. LP (   1) O   1                  0.99999    -1.12240   
     6. LP (   2) O   1                  0.99987    -0.48661   
     7. LP (   1) O   2                  0.99999    -1.12240   
     8. LP (   2) O   2                  0.99987    -0.48661   
     9. RY*(   1) O   1                  0.00013     0.29276   
    10. RY*(   2) O   1                  0.00001     0.36302   
    11. RY*(   3) O   1                  0.00000    49.44818   
    12. RY*(   4) O   1                  0.00000     0.51328   
    13. RY*(   5) O   1                  0.00000     0.80845   
    14. RY*(   6) O   1                  0.00000     4.74243   
    15. RY*(   7) O   1                  0.00000     1.36218   
    16. RY*(   8) O   1                  0.00000     1.02216   
    17. RY*(   9) O   1                  0.00000     4.79691   
    18. RY*(  10) O   1                  0.00000     0.53990   
    19. RY*(  11) O   1                  0.00000     0.81737   
    20. RY*(  12) O   1                  0.00000     4.70429   
    21. RY*(  13) O   1                  0.00000     2.79004   
    22. RY*(  14) O   1                  0.00000     2.75481   
    23. RY*(  15) O   1                  0.00000     2.78972   
    24. RY*(  16) O   1                  0.00000     2.78025   
    25. RY*(  17) O   1                  0.00000     2.73326   
    26. RY*(   1) O   2                  0.00013     0.29276   
    27. RY*(   2) O   2                  0.00001     0.36302   
    28. RY*(   3) O   2                  0.00000    49.44818   
    29. RY*(   4) O   2                  0.00000     0.51328   
    30. RY*(   5) O   2                  0.00000     0.80845   
    31. RY*(   6) O   2                  0.00000     4.74243   
    32. RY*(   7) O   2                  0.00000     1.36218   
    33. RY*(   8) O   2                  0.00000     1.02216   
    34. RY*(   9) O   2                  0.00000     4.79691   
    35. RY*(  10) O   2                  0.00000     0.53990   
    36. RY*(  11) O   2                  0.00000     0.81737   
    37. RY*(  12) O   2                  0.00000     4.70429   
    38. RY*(  13) O   2                  0.00000     2.79004   
    39. RY*(  14) O   2                  0.00000     2.75481   
    40. RY*(  15) O   2                  0.00000     2.78972   
    41. RY*(  16) O   2                  0.00000     2.78025   
    42. RY*(  17) O   2                  0.00000     2.73326   
    43. BD*(   1) O   1 - O   2          0.00000    -0.28957   
    44. BD*(   2) O   1 - O   2          0.00000    -0.30583   
       -------------------------------
              Total Lewis    7.99971  ( 99.9964%)
        Valence non-Lewis    0.00000  (  0.0000%)
        Rydberg non-Lewis    0.00029  (  0.0036%)
       -------------------------------
            Total unit  1    8.00000  (100.0000%)
           Charge unit  1    0.00000
 Sorting of NBOs:                    4    3    5    7    6    8    1    2   44   43
 Sorting of NBOs:                    9   26   27   10   29   12   35   18   30   13
 Sorting of NBOs:                   36   19   16   33   32   15   25   42   22   39
 Sorting of NBOs:                   24   41   23   40   21   38   20   37   14   31
 Sorting of NBOs:                   34   17   11   28
 Reordering of NBOs for storage:     4    3    5    7    6    8    1    2   44   43
 Reordering of NBOs for storage:     9   26   27   10   29   12   35   18   30   13
 Reordering of NBOs for storage:    36   19   16   33   32   15   25   42   22   39
 Reordering of NBOs for storage:    24   41   23   40   21   38   20   37   14   31
 Reordering of NBOs for storage:    34   17   11   28
 Labels of output orbitals:  CR  CR  LP  LP  LP  LP  BD  BD  BD* BD* RY* RY* RY* RY* RY* RY* RY* RY* RY* RY* 
 Labels of output orbitals:  RY* RY* RY* RY* RY* RY* RY* RY* RY* RY* RY* RY* RY* RY* RY* RY* RY* RY* RY* RY* 
 Labels of output orbitals:  RY* RY* RY* RY* 
 GSVD:  LWork=       -1584 too small for GESVD, short by        7020 words or        7020 for optimal perf.


 ***************************************************
 *******         Beta  spin orbitals         *******
 ***************************************************


 NATURAL POPULATIONS:  Natural atomic orbital occupancies 
                                                          
   NAO  Atom  No  lang   Type(AO)    Occupancy      Energy
 ----------------------------------------------------------
     1    O    1  S      Cor( 1S)     1.00000     -19.80883
     2    O    1  S      Val( 2S)     0.99948      -1.12272
     3    O    1  S      Ryd( 3S)     0.00001       0.24585
     4    O    1  S      Ryd( 4S)     0.00000       1.37344
     5    O    1  S      Ryd( 5S)     0.00000      49.44920
     6    O    1  px     Val( 2p)     0.49980      -0.35492
     7    O    1  px     Ryd( 3p)     0.00019       0.51282
     8    O    1  px     Ryd( 4p)     0.00001       0.80841
     9    O    1  px     Ryd( 5p)     0.00000       4.74246
    10    O    1  py     Val( 2p)     0.99952      -0.48624
    11    O    1  py     Ryd( 3p)     0.00041       0.50936
    12    O    1  py     Ryd( 4p)     0.00007       0.81978
    13    O    1  py     Ryd( 5p)     0.00000       4.78105
    14    O    1  pz     Val( 2p)     0.50029      -0.35380
    15    O    1  pz     Ryd( 3p)     0.00017       0.53934
    16    O    1  pz     Ryd( 4p)     0.00000       0.85576
    17    O    1  pz     Ryd( 5p)     0.00000       4.73529
    18    O    1  dxy    Ryd( 3d)     0.00000       2.79004
    19    O    1  dxz    Ryd( 3d)     0.00000       2.75481
    20    O    1  dyz    Ryd( 3d)     0.00000       2.79099
    21    O    1  dx2y2  Ryd( 3d)     0.00004       2.78220
    22    O    1  dz2    Ryd( 3d)     0.00002       2.76654
 
    23    O    2  S      Cor( 1S)     1.00000     -19.80883
    24    O    2  S      Val( 2S)     0.99948      -1.12272
    25    O    2  S      Ryd( 3S)     0.00001       0.24585
    26    O    2  S      Ryd( 4S)     0.00000       1.37344
    27    O    2  S      Ryd( 5S)     0.00000      49.44920
    28    O    2  px     Val( 2p)     0.49980      -0.35492
    29    O    2  px     Ryd( 3p)     0.00019       0.51282
    30    O    2  px     Ryd( 4p)     0.00001       0.80841
    31    O    2  px     Ryd( 5p)     0.00000       4.74246
    32    O    2  py     Val( 2p)     0.99952      -0.48624
    33    O    2  py     Ryd( 3p)     0.00041       0.50936
    34    O    2  py     Ryd( 4p)     0.00007       0.81978
    35    O    2  py     Ryd( 5p)     0.00000       4.78105
    36    O    2  pz     Val( 2p)     0.50029      -0.35380
    37    O    2  pz     Ryd( 3p)     0.00017       0.53934
    38    O    2  pz     Ryd( 4p)     0.00000       0.85576
    39    O    2  pz     Ryd( 5p)     0.00000       4.73529
    40    O    2  dxy    Ryd( 3d)     0.00000       2.79004
    41    O    2  dxz    Ryd( 3d)     0.00000       2.75481
    42    O    2  dyz    Ryd( 3d)     0.00000       2.79099
    43    O    2  dx2y2  Ryd( 3d)     0.00004       2.78220
    44    O    2  dz2    Ryd( 3d)     0.00002       2.76654

 WARNING:  Population inversion found on atom  O    1
           Population inversion found on atom  O    2


 Summary of Natural Population Analysis:                  
                                                          
                                       Natural Population 
                Natural  -----------------------------------------------
    Atom  No    Charge         Core      Valence    Rydberg      Total
 -----------------------------------------------------------------------
      O    1   -0.00000      1.00000     2.99909    0.00091     4.00000
      O    2   -0.00000      1.00000     2.99909    0.00091     4.00000
 =======================================================================
   * Total *   -0.00000      2.00000     5.99818    0.00182     8.00000

                                 Natural Population      
 --------------------------------------------------------
   Core                       2.00000 (100.0000% of   2)
   Valence                    5.99818 ( 99.9697% of   6)
   Natural Minimal Basis      7.99818 ( 99.9773% of   8)
   Natural Rydberg Basis      0.00182 (  0.0227% of   8)
 --------------------------------------------------------

    Atom  No          Natural Electron Configuration
 ----------------------------------------------------------------------------
      O    1      [core]2S( 1.00)2p( 2.00)
      O    2      [core]2S( 1.00)2p( 2.00)


 NATURAL BOND ORBITAL ANALYSIS, beta spin orbitals:

                       Occupancies       Lewis Structure    Low   High
           Occ.    -------------------  -----------------   occ   occ
  Cycle   Thresh.   Lewis   Non-Lewis     CR  BD  3C  LP    (L)   (NL)   Dev
 =============================================================================
   1(1)    0.90     7.99971   0.00029      2   2   0   4     0      0    0.00
 -----------------------------------------------------------------------------

 Structure accepted: No low occupancy Lewis orbitals

 --------------------------------------------------------
   Core                      2.00000 (100.000% of   2)
   Valence Lewis             5.99971 ( 99.995% of   6)
  ==================       ============================
   Total Lewis               7.99971 ( 99.996% of   8)
  -----------------------------------------------------
   Valence non-Lewis         0.00000 (  0.000% of   8)
   Rydberg non-Lewis         0.00029 (  0.004% of   8)
  ==================       ============================
   Total non-Lewis           0.00029 (  0.004% of   8)
 --------------------------------------------------------


       (Occupancy)   Bond orbital/ Coefficients/ Hybrids
 ---------------------------------------------------------------------------------
     1. (1.00000) BD ( 1) O   1 - O   2  
                ( 50.00%)   0.7071* O   1 s(  0.09%)p99.99( 99.91%)d 0.01(  0.00%)
                                            0.0000 -0.0300 -0.0003 -0.0015  0.0001
                                            0.0000  0.0000  0.0000  0.0000  0.0000
                                            0.0000  0.0000  0.0000  0.9994  0.0177
                                           -0.0003 -0.0011  0.0000  0.0000  0.0000
                                           -0.0003 -0.0034
                ( 50.00%)   0.7071* O   2 s(  0.09%)p99.99( 99.91%)d 0.01(  0.00%)
                                            0.0000 -0.0300 -0.0003 -0.0015  0.0001
                                            0.0000  0.0000  0.0000  0.0000  0.0000
                                            0.0000  0.0000  0.0000 -0.9994 -0.0177
                                            0.0003  0.0011  0.0000  0.0000  0.0000
                                           -0.0003 -0.0034
     2. (1.00000) BD ( 2) O   1 - O   2  
                ( 50.00%)   0.7071* O   1 s(  0.00%)p 1.00(100.00%)d 0.00(  0.00%)
                                            0.0000  0.0000  0.0000  0.0000  0.0000
                                            0.9998  0.0194  0.0037  0.0009  0.0000
                                            0.0000  0.0000  0.0000  0.0000  0.0000
                                            0.0000  0.0000  0.0000 -0.0019  0.0000
                                            0.0000  0.0000
                ( 50.00%)   0.7071* O   2 s(  0.00%)p 1.00(100.00%)d 0.00(  0.00%)
                                            0.0000  0.0000  0.0000  0.0000  0.0000
                                            0.9998  0.0194  0.0037  0.0009  0.0000
                                            0.0000  0.0000  0.0000  0.0000  0.0000
                                            0.0000  0.0000  0.0000  0.0019  0.0000
                                            0.0000  0.0000
     3. (1.00000) CR ( 1) O   1           s(100.00%)
                                            1.0000 -0.0000  0.0000  0.0000 -0.0000
                                            0.0000  0.0000  0.0000  0.0000  0.0000
                                            0.0000  0.0000  0.0000 -0.0000 -0.0000
                                            0.0000 -0.0000  0.0000  0.0000  0.0000
                                           -0.0000 -0.0000
     4. (1.00000) CR ( 1) O   2           s(100.00%)
                                            1.0000 -0.0000  0.0000  0.0000 -0.0000
                                            0.0000  0.0000  0.0000  0.0000  0.0000
                                            0.0000  0.0000  0.0000  0.0000  0.0000
                                           -0.0000  0.0000  0.0000  0.0000  0.0000
                                           -0.0000 -0.0000
     5. (0.99999) LP ( 1) O   1           s( 99.90%)p 0.00(  0.09%)d 0.00(  0.01%)
                                            0.0000  0.9995 -0.0000 -0.0000  0.0000
                                            0.0000  0.0000  0.0000  0.0000  0.0000
                                            0.0000  0.0000  0.0000  0.0300  0.0021
                                           -0.0000  0.0006  0.0000  0.0000  0.0000
                                            0.0062  0.0038
     6. (0.99987) LP ( 2) O   1           s(  0.00%)p 1.00(100.00%)d 0.00(  0.00%)
                                            0.0000  0.0000  0.0000  0.0000  0.0000
                                            0.0000  0.0000  0.0000  0.0000  0.9998
                                           -0.0186 -0.0017  0.0001  0.0000  0.0000
                                            0.0000  0.0000  0.0000  0.0000 -0.0004
                                            0.0000  0.0000
     7. (0.99999) LP ( 1) O   2           s( 99.90%)p 0.00(  0.09%)d 0.00(  0.01%)
                                            0.0000  0.9995 -0.0000 -0.0000  0.0000
                                            0.0000  0.0000  0.0000  0.0000  0.0000
                                            0.0000  0.0000  0.0000 -0.0300 -0.0021
                                            0.0000 -0.0006  0.0000  0.0000  0.0000
                                            0.0062  0.0038
     8. (0.99987) LP ( 2) O   2           s(  0.00%)p 1.00(100.00%)d 0.00(  0.00%)
                                            0.0000  0.0000  0.0000  0.0000  0.0000
                                            0.0000  0.0000  0.0000  0.0000  0.9998
                                           -0.0186 -0.0017  0.0001  0.0000  0.0000
                                            0.0000  0.0000  0.0000  0.0000  0.0004
                                            0.0000  0.0000
     9. (0.00013) RY*( 1) O   1           s(  0.00%)p 1.00( 99.96%)d 0.00(  0.04%)
                                            0.0000  0.0000  0.0000  0.0000  0.0000
                                            0.0000  0.0000  0.0000  0.0000  0.0120
                                            0.7091 -0.7046  0.0146  0.0000  0.0000
                                            0.0000  0.0000  0.0000  0.0000 -0.0201
                                            0.0000  0.0000
    10. (0.00001) RY*( 2) O   1           s( 94.13%)p 0.05(  4.88%)d 0.01(  0.99%)
    11. (0.00000) RY*( 3) O   1           s(100.00%)p 0.00(  0.00%)d 0.00(  0.00%)
    12. (0.00000) RY*( 4) O   1           s(  0.00%)p 1.00(100.00%)
    13. (0.00000) RY*( 5) O   1           s(  0.00%)p 1.00(100.00%)
    14. (0.00000) RY*( 6) O   1           s(  0.00%)p 1.00(100.00%)
    15. (0.00000) RY*( 7) O   1           s(100.00%)p 0.00(  0.00%)d 0.00(  0.00%)
    16. (0.00000) RY*( 8) O   1           s(  0.00%)p 1.00(100.00%)
    17. (0.00000) RY*( 9) O   1           s(  0.00%)p 1.00(100.00%)
    18. (0.00000) RY*(10) O   1           s(  0.00%)p 1.00(100.00%)
    19. (0.00000) RY*(11) O   1           s(  3.92%)p24.53( 96.05%)d 0.01(  0.04%)
    20. (0.00000) RY*(12) O   1           s(  0.94%)p99.99( 99.06%)
    21. (0.00000) RY*(13) O   1           s(  0.00%)p 0.00(  0.00%)d 1.00(100.00%)
    22. (0.00000) RY*(14) O   1           s(  0.00%)p 0.00(  0.00%)d 1.00(100.00%)
    23. (0.00000) RY*(15) O   1           s(  0.00%)p 1.00(  0.04%)d99.99( 99.96%)
    24. (0.00000) RY*(16) O   1           s(  0.07%)p 0.05(  0.00%)d99.99( 99.93%)
    25. (0.00000) RY*(17) O   1           s(  0.96%)p 0.01(  0.01%)d99.99( 99.03%)
    26. (0.00013) RY*( 1) O   2           s(  0.00%)p 1.00( 99.96%)d 0.00(  0.04%)
                                            0.0000  0.0000  0.0000  0.0000  0.0000
                                            0.0000  0.0000  0.0000  0.0000  0.0120
                                            0.7091 -0.7046  0.0146  0.0000  0.0000
                                            0.0000  0.0000  0.0000  0.0000  0.0201
                                            0.0000  0.0000
    27. (0.00001) RY*( 2) O   2           s( 94.13%)p 0.05(  4.88%)d 0.01(  0.99%)
    28. (0.00000) RY*( 3) O   2           s(100.00%)p 0.00(  0.00%)d 0.00(  0.00%)
    29. (0.00000) RY*( 4) O   2           s(  0.00%)p 1.00(100.00%)
    30. (0.00000) RY*( 5) O   2           s(  0.00%)p 1.00(100.00%)
    31. (0.00000) RY*( 6) O   2           s(  0.00%)p 1.00(100.00%)
    32. (0.00000) RY*( 7) O   2           s(100.00%)p 0.00(  0.00%)d 0.00(  0.00%)
    33. (0.00000) RY*( 8) O   2           s(  0.00%)p 1.00(100.00%)
    34. (0.00000) RY*( 9) O   2           s(  0.00%)p 1.00(100.00%)
    35. (0.00000) RY*(10) O   2           s(  0.00%)p 1.00(100.00%)
    36. (0.00000) RY*(11) O   2           s(  3.92%)p24.53( 96.05%)d 0.01(  0.04%)
    37. (0.00000) RY*(12) O   2           s(  0.94%)p99.99( 99.06%)
    38. (0.00000) RY*(13) O   2           s(  0.00%)p 0.00(  0.00%)d 1.00(100.00%)
    39. (0.00000) RY*(14) O   2           s(  0.00%)p 0.00(  0.00%)d 1.00(100.00%)
    40. (0.00000) RY*(15) O   2           s(  0.00%)p 1.00(  0.04%)d99.99( 99.96%)
    41. (0.00000) RY*(16) O   2           s(  0.07%)p 0.05(  0.00%)d99.99( 99.93%)
    42. (0.00000) RY*(17) O   2           s(  0.96%)p 0.01(  0.01%)d99.99( 99.03%)
    43. (0.00000) BD*( 1) O   1 - O   2  
                ( 50.00%)   0.7071* O   1 s(  0.09%)p99.99( 99.91%)d 0.01(  0.00%)
                ( 50.00%)  -0.7071* O   2 s(  0.09%)p99.99( 99.91%)d 0.01(  0.00%)
    44. (0.00000) BD*( 2) O   1 - O   2  
                ( 50.00%)   0.7071* O   1 s(  0.00%)p 1.00(100.00%)d 0.00(  0.00%)
                ( 50.00%)  -0.7071* O   2 s(  0.00%)p 1.00(100.00%)d 0.00(  0.00%)


 NHO Directionality and "Bond Bending" (deviations from line of nuclear centers)

         [Thresholds for printing:  angular deviation  >  1.0 degree]
                                    hybrid p-character > 25.0%
                                    orbital occupancy  >  0.10e

                                Line of Centers        Hybrid 1              Hybrid 2
                                ---------------  -------------------   ------------------
                NBO               Theta   Phi    Theta   Phi    Dev    Theta   Phi    Dev
 ========================================================================================
     2. BD (   2) O   1 - O   2   180.0    0.0    90.0    0.0  90.0     90.0    0.0  90.0
     6. LP (   2) O   1             --     --     90.0   90.0   --       --     --    --
     8. LP (   2) O   2             --     --     90.0   90.0   --       --     --    --


 Second Order Perturbation Theory Analysis of Fock Matrix in NBO Basis

     Threshold for printing:   0.25 kcal/mol
                                                                              E(2)  E(j)-E(i) F(i,j)
         Donor NBO (i)                     Acceptor NBO (j)                 kcal/mol   a.u.    a.u. 
 ===================================================================================================

 within unit  1
       None above threshold


 Natural Bond Orbitals (Summary):

                                                            Principal Delocalizations
           NBO                        Occupancy    Energy   (geminal,vicinal,remote)
 ====================================================================================
 Molecular unit  1  (O2)
     1. BD (   1) O   1 - O   2          1.00000    -0.42034   
     2. BD (   2) O   1 - O   2          1.00000    -0.40493   
     3. CR (   1) O   1                  1.00000   -19.80883   
     4. CR (   1) O   2                  1.00000   -19.80883   
     5. LP (   1) O   1                  0.99999    -1.12240   
     6. LP (   2) O   1                  0.99987    -0.48661   
     7. LP (   1) O   2                  0.99999    -1.12240   
     8. LP (   2) O   2                  0.99987    -0.48661   
     9. RY*(   1) O   1                  0.00013     0.29276   
    10. RY*(   2) O   1                  0.00001     0.36302   
    11. RY*(   3) O   1                  0.00000    49.44818   
    12. RY*(   4) O   1                  0.00000     0.51328   
    13. RY*(   5) O   1                  0.00000     0.80845   
    14. RY*(   6) O   1                  0.00000     4.74243   
    15. RY*(   7) O   1                  0.00000     1.36218   
    16. RY*(   8) O   1                  0.00000     1.02216   
    17. RY*(   9) O   1                  0.00000     4.79691   
    18. RY*(  10) O   1                  0.00000     0.53990   
    19. RY*(  11) O   1                  0.00000     0.81737   
    20. RY*(  12) O   1                  0.00000     4.70429   
    21. RY*(  13) O   1                  0.00000     2.79004   
    22. RY*(  14) O   1                  0.00000     2.75481   
    23. RY*(  15) O   1                  0.00000     2.78972   
    24. RY*(  16) O   1                  0.00000     2.78025   
    25. RY*(  17) O   1                  0.00000     2.73326   
    26. RY*(   1) O   2                  0.00013     0.29276   
    27. RY*(   2) O   2                  0.00001     0.36302   
    28. RY*(   3) O   2                  0.00000    49.44818   
    29. RY*(   4) O   2                  0.00000     0.51328   
    30. RY*(   5) O   2                  0.00000     0.80845   
    31. RY*(   6) O   2                  0.00000     4.74243   
    32. RY*(   7) O   2                  0.00000     1.36218   
    33. RY*(   8) O   2                  0.00000     1.02216   
    34. RY*(   9) O   2                  0.00000     4.79691   
    35. RY*(  10) O   2                  0.00000     0.53990   
    36. RY*(  11) O   2                  0.00000     0.81737   
    37. RY*(  12) O   2                  0.00000     4.70429   
    38. RY*(  13) O   2                  0.00000     2.79004   
    39. RY*(  14) O   2                  0.00000     2.75481   
    40. RY*(  15) O   2                  0.00000     2.78972   
    41. RY*(  16) O   2                  0.00000     2.78025   
    42. RY*(  17) O   2                  0.00000     2.73326   
    43. BD*(   1) O   1 - O   2          0.00000    -0.28957   
    44. BD*(   2) O   1 - O   2          0.00000    -0.30583   
       -------------------------------
              Total Lewis    7.99971  ( 99.9964%)
        Valence non-Lewis    0.00000  (  0.0000%)
        Rydberg non-Lewis    0.00029  (  0.0036%)
       -------------------------------
            Total unit  1    8.00000  (100.0000%)
           Charge unit  1    0.00000
 Sorting of NBOs:                    4    3    5    7    6    8    1    2   44   43
 Sorting of NBOs:                    9   26   27   10   29   12   35   18   30   13
 Sorting of NBOs:                   36   19   16   33   32   15   25   42   22   39
 Sorting of NBOs:                   24   41   23   40   21   38   20   37   14   31
 Sorting of NBOs:                   34   17   11   28
 Reordering of NBOs for storage:     4    3    5    7    6    8    1    2   44   43
 Reordering of NBOs for storage:     9   26   27   10   29   12   35   18   30   13
 Reordering of NBOs for storage:    36   19   16   33   32   15   25   42   22   39
 Reordering of NBOs for storage:    24   41   23   40   21   38   20   37   14   31
 Reordering of NBOs for storage:    34   17   11   28
 Labels of output orbitals:  CR  CR  LP  LP  LP  LP  BD  BD  BD* BD* RY* RY* RY* RY* RY* RY* RY* RY* RY* RY* 
 Labels of output orbitals:  RY* RY* RY* RY* RY* RY* RY* RY* RY* RY* RY* RY* RY* RY* RY* RY* RY* RY* RY* RY* 
 Labels of output orbitals:  RY* RY* RY* RY* 
 GSVD:  LWork=       -1584 too small for GESVD, short by        7020 words or        7020 for optimal perf.
 Leave Link  607 at Mon Apr 21 19:54:06 2025, MaxMem=   536870912 cpu:               8.2 elap:               1.4
 (Enter /home/szhao/Apps/g16/l701.exe)
 ... and contract with generalized density number  0.
 Compute integral first derivatives.
 Leave Link  701 at Mon Apr 21 19:54:07 2025, MaxMem=   536870912 cpu:               1.5 elap:               0.3
 (Enter /home/szhao/Apps/g16/l702.exe)
 L702 exits ... SP integral derivatives will be done elsewhere.
 Leave Link  702 at Mon Apr 21 19:54:08 2025, MaxMem=   536870912 cpu:               0.4 elap:               0.2
 (Enter /home/szhao/Apps/g16/l703.exe)
 Integral derivatives from FoFJK, PRISM(SPDF).
 Compute integral first derivatives, UseDBF=F ICtDFT=           0.
 Calling FoFJK, ICntrl=      2127 FMM=F ISym2X=1 I1Cent= 0 IOpClX= 1 NMat=1 NMatS=1 NMatT=0.
 FoFJK:  IHMeth= 1 ICntrl=    2127 DoSepK=F KAlg= 0 I1Cent=           0 FoldK=F
 IRaf=         0 NMat=       1 IRICut=       1 DoRegI=T DoRafI=F ISym2E= 1 IDoP0=0 IntGTp=1.
 FoFCou: FMM=F IPFlag=           0 FMFlag=      100000 FMFlg1=         800
         NFxFlg=           0 DoJE=F BraDBF=F KetDBF=F FulRan=T
         wScrn=  0.000000 ICntrl=      2127 IOpCl=  1 I1Cent=           0 NGrid=           0
         NMat0=    1 NMatS0=      1 NMatT0=    0 NMatD0=    1 NMtDS0=    0 NMtDT0=    0
 Petite list used in FoFCou.
 Leave Link  703 at Mon Apr 21 19:54:08 2025, MaxMem=   536870912 cpu:               1.9 elap:               0.4
 (Enter /home/szhao/Apps/g16/l716.exe)
 Dipole        =-2.36658272D-30 7.86501458D-35 0.00000000D+00
 ***** Axes restored to original set *****
 -------------------------------------------------------------------
 Center     Atomic                   Forces (Hartrees/Bohr)
 Number     Number              X              Y              Z
 -------------------------------------------------------------------
      1        8           0.045358813   -0.000000000    0.000000000
      2        8          -0.045358813    0.000000000   -0.000000000
 -------------------------------------------------------------------
 Cartesian Forces:  Max     0.045358813 RMS     0.026187923
 Z-matrix is all fixed cartesians, so copy forces.
 Force constants in Cartesian coordinates: 
                1             2             3             4             5 
      1  0.100000D+01
      2  0.000000D+00  0.100000D+01
      3  0.000000D+00  0.000000D+00  0.100000D+01
      4  0.000000D+00  0.000000D+00  0.000000D+00  0.100000D+01
      5  0.000000D+00  0.000000D+00  0.000000D+00  0.000000D+00  0.100000D+01
      6  0.000000D+00  0.000000D+00  0.000000D+00  0.000000D+00  0.000000D+00
                6 
      6  0.100000D+01
 Leave Link  716 at Mon Apr 21 19:54:09 2025, MaxMem=   536870912 cpu:               0.6 elap:               0.1
 (Enter /home/szhao/Apps/g16/l103.exe)

 GradGradGradGradGradGradGradGradGradGradGradGradGradGradGradGradGradGrad
 Berny optimization.
 Search for a local minimum.
 Step number   1 out of a maximum of    2
 All quantities printed in internal units (Hartrees-Bohrs-Radians)
 Second derivative matrix not updated -- first step.
 The second derivative matrix:
                          X1        Y1        Z1        X2        Y2
           X1           1.00000
           Y1           0.00000   1.00000
           Z1           0.00000   0.00000   1.00000
           X2           0.00000   0.00000   0.00000   1.00000
           Y2           0.00000   0.00000   0.00000   0.00000   1.00000
           Z2           0.00000   0.00000   0.00000   0.00000   0.00000
                          Z2
           Z2           1.00000
 ITU=  0
     Eigenvalues ---    1.00000   1.00000   1.00000   1.00000   1.00000
     Eigenvalues ---    1.00000
 Angle between quadratic step and forces=   0.00 degrees.
 ClnCor:  largest displacement from symmetrization is 1.52D-16 for atom     1.
 Linear search not attempted -- first point.
 ClnCor:  largest displacement from symmetrization is 0.00D+00 for atom     0.
 B after Tr=     0.000000    0.000000    0.000000
         Rot=    1.000000    0.000000    0.000000    0.000000 Ang=   0.00 deg.
 Variable       Old X    -DE/DX   Delta X   Delta X   Delta X     New X
                                 (Linear)    (Quad)   (Total)
    X1       -2.82242   0.04536   0.00000   0.04536   0.04536  -2.77706
    Y1        0.00000  -0.00000   0.00000   0.00000   0.00000   0.00000
    Z1        0.00000   0.00000   0.00000   0.00000   0.00000   0.00000
    X2        2.82242  -0.04536   0.00000  -0.04536  -0.04536   2.77706
    Y2        0.00000   0.00000   0.00000   0.00000   0.00000   0.00000
    Z2        0.00000  -0.00000   0.00000  -0.00000  -0.00000   0.00000
         Item               Value     Threshold  Converged?
 Maximum Force            0.045359     0.000450     NO 
 RMS     Force            0.026188     0.000300     NO 
 Maximum Displacement     0.045359     0.001800     NO 
 RMS     Displacement     0.026188     0.001200     NO 
 Predicted change in Energy=-2.057422D-03
 GradGradGradGradGradGradGradGradGradGradGradGradGradGradGradGradGradGrad

 Leave Link  103 at Mon Apr 21 19:54:09 2025, MaxMem=   536870912 cpu:               0.4 elap:               0.1
 (Enter /home/szhao/Apps/g16/l9999.exe)
 1\1\GINC-NODE05\Force\UM062X\6-311+G(d,p)\O2\SZHAO\21-Apr-2025\0\\#p U
 M062X/6-311+G** force int=superfine pop=saveNBO\\Title Card Required\\
 0,1\O,-1.493562,0.,0.\O,1.493562,0.,0.\\Version=ES64L-G16RevA.03\HF=-1
 49.8148968\S2=0.\S2-1=0.\S2A=0.\RMSD=2.327e-09\RMSF=2.619e-02\Dipole=0
 .,0.,0.\Quadrupole=0.9687001,-1.1650125,0.1963124,0.,0.,0.\PG=D*H [C*(
 O1.O1)]\\@


 AND HERE I AM, FOR ALL MY LORE,
 THE WRETCHED FOOL I WAS BEFORE.
 CALLED MASTER OF ARTS, AND DOCTOR TO BOOT,
 FOR TEN YEARS ALMOST I CONFUTE
 AND UP AND DOWN, WHEREVER IT GOES
 I DRAG MY STUDENTS BY THE NOSE --
 AND SEE THAT FOR ALL OUR SCIENCE AND ART
 WE CAN KNOW NOTHING.  IT BURNS MY HEART.

                                       -- FAUST
 Job cpu time:       0 days  0 hours  0 minutes 34.1 seconds.
 Elapsed time:       0 days  0 hours  0 minutes  8.4 seconds.
 File lengths (MBytes):  RWF=     17 Int=      0 D2E=      0 Chk=      2 Scr=      2
 Normal termination of Gaussian 16 at Mon Apr 21 19:54:09 2025.
