Title Card Required                                                     
Force     UM062X                                                      6-311+G(d,p)        
Number of atoms                            I                6
Info1-9                                    I   N=           9
          15          15           0           0           0         100
           5          18        -502
Full Title                                 C   N=           2
Title Card Required     
Route                                      C   N=           4
#p UM062X/6-311+G** force int=superfine         
Charge                                     I                0
Multiplicity                               I                1
Number of electrons                        I               16
Number of alpha electrons                  I                8
Number of beta electrons                   I                8
Number of basis functions                  I               68
Number of independent functions            I               68
Number of point charges in /Mol/           I                0
Number of translation vectors              I                0
Atomic numbers                             I   N=           6
           6           6           1           1           1           1
Nuclear charges                            R   N=           6
  6.00000000E+00  6.00000000E+00  1.00000000E+00  1.00000000E+00  1.00000000E+00
  1.00000000E+00
Current cartesian coordinates              R   N=          18
  5.27330326E-21  1.19001345E+00  0.00000000E+00 -1.45743405E-16 -1.19001345E+00
  0.00000000E+00  1.73519944E+00  2.28607161E+00  0.00000000E+00 -1.73491787E+00
  2.28631350E+00  4.93038066E-32 -1.73519944E+00 -2.28607161E+00  0.00000000E+00
  1.73491787E+00 -2.28631350E+00 -4.93038066E-32
Number of symbols in /Mol/                 I                0
Force Field                                I                0
Atom Types                                 C   N=           6
                                                            
            
Int Atom Types                             I   N=           6
           0           0           0           0           0           0
MM charges                                 R   N=           6
  0.00000000E+00  0.00000000E+00  0.00000000E+00  0.00000000E+00  0.00000000E+00
  0.00000000E+00
Integer atomic weights                     I   N=           6
          12          12           1           1           1           1
Real atomic weights                        R   N=           6
  1.20000000E+01  1.20000000E+01  1.00782504E+00  1.00782504E+00  1.00782504E+00
  1.00782504E+00
Atom fragment info                         I   N=           6
           0           0           0           0           0           0
Atom residue num                           I   N=           6
           0           0           0           0           0           0
Nuclear spins                              I   N=           6
           0           0           1           1           1           1
Nuclear ZEff                               R   N=           6
 -3.60000000E+00 -3.60000000E+00 -1.00000000E+00 -1.00000000E+00 -1.00000000E+00
 -1.00000000E+00
Nuclear ZNuc                               R   N=           6
  6.00000000E+00  6.00000000E+00  1.00000000E+00  1.00000000E+00  1.00000000E+00
  1.00000000E+00
Nuclear QMom                               R   N=           6
  0.00000000E+00  0.00000000E+00  0.00000000E+00  0.00000000E+00  0.00000000E+00
  0.00000000E+00
Nuclear GFac                               R   N=           6
  0.00000000E+00  0.00000000E+00  2.79284600E+00  2.79284600E+00  2.79284600E+00
  2.79284600E+00
MicOpt                                     I   N=           6
          -1          -1          -1          -1          -1          -1
Number of residues                         I                0
Number of secondary structures             I                0
SymInf integers                            I   N=          26
           2           4           1           1           1          -1
          -1           1           1           1          -1          -1
          -1          -1           0           0           0           0
           0           0           0           0           0           0
           0           0
RotTr to input orientation                 R   N=          12
  4.85240849E-17 -1.00000000E+00 -2.12205023E-21 -1.00000000E+00 -4.85255620E-17
 -1.22464680E-16  1.22464680E-16  2.12205023E-21 -1.00000000E+00  5.55111512E-17
  0.00000000E+00  0.00000000E+00
Number of contracted shells                I               28
Number of primitive shells                 I               50
Pure/Cartesian d shells                    I                0
Pure/Cartesian f shells                    I                0
Highest angular momentum                   I                2
Largest degree of contraction              I                6
Shell types                                I   N=          28
           0          -1          -1          -1          -1          -2
           0          -1          -1          -1          -1          -2
           0           0           0           1           0           0
           0           1           0           0           0           1
           0           0           0           1
Number of primitives per shell             I   N=          28
           6           3           1           1           1           1
           6           3           1           1           1           1
           3           1           1           1           3           1
           1           1           3           1           1           1
           3           1           1           1
Shell to atom map                          I   N=          28
           1           1           1           1           1           1
           2           2           2           2           2           2
           3           3           3           3           4           4
           4           4           5           5           5           5
           6           6           6           6
Primitive exponents                        R   N=          50
  4.56324000E+03  6.82024000E+02  1.54973000E+02  4.44553000E+01  1.30290000E+01
  1.82773000E+00  2.09642000E+01  4.80331000E+00  1.45933000E+00  4.83456000E-01
  1.45585000E-01  4.38000000E-02  6.26000000E-01  4.56324000E+03  6.82024000E+02
  1.54973000E+02  4.44553000E+01  1.30290000E+01  1.82773000E+00  2.09642000E+01
  4.80331000E+00  1.45933000E+00  4.83456000E-01  1.45585000E-01  4.38000000E-02
  6.26000000E-01  3.38650000E+01  5.09479000E+00  1.15879000E+00  3.25840000E-01
  1.02741000E-01  7.50000000E-01  3.38650000E+01  5.09479000E+00  1.15879000E+00
  3.25840000E-01  1.02741000E-01  7.50000000E-01  3.38650000E+01  5.09479000E+00
  1.15879000E+00  3.25840000E-01  1.02741000E-01  7.50000000E-01  3.38650000E+01
  5.09479000E+00  1.15879000E+00  3.25840000E-01  1.02741000E-01  7.50000000E-01
Contraction coefficients                   R   N=          50
  1.96665025E-03  1.52306019E-02  7.61269097E-02  2.60801033E-01  6.16462078E-01
  2.21006028E-01  1.14660081E-01  9.19999648E-01 -3.03068213E-03  1.00000000E+00
  1.00000000E+00  1.00000000E+00  1.00000000E+00  1.96665025E-03  1.52306019E-02
  7.61269097E-02  2.60801033E-01  6.16462078E-01  2.21006028E-01  1.14660081E-01
  9.19999648E-01 -3.03068213E-03  1.00000000E+00  1.00000000E+00  1.00000000E+00
  1.00000000E+00  2.54938145E-02  1.90373109E-01  8.52161486E-01  1.00000000E+00
  1.00000000E+00  1.00000000E+00  2.54938145E-02  1.90373109E-01  8.52161486E-01
  1.00000000E+00  1.00000000E+00  1.00000000E+00  2.54938145E-02  1.90373109E-01
  8.52161486E-01  1.00000000E+00  1.00000000E+00  1.00000000E+00  2.54938145E-02
  1.90373109E-01  8.52161486E-01  1.00000000E+00  1.00000000E+00  1.00000000E+00
P(S=P) Contraction coefficients            R   N=          50
  0.00000000E+00  0.00000000E+00  0.00000000E+00  0.00000000E+00  0.00000000E+00
  0.00000000E+00  4.02486927E-02  2.37593957E-01  8.15853851E-01  1.00000000E+00
  1.00000000E+00  1.00000000E+00  0.00000000E+00  0.00000000E+00  0.00000000E+00
  0.00000000E+00  0.00000000E+00  0.00000000E+00  0.00000000E+00  4.02486927E-02
  2.37593957E-01  8.15853851E-01  1.00000000E+00  1.00000000E+00  1.00000000E+00
  0.00000000E+00  0.00000000E+00  0.00000000E+00  0.00000000E+00  0.00000000E+00
  0.00000000E+00  0.00000000E+00  0.00000000E+00  0.00000000E+00  0.00000000E+00
  0.00000000E+00  0.00000000E+00  0.00000000E+00  0.00000000E+00  0.00000000E+00
  0.00000000E+00  0.00000000E+00  0.00000000E+00  0.00000000E+00  0.00000000E+00
  0.00000000E+00  0.00000000E+00  0.00000000E+00  0.00000000E+00  0.00000000E+00
Coordinates of each shell                  R   N=          84
  3.51553551E-21  1.19001345E+00  0.00000000E+00  3.51553551E-21  1.19001345E+00
  0.00000000E+00  3.51553551E-21  1.19001345E+00  0.00000000E+00  3.51553551E-21
  1.19001345E+00  0.00000000E+00  3.51553551E-21  1.19001345E+00  0.00000000E+00
  3.51553551E-21  1.19001345E+00  0.00000000E+00 -1.45741648E-16 -1.19001345E+00
  0.00000000E+00 -1.45741648E-16 -1.19001345E+00  0.00000000E+00 -1.45741648E-16
 -1.19001345E+00  0.00000000E+00 -1.45741648E-16 -1.19001345E+00  0.00000000E+00
 -1.45741648E-16 -1.19001345E+00  0.00000000E+00 -1.45741648E-16 -1.19001345E+00
  0.00000000E+00  1.73519944E+00  2.28607161E+00  0.00000000E+00  1.73519944E+00
  2.28607161E+00  0.00000000E+00  1.73519944E+00  2.28607161E+00  0.00000000E+00
  1.73519944E+00  2.28607161E+00  0.00000000E+00 -1.73491787E+00  2.28631350E+00
  0.00000000E+00 -1.73491787E+00  2.28631350E+00  0.00000000E+00 -1.73491787E+00
  2.28631350E+00  0.00000000E+00 -1.73491787E+00  2.28631350E+00  0.00000000E+00
 -1.73519944E+00 -2.28607161E+00  0.00000000E+00 -1.73519944E+00 -2.28607161E+00
  0.00000000E+00 -1.73519944E+00 -2.28607161E+00  0.00000000E+00 -1.73519944E+00
 -2.28607161E+00  0.00000000E+00  1.73491787E+00 -2.28631350E+00  0.00000000E+00
  1.73491787E+00 -2.28631350E+00  0.00000000E+00  1.73491787E+00 -2.28631350E+00
  0.00000000E+00  1.73491787E+00 -2.28631350E+00  0.00000000E+00
Num ILSW                                   I              100
ILSW                                       I   N=         100
           1           0           0           0           2           0
           0           0           0           0        4336          -1
           7           0           0           0           2           0
           0           0           0           0           1           0
           1           0           0           0           0           0
           0           0      100000           0          -1           0
           0           0           0           0           0           0
           0           0           0           1           0           0
           0 -2000000000           1           0           0           0
           0           0           4          52           0           0
           0           0          55           0           0           0
           0           0           0           6           0           1
           0           0           0           0           0           0
           0           0           0           0           0           0
           0           0           0           0           0           0
           0           0           0           0           0           0
           0           0           0           0
Num RLSW                                   I               52
RLSW                                       R   N=          52
  1.00000000E+00  1.00000000E+00  1.00000000E+00  1.00000000E+00  5.40000000E-01
  0.00000000E+00  0.00000000E+00  1.00000000E+00  0.00000000E+00  0.00000000E+00
  0.00000000E+00  0.00000000E+00  1.00000000E+00  0.00000000E+00  0.00000000E+00
  0.00000000E+00  0.00000000E+00  1.00000000E+00  0.00000000E+00  0.00000000E+00
  0.00000000E+00  0.00000000E+00  1.00000000E+00  0.00000000E+00  0.00000000E+00
  0.00000000E+00  0.00000000E+00  1.00000000E+00  0.00000000E+00  0.00000000E+00
  0.00000000E+00  0.00000000E+00  1.00000000E+00  0.00000000E+00  0.00000000E+00
  0.00000000E+00  0.00000000E+00  0.00000000E+00  1.00000000E+00  1.00000000E+00
  0.00000000E+00  1.00000000E+00  0.00000000E+00  0.00000000E+00  0.00000000E+00
  0.00000000E+00  0.00000000E+00  0.00000000E+00  0.00000000E+00  0.00000000E+00
  0.00000000E+00  0.00000000E+00
MxBond                                     I                3
NBond                                      I   N=           6
           3           3           1           1           1           1
IBond                                      I   N=          18
           2           3           4           1           5           6
           1           0           0           1           0           0
           2           0           0           2           0           0
RBond                                      R   N=          18
  2.00000000E+00  1.00000000E+00  1.00000000E+00  2.00000000E+00  1.00000000E+00
  1.00000000E+00  1.00000000E+00  0.00000000E+00  0.00000000E+00  1.00000000E+00
  0.00000000E+00  0.00000000E+00  1.00000000E+00  0.00000000E+00  0.00000000E+00
  1.00000000E+00  0.00000000E+00  0.00000000E+00
Virial Ratio                               R      2.001703750471803E+00
SCF Energy                                 R     -7.855785180723190E+01
Total Energy                               R     -7.855785180723190E+01
S**2                                       R     -3.552713678800501E-15
S**2 after annihilation                    R      1.083577672034150E-13
RMS Force                                  R      3.226035809826174E-02
RMS Density                                R      3.549556250131285E-09
Job Status                                 I                1
Nuclear derivative order                   I                1
External E-field                           R   N=          35
  0.00000000E+00  0.00000000E+00  0.00000000E+00  0.00000000E+00  0.00000000E+00
  0.00000000E+00  0.00000000E+00  0.00000000E+00  0.00000000E+00  0.00000000E+00
  0.00000000E+00  0.00000000E+00  0.00000000E+00  0.00000000E+00  0.00000000E+00
  0.00000000E+00  0.00000000E+00  0.00000000E+00  0.00000000E+00  0.00000000E+00
  0.00000000E+00  0.00000000E+00  0.00000000E+00  0.00000000E+00  0.00000000E+00
  0.00000000E+00  0.00000000E+00  0.00000000E+00  0.00000000E+00  0.00000000E+00
  0.00000000E+00  0.00000000E+00  0.00000000E+00  0.00000000E+00  0.00000000E+00
IOpCl                                      I                1
IROHF                                      I                0
Alpha Orbital Energies                     R   N=          68
 -1.05278188E+01 -1.05260528E+01 -8.77680849E-01 -6.56204309E-01 -5.48555784E-01
 -4.96448344E-01 -4.05711863E-01 -3.48635841E-01  3.40184826E-02  3.82786435E-02
  4.13985224E-02  5.01201521E-02  7.52546109E-02  8.31817655E-02  9.73924701E-02
  1.41685808E-01  1.60782249E-01  1.74974127E-01  1.97293114E-01  2.35462038E-01
  3.19160764E-01  3.76759715E-01  4.43143700E-01  4.46572925E-01  5.41373875E-01
  5.70195008E-01  5.78458839E-01  6.47481866E-01  6.52106102E-01  7.45436567E-01
  7.73720999E-01  7.76369428E-01  8.03652755E-01  9.60612413E-01  1.04434704E+00
  1.17828974E+00  1.18117816E+00  1.40625597E+00  1.48565578E+00  1.48706633E+00
  1.64511171E+00  1.66614520E+00  1.67046992E+00  1.67469857E+00  1.81182382E+00
  1.82314296E+00  2.02064129E+00  2.08901827E+00  2.18191367E+00  2.19337664E+00
  2.21463487E+00  2.29283337E+00  2.37194728E+00  2.49928120E+00  2.58555665E+00
  2.59510697E+00  2.67264460E+00  2.74478570E+00  2.80192982E+00  2.85933286E+00
  2.97108928E+00  3.25073416E+00  3.63470194E+00  3.67006882E+00  3.90071498E+00
  4.08273348E+00  2.37892719E+01  2.46366564E+01
Beta Orbital Energies                      R   N=          68
 -1.05278188E+01 -1.05260528E+01 -8.77680849E-01 -6.56204309E-01 -5.48555784E-01
 -4.96448344E-01 -4.05711863E-01 -3.48635841E-01  3.40184826E-02  3.82786435E-02
  4.13985224E-02  5.01201521E-02  7.52546109E-02  8.31817655E-02  9.73924701E-02
  1.41685808E-01  1.60782249E-01  1.74974127E-01  1.97293114E-01  2.35462038E-01
  3.19160764E-01  3.76759715E-01  4.43143700E-01  4.46572925E-01  5.41373875E-01
  5.70195008E-01  5.78458839E-01  6.47481866E-01  6.52106102E-01  7.45436567E-01
  7.73720999E-01  7.76369428E-01  8.03652755E-01  9.60612413E-01  1.04434704E+00
  1.17828974E+00  1.18117816E+00  1.40625597E+00  1.48565578E+00  1.48706633E+00
  1.64511171E+00  1.66614520E+00  1.67046992E+00  1.67469857E+00  1.81182382E+00
  1.82314296E+00  2.02064129E+00  2.08901827E+00  2.18191367E+00  2.19337664E+00
  2.21463487E+00  2.29283337E+00  2.37194728E+00  2.49928120E+00  2.58555665E+00
  2.59510697E+00  2.67264460E+00  2.74478570E+00  2.80192982E+00  2.85933286E+00
  2.97108928E+00  3.25073416E+00  3.63470194E+00  3.67006882E+00  3.90071498E+00
  4.08273348E+00  2.37892719E+01  2.46366564E+01
Alpha MO coefficients                      R   N=        4624
  3.98686152E-01  3.27986085E-01  4.97885376E-08 -3.59851098E-04  0.00000000E+00
  8.99907302E-03 -5.16543096E-07  1.64084081E-03  0.00000000E+00 -2.31997019E-03
 -6.39365537E-07  2.81716858E-04  0.00000000E+00 -6.09837410E-04  3.62482475E-07
 -8.28302057E-04  0.00000000E+00 -7.39902083E-04  0.00000000E+00  0.00000000E+00
  5.64277680E-04 -6.64622425E-07  3.98686152E-01  3.27986085E-01 -4.97885376E-08
  3.59851098E-04  0.00000000E+00  8.99907302E-03  5.16543096E-07 -1.64084081E-03
  0.00000000E+00 -2.31997019E-03  6.39365537E-07 -2.81716858E-04  0.00000000E+00
 -6.09837410E-04 -3.62482475E-07  8.28302057E-04  0.00000000E+00 -7.39902083E-04
  0.00000000E+00  0.00000000E+00  5.64277680E-04 -6.64622425E-07  1.81073173E-04
 -2.37424534E-03  1.59038071E-03  1.27461001E-03  6.72087652E-04  0.00000000E+00
  1.80912191E-04 -2.37604120E-03  1.59101651E-03 -1.27513093E-03  6.72667080E-04
  0.00000000E+00  1.81073173E-04 -2.37424534E-03  1.59038071E-03 -1.27461001E-03
 -6.72087652E-04  0.00000000E+00  1.80912191E-04 -2.37604120E-03  1.59101651E-03
  1.27513093E-03 -6.72667080E-04  0.00000000E+00  3.98959927E-01  3.27588870E-01
  5.41367993E-08  9.76684088E-04  0.00000000E+00  1.16914984E-02 -3.17375517E-07
 -7.06474863E-03  0.00000000E+00 -1.22816375E-03  8.62241786E-08  1.06953093E-03
  0.00000000E+00  1.76082907E-03  2.22650448E-08 -6.44851738E-04  0.00000000E+00
 -2.00246489E-03  0.00000000E+00  0.00000000E+00 -3.04710456E-03 -1.93630595E-07
 -3.98959927E-01 -3.27588870E-01  5.41367993E-08  9.76684088E-04  0.00000000E+00
 -1.16914984E-02 -3.17375517E-07 -7.06474863E-03  0.00000000E+00  1.22816375E-03
  8.62241786E-08  1.06953093E-03  0.00000000E+00 -1.76082907E-03  2.22650448E-08
 -6.44851738E-04  0.00000000E+00  2.00246489E-03  0.00000000E+00  0.00000000E+00
  3.04710456E-03  1.93630595E-07  4.80893223E-04 -7.53057861E-04  3.15985126E-04
  4.32698368E-04  1.22455867E-04  0.00000000E+00  4.80782972E-04 -7.53480174E-04
  3.16245485E-04 -4.33077465E-04  1.22531391E-04  0.00000000E+00 -4.80893223E-04
  7.53057861E-04 -3.15985126E-04  4.32698368E-04  1.22455867E-04  0.00000000E+00
 -4.80782972E-04  7.53480174E-04 -3.16245485E-04 -4.33077465E-04  1.22531391E-04
  0.00000000E+00 -8.76885115E-02 -1.40252372E-01 -1.07048248E-06 -6.11624847E-02
  0.00000000E+00  3.53510041E-01 -1.93932097E-06 -7.36325603E-02  0.00000000E+00
  1.81876972E-01 -3.23749420E-06 -1.80467946E-02  0.00000000E+00  7.60722643E-04
 -8.28716559E-07  8.27778093E-03  0.00000000E+00 -1.13952462E-02  0.00000000E+00
  0.00000000E+00 -9.97726961E-03 -2.08353962E-06 -8.76885115E-02 -1.40252372E-01
  1.07048248E-06  6.11624847E-02  0.00000000E+00  3.53510041E-01  1.93932097E-06
  7.36325603E-02  0.00000000E+00  1.81876972E-01  3.23749420E-06  1.80467946E-02
  0.00000000E+00  7.60722643E-04  8.28716559E-07 -8.27778093E-03  0.00000000E+00
 -1.13952462E-02  0.00000000E+00  0.00000000E+00 -9.97726961E-03 -2.08353962E-06
  4.97094784E-02  5.42427079E-02 -8.99184889E-04 -6.54981465E-03 -6.86668287E-03
  0.00000000E+00  4.97119127E-02  5.42414806E-02 -9.01592426E-04  6.54715682E-03
 -6.86716113E-03  0.00000000E+00  4.97094784E-02  5.42427079E-02 -8.99184889E-04
  6.54981465E-03  6.86668287E-03  0.00000000E+00  4.97119127E-02  5.42414806E-02
 -9.01592426E-04 -6.54715682E-03  6.86716113E-03  0.00000000E+00 -6.47614694E-02
 -1.05332326E-01 -1.17153752E-05  7.65170851E-02  0.00000000E+00  2.74354296E-01
 -1.39032049E-05  1.14989033E-01  0.00000000E+00  2.21642258E-01 -6.36700582E-06
  5.29963450E-02  0.00000000E+00 -9.15215443E-02 -3.01652689E-07  2.63414927E-02
  0.00000000E+00 -5.32518014E-03  0.00000000E+00  0.00000000E+00  9.04579740E-03
 -1.28229159E-06  6.47614694E-02  1.05332326E-01 -1.17153752E-05  7.65170851E-02
  0.00000000E+00 -2.74354296E-01 -1.39032049E-05  1.14989033E-01  0.00000000E+00
 -2.21642258E-01 -6.36700582E-06  5.29963450E-02  0.00000000E+00  9.15215443E-02
 -3.01652689E-07  2.63414927E-02  0.00000000E+00  5.32518014E-03  0.00000000E+00
  0.00000000E+00 -9.04579740E-03  1.28229159E-06  9.16435977E-02  1.14224692E-01
  1.83399415E-02 -1.26181938E-02 -4.21259516E-03  0.00000000E+00  9.16705294E-02
  1.14255836E-01  1.83428874E-02  1.26204012E-02 -4.21717371E-03  0.00000000E+00
 -9.16435977E-02 -1.14224692E-01 -1.83399415E-02 -1.26181938E-02 -4.21259516E-03
  0.00000000E+00 -9.16705294E-02 -1.14255836E-01 -1.83428874E-02  1.26204012E-02
 -4.21717371E-03  0.00000000E+00 -4.42802773E-06 -7.31897973E-06  1.50813891E-01
  1.27695442E-06  0.00000000E+00  1.94949719E-05  2.12867698E-01  9.07081585E-06
  0.00000000E+00  2.26821328E-05  1.22563391E-01  3.87774279E-06  0.00000000E+00
  1.40566362E-05  5.90933485E-03 -2.91378828E-06  0.00000000E+00 -3.83304501E-07
  0.00000000E+00  0.00000000E+00  4.06947851E-06 -6.04188692E-03  4.42802773E-06
  7.31897973E-06  1.50813891E-01  1.27695442E-06  0.00000000E+00 -1.94949719E-05
  2.12867698E-01  9.07081585E-06  0.00000000E+00 -2.26821328E-05  1.22563391E-01
  3.87774279E-06  0.00000000E+00 -1.40566362E-05  5.90933485E-03 -2.91378828E-06
  0.00000000E+00  3.83304501E-07  0.00000000E+00  0.00000000E+00 -4.06947851E-06
  6.04188692E-03  9.56606004E-02  1.30620164E-01  2.83429835E-02 -9.20865264E-03
 -1.01328188E-02  0.00000000E+00 -9.56426404E-02 -1.30594313E-01 -2.83361034E-02
 -9.20553117E-03  1.01350174E-02  0.00000000E+00 -9.56606004E-02 -1.30620164E-01
 -2.83429835E-02 -9.20865264E-03 -1.01328188E-02  0.00000000E+00  9.56426404E-02
  1.30594313E-01  2.83361034E-02 -9.20553117E-03  1.01350174E-02  0.00000000E+00
  6.78516410E-03  1.11614159E-02 -2.63703318E-05  1.96190322E-01  0.00000000E+00
 -2.91996633E-02 -3.21463361E-05  2.63608897E-01  0.00000000E+00  4.22625652E-02
 -2.51031639E-05  1.46393405E-01  0.00000000E+00  6.59050545E-03 -7.78891026E-06
  1.48201656E-03  0.00000000E+00  1.81184938E-03  0.00000000E+00  0.00000000E+00
  1.75581067E-02 -6.52227354E-06  6.78516410E-03  1.11614159E-02  2.63703318E-05
 -1.96190322E-01  0.00000000E+00 -2.91996633E-02  3.21463361E-05 -2.63608897E-01
  0.00000000E+00  4.22625652E-02  2.51031639E-05 -1.46393405E-01  0.00000000E+00
  6.59050545E-03  7.78891026E-06 -1.48201656E-03  0.00000000E+00  1.81184938E-03
  0.00000000E+00  0.00000000E+00  1.75581067E-02 -6.52227354E-06  7.93036026E-02
  1.12555753E-01  3.87659072E-02 -1.20644385E-02  3.06944690E-03  0.00000000E+00
  7.93636888E-02  1.12639410E-01  3.87839462E-02  1.20708924E-02  3.06216632E-03
  0.00000000E+00  7.93036026E-02  1.12555753E-01  3.87659072E-02  1.20644385E-02
 -3.06944690E-03  0.00000000E+00  7.93636888E-02  1.12639410E-01  3.87839462E-02
 -1.20708924E-02 -3.06216632E-03  0.00000000E+00  3.70312049E-06  6.03981917E-06
  1.36793951E-01  3.72844651E-05  0.00000000E+00 -1.67420897E-05  1.99353293E-01
  5.17415848E-05  0.00000000E+00  1.13244844E-06  1.72144416E-01  3.31737030E-05
  0.00000000E+00  3.29846739E-06  2.69528829E-02  5.65485590E-07  0.00000000E+00
  1.58357420E-07  0.00000000E+00  0.00000000E+00  7.65355874E-06  3.62481474E-02
  3.70312049E-06  6.03981917E-06 -1.36793951E-01 -3.72844651E-05  0.00000000E+00
 -1.67420897E-05 -1.99353293E-01 -5.17415848E-05  0.00000000E+00  1.13244844E-06
 -1.72144416E-01 -3.31737030E-05  0.00000000E+00  3.29846739E-06 -2.69528829E-02
 -5.65485590E-07  0.00000000E+00  1.58357420E-07  0.00000000E+00  0.00000000E+00
  7.65355874E-06  3.62481474E-02  1.18535137E-01  1.74041643E-01  8.49907130E-02
 -3.94313087E-03 -7.25541658E-03  0.00000000E+00 -1.18497819E-01 -1.73979092E-01
 -8.49573910E-02 -3.93501675E-03  7.25855666E-03  0.00000000E+00  1.18535137E-01
  1.74041643E-01  8.49907130E-02  3.94313087E-03  7.25541658E-03  0.00000000E+00
 -1.18497819E-01 -1.73979092E-01 -8.49573910E-02  3.93501675E-03 -7.25855666E-03
  0.00000000E+00  0.00000000E+00  0.00000000E+00  0.00000000E+00  0.00000000E+00
  1.79578050E-01  0.00000000E+00  0.00000000E+00  0.00000000E+00  2.84892478E-01
  0.00000000E+00  0.00000000E+00  0.00000000E+00  2.35885542E-01  0.00000000E+00
  0.00000000E+00  0.00000000E+00  2.34430141E-02  0.00000000E+00  1.52706351E-07
 -2.38213442E-02  0.00000000E+00  0.00000000E+00  0.00000000E+00  0.00000000E+00
  0.00000000E+00  0.00000000E+00  1.79578050E-01  0.00000000E+00  0.00000000E+00
  0.00000000E+00  2.84892478E-01  0.00000000E+00  0.00000000E+00  0.00000000E+00
  2.35885542E-01  0.00000000E+00  0.00000000E+00  0.00000000E+00  2.34430141E-02
  0.00000000E+00 -1.52706351E-07  2.38213442E-02  0.00000000E+00  0.00000000E+00
  0.00000000E+00  0.00000000E+00  0.00000000E+00  0.00000000E+00  0.00000000E+00
  1.24663279E-02  0.00000000E+00  0.00000000E+00  0.00000000E+00  0.00000000E+00
  0.00000000E+00  1.24673228E-02  0.00000000E+00  0.00000000E+00  0.00000000E+00
  0.00000000E+00  0.00000000E+00  1.24663279E-02  0.00000000E+00  0.00000000E+00
  0.00000000E+00  0.00000000E+00  0.00000000E+00  1.24673228E-02  1.68094686E-02
  2.87601267E-02 -2.76628414E-06 -4.09485238E-02  0.00000000E+00 -8.09918332E-02
  5.73111592E-06 -6.34940574E-02  0.00000000E+00 -2.83676722E-01 -9.69884100E-05
 -1.45719155E-01  0.00000000E+00  1.20433942E+00 -2.95910821E-04  7.10500934E-01
  0.00000000E+00  1.23501349E-02  0.00000000E+00  0.00000000E+00 -6.73746043E-03
  4.26822056E-06  1.68094686E-02  2.87601267E-02  2.76628414E-06  4.09485238E-02
  0.00000000E+00 -8.09918332E-02 -5.73111592E-06  6.34940574E-02  0.00000000E+00
 -2.83676722E-01  9.69884100E-05  1.45719155E-01  0.00000000E+00  1.20433942E+00
  2.95910821E-04 -7.10500934E-01  0.00000000E+00  1.23501349E-02  0.00000000E+00
  0.00000000E+00 -6.73746043E-03  4.26822056E-06 -2.24480144E-02  8.28974932E-02
 -4.00405251E-01  1.59904190E-03  2.07718029E-03  0.00000000E+00 -2.24509206E-02
  8.29056898E-02 -4.00699939E-01 -1.59711944E-03  2.07813676E-03  0.00000000E+00
 -2.24480144E-02  8.28974932E-02 -4.00405251E-01 -1.59904190E-03 -2.07718029E-03
  0.00000000E+00 -2.24509206E-02  8.29056898E-02 -4.00699939E-01  1.59711944E-03
 -2.07813676E-03  0.00000000E+00  0.00000000E+00  0.00000000E+00  0.00000000E+00
  0.00000000E+00  1.32135394E-01  0.00000000E+00  0.00000000E+00  0.00000000E+00
  2.20202239E-01  0.00000000E+00  0.00000000E+00  0.00000000E+00  3.52491256E-01
  0.00000000E+00  0.00000000E+00  0.00000000E+00  1.18115721E+00  0.00000000E+00
  2.45476027E-07  2.88988550E-02  0.00000000E+00  0.00000000E+00  0.00000000E+00
  0.00000000E+00  0.00000000E+00  0.00000000E+00 -1.32135394E-01  0.00000000E+00
  0.00000000E+00  0.00000000E+00 -2.20202239E-01  0.00000000E+00  0.00000000E+00
  0.00000000E+00 -3.52491256E-01  0.00000000E+00  0.00000000E+00  0.00000000E+00
 -1.18115721E+00  0.00000000E+00  2.45476027E-07  2.88988550E-02  0.00000000E+00
  0.00000000E+00  0.00000000E+00  0.00000000E+00  0.00000000E+00  0.00000000E+00
  0.00000000E+00  1.98490730E-02  0.00000000E+00  0.00000000E+00  0.00000000E+00
  0.00000000E+00  0.00000000E+00  1.98515062E-02  0.00000000E+00  0.00000000E+00
  0.00000000E+00  0.00000000E+00  0.00000000E+00 -1.98490730E-02  0.00000000E+00
  0.00000000E+00  0.00000000E+00  0.00000000E+00  0.00000000E+00 -1.98515062E-02
 -1.88815285E-02 -3.24251547E-02 -4.98533880E-06  1.81562106E-02  0.00000000E+00
  1.08561957E-01 -1.31458893E-05  3.71074098E-02  0.00000000E+00 -1.61253549E-01
 -8.62071785E-06  2.32179275E-01  0.00000000E+00  1.25129960E+01  9.00978778E-05
 -4.00795858E+00  0.00000000E+00  2.99335420E-03  0.00000000E+00  0.00000000E+00
  1.51910852E-02 -2.54907737E-06  1.88815285E-02  3.24251547E-02 -4.98533880E-06
  1.81562106E-02  0.00000000E+00 -1.08561957E-01 -1.31458893E-05  3.71074098E-02
  0.00000000E+00  1.61253549E-01 -8.62071785E-06  2.32179275E-01  0.00000000E+00
 -1.25129960E+01  9.00978778E-05 -4.00795858E+00  0.00000000E+00 -2.99335420E-03
  0.00000000E+00  0.00000000E+00 -1.51910852E-02  2.54907737E-06  1.13805059E-02
 -4.88259556E-02  1.88148829E-01 -1.89408322E-03 -9.99098819E-03  0.00000000E+00
  1.13853634E-02 -4.88647820E-02  1.88305726E-01  1.89294827E-03 -9.99096194E-03
  0.00000000E+00 -1.13805059E-02  4.88259556E-02 -1.88148829E-01 -1.89408322E-03
 -9.99098819E-03  0.00000000E+00 -1.13853634E-02  4.88647820E-02 -1.88305726E-01
  1.89294827E-03 -9.99096194E-03  0.00000000E+00  2.65711248E-06  4.50121752E-06
 -5.82345714E-02 -2.49892026E-06  0.00000000E+00 -1.25772924E-05 -9.68972538E-02
 -2.27343094E-06  0.00000000E+00  1.08996974E-05 -1.61040930E-01 -2.82713282E-05
  0.00000000E+00  1.66461735E-04  8.18784786E-01  5.78932915E-05  0.00000000E+00
  1.29403936E-07  0.00000000E+00  0.00000000E+00 -4.44431088E-06 -1.35223463E-03
 -2.65711248E-06 -4.50121752E-06 -5.82345714E-02 -2.49892026E-06  0.00000000E+00
  1.25772924E-05 -9.68972538E-02 -2.27343094E-06  0.00000000E+00 -1.08996974E-05
 -1.61040930E-01 -2.82713282E-05  0.00000000E+00 -1.66461735E-04  8.18784786E-01
  5.78932915E-05  0.00000000E+00 -1.29403936E-07  0.00000000E+00  0.00000000E+00