 Entering Gaussian System, Link 0=g16
 Initial command:
 /home/szhao/Apps/g16/l1.exe "/home/szhao/tmp/Gau-46826.inp" -scrdir="/home/szhao/tmp/"
 Default is to use a total of  16 processors:
                               16 via shared-memory
                                1 via Linda
 Entering Link 1 = /home/szhao/Apps/g16/l1.exe PID=     46827.
  
 Copyright (c) 1988,1990,1992,1993,1995,1998,2003,2009,2016,
            Gaussian, Inc.  All Rights Reserved.
  
 This is part of the Gaussian(R) 16 program.  It is based on
 the Gaussian(R) 09 system (copyright 2009, Gaussian, Inc.),
 the Gaussian(R) 03 system (copyright 2003, Gaussian, Inc.),
 the Gaussian(R) 98 system (copyright 1998, Gaussian, Inc.),
 the Gaussian(R) 94 system (copyright 1995, Gaussian, Inc.),
 the Gaussian 92(TM) system (copyright 1992, Gaussian, Inc.),
 the Gaussian 90(TM) system (copyright 1990, Gaussian, Inc.),
 the Gaussian 88(TM) system (copyright 1988, Gaussian, Inc.),
 the Gaussian 86(TM) system (copyright 1986, Carnegie Mellon
 University), and the Gaussian 82(TM) system (copyright 1983,
 Carnegie Mellon University). Gaussian is a federally registered
 trademark of Gaussian, Inc.
  
 This software contains proprietary and confidential information,
 including trade secrets, belonging to Gaussian, Inc.
  
 This software is provided under written license and may be
 used, copied, transmitted, or stored only in accord with that
 written license.
  
 The following legend is applicable only to US Government
 contracts under FAR:
  
                    RESTRICTED RIGHTS LEGEND
  
 Use, reproduction and disclosure by the US Government is
 subject to restrictions as set forth in subparagraphs (a)
 and (c) of the Commercial Computer Software - Restricted
 Rights clause in FAR 52.227-19.
  
 Gaussian, Inc.
 340 Quinnipiac St., Bldg. 40, Wallingford CT 06492
  
  
 ---------------------------------------------------------------
 Warning -- This program may not be used in any manner that
 competes with the business of Gaussian, Inc. or will provide
 assistance to any competitor of Gaussian, Inc.  The licensee
 of this program is prohibited from giving any competitor of
 Gaussian, Inc. access to this program.  By using this program,
 the user acknowledges that Gaussian, Inc. is engaged in the
 business of creating and licensing software in the field of
 computational chemistry and represents and warrants to the
 licensee that it is not a competitor of Gaussian, Inc. and that
 it will not use this program in any manner prohibited above.
 ---------------------------------------------------------------
  

 Cite this work as:
 Gaussian 16, Revision A.03,
 M. J. Frisch, G. W. Trucks, H. B. Schlegel, G. E. Scuseria, 
 M. A. Robb, J. R. Cheeseman, G. Scalmani, V. Barone, 
 G. A. Petersson, H. Nakatsuji, X. Li, M. Caricato, A. V. Marenich, 
 J. Bloino, B. G. Janesko, R. Gomperts, B. Mennucci, H. P. Hratchian, 
 J. V. Ortiz, A. F. Izmaylov, J. L. Sonnenberg, D. Williams-Young, 
 F. Ding, F. Lipparini, F. Egidi, J. Goings, B. Peng, A. Petrone, 
 T. Henderson, D. Ranasinghe, V. G. Zakrzewski, J. Gao, N. Rega, 
 G. Zheng, W. Liang, M. Hada, M. Ehara, K. Toyota, R. Fukuda, 
 J. Hasegawa, M. Ishida, T. Nakajima, Y. Honda, O. Kitao, H. Nakai, 
 T. Vreven, K. Throssell, J. A. Montgomery, Jr., J. E. Peralta, 
 F. Ogliaro, M. J. Bearpark, J. J. Heyd, E. N. Brothers, K. N. Kudin, 
 V. N. Staroverov, T. A. Keith, R. Kobayashi, J. Normand, 
 K. Raghavachari, A. P. Rendell, J. C. Burant, S. S. Iyengar, 
 J. Tomasi, M. Cossi, J. M. Millam, M. Klene, C. Adamo, R. Cammi, 
 J. W. Ochterski, R. L. Martin, K. Morokuma, O. Farkas, 
 J. B. Foresman, and D. J. Fox, Gaussian, Inc., Wallingford CT, 2016.
 
 ******************************************
 Gaussian 16:  ES64L-G16RevA.03 25-Dec-2016
                21-Apr-2025 
 ******************************************
 %chk=opt.chk
 %mem=4GB
 %nprocshared=8
 Will use up to    8 processors via shared memory.
 --------------------------------------------
 #p opt UM062X/6-311+G** nosymm int=superfine
 --------------------------------------------
 1/18=20,19=15,26=5,38=1/1,3;
 2/9=110,12=2,15=1,17=6,18=5,40=1/2;
 3/5=4,6=6,7=111,11=2,25=1,30=1,71=1,74=-55,75=-7,116=2/1,2,3;
 4//1;
 5/5=2,38=5/2;
 6/7=2,8=2,9=2,10=2,28=1/1;
 7/30=1/1,2,3,16;
 1/18=20,19=15,26=5/3(2);
 2/9=110,15=1/2;
 99//99;
 2/9=110,15=1/2;
 3/5=4,6=6,7=111,11=2,25=1,30=1,71=1,74=-55,75=-7,116=2/1,2,3;
 4/5=5,16=3,69=1/1;
 5/5=2,38=5/2;
 7/30=1/1,2,3,16;
 1/18=20,19=15,26=5/3(-5);
 2/9=110,15=1/2;
 6/7=2,8=2,9=2,10=2,19=2,28=1/1;
 99/9=1/99;
 Leave Link    1 at Mon Apr 21 20:44:20 2025, MaxMem=   536870912 cpu:               0.9 elap:               0.1
 (Enter /home/szhao/Apps/g16/l101.exe)
 -------------------
 Title Card Required
 -------------------
 Symbolic Z-matrix:
 Charge =  0 Multiplicity = 1
 P                    -1   -1.26722   0.        0. 
 P                    -1    1.26722   0.        0. 
 H                    0     1.38405  -1.40926   0. 
 H                    0    -1.38407   1.39816  -0.17652 
 H                    0     1.50726   0.11794  -1.3898 
 H                    0    -1.50727  -0.2911   -1.36408 
 
 ITRead=  2  2  0  0  0  0
 MicOpt= -2 -2 -1 -1 -1 -1
 NAtoms=      6 NQM=        4 NQMF=       2 NMMI=      0 NMMIF=      0
                NMic=       0 NMicF=      0.
                    Isotopes and Nuclear Properties:
 (Nuclear quadrupole moments (NQMom) in fm**2, nuclear magnetic moments (NMagM)
  in nuclear magnetons)

  Atom         1           2           3           4           5           6
 IAtWgt=          31          31           1           1           1           1
 AtmWgt=  30.9737634  30.9737634   1.0078250   1.0078250   1.0078250   1.0078250
 NucSpn=           1           1           1           1           1           1
 AtZEff=  -0.0000000  -0.0000000  -0.0000000  -0.0000000  -0.0000000  -0.0000000
 NQMom=    0.0000000   0.0000000   0.0000000   0.0000000   0.0000000   0.0000000
 NMagM=    1.1316000   1.1316000   2.7928460   2.7928460   2.7928460   2.7928460
 AtZNuc=  15.0000000  15.0000000   1.0000000   1.0000000   1.0000000   1.0000000
 Leave Link  101 at Mon Apr 21 20:44:21 2025, MaxMem=   536870912 cpu:               2.8 elap:               0.4
 (Enter /home/szhao/Apps/g16/l103.exe)

 GradGradGradGradGradGradGradGradGradGradGradGradGradGradGradGradGradGrad
 Berny optimization.
 Initialization pass.
                           ----------------------------
                           !    Initial Parameters    !
                           ! (Angstroms and Degrees)  !
 --------------------------                            --------------------------
 ! Name  Definition              Value          Derivative Info.                !
 --------------------------------------------------------------------------------
 ! X1    R(1,-1)                -1.2672         Frozen                          !
 ! Y1    R(1,-2)                 0.0            Frozen                          !
 ! Z1    R(1,-3)                 0.0            Frozen                          !
 ! X2    R(2,-1)                 1.2672         Frozen                          !
 ! Y2    R(2,-2)                 0.0            Frozen                          !
 ! Z2    R(2,-3)                 0.0            Frozen                          !
 ! R1    R(1,4)                  1.4141         estimate D2E/DX2                !
 ! R2    R(1,6)                  1.4153         estimate D2E/DX2                !
 ! R3    R(2,3)                  1.4141         estimate D2E/DX2                !
 ! R4    R(2,5)                  1.4153         estimate D2E/DX2                !
 ! A1    A(2,1,4)               94.74           estimate D2E/DX2                !
 ! A2    A(2,1,6)               99.7651         estimate D2E/DX2                !
 ! A3    A(4,1,6)               93.9586         estimate D2E/DX2                !
 ! A4    A(1,2,3)               94.7393         estimate D2E/DX2                !
 ! A5    A(1,2,5)               99.7651         estimate D2E/DX2                !
 ! A6    A(3,2,5)               93.9584         estimate D2E/DX2                !
 ! D1    D(4,1,2,3)           -172.8043         estimate D2E/DX2                !
 ! D2    D(4,1,2,5)            -77.9538         estimate D2E/DX2                !
 ! D3    D(6,1,2,3)            -77.9535         estimate D2E/DX2                !
 ! D4    D(6,1,2,5)             16.897          estimate D2E/DX2                !
 --------------------------------------------------------------------------------
 Trust Radius=3.00D-01 FncErr=1.00D-07 GrdErr=1.00D-07 EigMax=2.50D+02 EigMin=1.00D-04
 Number of steps in this run=     30 maximum allowed number of steps=    100.
 GradGradGradGradGradGradGradGradGradGradGradGradGradGradGradGradGradGrad

 Leave Link  103 at Mon Apr 21 20:44:21 2025, MaxMem=   536870912 cpu:               0.2 elap:               0.1
 (Enter /home/szhao/Apps/g16/l202.exe)
                          Input orientation:                          
 ---------------------------------------------------------------------
 Center     Atomic      Atomic             Coordinates (Angstroms)
 Number     Number       Type             X           Y           Z
 ---------------------------------------------------------------------
      1         15           0       -1.267217    0.000000    0.000000
      2         15           0        1.267217    0.000000    0.000000
      3          1           0        1.384053   -1.409264    0.000000
      4          1           0       -1.384069    1.398163   -0.176523
      5          1           0        1.507265    0.117937   -1.389802
      6          1           0       -1.507265   -0.291103   -1.364082
 ---------------------------------------------------------------------
                    Distance matrix (angstroms):
                    1          2          3          4          5
     1  P    0.000000
     2  P    2.534433   0.000000
     3  H    3.002541   1.414099   0.000000
     4  H    1.414098   3.002555   3.946556   0.000000
     5  H    3.105351   1.415303   2.068593   3.386862   0.000000
     6  H    1.415303   3.105352   3.386846   2.068596   3.042263
                    6
     6  H    0.000000
 Symmetry turned off by external request.
 Stoichiometry    H4P2
 Framework group  C1[X(H4P2)]
 Deg. of freedom    12
 Full point group                 C1      NOp   1
 Rotational constants (GHZ):          65.7451857           4.5227004           4.5127090
 Leave Link  202 at Mon Apr 21 20:44:22 2025, MaxMem=   536870912 cpu:               0.1 elap:               0.1
 (Enter /home/szhao/Apps/g16/l301.exe)
 Standard basis: 6-311+G(d,p) (5D, 7F)
 Ernie: Thresh=  0.10000D-02 Tol=  0.10000D-05 Strict=F.
    84 basis functions,   132 primitive gaussians,    86 cartesian basis functions
    17 alpha electrons       17 beta electrons
       nuclear repulsion energy        80.9539278618 Hartrees.
 IExCor= 4336 DFT=T Ex+Corr=M062X ExCW=0 ScaHFX=  0.540000
 ScaDFX=  1.000000  1.000000  1.000000  1.000000 ScalE2=  1.000000  1.000000
 IRadAn=      7 IRanWt=     -1 IRanGd=            0 ICorTp=0 IEmpDi=  4
 NAtoms=    6 NActive=    6 NUniq=    6 SFac= 1.00D+00 NAtFMM=   60 NAOKFM=F Big=F
 Integral buffers will be    131072 words long.
 Raffenetti 2 integral format.
 Two-electron integral symmetry is turned off.
 Leave Link  301 at Mon Apr 21 20:44:22 2025, MaxMem=   536870912 cpu:               0.7 elap:               0.1
 (Enter /home/szhao/Apps/g16/l302.exe)
 NPDir=0 NMtPBC=     1 NCelOv=     1 NCel=       1 NClECP=     1 NCelD=      1
         NCelK=      1 NCelE2=     1 NClLst=     1 CellRange=     0.0.
 One-electron integrals computed using PRISM.
 NBasis=    84 RedAO= T EigKep=  1.43D-03  NBF=    84
 NBsUse=    84 1.00D-06 EigRej= -1.00D+00 NBFU=    84
 Precomputing XC quadrature grid using
 IXCGrd= 4 IRadAn=           7 IRanWt=          -1 IRanGd=           0 AccXCQ= 0.00D+00.
 Generated NRdTot=       0 NPtTot=           0 NUsed=           0 NTot=          32
 NSgBfM=    84    84    84    84    84 MxSgAt=     6 MxSgA2=     6.
 Leave Link  302 at Mon Apr 21 20:44:23 2025, MaxMem=   536870912 cpu:               2.9 elap:               0.5
 (Enter /home/szhao/Apps/g16/l303.exe)
 DipDrv:  MaxL=1.
 Leave Link  303 at Mon Apr 21 20:44:24 2025, MaxMem=   536870912 cpu:               0.6 elap:               0.2
 (Enter /home/szhao/Apps/g16/l401.exe)
 ExpMin= 3.48D-02 ExpMax= 7.75D+04 ExpMxC= 2.65D+03 IAcc=3 IRadAn=         7 AccDes= 0.00D+00
 Harris functional with IExCor= 1009 and IRadAn=       7 diagonalized for initial guess.
 HarFok:  IExCor= 1009 AccDes= 0.00D+00 IRadAn=         7 IDoV= 1 UseB2=F ITyADJ=14
 ICtDFT=  3500011 ScaDFX=  1.000000  1.000000  1.000000  1.000000
 FoFCou: FMM=F IPFlag=           0 FMFlag=      100000 FMFlg1=           0
         NFxFlg=           0 DoJE=T BraDBF=F KetDBF=T FulRan=T
         wScrn=  0.000000 ICntrl=       500 IOpCl=  0 I1Cent=   200000004 NGrid=           0
         NMat0=    1 NMatS0=      1 NMatT0=    0 NMatD0=    1 NMtDS0=    0 NMtDT0=    0
 Symmetry not used in FoFCou.
 Harris En= -684.741120396337    
 JPrj=0 DoOrth=F DoCkMO=F.
 Initial guess <Sx>= 0.0000 <Sy>= 0.0000 <Sz>= 0.0000 <S**2>= 0.0000 S= 0.0000
 Leave Link  401 at Mon Apr 21 20:44:25 2025, MaxMem=   536870912 cpu:               3.3 elap:               0.6
 (Enter /home/szhao/Apps/g16/l502.exe)
 Keep R1 and R2 ints in memory in canonical form, NReq=20057634.
 FoFCou: FMM=F IPFlag=           0 FMFlag=           0 FMFlg1=           0
         NFxFlg=           0 DoJE=F BraDBF=F KetDBF=F FulRan=T
         wScrn=  0.000000 ICntrl=       600 IOpCl=  0 I1Cent=           0 NGrid=           0
         NMat0=    1 NMatS0=   3570 NMatT0=    0 NMatD0=    1 NMtDS0=    0 NMtDT0=    0
 Symmetry not used in FoFCou.
 Two-electron integral symmetry not used.
 UHF open shell SCF:
 Using DIIS extrapolation, IDIIS=  1040.
 NGot=   536870912 LenX=   524106186 LenY=   524098349
 Requested convergence on RMS density matrix=1.00D-08 within 128 cycles.
 Requested convergence on MAX density matrix=1.00D-06.
 Requested convergence on             energy=1.00D-06.
 No special actions if energy rises.

 Cycle   1  Pass 1  IDiag  1:
 E= -685.027792025612    
 DIIS: error= 2.34D-02 at cycle   1 NSaved=   1.
 NSaved= 1 IEnMin= 1 EnMin= -685.027792025612     IErMin= 1 ErrMin= 2.34D-02
 ErrMax= 2.34D-02  0.00D+00 EMaxC= 1.00D-01 BMatC= 2.12D-01 BMatP= 2.12D-01
 IDIUse=3 WtCom= 7.66D-01 WtEn= 2.34D-01
 Coeff-Com:  0.100D+01
 Coeff-En:   0.100D+01
 Coeff:      0.100D+01
 Gap=     0.276 Goal=   None    Shift=    0.000
 Gap=     0.276 Goal=   None    Shift=    0.000
 GapD=    0.276 DampG=1.000 DampE=0.500 DampFc=0.5000 IDamp=-1.
 Damping current iteration by 5.00D-01
 RMSDP=1.56D-03 MaxDP=2.07D-02              OVMax= 2.90D-02

 Cycle   2  Pass 1  IDiag  1:
 E= -685.035879936323     Delta-E=       -0.008087910711 Rises=F Damp=T
 DIIS: error= 9.69D-03 at cycle   2 NSaved=   2.
 NSaved= 2 IEnMin= 2 EnMin= -685.035879936323     IErMin= 2 ErrMin= 9.69D-03
 ErrMax= 9.69D-03  0.00D+00 EMaxC= 1.00D-01 BMatC= 3.66D-02 BMatP= 2.12D-01
 IDIUse=3 WtCom= 9.03D-01 WtEn= 9.69D-02
 Coeff-Com: -0.652D+00 0.165D+01
 Coeff-En:   0.000D+00 0.100D+01
 Coeff:     -0.589D+00 0.159D+01
 Gap=     0.271 Goal=   None    Shift=    0.000
 Gap=     0.271 Goal=   None    Shift=    0.000
 RMSDP=8.54D-04 MaxDP=1.10D-02 DE=-8.09D-03 OVMax= 8.33D-03

 Cycle   3  Pass 1  IDiag  1:
 E= -685.043363277939     Delta-E=       -0.007483341617 Rises=F Damp=F
 DIIS: error= 4.75D-04 at cycle   3 NSaved=   3.
 NSaved= 3 IEnMin= 3 EnMin= -685.043363277939     IErMin= 3 ErrMin= 4.75D-04
 ErrMax= 4.75D-04  0.00D+00 EMaxC= 1.00D-01 BMatC= 1.36D-04 BMatP= 3.66D-02
 IDIUse=3 WtCom= 9.95D-01 WtEn= 4.75D-03
 Coeff-Com: -0.726D-01 0.151D+00 0.921D+00
 Coeff-En:   0.000D+00 0.000D+00 0.100D+01
 Coeff:     -0.722D-01 0.150D+00 0.922D+00
 Gap=     0.272 Goal=   None    Shift=    0.000
 Gap=     0.272 Goal=   None    Shift=    0.000
 RMSDP=1.30D-04 MaxDP=3.82D-03 DE=-7.48D-03 OVMax= 2.87D-03

 Cycle   4  Pass 1  IDiag  1:
 E= -685.043391519019     Delta-E=       -0.000028241080 Rises=F Damp=F
 DIIS: error= 2.21D-04 at cycle   4 NSaved=   4.
 NSaved= 4 IEnMin= 4 EnMin= -685.043391519019     IErMin= 4 ErrMin= 2.21D-04
 ErrMax= 2.21D-04  0.00D+00 EMaxC= 1.00D-01 BMatC= 2.05D-05 BMatP= 1.36D-04
 IDIUse=3 WtCom= 9.98D-01 WtEn= 2.21D-03
 Coeff-Com: -0.529D-02 0.770D-02 0.299D+00 0.698D+00
 Coeff-En:   0.000D+00 0.000D+00 0.000D+00 0.100D+01
 Coeff:     -0.528D-02 0.768D-02 0.298D+00 0.699D+00
 Gap=     0.272 Goal=   None    Shift=    0.000
 Gap=     0.272 Goal=   None    Shift=    0.000
 RMSDP=4.06D-05 MaxDP=9.00D-04 DE=-2.82D-05 OVMax= 1.09D-03

 Cycle   5  Pass 1  IDiag  1:
 E= -685.043398465683     Delta-E=       -0.000006946664 Rises=F Damp=F
 DIIS: error= 3.29D-05 at cycle   5 NSaved=   5.
 NSaved= 5 IEnMin= 5 EnMin= -685.043398465683     IErMin= 5 ErrMin= 3.29D-05
 ErrMax= 3.29D-05  0.00D+00 EMaxC= 1.00D-01 BMatC= 3.74D-07 BMatP= 2.05D-05
 IDIUse=1 WtCom= 1.00D+00 WtEn= 0.00D+00
 Coeff-Com:  0.191D-02-0.405D-02-0.409D-01 0.273D-01 0.102D+01
 Coeff:      0.191D-02-0.405D-02-0.409D-01 0.273D-01 0.102D+01
 Gap=     0.272 Goal=   None    Shift=    0.000
 Gap=     0.272 Goal=   None    Shift=    0.000
 RMSDP=1.09D-05 MaxDP=2.00D-04 DE=-6.95D-06 OVMax= 3.04D-04

 Cycle   6  Pass 1  IDiag  1:
 E= -685.043398667314     Delta-E=       -0.000000201631 Rises=F Damp=F
 DIIS: error= 5.07D-06 at cycle   6 NSaved=   6.
 NSaved= 6 IEnMin= 6 EnMin= -685.043398667314     IErMin= 6 ErrMin= 5.07D-06
 ErrMax= 5.07D-06  0.00D+00 EMaxC= 1.00D-01 BMatC= 1.55D-08 BMatP= 3.74D-07
 IDIUse=1 WtCom= 1.00D+00 WtEn= 0.00D+00
 Coeff-Com:  0.424D-03-0.721D-03-0.192D-01-0.235D-01 0.120D+00 0.923D+00
 Coeff:      0.424D-03-0.721D-03-0.192D-01-0.235D-01 0.120D+00 0.923D+00
 Gap=     0.272 Goal=   None    Shift=    0.000
 Gap=     0.272 Goal=   None    Shift=    0.000
 RMSDP=2.35D-06 MaxDP=3.99D-05 DE=-2.02D-07 OVMax= 1.02D-04

 Cycle   7  Pass 1  IDiag  1:
 E= -685.043398679161     Delta-E=       -0.000000011847 Rises=F Damp=F
 DIIS: error= 1.56D-06 at cycle   7 NSaved=   7.
 NSaved= 7 IEnMin= 7 EnMin= -685.043398679161     IErMin= 7 ErrMin= 1.56D-06
 ErrMax= 1.56D-06  0.00D+00 EMaxC= 1.00D-01 BMatC= 1.35D-09 BMatP= 1.55D-08
 IDIUse=1 WtCom= 1.00D+00 WtEn= 0.00D+00
 Coeff-Com: -0.201D-04 0.751D-04-0.269D-03-0.419D-02-0.493D-01 0.112D+00
 Coeff-Com:  0.942D+00
 Coeff:     -0.201D-04 0.751D-04-0.269D-03-0.419D-02-0.493D-01 0.112D+00
 Coeff:      0.942D+00
 Gap=     0.272 Goal=   None    Shift=    0.000
 Gap=     0.272 Goal=   None    Shift=    0.000
 RMSDP=6.72D-07 MaxDP=7.48D-06 DE=-1.18D-08 OVMax= 3.04D-05

 Cycle   8  Pass 1  IDiag  1:
 E= -685.043398680202     Delta-E=       -0.000000001041 Rises=F Damp=F
 DIIS: error= 3.29D-07 at cycle   8 NSaved=   8.
 NSaved= 8 IEnMin= 8 EnMin= -685.043398680202     IErMin= 8 ErrMin= 3.29D-07
 ErrMax= 3.29D-07  0.00D+00 EMaxC= 1.00D-01 BMatC= 6.64D-11 BMatP= 1.35D-09
 IDIUse=1 WtCom= 1.00D+00 WtEn= 0.00D+00
 Coeff-Com: -0.202D-04 0.331D-04 0.950D-03 0.210D-02-0.237D-02-0.692D-01
 Coeff-Com: -0.480D-01 0.112D+01
 Coeff:     -0.202D-04 0.331D-04 0.950D-03 0.210D-02-0.237D-02-0.692D-01
 Coeff:     -0.480D-01 0.112D+01
 Gap=     0.272 Goal=   None    Shift=    0.000
 Gap=     0.272 Goal=   None    Shift=    0.000
 RMSDP=1.83D-07 MaxDP=1.58D-06 DE=-1.04D-09 OVMax= 9.63D-06

 Cycle   9  Pass 1  IDiag  1:
 E= -685.043398680270     Delta-E=       -0.000000000069 Rises=F Damp=F
 DIIS: error= 1.05D-07 at cycle   9 NSaved=   9.
 NSaved= 9 IEnMin= 9 EnMin= -685.043398680270     IErMin= 9 ErrMin= 1.05D-07
 ErrMax= 1.05D-07  0.00D+00 EMaxC= 1.00D-01 BMatC= 3.82D-12 BMatP= 6.64D-11
 IDIUse=1 WtCom= 1.00D+00 WtEn= 0.00D+00
 Coeff-Com: -0.378D-05 0.510D-05 0.122D-03 0.615D-03 0.216D-02-0.167D-01
 Coeff-Com: -0.529D-01 0.201D+00 0.866D+00
 Coeff:     -0.378D-05 0.510D-05 0.122D-03 0.615D-03 0.216D-02-0.167D-01
 Coeff:     -0.529D-01 0.201D+00 0.866D+00
 Gap=     0.272 Goal=   None    Shift=    0.000
 Gap=     0.272 Goal=   None    Shift=    0.000
 RMSDP=2.64D-08 MaxDP=2.98D-07 DE=-6.89D-11 OVMax= 1.08D-06

 Cycle  10  Pass 1  IDiag  1:
 E= -685.043398680270     Delta-E=        0.000000000000 Rises=F Damp=F
 DIIS: error= 1.34D-08 at cycle  10 NSaved=  10.
 NSaved=10 IEnMin= 9 EnMin= -685.043398680270     IErMin=10 ErrMin= 1.34D-08
 ErrMax= 1.34D-08  0.00D+00 EMaxC= 1.00D-01 BMatC= 1.78D-13 BMatP= 3.82D-12
 IDIUse=1 WtCom= 1.00D+00 WtEn= 0.00D+00
 Coeff-Com: -0.370D-06 0.288D-06 0.843D-05 0.104D-03 0.459D-03-0.208D-02
 Coeff-Com: -0.120D-01 0.171D-01 0.192D+00 0.804D+00
 Coeff:     -0.370D-06 0.288D-06 0.843D-05 0.104D-03 0.459D-03-0.208D-02
 Coeff:     -0.120D-01 0.171D-01 0.192D+00 0.804D+00
 Gap=     0.272 Goal=   None    Shift=    0.000
 Gap=     0.272 Goal=   None    Shift=    0.000
 RMSDP=5.45D-09 MaxDP=9.61D-08 DE= 4.55D-13 OVMax= 1.78D-07

 SCF Done:  E(UM062X) =  -685.043398680     A.U. after   10 cycles
            NFock= 10  Conv=0.55D-08     -V/T= 2.0016
 <Sx>= 0.0000 <Sy>= 0.0000 <Sz>= 0.0000 <S**2>=-0.0000 S=-0.0000
 <L.S>=  0.00000000000    
 KE= 6.839548933552D+02 PE=-1.791576754433D+03 EE= 3.416245345357D+02
 Annihilation of the first spin contaminant:
 S**2 before annihilation    -0.0000,   after     0.0000
 Leave Link  502 at Mon Apr 21 20:44:35 2025, MaxMem=   536870912 cpu:              70.1 elap:               9.4
 (Enter /home/szhao/Apps/g16/l601.exe)
 Copying SCF densities to generalized density rwf, IOpCl= 1 IROHF=0.

 **********************************************************************

            Population analysis using the SCF density.

 **********************************************************************

 Alpha  occ. eigenvalues --  -78.03532 -78.03531  -6.86000  -6.85997  -4.97553
 Alpha  occ. eigenvalues --   -4.97546  -4.97499  -4.97499  -4.97286  -4.97285
 Alpha  occ. eigenvalues --   -0.74195  -0.68152  -0.45695  -0.45276  -0.39238
 Alpha  occ. eigenvalues --   -0.33709  -0.30270
 Alpha virt. eigenvalues --   -0.03064   0.01129   0.03576   0.04004   0.04044
 Alpha virt. eigenvalues --    0.04456   0.05086   0.06405   0.06417   0.07564
 Alpha virt. eigenvalues --    0.09957   0.15101   0.18732   0.28584   0.29150
 Alpha virt. eigenvalues --    0.29564   0.30764   0.32162   0.32334   0.37156
 Alpha virt. eigenvalues --    0.39323   0.44075   0.54067   0.62034   0.63276
 Alpha virt. eigenvalues --    0.63491   0.64732   0.66604   0.73636   0.74029
 Alpha virt. eigenvalues --    0.78420   0.83307   0.96200   0.96237   0.97767
 Alpha virt. eigenvalues --    1.37945   1.37946   1.42771   1.42986   1.46103
 Alpha virt. eigenvalues --    1.50397   1.51268   1.54787   1.57440   1.59969
 Alpha virt. eigenvalues --    1.62080   1.71098   1.72989   1.88451   2.01682
 Alpha virt. eigenvalues --    2.05013   2.13128   2.13758   2.56674   2.57518
 Alpha virt. eigenvalues --    2.66987   2.76249   7.05853   7.08918  14.01587
 Alpha virt. eigenvalues --   14.03477  14.03789  14.07508  14.07637  14.10914
 Alpha virt. eigenvalues --  163.34329 163.39113
  Beta  occ. eigenvalues --  -78.03532 -78.03531  -6.86000  -6.85997  -4.97553
  Beta  occ. eigenvalues --   -4.97546  -4.97499  -4.97499  -4.97286  -4.97285
  Beta  occ. eigenvalues --   -0.74195  -0.68152  -0.45695  -0.45276  -0.39238
  Beta  occ. eigenvalues --   -0.33709  -0.30270
  Beta virt. eigenvalues --   -0.03064   0.01129   0.03576   0.04004   0.04044
  Beta virt. eigenvalues --    0.04456   0.05086   0.06405   0.06417   0.07564
  Beta virt. eigenvalues --    0.09957   0.15101   0.18732   0.28584   0.29150
  Beta virt. eigenvalues --    0.29564   0.30764   0.32162   0.32334   0.37156
  Beta virt. eigenvalues --    0.39323   0.44075   0.54067   0.62034   0.63276
  Beta virt. eigenvalues --    0.63491   0.64732   0.66604   0.73636   0.74029
  Beta virt. eigenvalues --    0.78420   0.83307   0.96200   0.96237   0.97767
  Beta virt. eigenvalues --    1.37945   1.37946   1.42771   1.42986   1.46103
  Beta virt. eigenvalues --    1.50397   1.51268   1.54787   1.57440   1.59969
  Beta virt. eigenvalues --    1.62080   1.71098   1.72989   1.88451   2.01682
  Beta virt. eigenvalues --    2.05013   2.13128   2.13758   2.56674   2.57518
  Beta virt. eigenvalues --    2.66987   2.76249   7.05853   7.08918  14.01587
  Beta virt. eigenvalues --   14.03477  14.03789  14.07508  14.07637  14.10914
  Beta virt. eigenvalues --  163.34329 163.39113
          Condensed to atoms (all electrons):
               1          2          3          4          5          6
     1  P   14.269153   0.267583  -0.040331   0.301279  -0.033605   0.289154
     2  P    0.267583  14.269179   0.301266  -0.040334   0.289150  -0.033606
     3  H   -0.040331   0.301266   0.739625   0.002286  -0.031272   0.000784
     4  H    0.301279  -0.040334   0.002286   0.739616   0.000784  -0.031274
     5  H   -0.033605   0.289150  -0.031272   0.000784   0.750507  -0.001156
     6  H    0.289154  -0.033606   0.000784  -0.031274  -0.001156   0.750504
          Atomic-Atomic Spin Densities.
               1          2          3          4          5          6
     1  P    0.000000   0.000000  -0.000000   0.000000   0.000000   0.000000
     2  P    0.000000  -0.000000   0.000000  -0.000000  -0.000000  -0.000000
     3  H   -0.000000   0.000000  -0.000000   0.000000  -0.000000   0.000000
     4  H    0.000000  -0.000000   0.000000  -0.000000   0.000000   0.000000
     5  H    0.000000  -0.000000  -0.000000   0.000000   0.000000   0.000000
     6  H    0.000000  -0.000000   0.000000   0.000000   0.000000  -0.000000
 Mulliken charges and spin densities:
               1          2
     1  P   -0.053233   0.000000
     2  P   -0.053238  -0.000000
     3  H    0.027641   0.000000
     4  H    0.027642  -0.000000
     5  H    0.025593   0.000000
     6  H    0.025594  -0.000000
 Sum of Mulliken charges =  -0.00000   0.00000
 Mulliken charges and spin densities with hydrogens summed into heavy atoms:
               1          2
     1  P    0.000004   0.000000
     2  P   -0.000004  -0.000000
 Electronic spatial extent (au):  <R**2>=            296.4714
 Charge=             -0.0000 electrons
 Dipole moment (field-independent basis, Debye):
    X=             -0.0000    Y=             -0.0822    Z=             -1.3076  Tot=              1.3101
 Quadrupole moment (field-independent basis, Debye-Ang):
   XX=            -30.4141   YY=            -28.9758   ZZ=            -29.9853
   XY=             -2.2819   XZ=              0.1435   YZ=             -0.0637
 Traceless Quadrupole moment (field-independent basis, Debye-Ang):
   XX=             -0.6224   YY=              0.8160   ZZ=             -0.1936
   XY=             -2.2819   XZ=              0.1435   YZ=             -0.0637
 Octapole moment (field-independent basis, Debye-Ang**2):
  XXX=             -0.0001  YYY=              0.3726  ZZZ=              5.8996  XYY=             -0.2831
  XXY=             -0.2417  XXZ=             -3.8456  XZZ=              0.2832  YZZ=              0.1227
  YYZ=              1.9742  XYZ=             -2.2429
 Hexadecapole moment (field-independent basis, Debye-Ang**3):
 XXXX=           -343.1060 YYYY=            -62.8360 ZZZZ=            -65.6637 XXXY=             -1.8628
 XXXZ=              0.1173 YYYX=              4.8016 YYYZ=             -0.2796 ZZZX=             -0.3307
 ZZZY=              0.1012 XXYY=            -67.7209 XXZZ=            -69.9008 YYZZ=            -22.4061
 XXYZ=             -0.1375 YYXZ=             -0.0812 ZZXY=              1.7530
 N-N= 8.095392786180D+01 E-N=-1.791576754291D+03  KE= 6.839548933552D+02
                          Isotropic Fermi Contact Couplings
        Atom                 a.u.       MegaHertz       Gauss      10(-4) cm-1
     1  P(31)              0.00000       0.00000       0.00000       0.00000
     2  P(31)              0.00000       0.00000       0.00000       0.00000
     3  H(1)              -0.00000      -0.00000      -0.00000      -0.00000
     4  H(1)               0.00000       0.00000       0.00000       0.00000
     5  H(1)              -0.00000      -0.00000      -0.00000      -0.00000
     6  H(1)               0.00000       0.00000       0.00000       0.00000
 --------------------------------------------------------
       Center         ----  Spin Dipole Couplings  ----
                      3XX-RR        3YY-RR        3ZZ-RR
 --------------------------------------------------------
     1   Atom        0.000000      0.000000      0.000000
     2   Atom        0.000000      0.000000      0.000000
     3   Atom        0.000000      0.000000      0.000000
     4   Atom        0.000000      0.000000      0.000000
     5   Atom        0.000000      0.000000      0.000000
     6   Atom        0.000000      0.000000      0.000000
 --------------------------------------------------------
                        XY            XZ            YZ
 --------------------------------------------------------
     1   Atom        0.000000      0.000000      0.000000
     2   Atom        0.000000      0.000000      0.000000
     3   Atom        0.000000      0.000000      0.000000
     4   Atom        0.000000      0.000000      0.000000
     5   Atom        0.000000      0.000000      0.000000
     6   Atom        0.000000      0.000000      0.000000
 --------------------------------------------------------


 ---------------------------------------------------------------------------------
              Anisotropic Spin Dipole Couplings in Principal Axis System
 ---------------------------------------------------------------------------------

       Atom             a.u.   MegaHertz   Gauss  10(-4) cm-1        Axes

              Baa     0.0000     0.000     0.000     0.000  1.0000  0.0000  0.0000
     1 P(31)  Bbb     0.0000     0.000     0.000     0.000 -0.0000  1.0000  0.0000
              Bcc     0.0000     0.000     0.000     0.000  0.0000  0.0000  1.0000
 
              Baa     0.0000     0.000     0.000     0.000  1.0000  0.0000  0.0000
     2 P(31)  Bbb     0.0000     0.000     0.000     0.000 -0.0000  1.0000  0.0000
              Bcc     0.0000     0.000     0.000     0.000  0.0000  0.0000  1.0000
 
              Baa     0.0000     0.000     0.000     0.000  1.0000  0.0000  0.0000
     3 H(1)   Bbb     0.0000     0.000     0.000     0.000 -0.0000  1.0000  0.0000
              Bcc     0.0000     0.000     0.000     0.000  0.0000  0.0000  1.0000
 
              Baa     0.0000     0.000     0.000     0.000  1.0000  0.0000  0.0000
     4 H(1)   Bbb     0.0000     0.000     0.000     0.000 -0.0000  1.0000  0.0000
              Bcc     0.0000     0.000     0.000     0.000  0.0000  0.0000  1.0000
 
              Baa     0.0000     0.000     0.000     0.000  1.0000  0.0000  0.0000
     5 H(1)   Bbb     0.0000     0.000     0.000     0.000 -0.0000  1.0000  0.0000
              Bcc     0.0000     0.000     0.000     0.000  0.0000  0.0000  1.0000
 
              Baa     0.0000     0.000     0.000     0.000  1.0000  0.0000  0.0000
     6 H(1)   Bbb     0.0000     0.000     0.000     0.000 -0.0000  1.0000  0.0000
              Bcc     0.0000     0.000     0.000     0.000  0.0000  0.0000  1.0000
 

 ---------------------------------------------------------------------------------

 No NMR shielding tensors so no spin-rotation constants.
 Leave Link  601 at Mon Apr 21 20:44:36 2025, MaxMem=   536870912 cpu:               1.2 elap:               0.2
 (Enter /home/szhao/Apps/g16/l701.exe)
 ... and contract with generalized density number  0.
 Compute integral first derivatives.
 Leave Link  701 at Mon Apr 21 20:44:37 2025, MaxMem=   536870912 cpu:               1.6 elap:               0.8
 (Enter /home/szhao/Apps/g16/l702.exe)
 L702 exits ... SP integral derivatives will be done elsewhere.
 Leave Link  702 at Mon Apr 21 20:44:38 2025, MaxMem=   536870912 cpu:               1.3 elap:               0.3
 (Enter /home/szhao/Apps/g16/l703.exe)
 Integral derivatives from FoFJK, PRISM(SPDF).
 Compute integral first derivatives, UseDBF=F ICtDFT=           0.
 Calling FoFJK, ICntrl=      2127 FMM=F ISym2X=0 I1Cent= 0 IOpClX= 1 NMat=1 NMatS=1 NMatT=0.
 FoFJK:  IHMeth= 1 ICntrl=    2127 DoSepK=F KAlg= 0 I1Cent=           0 FoldK=F
 IRaf=         0 NMat=       1 IRICut=       1 DoRegI=T DoRafI=F ISym2E= 0 IDoP0=0 IntGTp=1.
 FoFCou: FMM=F IPFlag=           0 FMFlag=      100000 FMFlg1=         800
         NFxFlg=           0 DoJE=F BraDBF=F KetDBF=F FulRan=T
         wScrn=  0.000000 ICntrl=      2127 IOpCl=  1 I1Cent=           0 NGrid=           0
         NMat0=    1 NMatS0=      1 NMatT0=    0 NMatD0=    1 NMtDS0=    0 NMtDT0=    0
 Symmetry not used in FoFCou.
 Leave Link  703 at Mon Apr 21 20:44:40 2025, MaxMem=   536870912 cpu:               9.9 elap:               1.3
 (Enter /home/szhao/Apps/g16/l716.exe)
 Dipole        =-1.07202028D-05-3.23328267D-02-5.14436629D-01
 -------------------------------------------------------------------
 Center     Atomic                   Forces (Hartrees/Bohr)
 Number     Number              X              Y              Z
 -------------------------------------------------------------------
      1       15          -0.000000000   -0.000000000   -0.000000000
      2       15          -0.000000000   -0.000000000   -0.000000000
      3        1          -0.002353758   -0.000661746   -0.000865294
      4        1           0.002352965    0.000543482   -0.000950253
      5        1          -0.002689073   -0.000837770   -0.001073635
      6        1           0.002682956    0.000694326   -0.001161803
 -------------------------------------------------------------------
 Cartesian Forces:  Max     0.002689073 RMS     0.001324500
 Leave Link  716 at Mon Apr 21 20:44:41 2025, MaxMem=   536870912 cpu:               1.6 elap:               0.6
 (Enter /home/szhao/Apps/g16/l103.exe)

 GradGradGradGradGradGradGradGradGradGradGradGradGradGradGradGradGradGrad
 Berny optimization.
 FormGI is forming the generalized inverse of G from B-inverse, IUseBI=4.
 Internal  Forces:  Max     0.007563595 RMS     0.003839864
 Search for a local minimum.
 Step number   1 out of a maximum of   30
 All quantities printed in internal units (Hartrees-Bohrs-Radians)
 RMS Force = .38520D-02 SwitMx=.10000D-02 MixMth= 1
 Mixed Optimization -- RFO/linear search
 Second derivative matrix not updated -- first step.
 The second derivative matrix:
                          X1        Y1        Z1        X2        Y2
           X1           0.50000
           Y1           0.00000   0.50000
           Z1           0.00000   0.00000   0.50000
           X2           0.00000   0.00000   0.00000   0.50000
           Y2           0.00000   0.00000   0.00000   0.00000   0.50000
           Z2           0.00000   0.00000   0.00000   0.00000   0.00000
           R1           0.00000   0.00000   0.00000   0.00000   0.00000
           R2           0.00000   0.00000   0.00000   0.00000   0.00000
           R3           0.00000   0.00000   0.00000   0.00000   0.00000
           R4           0.00000   0.00000   0.00000   0.00000   0.00000
           A1           0.00000   0.00000   0.00000   0.00000   0.00000
           A2           0.00000   0.00000   0.00000   0.00000   0.00000
           A3           0.00000   0.00000   0.00000   0.00000   0.00000
           A4           0.00000   0.00000   0.00000   0.00000   0.00000
           A5           0.00000   0.00000   0.00000   0.00000   0.00000
           A6           0.00000   0.00000   0.00000   0.00000   0.00000
           D1           0.00000   0.00000   0.00000   0.00000   0.00000
           D2           0.00000   0.00000   0.00000   0.00000   0.00000
           D3           0.00000   0.00000   0.00000   0.00000   0.00000
           D4           0.00000   0.00000   0.00000   0.00000   0.00000
                          Z2        R1        R2        R3        R4
           Z2           0.50000
           R1           0.00000   0.21281
           R2           0.00000   0.00000   0.21209
           R3           0.00000   0.00000   0.00000   0.21281
           R4           0.00000   0.00000   0.00000   0.00000   0.21209
           A1           0.00000   0.00000   0.00000   0.00000   0.00000
           A2           0.00000   0.00000   0.00000   0.00000   0.00000
           A3           0.00000   0.00000   0.00000   0.00000   0.00000
           A4           0.00000   0.00000   0.00000   0.00000   0.00000
           A5           0.00000   0.00000   0.00000   0.00000   0.00000
           A6           0.00000   0.00000   0.00000   0.00000   0.00000
           D1           0.00000   0.00000   0.00000   0.00000   0.00000
           D2           0.00000   0.00000   0.00000   0.00000   0.00000
           D3           0.00000   0.00000   0.00000   0.00000   0.00000
           D4           0.00000   0.00000   0.00000   0.00000   0.00000
                          A1        A2        A3        A4        A5
           A1           0.16000
           A2           0.00000   0.16000
           A3           0.00000   0.00000   0.16000
           A4           0.00000   0.00000   0.00000   0.16000
           A5           0.00000   0.00000   0.00000   0.00000   0.16000
           A6           0.00000   0.00000   0.00000   0.00000   0.00000
           D1           0.00000   0.00000   0.00000   0.00000   0.00000
           D2           0.00000   0.00000   0.00000   0.00000   0.00000
           D3           0.00000   0.00000   0.00000   0.00000   0.00000
           D4           0.00000   0.00000   0.00000   0.00000   0.00000
                          A6        D1        D2        D3        D4
           A6           0.16000
           D1           0.00000   0.00230
           D2           0.00000   0.00000   0.00230
           D3           0.00000   0.00000   0.00000   0.00230
           D4           0.00000   0.00000   0.00000   0.00000   0.00230
 ITU=  0
     Eigenvalues ---    0.00230   0.07808   0.07808   0.16000   0.16000
     Eigenvalues ---    0.16000   0.16000   0.21209   0.21209   0.21281
     Eigenvalues ---    0.212811000.000001000.000001000.000001000.00000
     Eigenvalues --- 1000.000001000.000001000.000001000.000001000.00000
 RFO step:  Lambda=-1.39931492D-03 EMin= 2.30000000D-03
 Linear search not attempted -- first point.
 Iteration  1 RMS(Cart)=  0.05599185 RMS(Int)=  0.00149519
 Iteration  2 RMS(Cart)=  0.00159484 RMS(Int)=  0.00054316
 Iteration  3 RMS(Cart)=  0.00000179 RMS(Int)=  0.00054316
 Iteration  4 RMS(Cart)=  0.00000000 RMS(Int)=  0.00054316
 ITry= 1 IFail=0 DXMaxC= 1.27D-01 DCOld= 1.00D+10 DXMaxT= 3.00D-01 DXLimC= 3.00D+00 Rises=F
 Variable       Old X    -DE/DX   Delta X   Delta X   Delta X     New X
                                 (Linear)    (Quad)   (Total)
    X1       -2.39469   0.00504   0.00000   0.00000   0.00000  -2.39469
    Y1        0.00000   0.00362   0.00000   0.00000   0.00000   0.00000
    Z1        0.00000  -0.00225   0.00000   0.00000   0.00000   0.00000
    X2        2.39469  -0.00504   0.00000   0.00000   0.00000   2.39469
    Y2        0.00000  -0.00387   0.00000   0.00000   0.00000   0.00000
    Z2        0.00000  -0.00180   0.00000   0.00000   0.00000   0.00000
    R1        2.67226   0.00046   0.00000   0.00215   0.00215   2.67441
    R2        2.67454   0.00052   0.00000   0.00244   0.00244   2.67698
    R3        2.67226   0.00047   0.00000   0.00217   0.00217   2.67443
    R4        2.67453   0.00053   0.00000   0.00247   0.00247   2.67701
    A1        1.65352  -0.00645   0.00000  -0.04226  -0.04241   1.61111
    A2        1.74123  -0.00754   0.00000  -0.04798  -0.04804   1.69319
    A3        1.63989  -0.00024   0.00000  -0.01440  -0.01561   1.62428
    A4        1.65351  -0.00646   0.00000  -0.04227  -0.04242   1.61109
    A5        1.74123  -0.00756   0.00000  -0.04810  -0.04816   1.69307
    A6        1.63988  -0.00024   0.00000  -0.01435  -0.01557   1.62431
    D1       -3.01600   0.00211   0.00000   0.01902   0.01782  -2.99819
    D2       -1.36055  -0.00003   0.00000  -0.00791  -0.00791  -1.36846
    D3       -1.36054  -0.00003   0.00000  -0.00795  -0.00795  -1.36849
    D4        0.29491  -0.00217   0.00000  -0.03488  -0.03368   0.26123
         Item               Value     Threshold  Converged?
 Maximum Force            0.007564     0.000450     NO 
 RMS     Force            0.003852     0.000300     NO 
 Maximum Displacement     0.127106     0.001800     NO 
 RMS     Displacement     0.056556     0.001200     NO 
 Predicted change in Energy=-6.965153D-04
 Lowest energy point so far.  Saving SCF results.
 GradGradGradGradGradGradGradGradGradGradGradGradGradGradGradGradGradGrad

 Leave Link  103 at Mon Apr 21 20:44:42 2025, MaxMem=   536870912 cpu:               1.8 elap:               0.7
 (Enter /home/szhao/Apps/g16/l202.exe)
                          Input orientation:                          
 ---------------------------------------------------------------------
 Center     Atomic      Atomic             Coordinates (Angstroms)
 Number     Number       Type             X           Y           Z
 ---------------------------------------------------------------------
      1         15           0       -1.267217    0.000000    0.000000
      2         15           0        1.267217    0.000000    0.000000
      3          1           0        1.324224   -1.414051   -0.011656
      4          1           0       -1.324255    1.401191   -0.190552
      5          1           0        1.440003    0.094372   -1.402865
      6          1           0       -1.440166   -0.271142   -1.379608
 ---------------------------------------------------------------------
                    Distance matrix (angstroms):
                    1          2          3          4          5
     1  P    0.000000
     2  P    2.534433   0.000000
     3  H    2.952159   1.415248   0.000000
     4  H    1.415238   2.952180   3.869371   0.000000
     5  H    3.050570   1.416613   2.055288   3.289164   0.000000
     6  H    1.416597   3.050698   3.289284   2.055234   2.903363
                    6
     6  H    0.000000
 Symmetry turned off by external request.
 Stoichiometry    H4P2
 Framework group  C1[X(H4P2)]
 Deg. of freedom    12
 Full point group                 C1      NOp   1
 Rotational constants (GHZ):          64.9891939           4.5491169           4.5419158
 Leave Link  202 at Mon Apr 21 20:44:43 2025, MaxMem=   536870912 cpu:               0.5 elap:               0.3
 (Enter /home/szhao/Apps/g16/l301.exe)
 Standard basis: 6-311+G(d,p) (5D, 7F)
 Ernie: Thresh=  0.10000D-02 Tol=  0.10000D-05 Strict=F.
    84 basis functions,   132 primitive gaussians,    86 cartesian basis functions
    17 alpha electrons       17 beta electrons
       nuclear repulsion energy        81.1400565472 Hartrees.
 IExCor= 4336 DFT=T Ex+Corr=M062X ExCW=0 ScaHFX=  0.540000
 ScaDFX=  1.000000  1.000000  1.000000  1.000000 ScalE2=  1.000000  1.000000
 IRadAn=      7 IRanWt=     -1 IRanGd=            0 ICorTp=0 IEmpDi=  4
 NAtoms=    6 NActive=    6 NUniq=    6 SFac= 1.00D+00 NAtFMM=   60 NAOKFM=F Big=F
 Integral buffers will be    131072 words long.
 Raffenetti 2 integral format.
 Two-electron integral symmetry is turned off.
 Leave Link  301 at Mon Apr 21 20:44:44 2025, MaxMem=   536870912 cpu:               1.9 elap:               0.4
 (Enter /home/szhao/Apps/g16/l302.exe)
 NPDir=0 NMtPBC=     1 NCelOv=     1 NCel=       1 NClECP=     1 NCelD=      1
         NCelK=      1 NCelE2=     1 NClLst=     1 CellRange=     0.0.
 One-electron integrals computed using PRISM.
 NBasis=    84 RedAO= T EigKep=  1.43D-03  NBF=    84
 NBsUse=    84 1.00D-06 EigRej= -1.00D+00 NBFU=    84
 Precomputing XC quadrature grid using
 IXCGrd= 4 IRadAn=           7 IRanWt=          -1 IRanGd=           0 AccXCQ= 0.00D+00.
 Generated NRdTot=       0 NPtTot=           0 NUsed=           0 NTot=          32
 NSgBfM=    84    84    84    84    84 MxSgAt=     6 MxSgA2=     6.
 Leave Link  302 at Mon Apr 21 20:44:45 2025, MaxMem=   536870912 cpu:               2.2 elap:               0.4
 (Enter /home/szhao/Apps/g16/l303.exe)
 DipDrv:  MaxL=1.
 Leave Link  303 at Mon Apr 21 20:44:45 2025, MaxMem=   536870912 cpu:               0.6 elap:               0.2
 (Enter /home/szhao/Apps/g16/l401.exe)
 Initial guess from the checkpoint file:  "opt.chk"
 B after Tr=    -0.000009   -0.000191   -0.003023
         Rot=    0.999998    0.000330    0.000112    0.001802 Ang=   0.21 deg.
 Guess basis will be translated and rotated to current coordinates.
 JPrj=2 DoOrth=T DoCkMO=T.
 Initial guess <Sx>= 0.0000 <Sy>= 0.0000 <Sz>= 0.0000 <S**2>=-0.0000 S=-0.0000
 Generating alternative initial guess.
 ExpMin= 3.48D-02 ExpMax= 7.75D+04 ExpMxC= 2.65D+03 IAcc=3 IRadAn=         5 AccDes= 0.00D+00
 Harris functional with IExCor= 1009 and IRadAn=       5 diagonalized for initial guess.
 HarFok:  IExCor= 1009 AccDes= 0.00D+00 IRadAn=         5 IDoV= 1 UseB2=F ITyADJ=14
 ICtDFT=  3500011 ScaDFX=  1.000000  1.000000  1.000000  1.000000
 FoFCou: FMM=F IPFlag=           0 FMFlag=      100000 FMFlg1=           0
         NFxFlg=           0 DoJE=T BraDBF=F KetDBF=T FulRan=T
         wScrn=  0.000000 ICntrl=       500 IOpCl=  0 I1Cent=   200000004 NGrid=           0
         NMat0=    1 NMatS0=      1 NMatT0=    0 NMatD0=    1 NMtDS0=    0 NMtDT0=    0
 Symmetry not used in FoFCou.
 Harris En= -684.743314082305    
 Leave Link  401 at Mon Apr 21 20:44:46 2025, MaxMem=   536870912 cpu:               3.2 elap:               0.6
 (Enter /home/szhao/Apps/g16/l502.exe)
 Keep R1 and R2 ints in memory in canonical form, NReq=20057634.
 FoFCou: FMM=F IPFlag=           0 FMFlag=           0 FMFlg1=           0
         NFxFlg=           0 DoJE=F BraDBF=F KetDBF=F FulRan=T
         wScrn=  0.000000 ICntrl=       600 IOpCl=  0 I1Cent=           0 NGrid=           0
         NMat0=    1 NMatS0=   3570 NMatT0=    0 NMatD0=    1 NMtDS0=    0 NMtDT0=    0
 Symmetry not used in FoFCou.
 Two-electron integral symmetry not used.
 UHF open shell SCF:
 Using DIIS extrapolation, IDIIS=  1040.
 NGot=   536870912 LenX=   524106186 LenY=   524098349
 Requested convergence on RMS density matrix=1.00D-08 within 128 cycles.
 Requested convergence on MAX density matrix=1.00D-06.
 Requested convergence on             energy=1.00D-06.
 No special actions if energy rises.

 Cycle   1  Pass 1  IDiag  1:
 E= -685.043525598750    
 DIIS: error= 1.76D-03 at cycle   1 NSaved=   1.
 NSaved= 1 IEnMin= 1 EnMin= -685.043525598750     IErMin= 1 ErrMin= 1.76D-03
 ErrMax= 1.76D-03  0.00D+00 EMaxC= 1.00D-01 BMatC= 1.33D-03 BMatP= 1.33D-03
 IDIUse=3 WtCom= 9.82D-01 WtEn= 1.76D-02
 Coeff-Com:  0.100D+01
 Coeff-En:   0.100D+01
 Coeff:      0.100D+01
 Gap=     0.446 Goal=   None    Shift=    0.000
 Gap=     0.446 Goal=   None    Shift=    0.000
 GapD=    0.446 DampG=2.000 DampE=1.000 DampFc=2.0000 IDamp=-1.
 RMSDP=6.51D-04 MaxDP=6.90D-03              OVMax= 1.43D-02

 Cycle   2  Pass 1  IDiag  1:
 E= -685.044226305429     Delta-E=       -0.000700706679 Rises=F Damp=F
 DIIS: error= 3.76D-04 at cycle   2 NSaved=   2.
 NSaved= 2 IEnMin= 2 EnMin= -685.044226305429     IErMin= 2 ErrMin= 3.76D-04
 ErrMax= 3.76D-04  0.00D+00 EMaxC= 1.00D-01 BMatC= 6.64D-05 BMatP= 1.33D-03
 IDIUse=3 WtCom= 9.96D-01 WtEn= 3.76D-03
 Coeff-Com: -0.108D+00 0.111D+01
 Coeff-En:   0.000D+00 0.100D+01
 Coeff:     -0.107D+00 0.111D+01
 Gap=     0.275 Goal=   None    Shift=    0.000
 Gap=     0.275 Goal=   None    Shift=    0.000
 RMSDP=1.35D-04 MaxDP=1.21D-03 DE=-7.01D-04 OVMax= 3.82D-03

 Cycle   3  Pass 1  IDiag  1:
 E= -685.044271067389     Delta-E=       -0.000044761960 Rises=F Damp=F
 DIIS: error= 1.71D-04 at cycle   3 NSaved=   3.
 NSaved= 3 IEnMin= 3 EnMin= -685.044271067389     IErMin= 3 ErrMin= 1.71D-04
 ErrMax= 1.71D-04  0.00D+00 EMaxC= 1.00D-01 BMatC= 1.14D-05 BMatP= 6.64D-05
 IDIUse=3 WtCom= 9.98D-01 WtEn= 1.71D-03
 Coeff-Com: -0.545D-01 0.302D+00 0.752D+00
 Coeff-En:   0.000D+00 0.000D+00 0.100D+01
 Coeff:     -0.544D-01 0.302D+00 0.752D+00
 Gap=     0.275 Goal=   None    Shift=    0.000
 Gap=     0.275 Goal=   None    Shift=    0.000
 RMSDP=4.70D-05 MaxDP=7.11D-04 DE=-4.48D-05 OVMax= 1.53D-03

 Cycle   4  Pass 1  IDiag  1:
 E= -685.044276500898     Delta-E=       -0.000005433508 Rises=F Damp=F
 DIIS: error= 5.66D-05 at cycle   4 NSaved=   4.
 NSaved= 4 IEnMin= 4 EnMin= -685.044276500898     IErMin= 4 ErrMin= 5.66D-05
 ErrMax= 5.66D-05  0.00D+00 EMaxC= 1.00D-01 BMatC= 1.21D-06 BMatP= 1.14D-05
 IDIUse=1 WtCom= 1.00D+00 WtEn= 0.00D+00
 Coeff-Com:  0.771D-02-0.119D+00 0.106D+00 0.101D+01
 Coeff:      0.771D-02-0.119D+00 0.106D+00 0.101D+01
 Gap=     0.275 Goal=   None    Shift=    0.000
 Gap=     0.275 Goal=   None    Shift=    0.000
 RMSDP=1.61D-05 MaxDP=1.64D-04 DE=-5.43D-06 OVMax= 6.32D-04

 Cycle   5  Pass 1  IDiag  1:
 E= -685.044277153506     Delta-E=       -0.000000652609 Rises=F Damp=F
 DIIS: error= 7.69D-06 at cycle   5 NSaved=   5.
 NSaved= 5 IEnMin= 5 EnMin= -685.044277153506     IErMin= 5 ErrMin= 7.69D-06
 ErrMax= 7.69D-06  0.00D+00 EMaxC= 1.00D-01 BMatC= 2.40D-08 BMatP= 1.21D-06
 IDIUse=1 WtCom= 1.00D+00 WtEn= 0.00D+00
 Coeff-Com:  0.255D-02-0.230D-01-0.196D-02 0.419D-01 0.981D+00
 Coeff:      0.255D-02-0.230D-01-0.196D-02 0.419D-01 0.981D+00
 Gap=     0.275 Goal=   None    Shift=    0.000
 Gap=     0.275 Goal=   None    Shift=    0.000
 RMSDP=2.69D-06 MaxDP=2.86D-05 DE=-6.53D-07 OVMax= 1.20D-04

 Cycle   6  Pass 1  IDiag  1:
 E= -685.044277170517     Delta-E=       -0.000000017011 Rises=F Damp=F
 DIIS: error= 1.55D-06 at cycle   6 NSaved=   6.
 NSaved= 6 IEnMin= 6 EnMin= -685.044277170517     IErMin= 6 ErrMin= 1.55D-06
 ErrMax= 1.55D-06  0.00D+00 EMaxC= 1.00D-01 BMatC= 1.34D-09 BMatP= 2.40D-08
 IDIUse=1 WtCom= 1.00D+00 WtEn= 0.00D+00
 Coeff-Com: -0.468D-03 0.833D-02-0.684D-02-0.750D-01 0.101D+00 0.973D+00
 Coeff:     -0.468D-03 0.833D-02-0.684D-02-0.750D-01 0.101D+00 0.973D+00
 Gap=     0.275 Goal=   None    Shift=    0.000
 Gap=     0.275 Goal=   None    Shift=    0.000
 RMSDP=7.17D-07 MaxDP=8.37D-06 DE=-1.70D-08 OVMax= 2.95D-05

 Cycle   7  Pass 1  IDiag  1:
 E= -685.044277171390     Delta-E=       -0.000000000873 Rises=F Damp=F
 DIIS: error= 2.38D-07 at cycle   7 NSaved=   7.
 NSaved= 7 IEnMin= 7 EnMin= -685.044277171390     IErMin= 7 ErrMin= 2.38D-07
 ErrMax= 2.38D-07  0.00D+00 EMaxC= 1.00D-01 BMatC= 3.46D-11 BMatP= 1.34D-09
 IDIUse=1 WtCom= 1.00D+00 WtEn= 0.00D+00
 Coeff-Com: -0.978D-04 0.129D-02-0.117D-02-0.735D-02-0.196D-01 0.755D-01
 Coeff-Com:  0.951D+00
 Coeff:     -0.978D-04 0.129D-02-0.117D-02-0.735D-02-0.196D-01 0.755D-01
 Coeff:      0.951D+00
 Gap=     0.275 Goal=   None    Shift=    0.000
 Gap=     0.275 Goal=   None    Shift=    0.000
 RMSDP=1.36D-07 MaxDP=1.75D-06 DE=-8.73D-10 OVMax= 5.03D-06

 Cycle   8  Pass 1  IDiag  1:
 E= -685.044277171419     Delta-E=       -0.000000000029 Rises=F Damp=F
 DIIS: error= 5.47D-08 at cycle   8 NSaved=   8.
 NSaved= 8 IEnMin= 8 EnMin= -685.044277171419     IErMin= 8 ErrMin= 5.47D-08
 ErrMax= 5.47D-08  0.00D+00 EMaxC= 1.00D-01 BMatC= 2.70D-12 BMatP= 3.46D-11
 IDIUse=1 WtCom= 1.00D+00 WtEn= 0.00D+00
 Coeff-Com:  0.107D-04-0.244D-03 0.221D-03 0.256D-02-0.597D-02-0.473D-01
 Coeff-Com:  0.126D+00 0.925D+00
 Coeff:      0.107D-04-0.244D-03 0.221D-03 0.256D-02-0.597D-02-0.473D-01
 Coeff:      0.126D+00 0.925D+00
 Gap=     0.275 Goal=   None    Shift=    0.000
 Gap=     0.275 Goal=   None    Shift=    0.000
 RMSDP=3.24D-08 MaxDP=7.39D-07 DE=-2.86D-11 OVMax= 9.78D-07

 Cycle   9  Pass 1  IDiag  1:
 E= -685.044277171421     Delta-E=       -0.000000000002 Rises=F Damp=F
 DIIS: error= 1.59D-08 at cycle   9 NSaved=   9.
 NSaved= 9 IEnMin= 9 EnMin= -685.044277171421     IErMin= 9 ErrMin= 1.59D-08
 ErrMax= 1.59D-08  0.00D+00 EMaxC= 1.00D-01 BMatC= 2.73D-13 BMatP= 2.70D-12
 IDIUse=1 WtCom= 1.00D+00 WtEn= 0.00D+00
 Coeff-Com:  0.699D-05-0.119D-03 0.123D-03 0.997D-03-0.444D-03-0.159D-01
 Coeff-Com: -0.152D-01 0.260D+00 0.770D+00
 Coeff:      0.699D-05-0.119D-03 0.123D-03 0.997D-03-0.444D-03-0.159D-01
 Coeff:     -0.152D-01 0.260D+00 0.770D+00
 Gap=     0.275 Goal=   None    Shift=    0.000
 Gap=     0.275 Goal=   None    Shift=    0.000
 RMSDP=7.71D-09 MaxDP=1.89D-07 DE=-1.93D-12 OVMax= 3.04D-07

 SCF Done:  E(UM062X) =  -685.044277171     A.U. after    9 cycles
            NFock=  9  Conv=0.77D-08     -V/T= 2.0016
 <Sx>= 0.0000 <Sy>= 0.0000 <Sz>= 0.0000 <S**2>=-0.0000 S=-0.0000
 <L.S>=  0.00000000000    
 KE= 6.839612541843D+02 PE=-1.791969386481D+03 EE= 3.418237985777D+02
 Annihilation of the first spin contaminant:
 S**2 before annihilation    -0.0000,   after     0.0000
 Leave Link  502 at Mon Apr 21 20:44:55 2025, MaxMem=   536870912 cpu:              61.7 elap:               8.1
 (Enter /home/szhao/Apps/g16/l701.exe)
 ... and contract with generalized density number  0.
 Compute integral first derivatives.
 Leave Link  701 at Mon Apr 21 20:44:55 2025, MaxMem=   536870912 cpu:               1.2 elap:               0.2
 (Enter /home/szhao/Apps/g16/l702.exe)
 L702 exits ... SP integral derivatives will be done elsewhere.
 Leave Link  702 at Mon Apr 21 20:44:56 2025, MaxMem=   536870912 cpu:               0.4 elap:               0.3
 (Enter /home/szhao/Apps/g16/l703.exe)
 Integral derivatives from FoFJK, PRISM(SPDF).
 Compute integral first derivatives, UseDBF=F ICtDFT=           0.
 Calling FoFJK, ICntrl=      2127 FMM=F ISym2X=0 I1Cent= 0 IOpClX= 1 NMat=1 NMatS=1 NMatT=0.
 FoFJK:  IHMeth= 1 ICntrl=    2127 DoSepK=F KAlg= 0 I1Cent=           0 FoldK=F
 IRaf=         0 NMat=       1 IRICut=       1 DoRegI=T DoRafI=F ISym2E= 0 IDoP0=0 IntGTp=1.
 FoFCou: FMM=F IPFlag=           0 FMFlag=      100000 FMFlg1=         800
         NFxFlg=           0 DoJE=F BraDBF=F KetDBF=F FulRan=T
         wScrn=  0.000000 ICntrl=      2127 IOpCl=  1 I1Cent=           0 NGrid=           0
         NMat0=    1 NMatS0=      1 NMatT0=    0 NMatD0=    1 NMtDS0=    0 NMtDT0=    0
 Symmetry not used in FoFCou.
 Leave Link  703 at Mon Apr 21 20:44:57 2025, MaxMem=   536870912 cpu:               8.6 elap:               1.2
 (Enter /home/szhao/Apps/g16/l716.exe)
 Dipole        = 7.62024667D-05-3.18005022D-02-5.00481586D-01
 -------------------------------------------------------------------
 Center     Atomic                   Forces (Hartrees/Bohr)
 Number     Number              X              Y              Z
 -------------------------------------------------------------------
      1       15          -0.000000000   -0.000000000   -0.000000000
      2       15          -0.000000000   -0.000000000   -0.000000000
      3        1          -0.000043989   -0.000250356    0.000033305
      4        1           0.000047016    0.000253152   -0.000001208
      5        1          -0.001255748   -0.000016729   -0.000242648
      6        1           0.001269132   -0.000019134   -0.000251740
 -------------------------------------------------------------------
 Cartesian Forces:  Max     0.001269132 RMS     0.000437322
 Leave Link  716 at Mon Apr 21 20:44:58 2025, MaxMem=   536870912 cpu:               1.2 elap:               0.5
 (Enter /home/szhao/Apps/g16/l103.exe)

 GradGradGradGradGradGradGradGradGradGradGradGradGradGradGradGradGradGrad
 Berny optimization.
 Using GEDIIS/GDIIS optimizer.
 FormGI is forming the generalized inverse of G from B-inverse, IUseBI=4.
 Internal  Forces:  Max     0.003449555 RMS     0.001168646
 Search for a local minimum.
 Step number   2 out of a maximum of   30
 All quantities printed in internal units (Hartrees-Bohrs-Radians)
 RMS Force = .13025D-02 SwitMx=.10000D-02 MixMth= 1
 Mixed Optimization -- RFO/linear search
 Update second derivatives using D2CorX and points    1    2
 DE= -8.78D-04 DEPred=-6.97D-04 R= 1.26D+00
 TightC=F SS=  1.41D+00  RLast= 1.02D-01 DXNew= 5.0454D-01 3.0462D-01
 Trust test= 1.26D+00 RLast= 1.02D-01 DXMaxT set to 3.05D-01
 The second derivative matrix:
                          X1        Y1        Z1        X2        Y2
           X1           0.51316
           Y1           0.01239   0.51166
           Z1          -0.00708  -0.00667   0.50381
           X2          -0.01324  -0.01246   0.00713   0.51333
           Y2          -0.01318  -0.01241   0.00710   0.01326   0.51320
           Z2          -0.00561  -0.00528   0.00302   0.00565   0.00562
           R1           0.00075   0.00071  -0.00040  -0.00076  -0.00075
           R2           0.00151   0.00143  -0.00082  -0.00152  -0.00152
           R3           0.00077   0.00072  -0.00041  -0.00077  -0.00077
           R4           0.00157   0.00147  -0.00084  -0.00157  -0.00157
           A1          -0.02233  -0.02102   0.01202   0.02247   0.02237
           A2          -0.01449  -0.01364   0.00780   0.01458   0.01451
           A3          -0.00118  -0.00111   0.00064   0.00119   0.00118
           A4          -0.02237  -0.02105   0.01204   0.02251   0.02240
           A5          -0.01469  -0.01383   0.00791   0.01478   0.01471
           A6          -0.00116  -0.00109   0.00062   0.00116   0.00116
           D1           0.00732   0.00689  -0.00394  -0.00736  -0.00733
           D2           0.00005   0.00005  -0.00003  -0.00005  -0.00005
           D3           0.00005   0.00005  -0.00003  -0.00005  -0.00005
           D4          -0.00722  -0.00679   0.00389   0.00726   0.00723
                          Z2        R1        R2        R3        R4
           Z2           0.50239
           R1          -0.00032   0.21271
           R2          -0.00065  -0.00008   0.21207
           R3          -0.00033  -0.00011  -0.00008   0.21270
           R4          -0.00067  -0.00008  -0.00001  -0.00008   0.21208
           A1           0.00953   0.00094  -0.00006   0.00093  -0.00012
           A2           0.00618   0.00169   0.00118   0.00169   0.00115
           A3           0.00050   0.00075   0.00079   0.00075   0.00079
           A4           0.00954   0.00094  -0.00006   0.00093  -0.00012
           A5           0.00627   0.00168   0.00116   0.00168   0.00114
           A6           0.00049   0.00075   0.00079   0.00075   0.00079
           D1          -0.00312   0.00040   0.00083   0.00041   0.00086
           D2          -0.00002   0.00001   0.00001   0.00001   0.00001
           D3          -0.00002   0.00001   0.00001   0.00001   0.00001
           D4           0.00308  -0.00039  -0.00080  -0.00040  -0.00083
                          A1        A2        A3        A4        A5
           A1           0.16506
           A2          -0.01262   0.13381
           A3          -0.01008  -0.01239   0.15566
           A4           0.00511  -0.01259  -0.01008   0.16516
           A5          -0.01236  -0.02607  -0.01241  -0.01233   0.13406
           A6          -0.01009  -0.01238  -0.00433  -0.01009  -0.01240
           D1          -0.01222  -0.00783  -0.00058  -0.01224  -0.00795
           D2          -0.00018  -0.00016  -0.00004  -0.00018  -0.00016
           D3          -0.00017  -0.00015  -0.00004  -0.00017  -0.00015
           D4           0.01187   0.00752   0.00051   0.01189   0.00763
                          A6        D1        D2        D3        D4
           A6           0.15568
           D1          -0.00057   0.00637
           D2          -0.00004   0.00003   0.00230
           D3          -0.00004   0.00003  -0.00000   0.00230
           D4           0.00050  -0.00401  -0.00003  -0.00003   0.00625
 ITU=  1  0
 Use linear search instead of GDIIS.
     Eigenvalues ---    0.00230   0.07782   0.07978   0.10670   0.16000
     Eigenvalues ---    0.16000   0.18146   0.21209   0.21211   0.21276
     Eigenvalues ---    0.212811000.000001000.000001000.000001000.00000
     Eigenvalues --- 1000.000001000.000001000.000001000.000001000.00000
 RFO step:  Lambda=-1.12010944D-04 EMin= 2.29559333D-03
 Quartic linear search produced a step of  0.31344.
 Iteration  1 RMS(Cart)=  0.02912718 RMS(Int)=  0.00051655
 Iteration  2 RMS(Cart)=  0.00047616 RMS(Int)=  0.00020658
 Iteration  3 RMS(Cart)=  0.00000003 RMS(Int)=  0.00020658
 ITry= 1 IFail=0 DXMaxC= 8.47D-02 DCOld= 1.00D+10 DXMaxT= 3.05D-01 DXLimC= 3.00D+00 Rises=F
 Variable       Old X    -DE/DX   Delta X   Delta X   Delta X     New X
                                 (Linear)    (Quad)   (Total)
    X1       -2.39469   0.00132   0.00000   0.00000   0.00000  -2.39469
    Y1        0.00000   0.00011   0.00000   0.00000   0.00000   0.00000
    Z1        0.00000  -0.00025   0.00000   0.00000   0.00000   0.00000
    X2        2.39469  -0.00130   0.00000   0.00000   0.00000   2.39469
    Y2        0.00000  -0.00014   0.00000   0.00000   0.00000   0.00000
    Z2        0.00000  -0.00021   0.00000   0.00000   0.00000   0.00000
    R1        2.67441   0.00025   0.00068   0.00101   0.00169   2.67610
    R2        2.67698   0.00009   0.00077  -0.00001   0.00075   2.67773
    R3        2.67443   0.00025   0.00068   0.00101   0.00169   2.67612
    R4        2.67701   0.00009   0.00078  -0.00007   0.00071   2.67772
    A1        1.61111  -0.00014  -0.01329   0.00898  -0.00436   1.60675
    A2        1.69319  -0.00345  -0.01506  -0.01676  -0.03183   1.66136
    A3        1.62428   0.00009  -0.00489   0.00382  -0.00154   1.62274
    A4        1.61109  -0.00013  -0.01330   0.00905  -0.00429   1.60679
    A5        1.69307  -0.00341  -0.01509  -0.01641  -0.03152   1.66155
    A6        1.62431   0.00009  -0.00488   0.00380  -0.00154   1.62277
    D1       -2.99819   0.00004   0.00558  -0.01949  -0.01436  -3.01255
    D2       -1.36846  -0.00004  -0.00248  -0.01531  -0.01779  -1.38625
    D3       -1.36849  -0.00004  -0.00249  -0.01531  -0.01780  -1.38629
    D4        0.26123  -0.00013  -0.01056  -0.01113  -0.02122   0.24001
         Item               Value     Threshold  Converged?
 Maximum Force            0.003450     0.000450     NO 
 RMS     Force            0.001303     0.000300     NO 
 Maximum Displacement     0.084663     0.001800     NO 
 RMS     Displacement     0.029155     0.001200     NO 
 Predicted change in Energy=-1.155900D-04
 Lowest energy point so far.  Saving SCF results.
 GradGradGradGradGradGradGradGradGradGradGradGradGradGradGradGradGradGrad

 Leave Link  103 at Mon Apr 21 20:44:59 2025, MaxMem=   536870912 cpu:               0.7 elap:               0.3
 (Enter /home/szhao/Apps/g16/l202.exe)
                          Input orientation:                          
 ---------------------------------------------------------------------
 Center     Atomic      Atomic             Coordinates (Angstroms)
 Number     Number       Type             X           Y           Z
 ---------------------------------------------------------------------
      1         15           0       -1.267217    0.000000    0.000000
      2         15           0        1.267217    0.000000    0.000000
      3          1           0        1.318182   -1.415222   -0.000847
      4          1           0       -1.318120    1.403560   -0.181276
      5          1           0        1.395636    0.079129   -1.408935
      6          1           0       -1.395364   -0.258066   -1.387392
 ---------------------------------------------------------------------
                    Distance matrix (angstroms):
                    1          2          3          4          5
     1  P    0.000000
     2  P    2.534433   0.000000
     3  H    2.947396   1.416140   0.000000
     4  H    1.416133   2.947339   3.863700   0.000000
     5  H    3.013659   1.416987   2.054702   3.259714   0.000000
     6  H    1.416996   3.013435   3.259579   2.054674   2.811378
                    6
     6  H    0.000000
 Symmetry turned off by external request.
 Stoichiometry    H4P2
 Framework group  C1[X(H4P2)]
 Deg. of freedom    12
 Full point group                 C1      NOp   1
 Rotational constants (GHZ):          64.7128689           4.5593029           4.5536608
 Leave Link  202 at Mon Apr 21 20:44:59 2025, MaxMem=   536870912 cpu:               0.1 elap:               0.1
 (Enter /home/szhao/Apps/g16/l301.exe)
 Standard basis: 6-311+G(d,p) (5D, 7F)
 Ernie: Thresh=  0.10000D-02 Tol=  0.10000D-05 Strict=F.
    84 basis functions,   132 primitive gaussians,    86 cartesian basis functions
    17 alpha electrons       17 beta electrons
       nuclear repulsion energy        81.2119560694 Hartrees.
 IExCor= 4336 DFT=T Ex+Corr=M062X ExCW=0 ScaHFX=  0.540000
 ScaDFX=  1.000000  1.000000  1.000000  1.000000 ScalE2=  1.000000  1.000000
 IRadAn=      7 IRanWt=     -1 IRanGd=            0 ICorTp=0 IEmpDi=  4
 NAtoms=    6 NActive=    6 NUniq=    6 SFac= 1.00D+00 NAtFMM=   60 NAOKFM=F Big=F
 Integral buffers will be    131072 words long.
 Raffenetti 2 integral format.
 Two-electron integral symmetry is turned off.
 Leave Link  301 at Mon Apr 21 20:45:00 2025, MaxMem=   536870912 cpu:               0.6 elap:               0.1
 (Enter /home/szhao/Apps/g16/l302.exe)
 NPDir=0 NMtPBC=     1 NCelOv=     1 NCel=       1 NClECP=     1 NCelD=      1
         NCelK=      1 NCelE2=     1 NClLst=     1 CellRange=     0.0.
 One-electron integrals computed using PRISM.
 NBasis=    84 RedAO= T EigKep=  1.44D-03  NBF=    84
 NBsUse=    84 1.00D-06 EigRej= -1.00D+00 NBFU=    84
 Precomputing XC quadrature grid using
 IXCGrd= 4 IRadAn=           7 IRanWt=          -1 IRanGd=           0 AccXCQ= 0.00D+00.
 Generated NRdTot=       0 NPtTot=           0 NUsed=           0 NTot=          32
 NSgBfM=    84    84    84    84    84 MxSgAt=     6 MxSgA2=     6.
 Leave Link  302 at Mon Apr 21 20:45:00 2025, MaxMem=   536870912 cpu:               1.8 elap:               0.3
 (Enter /home/szhao/Apps/g16/l303.exe)
 DipDrv:  MaxL=1.
 Leave Link  303 at Mon Apr 21 20:45:01 2025, MaxMem=   536870912 cpu:               0.6 elap:               0.2
 (Enter /home/szhao/Apps/g16/l401.exe)
 Initial guess from the checkpoint file:  "opt.chk"
 B after Tr=     0.000027    0.000021    0.000341
         Rot=    1.000000    0.000227    0.000031    0.000388 Ang=   0.05 deg.
 Guess basis will be translated and rotated to current coordinates.
 JPrj=2 DoOrth=T DoCkMO=T.
 Initial guess <Sx>= 0.0000 <Sy>= 0.0000 <Sz>= 0.0000 <S**2>=-0.0000 S=-0.0000
 Generating alternative initial guess.
 ExpMin= 3.48D-02 ExpMax= 7.75D+04 ExpMxC= 2.65D+03 IAcc=3 IRadAn=         5 AccDes= 0.00D+00
 Harris functional with IExCor= 1009 and IRadAn=       5 diagonalized for initial guess.
 HarFok:  IExCor= 1009 AccDes= 0.00D+00 IRadAn=         5 IDoV= 1 UseB2=F ITyADJ=14
 ICtDFT=  3500011 ScaDFX=  1.000000  1.000000  1.000000  1.000000
 FoFCou: FMM=F IPFlag=           0 FMFlag=      100000 FMFlg1=           0
         NFxFlg=           0 DoJE=T BraDBF=F KetDBF=T FulRan=T
         wScrn=  0.000000 ICntrl=       500 IOpCl=  0 I1Cent=   200000004 NGrid=           0
         NMat0=    1 NMatS0=      1 NMatT0=    0 NMatD0=    1 NMtDS0=    0 NMtDT0=    0
 Symmetry not used in FoFCou.
 Harris En= -684.743457509703    
 Leave Link  401 at Mon Apr 21 20:45:02 2025, MaxMem=   536870912 cpu:               3.3 elap:               0.5
 (Enter /home/szhao/Apps/g16/l502.exe)
 Keep R1 and R2 ints in memory in canonical form, NReq=20057634.
 FoFCou: FMM=F IPFlag=           0 FMFlag=           0 FMFlg1=           0
         NFxFlg=           0 DoJE=F BraDBF=F KetDBF=F FulRan=T
         wScrn=  0.000000 ICntrl=       600 IOpCl=  0 I1Cent=           0 NGrid=           0
         NMat0=    1 NMatS0=   3570 NMatT0=    0 NMatD0=    1 NMtDS0=    0 NMtDT0=    0
 Symmetry not used in FoFCou.
 Two-electron integral symmetry not used.
 UHF open shell SCF:
 Using DIIS extrapolation, IDIIS=  1040.
 NGot=   536870912 LenX=   524106186 LenY=   524098349
 Requested convergence on RMS density matrix=1.00D-08 within 128 cycles.
 Requested convergence on MAX density matrix=1.00D-06.
 Requested convergence on             energy=1.00D-06.
 No special actions if energy rises.

 Cycle   1  Pass 1  IDiag  1:
 E= -685.044159940465    
 DIIS: error= 1.15D-03 at cycle   1 NSaved=   1.
 NSaved= 1 IEnMin= 1 EnMin= -685.044159940465     IErMin= 1 ErrMin= 1.15D-03
 ErrMax= 1.15D-03  0.00D+00 EMaxC= 1.00D-01 BMatC= 3.84D-04 BMatP= 3.84D-04
 IDIUse=3 WtCom= 9.88D-01 WtEn= 1.15D-02
 Coeff-Com:  0.100D+01
 Coeff-En:   0.100D+01
 Coeff:      0.100D+01
 Gap=     0.448 Goal=   None    Shift=    0.000
 Gap=     0.448 Goal=   None    Shift=    0.000
 GapD=    0.448 DampG=2.000 DampE=1.000 DampFc=2.0000 IDamp=-1.
 RMSDP=2.44D-04 MaxDP=2.53D-03              OVMax= 8.47D-03

 Cycle   2  Pass 1  IDiag  1:
 E= -685.044378344059     Delta-E=       -0.000218403595 Rises=F Damp=F
 DIIS: error= 2.21D-04 at cycle   2 NSaved=   2.
 NSaved= 2 IEnMin= 2 EnMin= -685.044378344059     IErMin= 2 ErrMin= 2.21D-04
 ErrMax= 2.21D-04  0.00D+00 EMaxC= 1.00D-01 BMatC= 2.03D-05 BMatP= 3.84D-04
 IDIUse=3 WtCom= 9.98D-01 WtEn= 2.21D-03
 Coeff-Com: -0.126D+00 0.113D+01
 Coeff-En:   0.000D+00 0.100D+01
 Coeff:     -0.126D+00 0.113D+01
 Gap=     0.276 Goal=   None    Shift=    0.000
 Gap=     0.276 Goal=   None    Shift=    0.000
 RMSDP=6.77D-05 MaxDP=8.32D-04 DE=-2.18D-04 OVMax= 2.47D-03

 Cycle   3  Pass 1  IDiag  1:
 E= -685.044394025680     Delta-E=       -0.000015681621 Rises=F Damp=F
 DIIS: error= 9.19D-05 at cycle   3 NSaved=   3.
 NSaved= 3 IEnMin= 3 EnMin= -685.044394025680     IErMin= 3 ErrMin= 9.19D-05
 ErrMax= 9.19D-05  0.00D+00 EMaxC= 1.00D-01 BMatC= 2.83D-06 BMatP= 2.03D-05
 IDIUse=1 WtCom= 1.00D+00 WtEn= 0.00D+00
 Coeff-Com: -0.555D-01 0.272D+00 0.783D+00
 Coeff:     -0.555D-01 0.272D+00 0.783D+00
 Gap=     0.275 Goal=   None    Shift=    0.000
 Gap=     0.275 Goal=   None    Shift=    0.000
 RMSDP=2.49D-05 MaxDP=3.23D-04 DE=-1.57D-05 OVMax= 8.25D-04

 Cycle   4  Pass 1  IDiag  1:
 E= -685.044395573093     Delta-E=       -0.000001547412 Rises=F Damp=F
 DIIS: error= 3.32D-05 at cycle   4 NSaved=   4.
 NSaved= 4 IEnMin= 4 EnMin= -685.044395573093     IErMin= 4 ErrMin= 3.32D-05
 ErrMax= 3.32D-05  0.00D+00 EMaxC= 1.00D-01 BMatC= 3.89D-07 BMatP= 2.83D-06
 IDIUse=1 WtCom= 1.00D+00 WtEn= 0.00D+00
 Coeff-Com:  0.750D-02-0.115D+00 0.145D+00 0.963D+00
 Coeff:      0.750D-02-0.115D+00 0.145D+00 0.963D+00
 Gap=     0.276 Goal=   None    Shift=    0.000
 Gap=     0.276 Goal=   None    Shift=    0.000
 RMSDP=8.98D-06 MaxDP=9.71D-05 DE=-1.55D-06 OVMax= 2.87D-04

 Cycle   5  Pass 1  IDiag  1:
 E= -685.044395780300     Delta-E=       -0.000000207207 Rises=F Damp=F
 DIIS: error= 4.67D-06 at cycle   5 NSaved=   5.
 NSaved= 5 IEnMin= 5 EnMin= -685.044395780300     IErMin= 5 ErrMin= 4.67D-06
 ErrMax= 4.67D-06  0.00D+00 EMaxC= 1.00D-01 BMatC= 7.85D-09 BMatP= 3.89D-07
 IDIUse=1 WtCom= 1.00D+00 WtEn= 0.00D+00
 Coeff-Com:  0.337D-02-0.310D-01 0.291D-02 0.109D+00 0.916D+00
 Coeff:      0.337D-02-0.310D-01 0.291D-02 0.109D+00 0.916D+00
 Gap=     0.276 Goal=   None    Shift=    0.000
 Gap=     0.276 Goal=   None    Shift=    0.000
 RMSDP=1.53D-06 MaxDP=1.45D-05 DE=-2.07D-07 OVMax= 6.03D-05

 Cycle   6  Pass 1  IDiag  1:
 E= -685.044395785470     Delta-E=       -0.000000005170 Rises=F Damp=F
 DIIS: error= 8.73D-07 at cycle   6 NSaved=   6.
 NSaved= 6 IEnMin= 6 EnMin= -685.044395785470     IErMin= 6 ErrMin= 8.73D-07
 ErrMax= 8.73D-07  0.00D+00 EMaxC= 1.00D-01 BMatC= 3.79D-10 BMatP= 7.85D-09
 IDIUse=1 WtCom= 1.00D+00 WtEn= 0.00D+00
 Coeff-Com: -0.521D-03 0.841D-02-0.855D-02-0.702D-01 0.509D-01 0.102D+01
 Coeff:     -0.521D-03 0.841D-02-0.855D-02-0.702D-01 0.509D-01 0.102D+01
 Gap=     0.276 Goal=   None    Shift=    0.000
 Gap=     0.276 Goal=   None    Shift=    0.000
 RMSDP=4.20D-07 MaxDP=4.28D-06 DE=-5.17D-09 OVMax= 1.66D-05

 Cycle   7  Pass 1  IDiag  1:
 E= -685.044395785744     Delta-E=       -0.000000000274 Rises=F Damp=F
 DIIS: error= 1.27D-07 at cycle   7 NSaved=   7.
 NSaved= 7 IEnMin= 7 EnMin= -685.044395785744     IErMin= 7 ErrMin= 1.27D-07
 ErrMax= 1.27D-07  0.00D+00 EMaxC= 1.00D-01 BMatC= 2.29D-11 BMatP= 3.79D-10
 IDIUse=1 WtCom= 1.00D+00 WtEn= 0.00D+00
 Coeff-Com: -0.205D-03 0.277D-02-0.241D-02-0.197D-01-0.877D-02 0.222D+00
 Coeff-Com:  0.806D+00
 Coeff:     -0.205D-03 0.277D-02-0.241D-02-0.197D-01-0.877D-02 0.222D+00
 Coeff:      0.806D+00
 Gap=     0.276 Goal=   None    Shift=    0.000
 Gap=     0.276 Goal=   None    Shift=    0.000
 RMSDP=6.44D-08 MaxDP=1.33D-06 DE=-2.74D-10 OVMax= 2.38D-06

 Cycle   8  Pass 1  IDiag  1:
 E= -685.044395785754     Delta-E=       -0.000000000010 Rises=F Damp=F
 DIIS: error= 7.71D-08 at cycle   8 NSaved=   8.
 NSaved= 8 IEnMin= 8 EnMin= -685.044395785754     IErMin= 8 ErrMin= 7.71D-08
 ErrMax= 7.71D-08  0.00D+00 EMaxC= 1.00D-01 BMatC= 5.53D-12 BMatP= 2.29D-11
 IDIUse=1 WtCom= 1.00D+00 WtEn= 0.00D+00
 Coeff-Com: -0.748D-05-0.814D-04 0.162D-03 0.183D-02-0.868D-02-0.606D-01
 Coeff-Com:  0.307D+00 0.760D+00
 Coeff:     -0.748D-05-0.814D-04 0.162D-03 0.183D-02-0.868D-02-0.606D-01
 Coeff:      0.307D+00 0.760D+00
 Gap=     0.276 Goal=   None    Shift=    0.000
 Gap=     0.276 Goal=   None    Shift=    0.000
 RMSDP=2.75D-08 MaxDP=5.16D-07 DE=-1.00D-11 OVMax= 9.27D-07

 Cycle   9  Pass 1  IDiag  1:
 E= -685.044395785756     Delta-E=       -0.000000000003 Rises=F Damp=F
 DIIS: error= 1.91D-08 at cycle   9 NSaved=   9.
 NSaved= 9 IEnMin= 9 EnMin= -685.044395785756     IErMin= 9 ErrMin= 1.91D-08
 ErrMax= 1.91D-08  0.00D+00 EMaxC= 1.00D-01 BMatC= 3.00D-13 BMatP= 5.53D-12
 IDIUse=1 WtCom= 1.00D+00 WtEn= 0.00D+00
 Coeff-Com:  0.128D-04-0.219D-03 0.227D-03 0.186D-02-0.634D-03-0.331D-01
 Coeff-Com:  0.197D-01 0.216D+00 0.797D+00
 Coeff:      0.128D-04-0.219D-03 0.227D-03 0.186D-02-0.634D-03-0.331D-01
 Coeff:      0.197D-01 0.216D+00 0.797D+00
 Gap=     0.276 Goal=   None    Shift=    0.000
 Gap=     0.276 Goal=   None    Shift=    0.000
 RMSDP=6.93D-09 MaxDP=1.26D-07 DE=-2.50D-12 OVMax= 2.32D-07

 SCF Done:  E(UM062X) =  -685.044395786     A.U. after    9 cycles
            NFock=  9  Conv=0.69D-08     -V/T= 2.0016
 <Sx>= 0.0000 <Sy>= 0.0000 <Sz>= 0.0000 <S**2>=-0.0000 S=-0.0000
 <L.S>=  0.00000000000    
 KE= 6.839624258728D+02 PE=-1.792118382054D+03 EE= 3.418996043258D+02
 Annihilation of the first spin contaminant:
 S**2 before annihilation    -0.0000,   after     0.0000
 Leave Link  502 at Mon Apr 21 20:45:10 2025, MaxMem=   536870912 cpu:              61.5 elap:               8.2
 (Enter /home/szhao/Apps/g16/l701.exe)
 ... and contract with generalized density number  0.
 Compute integral first derivatives.
 Leave Link  701 at Mon Apr 21 20:45:11 2025, MaxMem=   536870912 cpu:               1.2 elap:               0.3
 (Enter /home/szhao/Apps/g16/l702.exe)
 L702 exits ... SP integral derivatives will be done elsewhere.
 Leave Link  702 at Mon Apr 21 20:45:12 2025, MaxMem=   536870912 cpu:               0.8 elap:               0.2
 (Enter /home/szhao/Apps/g16/l703.exe)
 Integral derivatives from FoFJK, PRISM(SPDF).
 Compute integral first derivatives, UseDBF=F ICtDFT=           0.
 Calling FoFJK, ICntrl=      2127 FMM=F ISym2X=0 I1Cent= 0 IOpClX= 1 NMat=1 NMatS=1 NMatT=0.
 FoFJK:  IHMeth= 1 ICntrl=    2127 DoSepK=F KAlg= 0 I1Cent=           0 FoldK=F
 IRaf=         0 NMat=       1 IRICut=       1 DoRegI=T DoRafI=F ISym2E= 0 IDoP0=0 IntGTp=1.
 FoFCou: FMM=F IPFlag=           0 FMFlag=      100000 FMFlg1=         800
         NFxFlg=           0 DoJE=F BraDBF=F KetDBF=F FulRan=T
         wScrn=  0.000000 ICntrl=      2127 IOpCl=  1 I1Cent=           0 NGrid=           0
         NMat0=    1 NMatS0=      1 NMatT0=    0 NMatD0=    1 NMtDS0=    0 NMtDT0=    0
 Symmetry not used in FoFCou.
 Leave Link  703 at Mon Apr 21 20:45:14 2025, MaxMem=   536870912 cpu:              10.5 elap:               1.4
 (Enter /home/szhao/Apps/g16/l716.exe)
 Dipole        =-3.11546890D-05-3.14086634D-02-4.91046852D-01
 -------------------------------------------------------------------
 Center     Atomic                   Forces (Hartrees/Bohr)
 Number     Number              X              Y              Z
 -------------------------------------------------------------------
      1       15          -0.000000000   -0.000000000   -0.000000000
      2       15          -0.000000000   -0.000000000   -0.000000000
      3        1           0.000111879    0.000056796    0.000035081
      4        1          -0.000112166   -0.000052446    0.000034142
      5        1          -0.000111199   -0.000013223    0.000158049
      6        1           0.000095664    0.000036580    0.000157770
 -------------------------------------------------------------------
 Cartesian Forces:  Max     0.000158049 RMS     0.000076874
 Leave Link  716 at Mon Apr 21 20:45:14 2025, MaxMem=   536870912 cpu:               0.4 elap:               0.1
 (Enter /home/szhao/Apps/g16/l103.exe)

 GradGradGradGradGradGradGradGradGradGradGradGradGradGradGradGradGradGrad
 Berny optimization.
 Using GEDIIS/GDIIS optimizer.
 FormGI is forming the generalized inverse of G from B-inverse, IUseBI=4.
 Internal  Forces:  Max     0.000305755 RMS     0.000157752
 Search for a local minimum.
 Step number   3 out of a maximum of   30
 All quantities printed in internal units (Hartrees-Bohrs-Radians)
 RMS Force = .16178D-03 SwitMx=.10000D-02 MixMth= 2
 Mixed Optimization -- En-DIIS/RFO-DIIS
 Update second derivatives using D2CorX and points    1    2    3
 DE= -1.19D-04 DEPred=-1.16D-04 R= 1.03D+00
 TightC=F SS=  1.41D+00  RLast= 5.78D-02 DXNew= 5.1231D-01 1.7353D-01
 Trust test= 1.03D+00 RLast= 5.78D-02 DXMaxT set to 3.05D-01
 The second derivative matrix:
                          X1        Y1        Z1        X2        Y2
           X1           0.51560
           Y1           0.00739   0.50489
           Z1          -0.00652  -0.00345   0.50282
           X2          -0.01540  -0.00735   0.00645   0.51520
           Y2          -0.00818  -0.00530   0.00379   0.00814   0.50574
           Z2          -0.00530  -0.00277   0.00228   0.00524   0.00304
           R1           0.00138  -0.00004  -0.00040  -0.00134  -0.00001
           R2           0.00292   0.00133  -0.00120  -0.00288  -0.00147
           R3           0.00140  -0.00003  -0.00041  -0.00136  -0.00003
           R4           0.00295   0.00139  -0.00123  -0.00291  -0.00154
           A1          -0.02630  -0.01932   0.01275   0.02624   0.02080
           A2          -0.01680  -0.00110   0.00525   0.01630   0.00181
           A3          -0.00479  -0.00417   0.00249   0.00481   0.00445
           A4          -0.02633  -0.01937   0.01278   0.02627   0.02085
           A5          -0.01667  -0.00130   0.00526   0.01618   0.00202
           A6          -0.00483  -0.00417   0.00250   0.00485   0.00445
           D1           0.00423   0.00302  -0.00203  -0.00422  -0.00326
           D2           0.00009   0.00015  -0.00006  -0.00009  -0.00016
           D3           0.00012   0.00016  -0.00008  -0.00013  -0.00017
           D4          -0.00402  -0.00271   0.00189   0.00400   0.00293
                          Z2        R1        R2        R3        R4
           Z2           0.50185
           R1          -0.00034   0.21285
           R2          -0.00098   0.00019   0.21243
           R3          -0.00035   0.00004   0.00019   0.21285
           R4          -0.00100   0.00019   0.00033   0.00019   0.21242
           A1           0.01020   0.00011  -0.00129   0.00010  -0.00132
           A2           0.00443   0.00085  -0.00143   0.00085  -0.00142
           A3           0.00198   0.00014   0.00042   0.00015   0.00044
           A4           0.01022   0.00011  -0.00129   0.00010  -0.00132
           A5           0.00443   0.00091  -0.00136   0.00090  -0.00136
           A6           0.00199   0.00013   0.00041   0.00014   0.00043
           D1          -0.00163  -0.00007   0.00071  -0.00006   0.00075
           D2          -0.00005   0.00001   0.00000   0.00001   0.00000
           D3          -0.00006   0.00002   0.00001   0.00002   0.00001
           D4           0.00152   0.00010  -0.00070   0.00009  -0.00074
                          A1        A2        A3        A4        A5
           A1           0.16892
           A2          -0.00577   0.13224
           A3          -0.00822  -0.00411   0.15455
           A4           0.00895  -0.00574  -0.00824   0.16899
           A5          -0.00580  -0.02825  -0.00421  -0.00577   0.13128
           A6          -0.00818  -0.00398  -0.00544  -0.00820  -0.00408
[...]
           A5          -0.00324   0.00153  -0.00019   0.00157  -0.00028
           A6          -0.00065  -0.00042  -0.00046  -0.00038  -0.00041
           D1          -0.00556  -0.00105  -0.00091  -0.00115  -0.00072
           D2           0.00019  -0.00017  -0.00036  -0.00023  -0.00033
           D3          -0.00016   0.00002   0.00014  -0.00005   0.00017
           D4           0.00559   0.00090   0.00068   0.00086   0.00056
                          A1        A2        A3        A4        A5
           A1           0.17711
           A2          -0.00519   0.13178
           A3          -0.01330  -0.00465   0.15034
           A4           0.01691  -0.00513  -0.01335   0.17671
           A5          -0.00713  -0.02894  -0.00527  -0.00705   0.13067
           A6          -0.01375  -0.00442  -0.00948  -0.01380  -0.00497
           D1          -0.01568  -0.00144  -0.00392  -0.01572  -0.00190
           D2           0.00064  -0.00013  -0.00004   0.00067  -0.00016
           D3          -0.00017  -0.00018   0.00001  -0.00014  -0.00007
           D4           0.01615   0.00113   0.00390   0.01625   0.00167
                          A6        D1        D2        D3        D4
           A6           0.15065
           D1          -0.00362   0.00559
           D2           0.00006  -0.00050   0.00190
           D3           0.00008  -0.00033  -0.00037   0.00198
           D4           0.00375  -0.00411  -0.00027  -0.00036   0.00578
 ITU=  0  0  1  1  1  0
     Eigenvalues ---    0.00084   0.08036   0.08059   0.10365   0.16000
     Eigenvalues ---    0.16009   0.19165   0.21209   0.21275   0.21281
     Eigenvalues ---    0.231681000.000001000.000001000.000001000.00000
     Eigenvalues --- 1000.000001000.000001000.000001000.000001000.00000
 En-DIIS/RFO-DIIS/Sim-DIIS IScMMF=       -3 using points:     6    5    4    3
 RFO step:  Lambda=-1.32039526D-09.
 NNeg= 0 NGDIIS= 4 SimSw=  2.50D-01 Rises=F DC= -1.55D-07 SmlDif=  1.00D-05
 NRisDI= 0 DoIntr=F SqrtH=F CThrHd= 10.0 CDAdj=  3.0
 RMS Error=  0.1390369467D-03 NUsed= 4 OKEnD=F EnDIS=F
 InvSVX:  RCond= 6.36D-09 Info=           0 Equed=N FErr=  1.91D-12 BErr=  6.67D-17
 DIIS inversion failure, remove point   4.
 InvSVX:  RCond= 5.74D-08 Info=           0 Equed=N FErr=  3.07D-13 BErr=  8.45D-17
 DIIS inversion failure, remove point   3.
 InvSVX:  RCond= 7.41D-05 Info=           0 Equed=N FErr=  9.56D-16 BErr=  2.28D-17
 RFO-DIIS uses    2 points instead of    4
 DidBck=F Rises=F RFO-DIIS coefs:    1.03579   -0.03579    0.00000    0.00000
 Iteration  1 RMS(Cart)=  0.00019078 RMS(Int)=  0.00000002
 Iteration  2 RMS(Cart)=  0.00000002 RMS(Int)=  0.00000000
 ITry= 1 IFail=0 DXMaxC= 4.29D-04 DCOld= 1.00D+10 DXMaxT= 3.05D-01 DXLimC= 3.00D+00 Rises=F
 Variable       Old X    -DE/DX   Delta X   Delta X   Delta X     New X
                                 (Linear)    (Quad)   (Total)
    X1       -2.39469   0.00000   0.00000   0.00000   0.00000  -2.39469
    Y1        0.00000   0.00001   0.00000   0.00000   0.00000   0.00000
    Z1        0.00000  -0.00001   0.00000   0.00000   0.00000   0.00000
    X2        2.39469  -0.00000   0.00000   0.00000   0.00000   2.39469
    Y2        0.00000  -0.00001   0.00000   0.00000   0.00000   0.00000
    Z2        0.00000  -0.00001   0.00000   0.00000   0.00000   0.00000
    R1        2.67582   0.00000  -0.00000   0.00001   0.00001   2.67583
    R2        2.67680   0.00001   0.00000   0.00002   0.00002   2.67683
    R3        2.67580   0.00000  -0.00000   0.00001   0.00001   2.67581
    R4        2.67680   0.00001   0.00000   0.00002   0.00003   2.67683
    A1        1.60871  -0.00001  -0.00000  -0.00004  -0.00004   1.60867
    A2        1.65925   0.00000   0.00001   0.00003   0.00004   1.65929
    A3        1.62293   0.00000   0.00000   0.00000   0.00001   1.62293
    A4        1.60880  -0.00001  -0.00000  -0.00004  -0.00004   1.60875
    A5        1.65913   0.00001   0.00001   0.00004   0.00005   1.65918
    A6        1.62313  -0.00000   0.00000  -0.00001  -0.00000   1.62312
    D1       -3.04301   0.00000  -0.00031   0.00000  -0.00031  -3.04331
    D2       -1.41627  -0.00000  -0.00031  -0.00000  -0.00031  -1.41658
    D3       -1.41647   0.00000  -0.00031   0.00001  -0.00030  -1.41677
    D4        0.21027  -0.00000  -0.00031  -0.00000  -0.00031   0.20996
         Item               Value     Threshold  Converged?
 Maximum Force            0.000010     0.000450     YES
 RMS     Force            0.000005     0.000300     YES
 Maximum Displacement     0.000429     0.001800     YES
 RMS     Displacement     0.000191     0.001200     YES
 Predicted change in Energy=-9.931931D-10
 Optimization completed.
    -- Stationary point found.
                           ----------------------------
                           !   Optimized Parameters   !
                           ! (Angstroms and Degrees)  !
 --------------------------                            --------------------------
 ! Name  Definition              Value          Derivative Info.                !
 --------------------------------------------------------------------------------
 ! X1    R(1,-1)                -1.2672         -DE/DX =    0.0                 !
 ! Y1    R(1,-2)                 0.0            -DE/DX =    0.0                 !
 ! Z1    R(1,-3)                 0.0            -DE/DX =    0.0                 !
 ! X2    R(2,-1)                 1.2672         -DE/DX =    0.0                 !
 ! Y2    R(2,-2)                 0.0            -DE/DX =    0.0                 !
 ! Z2    R(2,-3)                 0.0            -DE/DX =    0.0                 !
 ! R1    R(1,4)                  1.416          -DE/DX =    0.0                 !
 ! R2    R(1,6)                  1.4165         -DE/DX =    0.0                 !
 ! R3    R(2,3)                  1.416          -DE/DX =    0.0                 !
 ! R4    R(2,5)                  1.4165         -DE/DX =    0.0                 !
 ! A1    A(2,1,4)               92.1723         -DE/DX =    0.0                 !
 ! A2    A(2,1,6)               95.0682         -DE/DX =    0.0                 !
 ! A3    A(4,1,6)               92.9868         -DE/DX =    0.0                 !
 ! A4    A(1,2,3)               92.1772         -DE/DX =    0.0                 !
 ! A5    A(1,2,5)               95.0612         -DE/DX =    0.0                 !
 ! A6    A(3,2,5)               92.9983         -DE/DX =    0.0                 !
 ! D1    D(4,1,2,3)           -174.3516         -DE/DX =    0.0                 !
 ! D2    D(4,1,2,5)            -81.1461         -DE/DX =    0.0                 !
 ! D3    D(6,1,2,3)            -81.1579         -DE/DX =    0.0                 !
 ! D4    D(6,1,2,5)             12.0476         -DE/DX =    0.0                 !
 --------------------------------------------------------------------------------
 Lowest energy point so far.  Saving SCF results.
 Largest change from initial coordinates is atom    5       0.129 Angstoms.
 GradGradGradGradGradGradGradGradGradGradGradGradGradGradGradGradGradGrad

 Leave Link  103 at Mon Apr 21 20:45:53 2025, MaxMem=   536870912 cpu:               0.9 elap:               0.2
 (Enter /home/szhao/Apps/g16/l202.exe)
                          Input orientation:                          
 ---------------------------------------------------------------------
 Center     Atomic      Atomic             Coordinates (Angstroms)
 Number     Number       Type             X           Y           Z
 ---------------------------------------------------------------------
      1         15           0       -1.267217    0.000000    0.000000
      2         15           0        1.267217    0.000000    0.000000
      3          1           0        1.321011   -1.414788    0.021342
      4          1           0       -1.320888    1.405833   -0.160489
      5          1           0        1.392181    0.057640   -1.409803
      6          1           0       -1.392354   -0.237887   -1.390767
 ---------------------------------------------------------------------
                    Distance matrix (angstroms):
                    1          2          3          4          5
     1  P    0.000000
     2  P    2.534433   0.000000
     3  H    2.949746   1.415971   0.000000
     4  H    1.415981   2.949646   3.868927   0.000000
     5  H    3.010525   1.416504   2.054576   3.277065   0.000000
     6  H    1.416504   3.010671   3.277422   2.054388   2.800238
                    6
     6  H    0.000000
 Symmetry turned off by external request.
 Stoichiometry    H4P2
 Framework group  C1[X(H4P2)]
 Deg. of freedom    12
 Full point group                 C1      NOp   1
 Rotational constants (GHZ):          64.7428002           4.5588924           4.5541177
 Leave Link  202 at Mon Apr 21 20:45:54 2025, MaxMem=   536870912 cpu:               0.1 elap:               0.1
 (Enter /home/szhao/Apps/g16/l601.exe)
 Copying SCF densities to generalized density rwf, IOpCl= 1 IROHF=0.

 **********************************************************************

            Population analysis using the SCF density.

 **********************************************************************

 Alpha  occ. eigenvalues --  -78.03478 -78.03478  -6.85945  -6.85943  -4.97490
 Alpha  occ. eigenvalues --   -4.97484  -4.97441  -4.97441  -4.97235  -4.97234
 Alpha  occ. eigenvalues --   -0.74328  -0.67920  -0.45397  -0.45218  -0.38562
 Alpha  occ. eigenvalues --   -0.34183  -0.30577
 Alpha virt. eigenvalues --   -0.03055   0.00990   0.03562   0.03810   0.04076
 Alpha virt. eigenvalues --    0.04150   0.05045   0.06323   0.06455   0.07921
 Alpha virt. eigenvalues --    0.09976   0.15698   0.19201   0.28594   0.29214
 Alpha virt. eigenvalues --    0.29673   0.31076   0.31790   0.32403   0.37149
 Alpha virt. eigenvalues --    0.39356   0.44422   0.54671   0.63216   0.63401
 Alpha virt. eigenvalues --    0.63926   0.64821   0.66042   0.74145   0.74293
 Alpha virt. eigenvalues --    0.76518   0.83172   0.96205   0.96281   0.97525
 Alpha virt. eigenvalues --    1.38366   1.38385   1.42934   1.43182   1.45809
 Alpha virt. eigenvalues --    1.50104   1.50868   1.55949   1.57565   1.59784
 Alpha virt. eigenvalues --    1.61051   1.71704   1.72942   1.90125   2.02251
 Alpha virt. eigenvalues --    2.04659   2.12610   2.13324   2.56185   2.58552
 Alpha virt. eigenvalues --    2.69324   2.74995   7.05856   7.09560  14.01947
 Alpha virt. eigenvalues --   14.03347  14.03455  14.07755  14.07775  14.11727
 Alpha virt. eigenvalues --  163.34525 163.39787
  Beta  occ. eigenvalues --  -78.03478 -78.03478  -6.85945  -6.85943  -4.97490
  Beta  occ. eigenvalues --   -4.97484  -4.97441  -4.97441  -4.97235  -4.97234
  Beta  occ. eigenvalues --   -0.74328  -0.67920  -0.45397  -0.45218  -0.38562
  Beta  occ. eigenvalues --   -0.34183  -0.30577
  Beta virt. eigenvalues --   -0.03055   0.00990   0.03562   0.03810   0.04076
  Beta virt. eigenvalues --    0.04150   0.05045   0.06323   0.06455   0.07921
  Beta virt. eigenvalues --    0.09976   0.15698   0.19201   0.28594   0.29214
  Beta virt. eigenvalues --    0.29673   0.31076   0.31790   0.32403   0.37149
  Beta virt. eigenvalues --    0.39356   0.44422   0.54671   0.63216   0.63401
  Beta virt. eigenvalues --    0.63926   0.64821   0.66042   0.74145   0.74293
  Beta virt. eigenvalues --    0.76518   0.83172   0.96205   0.96281   0.97525
  Beta virt. eigenvalues --    1.38366   1.38385   1.42934   1.43182   1.45809
  Beta virt. eigenvalues --    1.50104   1.50868   1.55949   1.57565   1.59784
  Beta virt. eigenvalues --    1.61051   1.71704   1.72942   1.90125   2.02251
  Beta virt. eigenvalues --    2.04659   2.12610   2.13324   2.56185   2.58552
  Beta virt. eigenvalues --    2.69324   2.74995   7.05856   7.09560  14.01947
  Beta virt. eigenvalues --   14.03347  14.03455  14.07755  14.07775  14.11727
  Beta virt. eigenvalues --  163.34525 163.39787
          Condensed to atoms (all electrons):
               1          2          3          4          5          6
     1  P   14.300066   0.252056  -0.039207   0.289789  -0.035065   0.282523
     2  P    0.252056  14.300000   0.289803  -0.039214   0.282536  -0.035061
     3  H   -0.039207   0.289803   0.749603   0.002463  -0.030173   0.000954
     4  H    0.289789  -0.039214   0.002463   0.749644   0.000956  -0.030185
     5  H   -0.035065   0.282536  -0.030173   0.000956   0.760203  -0.002045
     6  H    0.282523  -0.035061   0.000954  -0.030185  -0.002045   0.760222
          Atomic-Atomic Spin Densities.
               1          2          3          4          5          6
     1  P    0.000000  -0.000000   0.000000   0.000000   0.000000  -0.000000
     2  P   -0.000000   0.000000  -0.000000  -0.000000  -0.000000   0.000000
     3  H    0.000000  -0.000000   0.000000   0.000000   0.000000  -0.000000
     4  H    0.000000  -0.000000   0.000000  -0.000000   0.000000  -0.000000
     5  H    0.000000  -0.000000   0.000000   0.000000   0.000000  -0.000000
     6  H   -0.000000   0.000000  -0.000000  -0.000000  -0.000000   0.000000
 Mulliken charges and spin densities:
               1          2
     1  P   -0.050162   0.000000
     2  P   -0.050120   0.000000
     3  H    0.026556  -0.000000
     4  H    0.026547  -0.000000
     5  H    0.023588  -0.000000
     6  H    0.023591   0.000000
 Sum of Mulliken charges =  -0.00000   0.00000
 Mulliken charges and spin densities with hydrogens summed into heavy atoms:
               1          2
     1  P   -0.000023   0.000000
     2  P    0.000023   0.000000
 Electronic spatial extent (au):  <R**2>=            293.4910
 Charge=             -0.0000 electrons
 Dipole moment (field-independent basis, Debye):
    X=              0.0002    Y=             -0.0796    Z=             -1.2341  Tot=              1.2366
 Quadrupole moment (field-independent basis, Debye-Ang):
   XX=            -30.9304   YY=            -29.0440   ZZ=            -29.6447
   XY=             -2.2311   XZ=              0.1439   YZ=             -0.0392
 Traceless Quadrupole moment (field-independent basis, Debye-Ang):
   XX=             -1.0574   YY=              0.8290   ZZ=              0.2283
   XY=             -2.2311   XZ=              0.1439   YZ=             -0.0392
 Octapole moment (field-independent basis, Debye-Ang**2):
  XXX=              0.0012  YYY=              0.3836  ZZZ=              6.0521  XYY=             -0.2600
  XXY=             -0.2101  XXZ=             -3.2506  XZZ=              0.2605  YZZ=              0.1338
  YYZ=              1.9885  XYZ=             -2.0118
 Hexadecapole moment (field-independent basis, Debye-Ang**3):
 XXXX=           -342.2608 YYYY=            -63.1057 ZZZZ=            -64.9157 XXXY=             -1.6686
 XXXZ=              0.1077 YYYX=              5.3010 YYYZ=             -0.2553 ZZZX=             -0.3250
 ZZZY=              0.1389 XXYY=            -67.4722 XXZZ=            -68.9575 YYZZ=            -22.3354
 XXYZ=             -0.0964 YYXZ=             -0.1254 ZZXY=              1.6790
 N-N= 8.121686219213D+01 E-N=-1.792129923842D+03  KE= 6.839637112440D+02
                          Isotropic Fermi Contact Couplings
        Atom                 a.u.       MegaHertz       Gauss      10(-4) cm-1
     1  P(31)              0.00000       0.00000       0.00000       0.00000
     2  P(31)              0.00000       0.00000       0.00000       0.00000
     3  H(1)               0.00000       0.00000       0.00000       0.00000
     4  H(1)              -0.00000      -0.00000      -0.00000      -0.00000
     5  H(1)              -0.00000      -0.00000      -0.00000      -0.00000
     6  H(1)               0.00000       0.00000       0.00000       0.00000
 --------------------------------------------------------
       Center         ----  Spin Dipole Couplings  ----
                      3XX-RR        3YY-RR        3ZZ-RR
 --------------------------------------------------------
     1   Atom        0.000000      0.000000      0.000000
     2   Atom        0.000000      0.000000      0.000000
     3   Atom        0.000000      0.000000      0.000000
     4   Atom        0.000000      0.000000      0.000000
     5   Atom        0.000000      0.000000      0.000000
     6   Atom        0.000000      0.000000      0.000000
 --------------------------------------------------------
                        XY            XZ            YZ
 --------------------------------------------------------
     1   Atom        0.000000      0.000000      0.000000
     2   Atom        0.000000      0.000000      0.000000
     3   Atom        0.000000      0.000000      0.000000
     4   Atom        0.000000      0.000000      0.000000
     5   Atom        0.000000      0.000000      0.000000
     6   Atom        0.000000      0.000000      0.000000
 --------------------------------------------------------


 ---------------------------------------------------------------------------------
              Anisotropic Spin Dipole Couplings in Principal Axis System
 ---------------------------------------------------------------------------------

       Atom             a.u.   MegaHertz   Gauss  10(-4) cm-1        Axes

              Baa     0.0000     0.000     0.000     0.000  1.0000  0.0000  0.0000
     1 P(31)  Bbb     0.0000     0.000     0.000     0.000 -0.0000  1.0000  0.0000
              Bcc     0.0000     0.000     0.000     0.000  0.0000  0.0000  1.0000
 
              Baa     0.0000     0.000     0.000     0.000  1.0000  0.0000  0.0000
     2 P(31)  Bbb     0.0000     0.000     0.000     0.000 -0.0000  1.0000  0.0000
              Bcc     0.0000     0.000     0.000     0.000  0.0000  0.0000  1.0000
 
              Baa     0.0000     0.000     0.000     0.000  1.0000  0.0000  0.0000
     3 H(1)   Bbb     0.0000     0.000     0.000     0.000 -0.0000  1.0000  0.0000
              Bcc     0.0000     0.000     0.000     0.000  0.0000  0.0000  1.0000
 
              Baa     0.0000     0.000     0.000     0.000  1.0000  0.0000  0.0000
     4 H(1)   Bbb     0.0000     0.000     0.000     0.000 -0.0000  1.0000  0.0000
              Bcc     0.0000     0.000     0.000     0.000  0.0000  0.0000  1.0000
 
              Baa     0.0000     0.000     0.000     0.000  1.0000  0.0000  0.0000
     5 H(1)   Bbb     0.0000     0.000     0.000     0.000 -0.0000  1.0000  0.0000
              Bcc     0.0000     0.000     0.000     0.000  0.0000  0.0000  1.0000
 
              Baa     0.0000     0.000     0.000     0.000  1.0000  0.0000  0.0000
     6 H(1)   Bbb     0.0000     0.000     0.000     0.000 -0.0000  1.0000  0.0000
              Bcc     0.0000     0.000     0.000     0.000  0.0000  0.0000  1.0000
 

 ---------------------------------------------------------------------------------

 No NMR shielding tensors so no spin-rotation constants.
 Leave Link  601 at Mon Apr 21 20:45:54 2025, MaxMem=   536870912 cpu:               1.2 elap:               0.2
 (Enter /home/szhao/Apps/g16/l9999.exe)
 1\1\GINC-NODE05\FOpt\UM062X\6-311+G(d,p)\H4P2\SZHAO\21-Apr-2025\0\\#p 
 opt UM062X/6-311+G** nosymm int=superfine\\Title Card Required\\0,1\P,
 -1.26721652,0.,0.\P,1.26721652,0.,0.\H,1.3210106301,-1.4147877877,0.02
 13416874\H,-1.3208884404,1.4058327161,-0.1604887706\H,1.3921809985,0.0
 576397472,-1.4098028454\H,-1.3923536556,-0.2378872889,-1.3907674054\\V
 ersion=ES64L-G16RevA.03\HF=-685.0443985\S2=0.\S2-1=0.\S2A=0.\RMSD=7.78
 5e-09\RMSF=2.647e-06\Dipole=0.0000653,-0.0313069,-0.4855235\Quadrupole
 =-0.7861215,0.6163645,0.1697571,-1.6587817,0.1069855,-0.0291804\PG=C01
  [X(H4P2)]\\@


 THERE ARE TWO THINGS THAT EVERYBODY THINKS THEY CAN DO BETTER THAN
 ANYONE ELSE - PUNCH THE FIRE, AND EDIT A DAILY PAPER.
 -- UNCLE ESEK, "CENTURY MAGAZINE", 1885
 Job cpu time:       0 days  0 hours  8 minutes  1.4 seconds.
 Elapsed time:       0 days  0 hours  1 minutes 11.5 seconds.
 File lengths (MBytes):  RWF=     22 Int=      0 D2E=      0 Chk=      3 Scr=      2
 Normal termination of Gaussian 16 at Mon Apr 21 20:45:55 2025.
