 Entering Gaussian System, Link 0=g16
 Initial command:
 /home/szhao/Apps/g16/l1.exe "/home/szhao/tmp/Gau-69532.inp" -scrdir="/home/szhao/tmp/"
 Default is to use a total of  16 processors:
                               16 via shared-memory
                                1 via Linda
 Entering Link 1 = /home/szhao/Apps/g16/l1.exe PID=     69540.
  
 Copyright (c) 1988,1990,1992,1993,1995,1998,2003,2009,2016,
            Gaussian, Inc.  All Rights Reserved.
  
 This is part of the Gaussian(R) 16 program.  It is based on
 the Gaussian(R) 09 system (copyright 2009, Gaussian, Inc.),
 the Gaussian(R) 03 system (copyright 2003, Gaussian, Inc.),
 the Gaussian(R) 98 system (copyright 1998, Gaussian, Inc.),
 the Gaussian(R) 94 system (copyright 1995, Gaussian, Inc.),
 the Gaussian 92(TM) system (copyright 1992, Gaussian, Inc.),
 the Gaussian 90(TM) system (copyright 1990, Gaussian, Inc.),
 the Gaussian 88(TM) system (copyright 1988, Gaussian, Inc.),
 the Gaussian 86(TM) system (copyright 1986, Carnegie Mellon
 University), and the Gaussian 82(TM) system (copyright 1983,
 Carnegie Mellon University). Gaussian is a federally registered
 trademark of Gaussian, Inc.
  
 This software contains proprietary and confidential information,
 including trade secrets, belonging to Gaussian, Inc.
  
 This software is provided under written license and may be
 used, copied, transmitted, or stored only in accord with that
 written license.
  
 The following legend is applicable only to US Government
 contracts under FAR:
  
                    RESTRICTED RIGHTS LEGEND
  
 Use, reproduction and disclosure by the US Government is
 subject to restrictions as set forth in subparagraphs (a)
 and (c) of the Commercial Computer Software - Restricted
 Rights clause in FAR 52.227-19.
  
 Gaussian, Inc.
 340 Quinnipiac St., Bldg. 40, Wallingford CT 06492
  
  
 ---------------------------------------------------------------
 Warning -- This program may not be used in any manner that
 competes with the business of Gaussian, Inc. or will provide
 assistance to any competitor of Gaussian, Inc.  The licensee
 of this program is prohibited from giving any competitor of
 Gaussian, Inc. access to this program.  By using this program,
 the user acknowledges that Gaussian, Inc. is engaged in the
 business of creating and licensing software in the field of
 computational chemistry and represents and warrants to the
 licensee that it is not a competitor of Gaussian, Inc. and that
 it will not use this program in any manner prohibited above.
 ---------------------------------------------------------------
  

 Cite this work as:
 Gaussian 16, Revision A.03,
 M. J. Frisch, G. W. Trucks, H. B. Schlegel, G. E. Scuseria, 
 M. A. Robb, J. R. Cheeseman, G. Scalmani, V. Barone, 
 G. A. Petersson, H. Nakatsuji, X. Li, M. Caricato, A. V. Marenich, 
 J. Bloino, B. G. Janesko, R. Gomperts, B. Mennucci, H. P. Hratchian, 
 J. V. Ortiz, A. F. Izmaylov, J. L. Sonnenberg, D. Williams-Young, 
 F. Ding, F. Lipparini, F. Egidi, J. Goings, B. Peng, A. Petrone, 
 T. Henderson, D. Ranasinghe, V. G. Zakrzewski, J. Gao, N. Rega, 
 G. Zheng, W. Liang, M. Hada, M. Ehara, K. Toyota, R. Fukuda, 
 J. Hasegawa, M. Ishida, T. Nakajima, Y. Honda, O. Kitao, H. Nakai, 
 T. Vreven, K. Throssell, J. A. Montgomery, Jr., J. E. Peralta, 
 F. Ogliaro, M. J. Bearpark, J. J. Heyd, E. N. Brothers, K. N. Kudin, 
 V. N. Staroverov, T. A. Keith, R. Kobayashi, J. Normand, 
 K. Raghavachari, A. P. Rendell, J. C. Burant, S. S. Iyengar, 
 J. Tomasi, M. Cossi, J. M. Millam, M. Klene, C. Adamo, R. Cammi, 
 J. W. Ochterski, R. L. Martin, K. Morokuma, O. Farkas, 
 J. B. Foresman, and D. J. Fox, Gaussian, Inc., Wallingford CT, 2016.
 
 ******************************************
 Gaussian 16:  ES64L-G16RevA.03 25-Dec-2016
                21-Apr-2025 
 ******************************************
 %chk=opt.chk
 %mem=4GB
 %nprocshared=8
 Will use up to    8 processors via shared memory.
 --------------------------------------------
 #p opt UM062X/6-311+G** nosymm int=superfine
 --------------------------------------------
 1/18=20,19=15,26=5,38=1/1,3;
 2/9=110,12=2,15=1,17=6,18=5,40=1/2;
 3/5=4,6=6,7=111,11=2,25=1,30=1,71=1,74=-55,75=-7,116=2/1,2,3;
 4//1;
 5/5=2,38=5/2;
 6/7=2,8=2,9=2,10=2,28=1/1;
 7/30=1/1,2,3,16;
 1/18=20,19=15,26=5/3(2);
 2/9=110,15=1/2;
 99//99;
 2/9=110,15=1/2;
 3/5=4,6=6,7=111,11=2,25=1,30=1,71=1,74=-55,75=-7,116=2/1,2,3;
 4/5=5,16=3,69=1/1;
 5/5=2,38=5/2;
 7/30=1/1,2,3,16;
 1/18=20,19=15,26=5/3(-5);
 2/9=110,15=1/2;
 6/7=2,8=2,9=2,10=2,19=2,28=1/1;
 99/9=1/99;
 Leave Link    1 at Mon Apr 21 18:11:25 2025, MaxMem=   536870912 cpu:               1.7 elap:               0.2
 (Enter /home/szhao/Apps/g16/l101.exe)
 -------------------
 Title Card Required
 -------------------
 Symbolic Z-matrix:
 Charge =  0 Multiplicity = 1
 C                    -1   -1.45554   0.        0. 
 N                    -1    1.45554   0.        0. 
 H                    0     1.81722  -0.946     0. 
 H                    0    -1.81258   1.03082  -0.01934 
 H                    0     1.81722   0.45736   0.82809 
 H                    0    -1.81258  -0.48144  -0.91169 
 H                    0    -1.91934  -0.50545   0.85659 
 
 Add virtual bond connecting atoms N2         and C1         Dist= 5.50D+00.
 ITRead=  2  2  0  0  0  0  0
 MicOpt= -2 -2 -1 -1 -1 -1 -1
 NAtoms=      7 NQM=        5 NQMF=       2 NMMI=      0 NMMIF=      0
                NMic=       0 NMicF=      0.
                    Isotopes and Nuclear Properties:
 (Nuclear quadrupole moments (NQMom) in fm**2, nuclear magnetic moments (NMagM)
  in nuclear magnetons)

  Atom         1           2           3           4           5           6           7
 IAtWgt=          12          14           1           1           1           1           1
 AtmWgt=  12.0000000  14.0030740   1.0078250   1.0078250   1.0078250   1.0078250   1.0078250
 NucSpn=           0           2           1           1           1           1           1
 AtZEff=  -0.0000000  -0.0000000  -0.0000000  -0.0000000  -0.0000000  -0.0000000  -0.0000000
 NQMom=    0.0000000   2.0440000   0.0000000   0.0000000   0.0000000   0.0000000   0.0000000
 NMagM=    0.0000000   0.4037610   2.7928460   2.7928460   2.7928460   2.7928460   2.7928460
 AtZNuc=   6.0000000   7.0000000   1.0000000   1.0000000   1.0000000   1.0000000   1.0000000
 Leave Link  101 at Mon Apr 21 18:11:25 2025, MaxMem=   536870912 cpu:               3.4 elap:               0.4
 (Enter /home/szhao/Apps/g16/l103.exe)

 GradGradGradGradGradGradGradGradGradGradGradGradGradGradGradGradGradGrad
 Berny optimization.
 Initialization pass.
                           ----------------------------
                           !    Initial Parameters    !
                           ! (Angstroms and Degrees)  !
 --------------------------                            --------------------------
 ! Name  Definition              Value          Derivative Info.                !
 --------------------------------------------------------------------------------
 ! X1    R(1,-1)                -1.4555         Frozen                          !
 ! Y1    R(1,-2)                 0.0            Frozen                          !
 ! Z1    R(1,-3)                 0.0            Frozen                          !
 ! X2    R(2,-1)                 1.4555         Frozen                          !
 ! Y2    R(2,-2)                 0.0            Frozen                          !
 ! Z2    R(2,-3)                 0.0            Frozen                          !
 ! R1    R(1,4)                  1.0911         estimate D2E/DX2                !
 ! R2    R(1,6)                  1.0911         estimate D2E/DX2                !
 ! R3    R(1,7)                  1.0974         estimate D2E/DX2                !
 ! R4    R(2,3)                  1.0128         estimate D2E/DX2                !
 ! R5    R(2,5)                  1.0128         estimate D2E/DX2                !
 ! A1    A(2,1,4)              109.1011         estimate D2E/DX2                !
 ! A2    A(2,1,6)              109.1011         estimate D2E/DX2                !
 ! A3    A(2,1,7)              115.0002         estimate D2E/DX2                !
 ! A4    A(4,1,6)              107.1573         estimate D2E/DX2                !
 ! A5    A(4,1,7)              108.1005         estimate D2E/DX2                !
 ! A6    A(6,1,7)              108.1005         estimate D2E/DX2                !
 ! A7    A(1,2,3)              110.9228         estimate D2E/DX2                !
 ! A8    A(1,2,5)              110.923          estimate D2E/DX2                !
 ! A9    A(3,2,5)              107.1144         estimate D2E/DX2                !
 ! D1    D(4,1,2,3)           -178.9252         estimate D2E/DX2                !
 ! D2    D(4,1,2,5)             62.1629         estimate D2E/DX2                !
 ! D3    D(6,1,2,3)            -62.1623         estimate D2E/DX2                !
 ! D4    D(6,1,2,5)            178.9258         estimate D2E/DX2                !
 ! D5    D(7,1,2,3)             59.4563         estimate D2E/DX2                !
 ! D6    D(7,1,2,5)            -59.4556         estimate D2E/DX2                !
 --------------------------------------------------------------------------------
 Trust Radius=3.00D-01 FncErr=1.00D-07 GrdErr=1.00D-07 EigMax=2.50D+02 EigMin=1.00D-04
 Number of steps in this run=     36 maximum allowed number of steps=    100.
 GradGradGradGradGradGradGradGradGradGradGradGradGradGradGradGradGradGrad

 Leave Link  103 at Mon Apr 21 18:11:26 2025, MaxMem=   536870912 cpu:               0.4 elap:               0.1
 (Enter /home/szhao/Apps/g16/l202.exe)
                          Input orientation:                          
 ---------------------------------------------------------------------
 Center     Atomic      Atomic             Coordinates (Angstroms)
 Number     Number       Type             X           Y           Z
 ---------------------------------------------------------------------
      1          6           0       -1.455542    0.000000    0.000000
      2          7           0        1.455542    0.000000    0.000000
      3          1           0        1.817216   -0.945999    0.000000
      4          1           0       -1.812579    1.030817   -0.019339
      5          1           0        1.817218    0.457356    0.828092
      6          1           0       -1.812580   -0.481444   -0.911685
      7          1           0       -1.919338   -0.505453    0.856593
 ---------------------------------------------------------------------
                    Distance matrix (angstroms):
                    1          2          3          4          5
     1  C    0.000000
     2  N    2.911084   0.000000
     3  H    3.406737   1.012779   0.000000
     4  H    1.091070   3.426890   4.133230   0.000000
     5  H    3.406739   1.012779   1.629460   3.771264   0.000000
     6  H    1.091070   3.426891   3.771260   1.755908   4.133232
     7  H    1.097425   3.518388   3.858713   1.771660   3.858713
                    6          7
     6  H    0.000000
     7  H    1.771661   0.000000
 Symmetry turned off by external request.
 Stoichiometry    CH5N
 Framework group  C1[X(CH5N)]
 Deg. of freedom    15
 Full point group                 C1      NOp   1
 Rotational constants (GHZ):         103.7122852           6.8223943           6.7395683
 Leave Link  202 at Mon Apr 21 18:11:26 2025, MaxMem=   536870912 cpu:               0.5 elap:               0.1
 (Enter /home/szhao/Apps/g16/l301.exe)
 Standard basis: 6-311+G(d,p) (5D, 7F)
 Ernie: Thresh=  0.10000D-02 Tol=  0.10000D-05 Strict=F.
    74 basis functions,   112 primitive gaussians,    76 cartesian basis functions
     9 alpha electrons        9 beta electrons
       nuclear repulsion energy        30.7762120702 Hartrees.
 IExCor= 4336 DFT=T Ex+Corr=M062X ExCW=0 ScaHFX=  0.540000
 ScaDFX=  1.000000  1.000000  1.000000  1.000000 ScalE2=  1.000000  1.000000
 IRadAn=      7 IRanWt=     -1 IRanGd=            0 ICorTp=0 IEmpDi=  4
 NAtoms=    7 NActive=    7 NUniq=    7 SFac= 1.00D+00 NAtFMM=   60 NAOKFM=F Big=F
 Integral buffers will be    131072 words long.
 Raffenetti 2 integral format.
 Two-electron integral symmetry is turned off.
 Leave Link  301 at Mon Apr 21 18:11:26 2025, MaxMem=   536870912 cpu:               0.9 elap:               0.2
 (Enter /home/szhao/Apps/g16/l302.exe)
 NPDir=0 NMtPBC=     1 NCelOv=     1 NCel=       1 NClECP=     1 NCelD=      1
         NCelK=      1 NCelE2=     1 NClLst=     1 CellRange=     0.0.
 One-electron integrals computed using PRISM.
 NBasis=    74 RedAO= T EigKep=  4.28D-03  NBF=    74
 NBsUse=    74 1.00D-06 EigRej= -1.00D+00 NBFU=    74
 Precomputing XC quadrature grid using
 IXCGrd= 4 IRadAn=           7 IRanWt=          -1 IRanGd=           0 AccXCQ= 0.00D+00.
 Generated NRdTot=       0 NPtTot=           0 NUsed=           0 NTot=          32
 NSgBfM=    76    76    76    76    76 MxSgAt=     7 MxSgA2=     7.
 Leave Link  302 at Mon Apr 21 18:11:26 2025, MaxMem=   536870912 cpu:               1.3 elap:               0.2
 (Enter /home/szhao/Apps/g16/l303.exe)
 DipDrv:  MaxL=1.
 Leave Link  303 at Mon Apr 21 18:11:27 2025, MaxMem=   536870912 cpu:               0.4 elap:               0.1
 (Enter /home/szhao/Apps/g16/l401.exe)
 ExpMin= 4.38D-02 ExpMax= 6.29D+03 ExpMxC= 9.49D+02 IAcc=3 IRadAn=         7 AccDes= 0.00D+00
 Harris functional with IExCor= 1009 and IRadAn=       7 diagonalized for initial guess.
 HarFok:  IExCor= 1009 AccDes= 0.00D+00 IRadAn=         7 IDoV= 1 UseB2=F ITyADJ=14
 ICtDFT=  3500011 ScaDFX=  1.000000  1.000000  1.000000  1.000000
 FoFCou: FMM=F IPFlag=           0 FMFlag=      100000 FMFlg1=           0
         NFxFlg=           0 DoJE=T BraDBF=F KetDBF=T FulRan=T
         wScrn=  0.000000 ICntrl=       500 IOpCl=  0 I1Cent=   200000004 NGrid=           0
         NMat0=    1 NMatS0=      1 NMatT0=    0 NMatD0=    1 NMtDS0=    0 NMtDT0=    0
 Symmetry not used in FoFCou.
 Harris En= -95.6390308334676    
 JPrj=0 DoOrth=F DoCkMO=F.
 Initial guess <Sx>= 0.0000 <Sy>= 0.0000 <Sz>= 0.0000 <S**2>= 0.0000 S= 0.0000
 Leave Link  401 at Mon Apr 21 18:11:27 2025, MaxMem=   536870912 cpu:               3.4 elap:               0.6
 (Enter /home/szhao/Apps/g16/l502.exe)
 Keep R1 and R2 ints in memory in canonical form, NReq=14944651.
 FoFCou: FMM=F IPFlag=           0 FMFlag=           0 FMFlg1=           0
         NFxFlg=           0 DoJE=F BraDBF=F KetDBF=F FulRan=T
         wScrn=  0.000000 ICntrl=       600 IOpCl=  0 I1Cent=           0 NGrid=           0
         NMat0=    1 NMatS0=   2775 NMatT0=    0 NMatD0=    1 NMtDS0=    0 NMtDT0=    0
 Symmetry not used in FoFCou.
 Two-electron integral symmetry not used.
 UHF open shell SCF:
 Using DIIS extrapolation, IDIIS=  1040.
 NGot=   536870912 LenX=   529154583 LenY=   529148366
 Requested convergence on RMS density matrix=1.00D-08 within 128 cycles.
 Requested convergence on MAX density matrix=1.00D-06.
 Requested convergence on             energy=1.00D-06.
 No special actions if energy rises.

 Cycle   1  Pass 1  IDiag  1:
 E= -95.5329059343943    
 DIIS: error= 4.15D-02 at cycle   1 NSaved=   1.
 NSaved= 1 IEnMin= 1 EnMin= -95.5329059343943     IErMin= 1 ErrMin= 4.15D-02
 ErrMax= 4.15D-02  0.00D+00 EMaxC= 1.00D-01 BMatC= 4.51D-01 BMatP= 4.51D-01
 IDIUse=3 WtCom= 5.85D-01 WtEn= 4.15D-01
 Coeff-Com:  0.100D+01
 Coeff-En:   0.100D+01
 Coeff:      0.100D+01
 Gap=     0.094 Goal=   None    Shift=    0.000
 Gap=     0.094 Goal=   None    Shift=    0.000
 GapD=    0.094 DampG=0.500 DampE=0.500 DampFc=0.2500 IDamp=-1.
 Damping current iteration by 2.50D-01
 RMSDP=6.18D-03 MaxDP=1.05D-01              OVMax= 3.94D-01

 Cycle   2  Pass 1  IDiag  1:
 E= -95.5662739328554     Delta-E=       -0.033367998461 Rises=F Damp=T
 DIIS: error= 2.02D-02 at cycle   2 NSaved=   2.
 NSaved= 2 IEnMin= 2 EnMin= -95.5662739328554     IErMin= 2 ErrMin= 2.02D-02
 ErrMax= 2.02D-02  0.00D+00 EMaxC= 1.00D-01 BMatC= 1.13D-01 BMatP= 4.51D-01
 IDIUse=3 WtCom= 7.98D-01 WtEn= 2.02D-01
 Coeff-Com: -0.478D+00 0.148D+01
 Coeff-En:   0.000D+00 0.100D+01
 Coeff:     -0.382D+00 0.138D+01
 Gap=     0.198 Goal=   None    Shift=    0.000
 Gap=     0.198 Goal=   None    Shift=    0.000
 RMSDP=2.40D-03 MaxDP=5.36D-02 DE=-3.34D-02 OVMax= 4.54D-01

 Cycle   3  Pass 1  IDiag  1:
 E= -95.5965130344791     Delta-E=       -0.030239101624 Rises=F Damp=F
 DIIS: error= 2.47D-02 at cycle   3 NSaved=   3.
 NSaved= 3 IEnMin= 3 EnMin= -95.5965130344791     IErMin= 2 ErrMin= 2.02D-02
 ErrMax= 2.47D-02  0.00D+00 EMaxC= 1.00D-01 BMatC= 1.00D-01 BMatP= 1.13D-01
 IDIUse=3 WtCom= 7.53D-01 WtEn= 2.47D-01
 Coeff-Com: -0.422D+00 0.929D+00 0.493D+00
 Coeff-En:   0.000D+00 0.103D+00 0.897D+00
 Coeff:     -0.318D+00 0.725D+00 0.593D+00
 Gap=     0.135 Goal=   None    Shift=    0.000
 Gap=     0.135 Goal=   None    Shift=    0.000
 RMSDP=2.63D-03 MaxDP=4.62D-02 DE=-3.02D-02 OVMax= 2.37D-01

 Cycle   4  Pass 1  IDiag  1:
 E= -95.6015057732955     Delta-E=       -0.004992738816 Rises=F Damp=F
 DIIS: error= 2.51D-02 at cycle   4 NSaved=   4.
 NSaved= 4 IEnMin= 4 EnMin= -95.6015057732955     IErMin= 2 ErrMin= 2.02D-02
 ErrMax= 2.51D-02  0.00D+00 EMaxC= 1.00D-01 BMatC= 9.76D-02 BMatP= 1.00D-01
 IDIUse=3 WtCom= 7.49D-01 WtEn= 2.51D-01
 Coeff-Com:  0.150D+00-0.162D+00 0.440D+00 0.571D+00
 Coeff-En:   0.000D+00 0.000D+00 0.473D+00 0.527D+00
 Coeff:      0.113D+00-0.121D+00 0.448D+00 0.560D+00
 Gap=     0.158 Goal=   None    Shift=    0.000
 Gap=     0.158 Goal=   None    Shift=    0.000
 RMSDP=1.33D-03 MaxDP=2.19D-02 DE=-4.99D-03 OVMax= 1.26D-01

 Cycle   5  Pass 1  IDiag  1:
 E= -95.6305620444416     Delta-E=       -0.029056271146 Rises=F Damp=F
 DIIS: error= 1.32D-03 at cycle   5 NSaved=   5.
 NSaved= 5 IEnMin= 5 EnMin= -95.6305620444416     IErMin= 5 ErrMin= 1.32D-03
 ErrMax= 1.32D-03  0.00D+00 EMaxC= 1.00D-01 BMatC= 3.78D-04 BMatP= 9.76D-02
 IDIUse=3 WtCom= 9.87D-01 WtEn= 1.32D-02
 Coeff-Com: -0.188D-01 0.136D-01 0.536D-01 0.653D-01 0.886D+00
 Coeff-En:   0.000D+00 0.000D+00 0.000D+00 0.000D+00 0.100D+01
 Coeff:     -0.186D-01 0.135D-01 0.529D-01 0.645D-01 0.888D+00
 Gap=     0.163 Goal=   None    Shift=    0.000
 Gap=     0.163 Goal=   None    Shift=    0.000
 RMSDP=1.21D-04 MaxDP=2.08D-03 DE=-2.91D-02 OVMax= 9.41D-03

 Cycle   6  Pass 1  IDiag  1:
 E= -95.6306536049273     Delta-E=       -0.000091560486 Rises=F Damp=F
 DIIS: error= 5.83D-04 at cycle   6 NSaved=   6.
 NSaved= 6 IEnMin= 6 EnMin= -95.6306536049273     IErMin= 6 ErrMin= 5.83D-04
 ErrMax= 5.83D-04  0.00D+00 EMaxC= 1.00D-01 BMatC= 6.75D-05 BMatP= 3.78D-04
 IDIUse=3 WtCom= 9.94D-01 WtEn= 5.83D-03
 Coeff-Com: -0.123D-03-0.303D-03-0.378D-02-0.279D-01 0.370D-01 0.995D+00
 Coeff-En:   0.000D+00 0.000D+00 0.000D+00 0.000D+00 0.109D+00 0.891D+00
 Coeff:     -0.123D-03-0.301D-03-0.376D-02-0.277D-01 0.374D-01 0.995D+00
 Gap=     0.164 Goal=   None    Shift=    0.000
 Gap=     0.164 Goal=   None    Shift=    0.000
 RMSDP=4.37D-05 MaxDP=4.90D-04 DE=-9.16D-05 OVMax= 3.36D-03

 Cycle   7  Pass 1  IDiag  1:
 E= -95.6306754969863     Delta-E=       -0.000021892059 Rises=F Damp=F
 DIIS: error= 4.94D-05 at cycle   7 NSaved=   7.
 NSaved= 7 IEnMin= 7 EnMin= -95.6306754969863     IErMin= 7 ErrMin= 4.94D-05
 ErrMax= 4.94D-05  0.00D+00 EMaxC= 1.00D-01 BMatC= 3.62D-07 BMatP= 6.75D-05
 IDIUse=1 WtCom= 1.00D+00 WtEn= 0.00D+00
 Coeff-Com:  0.104D-03-0.394D-05-0.199D-02-0.202D-02-0.184D-01-0.284D-01
 Coeff-Com:  0.105D+01
 Coeff:      0.104D-03-0.394D-05-0.199D-02-0.202D-02-0.184D-01-0.284D-01
 Coeff:      0.105D+01
 Gap=     0.164 Goal=   None    Shift=    0.000
 Gap=     0.164 Goal=   None    Shift=    0.000
 RMSDP=1.06D-05 MaxDP=1.02D-04 DE=-2.19D-05 OVMax= 8.02D-04

 Cycle   8  Pass 1  IDiag  1:
 E= -95.6306760798172     Delta-E=       -0.000000582831 Rises=F Damp=F
 DIIS: error= 3.28D-05 at cycle   8 NSaved=   8.
 NSaved= 8 IEnMin= 8 EnMin= -95.6306760798172     IErMin= 8 ErrMin= 3.28D-05
 ErrMax= 3.28D-05  0.00D+00 EMaxC= 1.00D-01 BMatC= 1.18D-07 BMatP= 3.62D-07
 IDIUse=1 WtCom= 1.00D+00 WtEn= 0.00D+00
 Coeff-Com: -0.714D-03 0.991D-03-0.383D-03 0.148D-02 0.210D-02-0.569D-01
 Coeff-Com: -0.340D+00 0.139D+01
 Coeff:     -0.714D-03 0.991D-03-0.383D-03 0.148D-02 0.210D-02-0.569D-01
 Coeff:     -0.340D+00 0.139D+01
 Gap=     0.164 Goal=   None    Shift=    0.000
 Gap=     0.164 Goal=   None    Shift=    0.000
 RMSDP=7.53D-06 MaxDP=8.48D-05 DE=-5.83D-07 OVMax= 6.42D-04

 Cycle   9  Pass 1  IDiag  1:
 E= -95.6306762982115     Delta-E=       -0.000000218394 Rises=F Damp=F
 DIIS: error= 1.37D-05 at cycle   9 NSaved=   9.
 NSaved= 9 IEnMin= 9 EnMin= -95.6306762982115     IErMin= 9 ErrMin= 1.37D-05
 ErrMax= 1.37D-05  0.00D+00 EMaxC= 1.00D-01 BMatC= 2.72D-08 BMatP= 1.18D-07
 IDIUse=1 WtCom= 1.00D+00 WtEn= 0.00D+00
 Coeff-Com:  0.937D-04-0.116D-03 0.198D-03-0.184D-03 0.122D-02 0.336D-01
 Coeff-Com: -0.152D+00-0.350D+00 0.147D+01
 Coeff:      0.937D-04-0.116D-03 0.198D-03-0.184D-03 0.122D-02 0.336D-01
 Coeff:     -0.152D+00-0.350D+00 0.147D+01
 Gap=     0.164 Goal=   None    Shift=    0.000
 Gap=     0.164 Goal=   None    Shift=    0.000
 RMSDP=4.34D-06 MaxDP=5.21D-05 DE=-2.18D-07 OVMax= 3.58D-04

 Cycle  10  Pass 1  IDiag  1:
 E= -95.6306763378603     Delta-E=       -0.000000039649 Rises=F Damp=F
 DIIS: error= 5.17D-06 at cycle  10 NSaved=  10.
 NSaved=10 IEnMin=10 EnMin= -95.6306763378603     IErMin=10 ErrMin= 5.17D-06
 ErrMax= 5.17D-06  0.00D+00 EMaxC= 1.00D-01 BMatC= 3.99D-09 BMatP= 2.72D-08
 IDIUse=1 WtCom= 1.00D+00 WtEn= 0.00D+00
 Coeff-Com:  0.122D-04-0.944D-05-0.386D-04-0.748D-04-0.771D-03 0.599D-02
 Coeff-Com:  0.305D-01-0.603D-01-0.100D+00 0.112D+01
 Coeff:      0.122D-04-0.944D-05-0.386D-04-0.748D-04-0.771D-03 0.599D-02
 Coeff:      0.305D-01-0.603D-01-0.100D+00 0.112D+01
 Gap=     0.164 Goal=   None    Shift=    0.000
 Gap=     0.164 Goal=   None    Shift=    0.000
 RMSDP=4.92D-07 MaxDP=5.42D-06 DE=-3.96D-08 OVMax= 3.76D-05

 Cycle  11  Pass 1  IDiag  1:
 E= -95.6306763393647     Delta-E=       -0.000000001504 Rises=F Damp=F
 DIIS: error= 2.82D-07 at cycle  11 NSaved=  11.
 NSaved=11 IEnMin=11 EnMin= -95.6306763393647     IErMin=11 ErrMin= 2.82D-07
 ErrMax= 2.82D-07  0.00D+00 EMaxC= 1.00D-01 BMatC= 2.86D-11 BMatP= 3.99D-09
 IDIUse=1 WtCom= 1.00D+00 WtEn= 0.00D+00
 Coeff-Com:  0.528D-05-0.679D-05-0.154D-04 0.762D-05-0.179D-03-0.316D-03
 Coeff-Com:  0.707D-02-0.423D-03-0.594D-01 0.161D+00 0.892D+00
 Coeff:      0.528D-05-0.679D-05-0.154D-04 0.762D-05-0.179D-03-0.316D-03
 Coeff:      0.707D-02-0.423D-03-0.594D-01 0.161D+00 0.892D+00
 Gap=     0.164 Goal=   None    Shift=    0.000
 Gap=     0.164 Goal=   None    Shift=    0.000
 RMSDP=1.00D-07 MaxDP=1.30D-06 DE=-1.50D-09 OVMax= 7.23D-06

 Cycle  12  Pass 1  IDiag  1:
 E= -95.6306763393819     Delta-E=       -0.000000000017 Rises=F Damp=F
 DIIS: error= 6.01D-08 at cycle  12 NSaved=  12.
 NSaved=12 IEnMin=12 EnMin= -95.6306763393819     IErMin=12 ErrMin= 6.01D-08
 ErrMax= 6.01D-08  0.00D+00 EMaxC= 1.00D-01 BMatC= 1.38D-12 BMatP= 2.86D-11
 IDIUse=1 WtCom= 1.00D+00 WtEn= 0.00D+00
 Coeff-Com: -0.208D-05 0.266D-05-0.130D-05 0.106D-05 0.387D-04-0.188D-03
 Coeff-Com: -0.838D-03 0.297D-02 0.354D-02-0.444D-01-0.121D-02 0.104D+01
 Coeff:     -0.208D-05 0.266D-05-0.130D-05 0.106D-05 0.387D-04-0.188D-03
 Coeff:     -0.838D-03 0.297D-02 0.354D-02-0.444D-01-0.121D-02 0.104D+01
 Gap=     0.164 Goal=   None    Shift=    0.000
 Gap=     0.164 Goal=   None    Shift=    0.000
 RMSDP=1.53D-08 MaxDP=1.40D-07 DE=-1.72D-11 OVMax= 6.74D-07

 Cycle  13  Pass 1  IDiag  1:
 E= -95.6306763393824     Delta-E=       -0.000000000000 Rises=F Damp=F
 DIIS: error= 2.03D-08 at cycle  13 NSaved=  13.
 NSaved=13 IEnMin=13 EnMin= -95.6306763393824     IErMin=13 ErrMin= 2.03D-08
 ErrMax= 2.03D-08  0.00D+00 EMaxC= 1.00D-01 BMatC= 5.46D-14 BMatP= 1.38D-12
 IDIUse=1 WtCom= 1.00D+00 WtEn= 0.00D+00
 Coeff-Com: -0.537D-06 0.702D-06 0.100D-06-0.235D-06 0.436D-05 0.534D-05
 Coeff-Com: -0.768D-04-0.168D-03 0.675D-03-0.123D-02-0.235D-01-0.672D-01
 Coeff-Com:  0.109D+01
 Coeff:     -0.537D-06 0.702D-06 0.100D-06-0.235D-06 0.436D-05 0.534D-05
 Coeff:     -0.768D-04-0.168D-03 0.675D-03-0.123D-02-0.235D-01-0.672D-01
 Coeff:      0.109D+01
 Gap=     0.164 Goal=   None    Shift=    0.000
 Gap=     0.164 Goal=   None    Shift=    0.000
 RMSDP=2.86D-09 MaxDP=2.68D-08 DE=-4.55D-13 OVMax= 1.78D-07

 SCF Done:  E(UM062X) =  -95.6306763394     A.U. after   13 cycles
            NFock= 13  Conv=0.29D-08     -V/T= 2.0063
 <Sx>= 0.0000 <Sy>= 0.0000 <Sz>= 0.0000 <S**2>=-0.0000 S=-0.0000
 <L.S>=  0.00000000000    
 KE= 9.502820895049D+01 PE=-2.838952289249D+02 EE= 6.246013156492D+01
 Annihilation of the first spin contaminant:
 S**2 before annihilation    -0.0000,   after     0.0000
 Leave Link  502 at Mon Apr 21 18:11:39 2025, MaxMem=   536870912 cpu:              83.8 elap:              11.0
 (Enter /home/szhao/Apps/g16/l601.exe)
 Copying SCF densities to generalized density rwf, IOpCl= 1 IROHF=0.

 **********************************************************************

            Population analysis using the SCF density.

 **********************************************************************

 Alpha  occ. eigenvalues --  -14.75678 -10.60640  -0.91225  -0.79269  -0.52613
 Alpha  occ. eigenvalues --   -0.48827  -0.48673  -0.36375  -0.28207
 Alpha virt. eigenvalues --   -0.11797   0.02019   0.05888   0.06190   0.06417
 Alpha virt. eigenvalues --    0.10689   0.12774   0.15759   0.18041   0.18830
 Alpha virt. eigenvalues --    0.19848   0.20754   0.23066   0.27182   0.42550
 Alpha virt. eigenvalues --    0.43028   0.52578   0.56351   0.59743   0.62969
 Alpha virt. eigenvalues --    0.63181   0.64550   0.79797   0.80615   0.81877
 Alpha virt. eigenvalues --    0.88766   1.05017   1.05804   1.08677   1.27183
 Alpha virt. eigenvalues --    1.30286   1.36962   1.48678   1.52948   1.55007
 Alpha virt. eigenvalues --    1.55933   1.66525   1.68774   1.69009   1.96979
 Alpha virt. eigenvalues --    2.01373   2.03110   2.17160   2.17781   2.36416
 Alpha virt. eigenvalues --    2.38744   2.44245   2.46382   2.47323   2.50798
 Alpha virt. eigenvalues --    2.52160   2.52490   2.55280   2.70802   2.71429
 Alpha virt. eigenvalues --    2.92758   2.98139   3.11864   3.73307   3.73840
 Alpha virt. eigenvalues --    3.91896   4.30432   4.75375  23.92183  35.58565
  Beta  occ. eigenvalues --  -14.75678 -10.60640  -0.91225  -0.79269  -0.52613
  Beta  occ. eigenvalues --   -0.48827  -0.48673  -0.36375  -0.28207
  Beta virt. eigenvalues --   -0.11797   0.02019   0.05888   0.06190   0.06417
  Beta virt. eigenvalues --    0.10689   0.12774   0.15759   0.18041   0.18830
  Beta virt. eigenvalues --    0.19848   0.20754   0.23066   0.27182   0.42550
  Beta virt. eigenvalues --    0.43028   0.52578   0.56351   0.59743   0.62969
  Beta virt. eigenvalues --    0.63181   0.64550   0.79797   0.80615   0.81877
  Beta virt. eigenvalues --    0.88766   1.05017   1.05804   1.08677   1.27183
  Beta virt. eigenvalues --    1.30286   1.36962   1.48678   1.52948   1.55007
  Beta virt. eigenvalues --    1.55933   1.66525   1.68774   1.69009   1.96979
  Beta virt. eigenvalues --    2.01373   2.03110   2.17160   2.17781   2.36416
  Beta virt. eigenvalues --    2.38744   2.44245   2.46382   2.47323   2.50798
  Beta virt. eigenvalues --    2.52160   2.52490   2.55280   2.70802   2.71429
  Beta virt. eigenvalues --    2.92758   2.98139   3.11864   3.73307   3.73840
  Beta virt. eigenvalues --    3.91896   4.30432   4.75375  23.92183  35.58565
          Condensed to atoms (all electrons):
               1          2          3          4          5          6
     1  C    5.073158   0.153526  -0.007113   0.388260  -0.007113   0.388260
     2  N    0.153526   6.814897   0.325504  -0.004585   0.325504  -0.004585
     3  H   -0.007113   0.325504   0.489529   0.000002  -0.035698   0.000117
     4  H    0.388260  -0.004585   0.000002   0.507583   0.000117  -0.031528
     5  H   -0.007113   0.325504  -0.035698   0.000117   0.489528   0.000002
     6  H    0.388260  -0.004585   0.000117  -0.031528   0.000002   0.507583
     7  H    0.378600  -0.009676   0.000444  -0.032156   0.000444  -0.032156
               7
     1  C    0.378600
     2  N   -0.009676
     3  H    0.000444
     4  H   -0.032156
     5  H    0.000444
     6  H   -0.032156
     7  H    0.525384
          Atomic-Atomic Spin Densities.
               1          2          3          4          5          6
     1  C    0.000000  -0.000000  -0.000000  -0.000000  -0.000000   0.000000
     2  N   -0.000000   0.000000  -0.000000   0.000000  -0.000000  -0.000000
     3  H   -0.000000  -0.000000  -0.000000   0.000000  -0.000000   0.000000
     4  H   -0.000000   0.000000   0.000000  -0.000000  -0.000000  -0.000000
     5  H   -0.000000  -0.000000  -0.000000  -0.000000   0.000000   0.000000
     6  H    0.000000  -0.000000   0.000000  -0.000000   0.000000  -0.000000
     7  H   -0.000000   0.000000  -0.000000   0.000000  -0.000000  -0.000000
               7
     1  C   -0.000000
     2  N    0.000000
     3  H   -0.000000
     4  H    0.000000
     5  H   -0.000000
     6  H   -0.000000
     7  H    0.000000
 Mulliken charges and spin densities:
               1          2
     1  C   -0.367578   0.000000
     2  N   -0.600585   0.000000
     3  H    0.227216  -0.000000
     4  H    0.172307  -0.000000
     5  H    0.227216  -0.000000
     6  H    0.172307  -0.000000
     7  H    0.169117   0.000000
 Sum of Mulliken charges =  -0.00000  -0.00000
 Mulliken charges and spin densities with hydrogens summed into heavy atoms:
               1          2
     1  C    0.146154   0.000000
     2  N   -0.146154  -0.000000
 Electronic spatial extent (au):  <R**2>=            204.6132
 Charge=             -0.0000 electrons
 Dipole moment (field-independent basis, Debye):
    X=             -1.5777    Y=             -0.6999    Z=              1.1861  Tot=              2.0943
 Quadrupole moment (field-independent basis, Debye-Ang):
   XX=             -9.4007   YY=            -13.8862   ZZ=            -15.0975
   XY=             -1.5421   XZ=              2.6134   YZ=              1.0966
 Traceless Quadrupole moment (field-independent basis, Debye-Ang):
   XX=              3.3941   YY=             -1.0914   ZZ=             -2.3027
   XY=             -1.5421   XZ=              2.6134   YZ=              1.0966
 Octapole moment (field-independent basis, Debye-Ang**2):
  XXX=              1.2011  YYY=              0.6075  ZZZ=             -0.7829  XYY=              1.5702
  XXY=             -2.3243  XXZ=              3.9390  XZZ=             -0.5110  YZZ=              0.0052
  YYZ=             -0.2554  XYZ=              1.8841
 Hexadecapole moment (field-independent basis, Debye-Ang**3):
 XXXX=           -209.8813 YYYY=            -25.3289 ZZZZ=            -26.7413 XXXY=             -3.3209
 XXXZ=              5.6279 YYYX=             -2.4917 YYYZ=              0.4406 ZZZX=             -0.2566
 ZZZY=              0.8381 XXYY=            -36.1587 XXZZ=            -39.4199 YYZZ=             -8.8451
 XXYZ=              2.9524 YYXZ=             -0.1876 ZZXY=              2.7538
 N-N= 3.077621207016D+01 E-N=-2.838952285551D+02  KE= 9.502820895049D+01
                          Isotropic Fermi Contact Couplings
        Atom                 a.u.       MegaHertz       Gauss      10(-4) cm-1
     1  C(13)              0.00000       0.00000       0.00000       0.00000
     2  N(14)             -0.00000      -0.00000      -0.00000      -0.00000
     3  H(1)              -0.00000      -0.00000      -0.00000      -0.00000
     4  H(1)              -0.00000      -0.00000      -0.00000      -0.00000
     5  H(1)              -0.00000      -0.00000      -0.00000      -0.00000
     6  H(1)               0.00000       0.00000       0.00000       0.00000
     7  H(1)              -0.00000      -0.00000      -0.00000      -0.00000
 --------------------------------------------------------
       Center         ----  Spin Dipole Couplings  ----
                      3XX-RR        3YY-RR        3ZZ-RR
 --------------------------------------------------------
     1   Atom        0.000000      0.000000      0.000000
     2   Atom        0.000000      0.000000      0.000000
     3   Atom        0.000000      0.000000      0.000000
     4   Atom        0.000000      0.000000      0.000000
     5   Atom        0.000000      0.000000      0.000000
     6   Atom        0.000000      0.000000      0.000000
     7   Atom        0.000000      0.000000      0.000000
 --------------------------------------------------------
                        XY            XZ            YZ
 --------------------------------------------------------
     1   Atom        0.000000      0.000000      0.000000
     2   Atom        0.000000      0.000000      0.000000
     3   Atom        0.000000      0.000000      0.000000
     4   Atom        0.000000      0.000000      0.000000
     5   Atom        0.000000      0.000000      0.000000
     6   Atom        0.000000      0.000000      0.000000
     7   Atom        0.000000      0.000000      0.000000
 --------------------------------------------------------


 ---------------------------------------------------------------------------------
              Anisotropic Spin Dipole Couplings in Principal Axis System
 ---------------------------------------------------------------------------------

       Atom             a.u.   MegaHertz   Gauss  10(-4) cm-1        Axes

              Baa     0.0000     0.000     0.000     0.000  1.0000  0.0000  0.0000
     1 C(13)  Bbb     0.0000     0.000     0.000     0.000 -0.0000  1.0000  0.0000
              Bcc     0.0000     0.000     0.000     0.000  0.0000  0.0000  1.0000
 
              Baa     0.0000     0.000     0.000     0.000  1.0000  0.0000  0.0000
     2 N(14)  Bbb     0.0000     0.000     0.000     0.000 -0.0000  1.0000  0.0000
              Bcc     0.0000     0.000     0.000     0.000  0.0000  0.0000  1.0000
 
              Baa     0.0000     0.000     0.000     0.000  1.0000  0.0000  0.0000
     3 H(1)   Bbb     0.0000     0.000     0.000     0.000 -0.0000  1.0000  0.0000
              Bcc     0.0000     0.000     0.000     0.000  0.0000  0.0000  1.0000
 
              Baa     0.0000     0.000     0.000     0.000  1.0000  0.0000  0.0000
     4 H(1)   Bbb     0.0000     0.000     0.000     0.000 -0.0000  1.0000  0.0000
              Bcc     0.0000     0.000     0.000     0.000  0.0000  0.0000  1.0000
 
              Baa     0.0000     0.000     0.000     0.000  1.0000  0.0000  0.0000
     5 H(1)   Bbb     0.0000     0.000     0.000     0.000 -0.0000  1.0000  0.0000
              Bcc     0.0000     0.000     0.000     0.000  0.0000  0.0000  1.0000
 
              Baa     0.0000     0.000     0.000     0.000  1.0000  0.0000  0.0000
     6 H(1)   Bbb     0.0000     0.000     0.000     0.000 -0.0000  1.0000  0.0000
              Bcc     0.0000     0.000     0.000     0.000  0.0000  0.0000  1.0000
 
              Baa     0.0000     0.000     0.000     0.000  1.0000  0.0000  0.0000
     7 H(1)   Bbb     0.0000     0.000     0.000     0.000 -0.0000  1.0000  0.0000
              Bcc     0.0000     0.000     0.000     0.000  0.0000  0.0000  1.0000
 

 ---------------------------------------------------------------------------------

 No NMR shielding tensors so no spin-rotation constants.
 Leave Link  601 at Mon Apr 21 18:11:39 2025, MaxMem=   536870912 cpu:               1.1 elap:               0.2
 (Enter /home/szhao/Apps/g16/l701.exe)
 ... and contract with generalized density number  0.
 Compute integral first derivatives.
 Leave Link  701 at Mon Apr 21 18:11:40 2025, MaxMem=   536870912 cpu:               1.6 elap:               0.3
 (Enter /home/szhao/Apps/g16/l702.exe)
 L702 exits ... SP integral derivatives will be done elsewhere.
 Leave Link  702 at Mon Apr 21 18:11:40 2025, MaxMem=   536870912 cpu:               0.3 elap:               0.1
 (Enter /home/szhao/Apps/g16/l703.exe)
 Integral derivatives from FoFJK, PRISM(SPDF).
 Compute integral first derivatives, UseDBF=F ICtDFT=           0.
 Calling FoFJK, ICntrl=      2127 FMM=F ISym2X=0 I1Cent= 0 IOpClX= 1 NMat=1 NMatS=1 NMatT=0.
 FoFJK:  IHMeth= 1 ICntrl=    2127 DoSepK=F KAlg= 0 I1Cent=           0 FoldK=F
 IRaf=         0 NMat=       1 IRICut=       1 DoRegI=T DoRafI=F ISym2E= 0 IDoP0=0 IntGTp=1.
 FoFCou: FMM=F IPFlag=           0 FMFlag=      100000 FMFlg1=         800
         NFxFlg=           0 DoJE=F BraDBF=F KetDBF=F FulRan=T
         wScrn=  0.000000 ICntrl=      2127 IOpCl=  1 I1Cent=           0 NGrid=           0
         NMat0=    1 NMatS0=      1 NMatT0=    0 NMatD0=    1 NMtDS0=    0 NMtDT0=    0
 Symmetry not used in FoFCou.
 Leave Link  703 at Mon Apr 21 18:11:41 2025, MaxMem=   536870912 cpu:               9.2 elap:               1.2
 (Enter /home/szhao/Apps/g16/l716.exe)
 Dipole        =-6.20734568D-01-2.75371842D-01 4.66667093D-01
 -------------------------------------------------------------------
 Center     Atomic                   Forces (Hartrees/Bohr)
 Number     Number              X              Y              Z
 -------------------------------------------------------------------
      1        6          -0.000000000   -0.000000000   -0.000000000
      2        7          -0.000000000   -0.000000000   -0.000000000
      3        1          -0.007220079   -0.011598540    0.007244385
      4        1           0.022222948    0.006136595    0.002174922
      5        1          -0.007224416   -0.000736554    0.013656457
      6        1           0.022221756   -0.004868528   -0.004322240
      7        1           0.020749931   -0.001920923    0.003254575
 -------------------------------------------------------------------
 Cartesian Forces:  Max     0.022222948 RMS     0.009748383
 Leave Link  716 at Mon Apr 21 18:11:41 2025, MaxMem=   536870912 cpu:               0.6 elap:               0.2
 (Enter /home/szhao/Apps/g16/l103.exe)

 GradGradGradGradGradGradGradGradGradGradGradGradGradGradGradGradGradGrad
 Berny optimization.
 FormGI is forming the generalized inverse of G from B-inverse, IUseBI=4.
 Internal  Forces:  Max     0.065194635 RMS     0.019057736
 Search for a local minimum.
 Step number   1 out of a maximum of   36
 All quantities printed in internal units (Hartrees-Bohrs-Radians)
 RMS Force = .14190D-01 SwitMx=.10000D-02 MixMth= 1
 Mixed Optimization -- RFO/linear search
 Second derivative matrix not updated -- first step.
 ITU=  0
     Eigenvalues ---    0.00230   0.03652   0.06492   0.07285   0.16000
     Eigenvalues ---    0.16000   0.16000   0.16000   0.16000   0.33969
     Eigenvalues ---    0.34689   0.34689   0.45510   0.455101000.00000
     Eigenvalues --- 1000.000001000.000001000.000001000.000001000.00000
     Eigenvalues --- 1000.000001000.000001000.000001000.000001000.00000
     Eigenvalues --- 1000.00000
 RFO step:  Lambda=-2.46412105D-02 EMin= 2.30000000D-03
 Linear search not attempted -- first point.
 Maximum step size (   0.300) exceeded in Quadratic search.
    -- Step size scaled by   0.854
 Iteration  1 RMS(Cart)=  0.10159222 RMS(Int)=  0.00876320
 Iteration  2 RMS(Cart)=  0.00796484 RMS(Int)=  0.00539490
 Iteration  3 RMS(Cart)=  0.00009896 RMS(Int)=  0.00539460
 Iteration  4 RMS(Cart)=  0.00000190 RMS(Int)=  0.00539460
 Iteration  5 RMS(Cart)=  0.00000004 RMS(Int)=  0.00539460
 ITry= 1 IFail=0 DXMaxC= 2.21D-01 DCOld= 1.00D+10 DXMaxT= 3.00D-01 DXLimC= 3.00D+00 Rises=F
 Variable       Old X    -DE/DX   Delta X   Delta X   Delta X     New X
                                 (Linear)    (Quad)   (Total)
    X1       -2.75058   0.06519   0.00000   0.00000   0.00000  -2.75058
    Y1        0.00000   0.00253   0.00000   0.00000   0.00000   0.00000
    Z1        0.00000  -0.00429   0.00000   0.00000   0.00000   0.00000
    X2        2.75058  -0.01444   0.00000   0.00000   0.00000   2.75058
    Y2        0.00000  -0.01552   0.00000   0.00000   0.00000   0.00000
    Z2        0.00000   0.02630   0.00000   0.00000   0.00000   0.00000
    R1        2.06182  -0.00151   0.00000  -0.00348  -0.00348   2.05835
    R2        2.06182  -0.00151   0.00000  -0.00347  -0.00347   2.05835
    R3        2.07383  -0.00534   0.00000  -0.01252  -0.01252   2.06131
    R4        1.91387   0.00826   0.00000   0.01469   0.01469   1.92856
    R5        1.91387   0.00825   0.00000   0.01469   0.01469   1.92856
    A1        1.90417  -0.02322   0.00000  -0.10604  -0.11133   1.79284
    A2        1.90417  -0.02322   0.00000  -0.10603  -0.11132   1.79285
    A3        2.00713  -0.01834   0.00000  -0.08757  -0.09266   1.91447
    A4        1.87025   0.02354   0.00000   0.11482   0.10798   1.97822
    A5        1.88671   0.02251   0.00000   0.10148   0.09530   1.98201
    A6        1.88671   0.02251   0.00000   0.10149   0.09530   1.98201
    A7        1.93597  -0.01696   0.00000  -0.11014  -0.11593   1.82004
    A8        1.93597  -0.01697   0.00000  -0.11017  -0.11597   1.82000
    A9        1.86950   0.00748   0.00000  -0.02669  -0.04430   1.82519
    D1       -3.12283  -0.00736   0.00000  -0.09723  -0.09233   3.06802
    D2        1.08495   0.00526   0.00000   0.07892   0.07307   1.15801
    D3       -1.08494  -0.00527   0.00000  -0.07891  -0.07306  -1.15800
    D4        3.12284   0.00736   0.00000   0.09723   0.09234  -3.06801
    D5        1.03771  -0.00631   0.00000  -0.08806  -0.08269   0.95502
    D6       -1.03770   0.00631   0.00000   0.08808   0.08271  -0.95499
         Item               Value     Threshold  Converged?
 Maximum Force            0.023539     0.000450     NO 
 RMS     Force            0.014190     0.000300     NO 
 Maximum Displacement     0.221407     0.001800     NO 
 RMS     Displacement     0.105239     0.001200     NO 
 Predicted change in Energy=-1.325591D-02
 Lowest energy point so far.  Saving SCF results.
 GradGradGradGradGradGradGradGradGradGradGradGradGradGradGradGradGradGrad

 Leave Link  103 at Mon Apr 21 18:11:42 2025, MaxMem=   536870912 cpu:               0.7 elap:               0.1
 (Enter /home/szhao/Apps/g16/l202.exe)
                          Input orientation:                          
 ---------------------------------------------------------------------
 Center     Atomic      Atomic             Coordinates (Angstroms)
 Number     Number       Type             X           Y           Z
 ---------------------------------------------------------------------
      1          6           0       -1.455542    0.000000    0.000000
      2          7           0        1.455542    0.000000    0.000000
      3          1           0        1.707278   -0.985754    0.080271
      4          1           0       -1.695416    1.062458   -0.008158
      5          1           0        1.707245    0.403701    0.902880
      6          1           0       -1.695430   -0.503825   -0.935436
      7          1           0       -1.823089   -0.523194    0.883753
 ---------------------------------------------------------------------
                    Distance matrix (angstroms):
                    1          2          3          4          5
     1  C    0.000000
     2  N    2.911084   0.000000
     3  H    3.313848   1.020552   0.000000
     4  H    1.089230   3.325270   3.972571   0.000000
     5  H    3.313818   1.020550   1.614706   3.583581   0.000000
     6  H    1.089232   3.325282   3.583620   1.820189   3.972556
     7  H    1.090799   3.435721   3.650074   1.823760   3.650036
                    6          7
     6  H    0.000000
     7  H    1.823765   0.000000
 Symmetry turned off by external request.
 Stoichiometry    CH5N
 Framework group  C1[X(CH5N)]
 Deg. of freedom    15
 Full point group                 C1      NOp   1
 Rotational constants (GHZ):          96.8459171           6.9843491           6.9128591
 Leave Link  202 at Mon Apr 21 18:11:42 2025, MaxMem=   536870912 cpu:               0.1 elap:               0.1
 (Enter /home/szhao/Apps/g16/l301.exe)
 Standard basis: 6-311+G(d,p) (5D, 7F)
 Ernie: Thresh=  0.10000D-02 Tol=  0.10000D-05 Strict=F.
    74 basis functions,   112 primitive gaussians,    76 cartesian basis functions
     9 alpha electrons        9 beta electrons
       nuclear repulsion energy        30.9075474849 Hartrees.
 IExCor= 4336 DFT=T Ex+Corr=M062X ExCW=0 ScaHFX=  0.540000
 ScaDFX=  1.000000  1.000000  1.000000  1.000000 ScalE2=  1.000000  1.000000
 IRadAn=      7 IRanWt=     -1 IRanGd=            0 ICorTp=0 IEmpDi=  4
 NAtoms=    7 NActive=    7 NUniq=    7 SFac= 1.00D+00 NAtFMM=   60 NAOKFM=F Big=F
 Integral buffers will be    131072 words long.
 Raffenetti 2 integral format.
 Two-electron integral symmetry is turned off.
 Leave Link  301 at Mon Apr 21 18:11:42 2025, MaxMem=   536870912 cpu:               0.8 elap:               0.1
 (Enter /home/szhao/Apps/g16/l302.exe)
 NPDir=0 NMtPBC=     1 NCelOv=     1 NCel=       1 NClECP=     1 NCelD=      1
         NCelK=      1 NCelE2=     1 NClLst=     1 CellRange=     0.0.
 One-electron integrals computed using PRISM.
 NBasis=    74 RedAO= T EigKep=  3.49D-03  NBF=    74
 NBsUse=    74 1.00D-06 EigRej= -1.00D+00 NBFU=    74
 Precomputing XC quadrature grid using
 IXCGrd= 4 IRadAn=           7 IRanWt=          -1 IRanGd=           0 AccXCQ= 0.00D+00.
 Generated NRdTot=       0 NPtTot=           0 NUsed=           0 NTot=          32
 NSgBfM=    76    76    76    76    76 MxSgAt=     7 MxSgA2=     7.
 Leave Link  302 at Mon Apr 21 18:11:42 2025, MaxMem=   536870912 cpu:               1.4 elap:               0.2
 (Enter /home/szhao/Apps/g16/l303.exe)
 DipDrv:  MaxL=1.
 Leave Link  303 at Mon Apr 21 18:11:43 2025, MaxMem=   536870912 cpu:               1.4 elap:               0.3
 (Enter /home/szhao/Apps/g16/l401.exe)
 Initial guess from the checkpoint file:  "opt.chk"
 B after Tr=     0.012507   -0.010821    0.018281
         Rot=    0.999988   -0.000723    0.004181    0.002471 Ang=  -0.56 deg.
 Guess basis will be translated and rotated to current coordinates.
 JPrj=2 DoOrth=T DoCkMO=T.
 Initial guess <Sx>= 0.0000 <Sy>= 0.0000 <Sz>= 0.0000 <S**2>=-0.0000 S=-0.0000
 Generating alternative initial guess.
 ExpMin= 4.38D-02 ExpMax= 6.29D+03 ExpMxC= 9.49D+02 IAcc=3 IRadAn=         5 AccDes= 0.00D+00
 Harris functional with IExCor= 1009 and IRadAn=       5 diagonalized for initial guess.
 HarFok:  IExCor= 1009 AccDes= 0.00D+00 IRadAn=         5 IDoV= 1 UseB2=F ITyADJ=14
 ICtDFT=  3500011 ScaDFX=  1.000000  1.000000  1.000000  1.000000
 FoFCou: FMM=F IPFlag=           0 FMFlag=      100000 FMFlg1=           0
         NFxFlg=           0 DoJE=T BraDBF=F KetDBF=T FulRan=T
         wScrn=  0.000000 ICntrl=       500 IOpCl=  0 I1Cent=   200000004 NGrid=           0
         NMat0=    1 NMatS0=      1 NMatT0=    0 NMatD0=    1 NMtDS0=    0 NMtDT0=    0
 Symmetry not used in FoFCou.
 Harris En= -95.6547460392056    
 Leave Link  401 at Mon Apr 21 18:11:44 2025, MaxMem=   536870912 cpu:               3.1 elap:               0.4
 (Enter /home/szhao/Apps/g16/l502.exe)
 Keep R1 and R2 ints in memory in canonical form, NReq=14944651.
 FoFCou: FMM=F IPFlag=           0 FMFlag=           0 FMFlg1=           0
         NFxFlg=           0 DoJE=F BraDBF=F KetDBF=F FulRan=T
         wScrn=  0.000000 ICntrl=       600 IOpCl=  0 I1Cent=           0 NGrid=           0
         NMat0=    1 NMatS0=   2775 NMatT0=    0 NMatD0=    1 NMtDS0=    0 NMtDT0=    0
 Symmetry not used in FoFCou.
 Two-electron integral symmetry not used.
 UHF open shell SCF:
 Using DIIS extrapolation, IDIIS=  1040.
 NGot=   536870912 LenX=   529154583 LenY=   529148366
 Requested convergence on RMS density matrix=1.00D-08 within 128 cycles.
 Requested convergence on MAX density matrix=1.00D-06.
 Requested convergence on             energy=1.00D-06.
 No special actions if energy rises.

 Cycle   1  Pass 1  IDiag  1:
 E= -95.6423325228730    
 DIIS: error= 6.61D-03 at cycle   1 NSaved=   1.
 NSaved= 1 IEnMin= 1 EnMin= -95.6423325228730     IErMin= 1 ErrMin= 6.61D-03
 ErrMax= 6.61D-03  0.00D+00 EMaxC= 1.00D-01 BMatC= 1.38D-02 BMatP= 1.38D-02
 IDIUse=3 WtCom= 9.34D-01 WtEn= 6.61D-02
 Coeff-Com:  0.100D+01
 Coeff-En:   0.100D+01
 Coeff:      0.100D+01
 Gap=     0.478 Goal=   None    Shift=    0.000
 Gap=     0.478 Goal=   None    Shift=    0.000
 GapD=    0.478 DampG=2.000 DampE=1.000 DampFc=2.0000 IDamp=-1.
 RMSDP=9.41D-04 MaxDP=1.09D-02              OVMax= 3.42D-02

 Cycle   2  Pass 1  IDiag  1:
 E= -95.6474748395732     Delta-E=       -0.005142316700 Rises=F Damp=F
 DIIS: error= 1.17D-03 at cycle   2 NSaved=   2.
 NSaved= 2 IEnMin= 2 EnMin= -95.6474748395732     IErMin= 2 ErrMin= 1.17D-03
 ErrMax= 1.17D-03  0.00D+00 EMaxC= 1.00D-01 BMatC= 4.16D-04 BMatP= 1.38D-02
 IDIUse=3 WtCom= 9.88D-01 WtEn= 1.17D-02
 Coeff-Com: -0.945D-01 0.109D+01
 Coeff-En:   0.000D+00 0.100D+01
 Coeff:     -0.934D-01 0.109D+01
 Gap=     0.170 Goal=   None    Shift=    0.000
 Gap=     0.170 Goal=   None    Shift=    0.000
 RMSDP=3.13D-04 MaxDP=3.50D-03 DE=-5.14D-03 OVMax= 1.70D-02

 Cycle   3  Pass 1  IDiag  1:
 E= -95.6478529074756     Delta-E=       -0.000378067902 Rises=F Damp=F
 DIIS: error= 7.80D-04 at cycle   3 NSaved=   3.
 NSaved= 3 IEnMin= 3 EnMin= -95.6478529074756     IErMin= 3 ErrMin= 7.80D-04
 ErrMax= 7.80D-04  0.00D+00 EMaxC= 1.00D-01 BMatC= 1.03D-04 BMatP= 4.16D-04
 IDIUse=3 WtCom= 9.92D-01 WtEn= 7.80D-03
 Coeff-Com: -0.463D-01 0.266D+00 0.781D+00
 Coeff-En:   0.000D+00 0.000D+00 0.100D+01
 Coeff:     -0.459D-01 0.264D+00 0.782D+00
 Gap=     0.170 Goal=   None    Shift=    0.000
 Gap=     0.170 Goal=   None    Shift=    0.000
 RMSDP=1.04D-04 MaxDP=1.60D-03 DE=-3.78D-04 OVMax= 8.07D-03

 Cycle   4  Pass 1  IDiag  1:
 E= -95.6478709087163     Delta-E=       -0.000018001241 Rises=F Damp=F
 DIIS: error= 9.17D-04 at cycle   4 NSaved=   4.
 NSaved= 4 IEnMin= 4 EnMin= -95.6478709087163     IErMin= 3 ErrMin= 7.80D-04
 ErrMax= 9.17D-04  0.00D+00 EMaxC= 1.00D-01 BMatC= 1.83D-04 BMatP= 1.03D-04
 IDIUse=3 WtCom= 2.48D-01 WtEn= 7.52D-01
 Coeff-Com: -0.150D-01-0.154D-02 0.620D+00 0.397D+00
 Coeff-En:   0.000D+00 0.000D+00 0.367D+00 0.633D+00
 Coeff:     -0.373D-02-0.381D-03 0.430D+00 0.574D+00
 Gap=     0.171 Goal=   None    Shift=    0.000
 Gap=     0.171 Goal=   None    Shift=    0.000
 RMSDP=1.24D-04 MaxDP=1.88D-03 DE=-1.80D-05 OVMax= 1.22D-02

 Cycle   5  Pass 1  IDiag  1:
 E= -95.6478669246101     Delta-E=        0.000003984106 Rises=F Damp=F
 DIIS: error= 1.51D-03 at cycle   5 NSaved=   5.
 NSaved= 5 IEnMin= 4 EnMin= -95.6478709087163     IErMin= 3 ErrMin= 7.80D-04
 ErrMax= 1.51D-03  0.00D+00 EMaxC= 1.00D-01 BMatC= 2.69D-04 BMatP= 1.03D-04
 IDIUse=3 WtCom= 2.05D-01 WtEn= 7.95D-01
 Coeff-Com:  0.166D-01-0.143D+00-0.397D+00 0.764D+00 0.758D+00
 Coeff-En:   0.000D+00 0.000D+00 0.000D+00 0.511D+00 0.489D+00
 Coeff:      0.339D-02-0.292D-01-0.811D-01 0.563D+00 0.544D+00
 Gap=     0.170 Goal=   None    Shift=    0.000
 Gap=     0.170 Goal=   None    Shift=    0.000
 RMSDP=7.74D-05 MaxDP=1.38D-03 DE= 3.98D-06 OVMax= 6.01D-03

 Cycle   6  Pass 1  IDiag  1:
 E= -95.6479506803710     Delta-E=       -0.000083755761 Rises=F Damp=F
 DIIS: error= 2.55D-04 at cycle   6 NSaved=   6.
 NSaved= 6 IEnMin= 6 EnMin= -95.6479506803710     IErMin= 6 ErrMin= 2.55D-04
 ErrMax= 2.55D-04  0.00D+00 EMaxC= 1.00D-01 BMatC= 7.78D-06 BMatP= 1.03D-04
 IDIUse=3 WtCom= 9.97D-01 WtEn= 2.55D-03
 Coeff-Com: -0.396D-03 0.137D-01-0.618D-01-0.530D+00-0.150D+00 0.173D+01
 Coeff-En:   0.000D+00 0.000D+00 0.000D+00 0.000D+00 0.000D+00 0.100D+01
 Coeff:     -0.395D-03 0.137D-01-0.617D-01-0.529D+00-0.150D+00 0.173D+01
 Gap=     0.171 Goal=   None    Shift=    0.000
 Gap=     0.171 Goal=   None    Shift=    0.000
 RMSDP=5.56D-05 MaxDP=6.96D-04 DE=-8.38D-05 OVMax= 4.56D-03

 Cycle   7  Pass 1  IDiag  1:
 E= -95.6479588457142     Delta-E=       -0.000008165343 Rises=F Damp=F
 DIIS: error= 2.19D-05 at cycle   7 NSaved=   7.
 NSaved= 7 IEnMin= 7 EnMin= -95.6479588457142     IErMin= 7 ErrMin= 2.19D-05
 ErrMax= 2.19D-05  0.00D+00 EMaxC= 1.00D-01 BMatC= 9.97D-08 BMatP= 7.78D-06
 IDIUse=1 WtCom= 1.00D+00 WtEn= 0.00D+00
 Coeff-Com: -0.148D-02 0.166D-01 0.134D-01-0.244D+00-0.112D+00 0.589D+00
 Coeff-Com:  0.739D+00
 Coeff:     -0.148D-02 0.166D-01 0.134D-01-0.244D+00-0.112D+00 0.589D+00
 Coeff:      0.739D+00
 Gap=     0.171 Goal=   None    Shift=    0.000
 Gap=     0.171 Goal=   None    Shift=    0.000
 RMSDP=4.05D-06 MaxDP=5.81D-05 DE=-8.17D-06 OVMax= 2.26D-04

 Cycle   8  Pass 1  IDiag  1:
 E= -95.6479588907913     Delta-E=       -0.000000045077 Rises=F Damp=F
 DIIS: error= 6.01D-06 at cycle   8 NSaved=   8.
 NSaved= 8 IEnMin= 8 EnMin= -95.6479588907913     IErMin= 8 ErrMin= 6.01D-06
 ErrMax= 6.01D-06  0.00D+00 EMaxC= 1.00D-01 BMatC= 7.71D-09 BMatP= 9.97D-08
 IDIUse=1 WtCom= 1.00D+00 WtEn= 0.00D+00
 Coeff-Com: -0.289D-03 0.285D-02 0.874D-02-0.183D-01-0.134D-01 0.106D-01
 Coeff-Com:  0.185D+00 0.824D+00
 Coeff:     -0.289D-03 0.285D-02 0.874D-02-0.183D-01-0.134D-01 0.106D-01
 Coeff:      0.185D+00 0.824D+00
 Gap=     0.171 Goal=   None    Shift=    0.000
 Gap=     0.171 Goal=   None    Shift=    0.000
 RMSDP=1.09D-06 MaxDP=9.94D-06 DE=-4.51D-08 OVMax= 6.32D-05

 Cycle   9  Pass 1  IDiag  1:
 E= -95.6479588936823     Delta-E=       -0.000000002891 Rises=F Damp=F
 DIIS: error= 4.39D-06 at cycle   9 NSaved=   9.
 NSaved= 9 IEnMin= 9 EnMin= -95.6479588936823     IErMin= 9 ErrMin= 4.39D-06
 ErrMax= 4.39D-06  0.00D+00 EMaxC= 1.00D-01 BMatC= 2.32D-09 BMatP= 7.71D-09
 IDIUse=1 WtCom= 1.00D+00 WtEn= 0.00D+00
 Coeff-Com:  0.902D-04-0.104D-02-0.892D-05 0.162D-01 0.390D-02-0.441D-01
 Coeff-Com: -0.406D-01 0.832D-01 0.982D+00
 Coeff:      0.902D-04-0.104D-02-0.892D-05 0.162D-01 0.390D-02-0.441D-01
 Coeff:     -0.406D-01 0.832D-01 0.982D+00
 Gap=     0.171 Goal=   None    Shift=    0.000
 Gap=     0.171 Goal=   None    Shift=    0.000
 RMSDP=5.09D-07 MaxDP=6.93D-06 DE=-2.89D-09 OVMax= 3.48D-05

 Cycle  10  Pass 1  IDiag  1:
 E= -95.6479588946447     Delta-E=       -0.000000000962 Rises=F Damp=F
 DIIS: error= 4.04D-07 at cycle  10 NSaved=  10.
 NSaved=10 IEnMin=10 EnMin= -95.6479588946447     IErMin=10 ErrMin= 4.04D-07
 ErrMax= 4.04D-07  0.00D+00 EMaxC= 1.00D-01 BMatC= 3.19D-11 BMatP= 2.32D-09
 IDIUse=1 WtCom= 1.00D+00 WtEn= 0.00D+00
 Coeff-Com:  0.192D-04-0.194D-03-0.328D-03 0.190D-02 0.804D-03-0.229D-02
 Coeff-Com: -0.910D-02-0.320D-01 0.274D-01 0.101D+01
 Coeff:      0.192D-04-0.194D-03-0.328D-03 0.190D-02 0.804D-03-0.229D-02
 Coeff:     -0.910D-02-0.320D-01 0.274D-01 0.101D+01
 Gap=     0.171 Goal=   None    Shift=    0.000
 Gap=     0.171 Goal=   None    Shift=    0.000
 RMSDP=6.44D-08 MaxDP=7.04D-07 DE=-9.62D-10 OVMax= 3.73D-06

 Cycle  11  Pass 1  IDiag  1:
 E= -95.6479588946580     Delta-E=       -0.000000000013 Rises=F Damp=F
 DIIS: error= 1.05D-07 at cycle  11 NSaved=  11.
 NSaved=11 IEnMin=11 EnMin= -95.6479588946580     IErMin=11 ErrMin= 1.05D-07
 ErrMax= 1.05D-07  0.00D+00 EMaxC= 1.00D-01 BMatC= 1.55D-12 BMatP= 3.19D-11
 IDIUse=1 WtCom= 1.00D+00 WtEn= 0.00D+00
 Coeff-Com: -0.255D-05 0.306D-04 0.169D-04-0.563D-03-0.116D-03 0.141D-02
 Coeff-Com:  0.129D-02-0.355D-02-0.266D-01 0.217D-01 0.101D+01
 Coeff:     -0.255D-05 0.306D-04 0.169D-04-0.563D-03-0.116D-03 0.141D-02
 Coeff:      0.129D-02-0.355D-02-0.266D-01 0.217D-01 0.101D+01
 Gap=     0.171 Goal=   None    Shift=    0.000
 Gap=     0.171 Goal=   None    Shift=    0.000
 RMSDP=9.68D-09 MaxDP=1.27D-07 DE=-1.34D-11 OVMax= 5.29D-07

 SCF Done:  E(UM062X) =  -95.6479588947     A.U. after   11 cycles
            NFock= 11  Conv=0.97D-08     -V/T= 2.0066
 <Sx>= 0.0000 <Sy>= 0.0000 <Sz>= 0.0000 <S**2>=-0.0000 S=-0.0000
 <L.S>=  0.00000000000    
 KE= 9.501831773320D+01 PE=-2.841670788163D+02 EE= 6.259325470351D+01
 Annihilation of the first spin contaminant:
 S**2 before annihilation    -0.0000,   after     0.0000
 Leave Link  502 at Mon Apr 21 18:11:54 2025, MaxMem=   536870912 cpu:              74.3 elap:               9.7
 (Enter /home/szhao/Apps/g16/l701.exe)
 ... and contract with generalized density number  0.
 Compute integral first derivatives.
 Leave Link  701 at Mon Apr 21 18:11:54 2025, MaxMem=   536870912 cpu:               0.9 elap:               0.1
 (Enter /home/szhao/Apps/g16/l702.exe)
 L702 exits ... SP integral derivatives will be done elsewhere.
 Leave Link  702 at Mon Apr 21 18:11:54 2025, MaxMem=   536870912 cpu:               0.4 elap:               0.1
 (Enter /home/szhao/Apps/g16/l703.exe)
 Integral derivatives from FoFJK, PRISM(SPDF).
 Compute integral first derivatives, UseDBF=F ICtDFT=           0.
 Calling FoFJK, ICntrl=      2127 FMM=F ISym2X=0 I1Cent= 0 IOpClX= 1 NMat=1 NMatS=1 NMatT=0.
 FoFJK:  IHMeth= 1 ICntrl=    2127 DoSepK=F KAlg= 0 I1Cent=           0 FoldK=F
 IRaf=         0 NMat=       1 IRICut=       1 DoRegI=T DoRafI=F ISym2E= 0 IDoP0=0 IntGTp=1.
 FoFCou: FMM=F IPFlag=           0 FMFlag=      100000 FMFlg1=         800
         NFxFlg=           0 DoJE=F BraDBF=F KetDBF=F FulRan=T
         wScrn=  0.000000 ICntrl=      2127 IOpCl=  1 I1Cent=           0 NGrid=           0
         NMat0=    1 NMatS0=      1 NMatT0=    0 NMatD0=    1 NMtDS0=    0 NMtDT0=    0
 Symmetry not used in FoFCou.
 Leave Link  703 at Mon Apr 21 18:11:56 2025, MaxMem=   536870912 cpu:              11.9 elap:               1.5
 (Enter /home/szhao/Apps/g16/l716.exe)
 Dipole        =-8.12387762D-01-3.24839683D-01 5.48695753D-01
 -------------------------------------------------------------------
 Center     Atomic                   Forces (Hartrees/Bohr)
 Number     Number              X              Y              Z
 -------------------------------------------------------------------
      1        6          -0.000000000   -0.000000000   -0.000000000
      2        7          -0.000000000   -0.000000000   -0.000000000
      3        1          -0.007131471   -0.004683100    0.002787045
      4        1           0.013407858   -0.000559748    0.000807941
      5        1          -0.007136959   -0.000185983    0.005448111
      6        1           0.013407300   -0.000440404    0.000880008
      7        1           0.012417215   -0.000132817    0.000221185
 -------------------------------------------------------------------
 Cartesian Forces:  Max     0.013407858 RMS     0.005677542
 Leave Link  716 at Mon Apr 21 18:11:56 2025, MaxMem=   536870912 cpu:               0.4 elap:               0.1
 (Enter /home/szhao/Apps/g16/l103.exe)

 GradGradGradGradGradGradGradGradGradGradGradGradGradGradGradGradGradGrad
 Berny optimization.
 Using GEDIIS/GDIIS optimizer.
 FormGI is forming the generalized inverse of G from B-inverse, IUseBI=4.
 Internal  Forces:  Max     0.039232372 RMS     0.011876900
 Search for a local minimum.
 Step number   2 out of a maximum of   36
 All quantities printed in internal units (Hartrees-Bohrs-Radians)
 RMS Force = .93124D-02 SwitMx=.10000D-02 MixMth= 1
 Mixed Optimization -- RFO/linear search
 Update second derivatives using D2CorX and points    1    2
 DE= -1.73D-02 DEPred=-1.33D-02 R= 1.30D+00
 TightC=F SS=  1.41D+00  RLast= 3.66D-01 DXNew= 5.0454D-01 1.0985D+00
 Trust test= 1.30D+00 RLast= 3.66D-01 DXMaxT set to 5.05D-01
 ITU=  1  0
 Use linear search instead of GDIIS.
     Eigenvalues ---    0.00230   0.04360   0.07705   0.07925   0.08537
     Eigenvalues ---    0.16000   0.16000   0.16000   0.16473   0.33902
     Eigenvalues ---    0.34689   0.34833   0.45510   0.457061000.00000
     Eigenvalues --- 1000.000001000.000001000.000001000.000001000.00000
     Eigenvalues --- 1000.000001000.000001000.000001000.000001000.00000
     Eigenvalues --- 1000.00000
 RFO step:  Lambda=-1.93257682D-03 EMin= 2.29999999D-03
 Quartic linear search produced a step of  1.29024.
 Iteration  1 RMS(Cart)=  0.16024746 RMS(Int)=  0.02722318
 Iteration  2 RMS(Cart)=  0.01621978 RMS(Int)=  0.02211056
 Iteration  3 RMS(Cart)=  0.00072365 RMS(Int)=  0.02210764
 Iteration  4 RMS(Cart)=  0.00010214 RMS(Int)=  0.02210758
 Iteration  5 RMS(Cart)=  0.00001452 RMS(Int)=  0.02210758
 Iteration  6 RMS(Cart)=  0.00000207 RMS(Int)=  0.02210758
 Iteration  7 RMS(Cart)=  0.00000029 RMS(Int)=  0.02210758
 ITry= 1 IFail=0 DXMaxC= 3.67D-01 DCOld= 1.00D+10 DXMaxT= 5.05D-01 DXLimC= 3.00D+00 Rises=F
 Variable       Old X    -DE/DX   Delta X   Delta X   Delta X     New X
                                 (Linear)    (Quad)   (Total)
    X1       -2.75058   0.03923   0.00000   0.00000   0.00000  -2.75058
    Y1        0.00000   0.00096   0.00000   0.00000   0.00000   0.00000
    Z1        0.00000  -0.00162   0.00000   0.00000   0.00000   0.00000
    X2        2.75058  -0.01427   0.00000   0.00000   0.00000   2.75058
    Y2        0.00000  -0.00696   0.00000   0.00000   0.00000   0.00000
    Z2        0.00000   0.01177   0.00000   0.00000   0.00000   0.00000
    R1        2.05835  -0.00350  -0.00448  -0.01820  -0.02268   2.03567
    R2        2.05835  -0.00350  -0.00448  -0.01820  -0.02268   2.03567
    R3        2.06131  -0.00394  -0.01616  -0.00710  -0.02325   2.03806
    R4        1.92856   0.00298   0.01895  -0.00756   0.01139   1.93996
    R5        1.92856   0.00299   0.01895  -0.00754   0.01141   1.93997
    A1        1.79284  -0.01631  -0.14365  -0.02174  -0.17976   1.61308
    A2        1.79285  -0.01631  -0.14363  -0.02177  -0.17977   1.61308
    A3        1.91447  -0.01372  -0.11955  -0.02363  -0.15743   1.75705
    A4        1.97822   0.01238   0.13931   0.00543   0.09526   2.07348
    A5        1.98201   0.01284   0.12295   0.02453   0.10167   2.08368
    A6        1.98201   0.01284   0.12296   0.02447   0.10162   2.08363
    A7        1.82004  -0.01425  -0.14958  -0.03732  -0.19105   1.62899
    A8        1.82000  -0.01426  -0.14963  -0.03742  -0.19121   1.62879
    A9        1.82519   0.00427  -0.05716   0.08402  -0.03009   1.79510
    D1        3.06802  -0.00344  -0.11913   0.03713  -0.06552   3.00250
    D2        1.15801   0.00215   0.09427  -0.02781   0.04514   1.20315
    D3       -1.15800  -0.00215  -0.09427   0.02677  -0.04618  -1.20418
    D4       -3.06801   0.00344   0.11913  -0.03818   0.06448  -3.00352
    D5        0.95502  -0.00280  -0.10669   0.03191  -0.05588   0.89914
    D6       -0.95499   0.00279   0.10671  -0.03304   0.05478  -0.90021
         Item               Value     Threshold  Converged?
 Maximum Force            0.016310     0.000450     NO 
 RMS     Force            0.009312     0.000300     NO 
 Maximum Displacement     0.367277     0.001800     NO 
 RMS     Displacement     0.160680     0.001200     NO 
 Predicted change in Energy=-1.266469D-02
 Lowest energy point so far.  Saving SCF results.
 GradGradGradGradGradGradGradGradGradGradGradGradGradGradGradGradGradGrad

 Leave Link  103 at Mon Apr 21 18:11:56 2025, MaxMem=   536870912 cpu:               0.5 elap:               0.1
 (Enter /home/szhao/Apps/g16/l202.exe)
                          Input orientation:                          
 ---------------------------------------------------------------------
 Center     Atomic      Atomic             Coordinates (Angstroms)
 Number     Number       Type             X           Y           Z
 ---------------------------------------------------------------------
      1          6           0       -1.455542    0.000000    0.000000
      2          7           0        1.455542    0.000000    0.000000
      3          1           0        1.515245   -1.015340    0.139241
      4          1           0       -1.501074    1.076261    0.003020
      5          1           0        1.515047    0.365669    0.957405
      6          1           0       -1.501075   -0.518733   -0.943008
      7          1           0       -1.655253   -0.540690    0.911547
 ---------------------------------------------------------------------
                    Distance matrix (angstroms):
                    1          2          3          4          5
     1  C    0.000000
     2  N    2.911084   0.000000
     3  H    3.142591   1.026581   0.000000
     4  H    1.077228   3.146414   3.673081   0.000000
     5  H    3.142410   1.026586   1.605172   3.242341   0.000000
     6  H    1.077229   3.146416   3.242848   1.854448   3.672973
     7  H    1.078493   3.286382   3.297545   1.861108   3.297634
                    6          7
     6  H    0.000000
     7  H    1.861082   0.000000
 Symmetry turned off by external request.
 Stoichiometry    CH5N
 Framework group  C1[X(CH5N)]
 Deg. of freedom    15
 Full point group                 C1      NOp   1
 Rotational constants (GHZ):          92.1486147           7.2747550           7.2147034
 Leave Link  202 at Mon Apr 21 18:11:56 2025, MaxMem=   536870912 cpu:               0.1 elap:               0.0
 (Enter /home/szhao/Apps/g16/l301.exe)
 Standard basis: 6-311+G(d,p) (5D, 7F)
 Ernie: Thresh=  0.10000D-02 Tol=  0.10000D-05 Strict=F.
    74 basis functions,   112 primitive gaussians,    76 cartesian basis functions
     9 alpha electrons        9 beta electrons
       nuclear repulsion energy        31.3118882370 Hartrees.
 IExCor= 4336 DFT=T Ex+Corr=M062X ExCW=0 ScaHFX=  0.540000
 ScaDFX=  1.000000  1.000000  1.000000  1.000000 ScalE2=  1.000000  1.000000
 IRadAn=      7 IRanWt=     -1 IRanGd=            0 ICorTp=0 IEmpDi=  4
 NAtoms=    7 NActive=    7 NUniq=    7 SFac= 1.00D+00 NAtFMM=   60 NAOKFM=F Big=F
 Integral buffers will be    131072 words long.
 Raffenetti 2 integral format.
 Two-electron integral symmetry is turned off.
 Leave Link  301 at Mon Apr 21 18:11:56 2025, MaxMem=   536870912 cpu:               0.6 elap:               0.1
 (Enter /home/szhao/Apps/g16/l302.exe)
 NPDir=0 NMtPBC=     1 NCelOv=     1 NCel=       1 NClECP=     1 NCelD=      1
         NCelK=      1 NCelE2=     1 NClLst=     1 CellRange=     0.0.
 One-electron integrals computed using PRISM.
 NBasis=    74 RedAO= T EigKep=  2.80D-03  NBF=    74
 NBsUse=    74 1.00D-06 EigRej= -1.00D+00 NBFU=    74
 Precomputing XC quadrature grid using
 IXCGrd= 4 IRadAn=           7 IRanWt=          -1 IRanGd=           0 AccXCQ= 0.00D+00.
 Generated NRdTot=       0 NPtTot=           0 NUsed=           0 NTot=          32
 NSgBfM=    76    76    76    76    76 MxSgAt=     7 MxSgA2=     7.
 Leave Link  302 at Mon Apr 21 18:11:57 2025, MaxMem=   536870912 cpu:               1.4 elap:               0.3
 (Enter /home/szhao/Apps/g16/l303.exe)
 DipDrv:  MaxL=1.
 Leave Link  303 at Mon Apr 21 18:11:57 2025, MaxMem=   536870912 cpu:               0.5 elap:               0.1
 (Enter /home/szhao/Apps/g16/l401.exe)
 Initial guess from the checkpoint file:  "opt.chk"
 B after Tr=     0.019218   -0.009177    0.015565
         Rot=    0.999987   -0.000318    0.004323    0.002548 Ang=  -0.58 deg.
 Guess basis will be translated and rotated to current coordinates.
 JPrj=2 DoOrth=T DoCkMO=T.
 Initial guess <Sx>= 0.0000 <Sy>= 0.0000 <Sz>= 0.0000 <S**2>= 0.0000 S= 0.0000
 Generating alternative initial guess.
 ExpMin= 4.38D-02 ExpMax= 6.29D+03 ExpMxC= 9.49D+02 IAcc=3 IRadAn=         5 AccDes= 0.00D+00
 Harris functional with IExCor= 1009 and IRadAn=       5 diagonalized for initial guess.
 HarFok:  IExCor= 1009 AccDes= 0.00D+00 IRadAn=         5 IDoV= 1 UseB2=F ITyADJ=14
 ICtDFT=  3500011 ScaDFX=  1.000000  1.000000  1.000000  1.000000
 FoFCou: FMM=F IPFlag=           0 FMFlag=      100000 FMFlg1=           0
         NFxFlg=           0 DoJE=T BraDBF=F KetDBF=T FulRan=T
         wScrn=  0.000000 ICntrl=       500 IOpCl=  0 I1Cent=   200000004 NGrid=           0
         NMat0=    1 NMatS0=      1 NMatT0=    0 NMatD0=    1 NMtDS0=    0 NMtDT0=    0
 Symmetry not used in FoFCou.
 Harris En= -95.6667903198203    
 Leave Link  401 at Mon Apr 21 18:11:58 2025, MaxMem=   536870912 cpu:               2.7 elap:               0.4
 (Enter /home/szhao/Apps/g16/l502.exe)
 Keep R1 and R2 ints in memory in canonical form, NReq=14944651.
 FoFCou: FMM=F IPFlag=           0 FMFlag=           0 FMFlg1=           0
         NFxFlg=           0 DoJE=F BraDBF=F KetDBF=F FulRan=T
         wScrn=  0.000000 ICntrl=       600 IOpCl=  0 I1Cent=           0 NGrid=           0
         NMat0=    1 NMatS0=   2775 NMatT0=    0 NMatD0=    1 NMtDS0=    0 NMtDT0=    0
 Symmetry not used in FoFCou.
 Two-electron integral symmetry not used.
 UHF open shell SCF:
 Using DIIS extrapolation, IDIIS=  1040.
 NGot=   536870912 LenX=   529154583 LenY=   529148366
 Requested convergence on RMS density matrix=1.00D-08 within 128 cycles.
 Requested convergence on MAX density matrix=1.00D-06.
 Requested convergence on             energy=1.00D-06.
 No special actions if energy rises.

 Cycle   1  Pass 1  IDiag  1:
 E= -95.6452729672864    
 DIIS: error= 1.11D-02 at cycle   1 NSaved=   1.
 NSaved= 1 IEnMin= 1 EnMin= -95.6452729672864     IErMin= 1 ErrMin= 1.11D-02
 ErrMax= 1.11D-02  0.00D+00 EMaxC= 1.00D-01 BMatC= 3.24D-02 BMatP= 3.24D-02
 IDIUse=3 WtCom= 8.89D-01 WtEn= 1.11D-01
 Coeff-Com:  0.100D+01
 Coeff-En:   0.100D+01
 Coeff:      0.100D+01
 Recover alternate guess density for next cycle.
 RMSDP=3.55D-03 MaxDP=4.60D-02              OVMax= 0.00D+00

 Cycle   2  Pass 1  IDiag  1:
 E= -95.5406820774132     Delta-E=        0.104590889873 Rises=F Damp=F
 Switch densities from cycles 1 and 2 for lowest energy.
 DIIS: error= 5.05D-02 at cycle   2 NSaved=   2.
 NSaved= 2 IEnMin= 1 EnMin= -95.6452729672864     IErMin= 1 ErrMin= 1.11D-02
 ErrMax= 5.05D-02  0.00D+00 EMaxC= 1.00D+00 BMatC= 5.17D-01 BMatP= 3.24D-02
 IDIUse=1 WtCom= 1.00D+00 WtEn= 0.00D+00
 Coeff-Com:  0.959D+00 0.412D-01
 Coeff:      0.959D+00 0.412D-01
 Gap=     0.156 Goal=   None    Shift=    0.000
 Gap=     0.156 Goal=   None    Shift=    0.000
 RMSDP=1.38D-03 MaxDP=1.38D-02 DE= 1.05D-01 OVMax= 2.29D-01

 Cycle   3  Pass 1  IDiag  1:
 E= -95.6557605461678     Delta-E=       -0.115078468755 Rises=F Damp=F
 DIIS: error= 5.64D-03 at cycle   3 NSaved=   3.
 NSaved= 3 IEnMin= 3 EnMin= -95.6557605461678     IErMin= 3 ErrMin= 5.64D-03
 ErrMax= 5.64D-03  0.00D+00 EMaxC= 1.00D+00 BMatC= 8.18D-03 BMatP= 3.24D-02
 IDIUse=1 WtCom= 1.00D+00 WtEn= 0.00D+00
 Coeff-Com:  0.134D-01 0.905D-01 0.896D+00
 Coeff:      0.134D-01 0.905D-01 0.896D+00
 Gap=     0.173 Goal=   None    Shift=    0.000
 Gap=     0.173 Goal=   None    Shift=    0.000
 RMSDP=7.84D-04 MaxDP=1.22D-02 DE=-1.15D-01 OVMax= 6.90D-02

 Cycle   4  Pass 1  IDiag  1:
 E= -95.6557053919625     Delta-E=        0.000055154205 Rises=F Damp=F
 DIIS: error= 9.23D-03 at cycle   4 NSaved=   4.
 NSaved= 4 IEnMin= 3 EnMin= -95.6557605461678     IErMin= 3 ErrMin= 5.64D-03
 ErrMax= 9.23D-03  0.00D+00 EMaxC= 1.00D+00 BMatC= 8.93D-03 BMatP= 8.18D-03
 IDIUse=1 WtCom= 1.00D+00 WtEn= 0.00D+00
 Coeff-Com: -0.637D-01 0.332D-01 0.615D+00 0.415D+00
 Coeff:     -0.637D-01 0.332D-01 0.615D+00 0.415D+00
 Gap=     0.170 Goal=   None    Shift=    0.000
 Gap=     0.170 Goal=   None    Shift=    0.000
 RMSDP=4.40D-04 MaxDP=8.20D-03 DE= 5.52D-05 OVMax= 4.37D-02

 Cycle   5  Pass 1  IDiag  1:
 E= -95.6583863391517     Delta-E=       -0.002680947189 Rises=F Damp=F
 DIIS: error= 1.33D-03 at cycle   5 NSaved=   5.
 NSaved= 5 IEnMin= 5 EnMin= -95.6583863391517     IErMin= 5 ErrMin= 1.33D-03
 ErrMax= 1.33D-03  0.00D+00 EMaxC= 1.00D+00 BMatC= 3.41D-04 BMatP= 8.18D-03
 IDIUse=1 WtCom= 1.00D+00 WtEn= 0.00D+00
 Coeff-Com: -0.150D-01-0.243D-02-0.387D-02 0.162D+00 0.859D+00
 Coeff:     -0.150D-01-0.243D-02-0.387D-02 0.162D+00 0.859D+00
 Gap=     0.172 Goal=   None    Shift=    0.000
 Gap=     0.172 Goal=   None    Shift=    0.000
 RMSDP=1.20D-04 MaxDP=1.34D-03 DE=-2.68D-03 OVMax= 8.22D-03

 Cycle   6  Pass 1  IDiag  1:
 E= -95.6585458336184     Delta-E=       -0.000159494467 Rises=F Damp=F
 DIIS: error= 3.59D-04 at cycle   6 NSaved=   6.
 NSaved= 6 IEnMin= 6 EnMin= -95.6585458336184     IErMin= 6 ErrMin= 3.59D-04
 ErrMax= 3.59D-04  0.00D+00 EMaxC= 1.00D+00 BMatC= 1.11D-05 BMatP= 3.41D-04
 IDIUse=1 WtCom= 1.00D+00 WtEn= 0.00D+00
 Coeff-Com:  0.764D-02-0.322D-02-0.642D-01-0.657D-01-0.124D+00 0.125D+01
 Coeff:      0.764D-02-0.322D-02-0.642D-01-0.657D-01-0.124D+00 0.125D+01
 Gap=     0.172 Goal=   None    Shift=    0.000
 Gap=     0.172 Goal=   None    Shift=    0.000
 RMSDP=7.22D-05 MaxDP=8.37D-04 DE=-1.59D-04 OVMax= 6.63D-03

 Cycle   7  Pass 1  IDiag  1:
 E= -95.6585686939393     Delta-E=       -0.000022860321 Rises=F Damp=F
 DIIS: error= 1.02D-04 at cycle   7 NSaved=   7.
 NSaved= 7 IEnMin= 7 EnMin= -95.6585686939393     IErMin= 7 ErrMin= 1.02D-04
 ErrMax= 1.02D-04  0.00D+00 EMaxC= 1.00D+00 BMatC= 1.93D-06 BMatP= 1.11D-05
 IDIUse=1 WtCom= 1.00D+00 WtEn= 0.00D+00
 Coeff-Com:  0.689D-03 0.900D-03 0.211D-02-0.275D-01-0.974D-01-0.876D-01
 Coeff-Com:  0.121D+01
 Coeff:      0.689D-03 0.900D-03 0.211D-02-0.275D-01-0.974D-01-0.876D-01
 Coeff:      0.121D+01
 Gap=     0.172 Goal=   None    Shift=    0.000
 Gap=     0.172 Goal=   None    Shift=    0.000
 RMSDP=3.01D-05 MaxDP=4.45D-04 DE=-2.29D-05 OVMax= 2.74D-03

 Cycle   8  Pass 1  IDiag  1:
 E= -95.6585714718877     Delta-E=       -0.000002777948 Rises=F Damp=F
 DIIS: error= 3.38D-05 at cycle   8 NSaved=   8.
 NSaved= 8 IEnMin= 8 EnMin= -95.6585714718877     IErMin= 8 ErrMin= 3.38D-05
 ErrMax= 3.38D-05  0.00D+00 EMaxC= 1.00D+00 BMatC= 1.84D-07 BMatP= 1.93D-06
 IDIUse=1 WtCom= 1.00D+00 WtEn= 0.00D+00
 Coeff-Com: -0.375D-03 0.241D-04 0.455D-02 0.275D-02 0.161D-01-0.733D-01
 Coeff-Com: -0.165D-01 0.107D+01
 Coeff:     -0.375D-03 0.241D-04 0.455D-02 0.275D-02 0.161D-01-0.733D-01
 Coeff:     -0.165D-01 0.107D+01
 Gap=     0.172 Goal=   None    Shift=    0.000
 Gap=     0.172 Goal=   None    Shift=    0.000
 RMSDP=5.02D-06 MaxDP=7.25D-05 DE=-2.78D-06 OVMax= 2.96D-04

 Cycle   9  Pass 1  IDiag  1:
 E= -95.6585715649221     Delta-E=       -0.000000093034 Rises=F Damp=F
 DIIS: error= 7.12D-06 at cycle   9 NSaved=   9.
 NSaved= 9 IEnMin= 9 EnMin= -95.6585715649221     IErMin= 9 ErrMin= 7.12D-06
 ErrMax= 7.12D-06  0.00D+00 EMaxC= 1.00D+00 BMatC= 7.96D-09 BMatP= 1.84D-07
 IDIUse=1 WtCom= 1.00D+00 WtEn= 0.00D+00
 Coeff-Com: -0.423D-04-0.290D-04 0.287D-03 0.353D-03 0.317D-02-0.994D-02
 Coeff-Com: -0.382D-01 0.414D-01 0.100D+01
 Coeff:     -0.423D-04-0.290D-04 0.287D-03 0.353D-03 0.317D-02-0.994D-02
 Coeff:     -0.382D-01 0.414D-01 0.100D+01
 Gap=     0.172 Goal=   None    Shift=    0.000
 Gap=     0.172 Goal=   None    Shift=    0.000
 RMSDP=1.52D-06 MaxDP=2.49D-05 DE=-9.30D-08 OVMax= 1.13D-04

 Cycle  10  Pass 1  IDiag  1:
 E= -95.6585715703203     Delta-E=       -0.000000005398 Rises=F Damp=F
 DIIS: error= 9.63D-07 at cycle  10 NSaved=  10.
 NSaved=10 IEnMin=10 EnMin= -95.6585715703203     IErMin=10 ErrMin= 9.63D-07
 ErrMax= 9.63D-07  0.00D+00 EMaxC= 1.00D+00 BMatC= 2.57D-10 BMatP= 7.96D-09
 IDIUse=1 WtCom= 1.00D+00 WtEn= 0.00D+00
 Coeff-Com:  0.171D-04 0.192D-05-0.221D-03-0.163D-03-0.416D-03 0.387D-02
 Coeff-Com:  0.353D-02-0.690D-01 0.739D-01 0.988D+00
 Coeff:      0.171D-04 0.192D-05-0.221D-03-0.163D-03-0.416D-03 0.387D-02
 Coeff:      0.353D-02-0.690D-01 0.739D-01 0.988D+00
 Gap=     0.172 Goal=   None    Shift=    0.000
 Gap=     0.172 Goal=   None    Shift=    0.000
 RMSDP=2.25D-07 MaxDP=3.60D-06 DE=-5.40D-09 OVMax= 9.38D-06

 Cycle  11  Pass 1  IDiag  1:
 E= -95.6585715704432     Delta-E=       -0.000000000123 Rises=F Damp=F
 DIIS: error= 2.90D-07 at cycle  11 NSaved=  11.
 NSaved=11 IEnMin=11 EnMin= -95.6585715704432     IErMin=11 ErrMin= 2.90D-07
 ErrMax= 2.90D-07  0.00D+00 EMaxC= 1.00D+00 BMatC= 1.21D-11 BMatP= 2.57D-10
 IDIUse=1 WtCom= 1.00D+00 WtEn= 0.00D+00
 Coeff-Com: -0.127D-05-0.211D-06 0.964D-05-0.672D-05 0.475D-04-0.276D-03
 Coeff-Com:  0.653D-03 0.107D-02-0.215D-01-0.744D-01 0.109D+01
 Coeff:     -0.127D-05-0.211D-06 0.964D-05-0.672D-05 0.475D-04-0.276D-03
 Coeff:      0.653D-03 0.107D-02-0.215D-01-0.744D-01 0.109D+01
 Gap=     0.172 Goal=   None    Shift=    0.000
 Gap=     0.172 Goal=   None    Shift=    0.000
 RMSDP=4.13D-08 MaxDP=6.70D-07 DE=-1.23D-10 OVMax= 1.83D-06

 Cycle  12  Pass 1  IDiag  1:
 E= -95.6585715704476     Delta-E=       -0.000000000004 Rises=F Damp=F
 DIIS: error= 2.73D-08 at cycle  12 NSaved=  12.
 NSaved=12 IEnMin=12 EnMin= -95.6585715704476     IErMin=12 ErrMin= 2.73D-08
 ErrMax= 2.73D-08  0.00D+00 EMaxC= 1.00D+00 BMatC= 1.55D-13 BMatP= 1.21D-11
 IDIUse=1 WtCom= 1.00D+00 WtEn= 0.00D+00
 Coeff-Com:  0.176D-07 0.110D-07-0.272D-06 0.228D-05 0.968D-05-0.705D-04
 Coeff-Com: -0.284D-04 0.112D-02-0.157D-03-0.168D-01-0.179D-02 0.102D+01
 Coeff:      0.176D-07 0.110D-07-0.272D-06 0.228D-05 0.968D-05-0.705D-04
 Coeff:     -0.284D-04 0.112D-02-0.157D-03-0.168D-01-0.179D-02 0.102D+01
 Gap=     0.172 Goal=   None    Shift=    0.000
 Gap=     0.172 Goal=   None    Shift=    0.000
 RMSDP=4.75D-09 MaxDP=7.04D-08 DE=-4.38D-12 OVMax= 1.53D-07

 SCF Done:  E(UM062X) =  -95.6585715704     A.U. after   12 cycles
            NFock= 12  Conv=0.47D-08     -V/T= 2.0063
 <Sx>= 0.0000 <Sy>= 0.0000 <Sz>= 0.0000 <S**2>=-0.0000 S=-0.0000
 <L.S>=  0.00000000000    
 KE= 9.506098017283D+01 PE=-2.849958688053D+02 EE= 6.296442882503D+01
 Annihilation of the first spin contaminant:
 S**2 before annihilation    -0.0000,   after    -0.0000
 Leave Link  502 at Mon Apr 21 18:12:08 2025, MaxMem=   536870912 cpu:              78.6 elap:              10.3
 (Enter /home/szhao/Apps/g16/l701.exe)
 ... and contract with generalized density number  0.
 Compute integral first derivatives.
 Leave Link  701 at Mon Apr 21 18:12:09 2025, MaxMem=   536870912 cpu:               1.7 elap:               0.3
 (Enter /home/szhao/Apps/g16/l702.exe)
 L702 exits ... SP integral derivatives will be done elsewhere.
 Leave Link  702 at Mon Apr 21 18:12:09 2025, MaxMem=   536870912 cpu:               0.3 elap:               0.0
 (Enter /home/szhao/Apps/g16/l703.exe)
 Integral derivatives from FoFJK, PRISM(SPDF).
 Compute integral first derivatives, UseDBF=F ICtDFT=           0.
 Calling FoFJK, ICntrl=      2127 FMM=F ISym2X=0 I1Cent= 0 IOpClX= 1 NMat=1 NMatS=1 NMatT=0.
 FoFJK:  IHMeth= 1 ICntrl=    2127 DoSepK=F KAlg= 0 I1Cent=           0 FoldK=F
 IRaf=         0 NMat=       1 IRICut=       1 DoRegI=T DoRafI=F ISym2E= 0 IDoP0=0 IntGTp=1.
 FoFCou: FMM=F IPFlag=           0 FMFlag=      100000 FMFlg1=         800
         NFxFlg=           0 DoJE=F BraDBF=F KetDBF=F FulRan=T
         wScrn=  0.000000 ICntrl=      2127 IOpCl=  1 I1Cent=           0 NGrid=           0
         NMat0=    1 NMatS0=      1 NMatT0=    0 NMatD0=    1 NMtDS0=    0 NMtDT0=    0
 Symmetry not used in FoFCou.
 Leave Link  703 at Mon Apr 21 18:12:10 2025, MaxMem=   536870912 cpu:              11.5 elap:               1.5
 (Enter /home/szhao/Apps/g16/l716.exe)
 Dipole        =-1.00888829D+00-3.70936631D-01 6.26162634D-01
 -------------------------------------------------------------------
 Center     Atomic                   Forces (Hartrees/Bohr)
 Number     Number              X              Y              Z
 -------------------------------------------------------------------
      1        6          -0.000000000   -0.000000000   -0.000000000
      2        7          -0.000000000   -0.000000000   -0.000000000
      3        1          -0.001925921    0.000679111   -0.000707451
      4        1           0.000265808    0.002229464   -0.000001987
      5        1          -0.001925238    0.000297076   -0.000938490
      6        1           0.000267612   -0.001065657   -0.001958535
      7        1           0.000314063   -0.000960000    0.001621578
 -------------------------------------------------------------------
 Cartesian Forces:  Max     0.002229464 RMS     0.001048364
 Leave Link  716 at Mon Apr 21 18:12:10 2025, MaxMem=   536870912 cpu:               0.4 elap:               0.1
 (Enter /home/szhao/Apps/g16/l103.exe)

 GradGradGradGradGradGradGradGradGradGradGradGradGradGradGradGradGradGrad
 Berny optimization.
 Using GEDIIS/GDIIS optimizer.
 FormGI is forming the generalized inverse of G from B-inverse, IUseBI=4.
 Internal  Forces:  Max     0.003851159 RMS     0.001542585
 Search for a local minimum.
 Step number   3 out of a maximum of   36
 All quantities printed in internal units (Hartrees-Bohrs-Radians)
 RMS Force = .14772D-02 SwitMx=.10000D-02 MixMth= 1
 Mixed Optimization -- RFO/linear search
 Update second derivatives using D2CorX and points    2    3
 DE= -1.06D-02 DEPred=-1.27D-02 R= 8.38D-01
[...]
 RFO step:  Lambda=-7.04346697D-09.
 NNeg= 0 NGDIIS= 6 SimSw=  2.50D-01 Rises=F DC= -2.72D-07 SmlDif=  1.00D-05
 NRisDI= 0 DoIntr=F SqrtH=F CThrHd= 10.0 CDAdj=  3.0
 RMS Error=  0.6078360272D-04 NUsed= 6 OKEnD=F EnDIS=F
 InvSVX:  RCond= 7.03D-09 Info=           0 Equed=N FErr=  8.90D-13 BErr=  6.42D-17
 DIIS inversion failure, remove point   6.
 InvSVX:  RCond= 8.25D-09 Info=           0 Equed=N FErr=  3.09D-13 BErr=  4.32D-17
 DIIS inversion failure, remove point   5.
 InvSVX:  RCond= 1.94D-08 Info=           0 Equed=N FErr=  5.20D-14 BErr=  1.51D-17
 DIIS inversion failure, remove point   4.
 InvSVX:  RCond= 2.23D-07 Info=           0 Equed=N FErr=  3.52D-15 BErr=  5.35D-17
 RFO-DIIS uses    3 points instead of    6
 DidBck=F Rises=F RFO-DIIS coefs:    1.16580   -0.20494    0.03914    0.00000    0.00000
                  RFO-DIIS coefs:    0.00000
 Iteration  1 RMS(Cart)=  0.00010258 RMS(Int)=  0.00000019
 Iteration  2 RMS(Cart)=  0.00000001 RMS(Int)=  0.00000019
 ITry= 1 IFail=0 DXMaxC= 3.48D-04 DCOld= 1.00D+10 DXMaxT= 8.49D-01 DXLimC= 3.00D+00 Rises=F
 Variable       Old X    -DE/DX   Delta X   Delta X   Delta X     New X
                                 (Linear)    (Quad)   (Total)
    X1       -2.75058   0.00001   0.00000   0.00000   0.00000  -2.75058
    Y1        0.00000   0.00001   0.00000   0.00000   0.00000   0.00000
    Z1        0.00000  -0.00001   0.00000   0.00000   0.00000   0.00000
    X2        2.75058   0.00001   0.00000   0.00000   0.00000   2.75058
    Y2        0.00000   0.00002   0.00000   0.00000   0.00000   0.00000
    Z2        0.00000  -0.00004   0.00000   0.00000   0.00000   0.00000
    R1        2.04141   0.00002   0.00002   0.00002   0.00004   2.04145
    R2        2.04141   0.00002   0.00002   0.00002   0.00004   2.04145
    R3        2.04266   0.00001   0.00001   0.00003   0.00003   2.04269
    R4        1.93784  -0.00002  -0.00002  -0.00004  -0.00005   1.93779
    R5        1.93784  -0.00002  -0.00002  -0.00004  -0.00005   1.93779
    A1        1.62321  -0.00001  -0.00007   0.00004  -0.00004   1.62318
    A2        1.62312  -0.00001  -0.00007   0.00004  -0.00003   1.62308
    A3        1.72381  -0.00001  -0.00020   0.00002  -0.00017   1.72364
    A4        2.07480  -0.00000   0.00003  -0.00006  -0.00003   2.07476
    A5        2.08503   0.00001   0.00004   0.00001   0.00005   2.08508
    A6        2.08504   0.00001   0.00004   0.00002   0.00005   2.08509
    A7        1.56223   0.00001   0.00008   0.00004   0.00012   1.56235
    A8        1.56217   0.00001   0.00008   0.00004   0.00012   1.56229
    A9        1.80164   0.00001   0.00006   0.00003   0.00010   1.80173
    D1        3.00176   0.00001   0.00003   0.00006   0.00009   3.00185
    D2        1.20004  -0.00000  -0.00004   0.00003  -0.00001   1.20003
    D3       -1.20197   0.00000   0.00004   0.00001   0.00005  -1.20191
    D4       -3.00370  -0.00001  -0.00002  -0.00002  -0.00004  -3.00374
    D5        0.89989   0.00000   0.00003   0.00004   0.00007   0.89996
    D6       -0.90184  -0.00000  -0.00003   0.00000  -0.00002  -0.90186
         Item               Value     Threshold  Converged?
 Maximum Force            0.000022     0.000450     YES
 RMS     Force            0.000010     0.000300     YES
 Maximum Displacement     0.000348     0.001800     YES
 RMS     Displacement     0.000103     0.001200     YES
 Predicted change in Energy=-4.830540D-09
 Optimization completed.
    -- Stationary point found.
                           ----------------------------
                           !   Optimized Parameters   !
                           ! (Angstroms and Degrees)  !
 --------------------------                            --------------------------
 ! Name  Definition              Value          Derivative Info.                !
 --------------------------------------------------------------------------------
 ! X1    R(1,-1)                -1.4555         -DE/DX =    0.0                 !
 ! Y1    R(1,-2)                 0.0            -DE/DX =    0.0                 !
 ! Z1    R(1,-3)                 0.0            -DE/DX =    0.0                 !
 ! X2    R(2,-1)                 1.4555         -DE/DX =    0.0                 !
 ! Y2    R(2,-2)                 0.0            -DE/DX =    0.0                 !
 ! Z2    R(2,-3)                 0.0            -DE/DX =    0.0                 !
 ! R1    R(1,4)                  1.0803         -DE/DX =    0.0                 !
 ! R2    R(1,6)                  1.0803         -DE/DX =    0.0                 !
 ! R3    R(1,7)                  1.0809         -DE/DX =    0.0                 !
 ! R4    R(2,3)                  1.0255         -DE/DX =    0.0                 !
 ! R5    R(2,5)                  1.0255         -DE/DX =    0.0                 !
 ! A1    A(2,1,4)               93.0031         -DE/DX =    0.0                 !
 ! A2    A(2,1,6)               92.9978         -DE/DX =    0.0                 !
 ! A3    A(2,1,7)               98.7673         -DE/DX =    0.0                 !
 ! A4    A(4,1,6)              118.877          -DE/DX =    0.0                 !
 ! A5    A(4,1,7)              119.4637         -DE/DX =    0.0                 !
 ! A6    A(6,1,7)              119.4639         -DE/DX =    0.0                 !
 ! A7    A(1,2,3)               89.5092         -DE/DX =    0.0                 !
 ! A8    A(1,2,5)               89.5059         -DE/DX =    0.0                 !
 ! A9    A(3,2,5)              103.2262         -DE/DX =    0.0                 !
 ! D1    D(4,1,2,3)            171.9885         -DE/DX =    0.0                 !
 ! D2    D(4,1,2,5)             68.757          -DE/DX =    0.0                 !
 ! D3    D(6,1,2,3)            -68.8676         -DE/DX =    0.0                 !
 ! D4    D(6,1,2,5)           -172.0991         -DE/DX =    0.0                 !
 ! D5    D(7,1,2,3)             51.56           -DE/DX =    0.0                 !
 ! D6    D(7,1,2,5)            -51.6715         -DE/DX =    0.0                 !
 --------------------------------------------------------------------------------
 Lowest energy point so far.  Saving SCF results.
 Largest change from initial coordinates is atom    5       0.308 Angstoms.
 GradGradGradGradGradGradGradGradGradGradGradGradGradGradGradGradGradGrad

 Leave Link  103 at Mon Apr 21 18:13:34 2025, MaxMem=   536870912 cpu:               0.8 elap:               0.1
 (Enter /home/szhao/Apps/g16/l202.exe)
                          Input orientation:                          
 ---------------------------------------------------------------------
 Center     Atomic      Atomic             Coordinates (Angstroms)
 Number     Number       Type             X           Y           Z
 ---------------------------------------------------------------------
      1          6           0       -1.455542    0.000000    0.000000
      2          7           0        1.455542    0.000000    0.000000
      3          1           0        1.446759   -1.016045    0.138380
      4          1           0       -1.512138    1.078775    0.004818
      5          1           0        1.446699    0.367264    0.957398
      6          1           0       -1.512038   -0.521164   -0.944552
      7          1           0       -1.620299   -0.545161    0.918727
 ---------------------------------------------------------------------
                    Distance matrix (angstroms):
                    1          2          3          4          5
     1  C    0.000000
     2  N    2.911084   0.000000
     3  H    3.078124   1.025463   0.000000
     4  H    1.080269   3.157674   3.627834   0.000000
     5  H    3.078067   1.025462   1.607587   3.188788   0.000000
     6  H    1.080269   3.157582   3.189377   1.860405   3.627787
     7  H    1.080927   3.256080   3.199612   1.866573   3.200077
                    6          7
     6  H    0.000000
     7  H    1.866575   0.000000
 Symmetry turned off by external request.
 Stoichiometry    CH5N
 Framework group  C1[X(CH5N)]
 Deg. of freedom    15
 Full point group                 C1      NOp   1
 Rotational constants (GHZ):          91.5939486           7.3202122           7.2597331
 Leave Link  202 at Mon Apr 21 18:13:34 2025, MaxMem=   536870912 cpu:               0.3 elap:               0.1
 (Enter /home/szhao/Apps/g16/l601.exe)
 Copying SCF densities to generalized density rwf, IOpCl= 1 IROHF=0.

 **********************************************************************

            Population analysis using the SCF density.

 **********************************************************************

 Alpha  occ. eigenvalues --  -14.75132 -10.61285  -0.90290  -0.79923  -0.52061
 Alpha  occ. eigenvalues --   -0.51922  -0.50604  -0.36011  -0.27712
 Alpha virt. eigenvalues --   -0.10416   0.01687   0.04861   0.05359   0.06819
 Alpha virt. eigenvalues --    0.10224   0.13323   0.15966   0.16706   0.17480
 Alpha virt. eigenvalues --    0.19582   0.21367   0.22230   0.30627   0.41334
 Alpha virt. eigenvalues --    0.41744   0.47089   0.54872   0.57987   0.63594
 Alpha virt. eigenvalues --    0.64209   0.66249   0.79502   0.80926   0.86216
 Alpha virt. eigenvalues --    0.92589   1.08215   1.08564   1.09461   1.27827
 Alpha virt. eigenvalues --    1.29169   1.41820   1.42213   1.46576   1.48762
 Alpha virt. eigenvalues --    1.53638   1.68070   1.77441   1.87094   1.87507
 Alpha virt. eigenvalues --    1.94699   2.02148   2.02364   2.03608   2.39826
 Alpha virt. eigenvalues --    2.43727   2.43782   2.45878   2.46030   2.55570
 Alpha virt. eigenvalues --    2.55983   2.63895   2.63982   2.68892   2.76062
 Alpha virt. eigenvalues --    2.88065   2.97036   3.12436   3.73192   3.73707
 Alpha virt. eigenvalues --    3.95859   4.31968   4.69439  23.93947  35.56663
  Beta  occ. eigenvalues --  -14.75132 -10.61285  -0.90290  -0.79923  -0.52061
  Beta  occ. eigenvalues --   -0.51922  -0.50604  -0.36011  -0.27712
  Beta virt. eigenvalues --   -0.10416   0.01687   0.04861   0.05359   0.06819
  Beta virt. eigenvalues --    0.10224   0.13323   0.15966   0.16706   0.17480
  Beta virt. eigenvalues --    0.19582   0.21367   0.22230   0.30627   0.41334
  Beta virt. eigenvalues --    0.41744   0.47089   0.54872   0.57987   0.63594
  Beta virt. eigenvalues --    0.64209   0.66249   0.79502   0.80926   0.86216
  Beta virt. eigenvalues --    0.92589   1.08215   1.08564   1.09461   1.27827
  Beta virt. eigenvalues --    1.29169   1.41820   1.42213   1.46576   1.48762
  Beta virt. eigenvalues --    1.53638   1.68070   1.77441   1.87094   1.87507
  Beta virt. eigenvalues --    1.94699   2.02148   2.02364   2.03608   2.39826
  Beta virt. eigenvalues --    2.43727   2.43782   2.45878   2.46030   2.55570
  Beta virt. eigenvalues --    2.55983   2.63895   2.63982   2.68892   2.76062
  Beta virt. eigenvalues --    2.88065   2.97036   3.12436   3.73192   3.73707
  Beta virt. eigenvalues --    3.95859   4.31968   4.69439  23.93947  35.56663
          Condensed to atoms (all electrons):
               1          2          3          4          5          6
     1  C    5.129570   0.147379  -0.006733   0.391814  -0.006734   0.391818
     2  N    0.147379   6.798396   0.336361  -0.007629   0.336360  -0.007634
     3  H   -0.006733   0.336361   0.495628   0.000324  -0.046838   0.000019
     4  H    0.391814  -0.007629   0.000324   0.460486   0.000019  -0.020273
     5  H   -0.006734   0.336360  -0.046838   0.000019   0.495633   0.000324
     6  H    0.391818  -0.007634   0.000019  -0.020273   0.000324   0.460451
     7  H    0.381119  -0.007581  -0.000039  -0.023754  -0.000040  -0.023749
               7
     1  C    0.381119
     2  N   -0.007581
     3  H   -0.000039
     4  H   -0.023754
     5  H   -0.000040
     6  H   -0.023749
     7  H    0.490767
          Atomic-Atomic Spin Densities.
               1          2          3          4          5          6
     1  C   -0.000001  -0.000000   0.000000   0.000000   0.000000   0.000000
     2  N   -0.000000   0.000001  -0.000000  -0.000000  -0.000000  -0.000000
     3  H    0.000000  -0.000000  -0.000000   0.000000   0.000000   0.000000
     4  H    0.000000  -0.000000   0.000000   0.000000   0.000000  -0.000000
     5  H    0.000000  -0.000000   0.000000   0.000000  -0.000000   0.000000
     6  H    0.000000  -0.000000   0.000000  -0.000000   0.000000   0.000000
     7  H    0.000000  -0.000000  -0.000000  -0.000000  -0.000000  -0.000000
               7
     1  C    0.000000
     2  N   -0.000000
     3  H   -0.000000
     4  H   -0.000000
     5  H   -0.000000
     6  H   -0.000000
     7  H    0.000000
 Mulliken charges and spin densities:
               1          2
     1  C   -0.428233  -0.000001
     2  N   -0.595654   0.000001
     3  H    0.221278  -0.000000
     4  H    0.199013   0.000000
     5  H    0.221276  -0.000000
     6  H    0.199043   0.000000
     7  H    0.183277   0.000000
 Sum of Mulliken charges =  -0.00000  -0.00000
 Mulliken charges and spin densities with hydrogens summed into heavy atoms:
               1          2
     1  C    0.153100  -0.000001
     2  N   -0.153100   0.000001
 Electronic spatial extent (au):  <R**2>=            190.6789
 Charge=             -0.0000 electrons
 Dipole moment (field-independent basis, Debye):
    X=             -2.6630    Y=             -0.9659    Z=              1.6314  Tot=              3.2689
 Quadrupole moment (field-independent basis, Debye-Ang):
   XX=            -15.2296   YY=            -13.3504   ZZ=            -14.1572
   XY=             -1.5620   XZ=              2.6380   YZ=              0.7355
 Traceless Quadrupole moment (field-independent basis, Debye-Ang):
   XX=             -0.9839   YY=              0.8953   ZZ=              0.0886
   XY=             -1.5620   XZ=              2.6380   YZ=              0.7355
 Octapole moment (field-independent basis, Debye-Ang**2):
  XXX=             -5.1117  YYY=              0.7946  ZZZ=             -0.5733  XYY=              0.2538
  XXY=             -2.3124  XXZ=              3.9050  XZZ=             -0.9620  YZZ=             -0.3567
  YYZ=             -0.1663  XYZ=              1.1086
 Hexadecapole moment (field-independent basis, Debye-Ang**3):
 XXXX=           -229.1474 YYYY=            -24.5399 ZZZZ=            -25.7341 XXXY=             -2.2259
 XXXZ=              3.7590 YYYX=             -2.6058 YYYZ=              0.1692 ZZZX=             -0.0368
 ZZZY=              0.9199 XXYY=            -35.8109 XXZZ=            -37.4138 YYZZ=             -8.6982
 XXYZ=              1.4599 YYXZ=             -0.1368 ZZXY=              2.7086
 N-N= 3.135675817065D+01 E-N=-2.850685793699D+02  KE= 9.505457495513D+01
                          Isotropic Fermi Contact Couplings
        Atom                 a.u.       MegaHertz       Gauss      10(-4) cm-1
     1  C(13)             -0.00000      -0.00003      -0.00001      -0.00001
     2  N(14)              0.00000       0.00000       0.00000       0.00000
     3  H(1)              -0.00000      -0.00001      -0.00001      -0.00000
     4  H(1)               0.00000       0.00001       0.00000       0.00000
     5  H(1)              -0.00000      -0.00001      -0.00001      -0.00000
     6  H(1)               0.00000       0.00001       0.00000       0.00000
     7  H(1)               0.00000       0.00001       0.00000       0.00000
 --------------------------------------------------------
       Center         ----  Spin Dipole Couplings  ----
                      3XX-RR        3YY-RR        3ZZ-RR
 --------------------------------------------------------
     1   Atom       -0.000001      0.000000      0.000000
     2   Atom        0.000002     -0.000001     -0.000001
     3   Atom       -0.000000      0.000000     -0.000000
     4   Atom        0.000000     -0.000000      0.000000
     5   Atom       -0.000000     -0.000000      0.000000
     6   Atom        0.000000      0.000000     -0.000000
     7   Atom        0.000000      0.000000     -0.000000
 --------------------------------------------------------
                        XY            XZ            YZ
 --------------------------------------------------------
     1   Atom        0.000000     -0.000000      0.000000
     2   Atom       -0.000000      0.000000     -0.000000
     3   Atom        0.000000      0.000000     -0.000000
     4   Atom       -0.000000     -0.000000     -0.000000
     5   Atom       -0.000000     -0.000000      0.000000
     6   Atom        0.000000     -0.000000     -0.000000
     7   Atom       -0.000000      0.000000      0.000000
 --------------------------------------------------------


 ---------------------------------------------------------------------------------
              Anisotropic Spin Dipole Couplings in Principal Axis System
 ---------------------------------------------------------------------------------

       Atom             a.u.   MegaHertz   Gauss  10(-4) cm-1        Axes

              Baa    -0.0000    -0.000    -0.000    -0.000  0.9982 -0.0306  0.0516
     1 C(13)  Bbb     0.0000     0.000     0.000     0.000 -0.0600 -0.5167  0.8541
              Bcc     0.0000     0.000     0.000     0.000 -0.0006  0.8556  0.5176
 
              Baa    -0.0000    -0.000    -0.000    -0.000  0.0000  0.8611  0.5084
     2 N(14)  Bbb    -0.0000    -0.000    -0.000    -0.000 -0.0398 -0.5080  0.8605
              Bcc     0.0000     0.000     0.000     0.000  0.9992 -0.0203  0.0343
 
              Baa    -0.0000    -0.000    -0.000    -0.000 -0.0452  0.1148  0.9924
     3 H(1)   Bbb    -0.0000    -0.000    -0.000    -0.000  0.9978 -0.0424  0.0504
              Bcc     0.0000     0.000     0.000     0.000  0.0479  0.9925 -0.1126
 
              Baa    -0.0000    -0.000    -0.000    -0.000  0.0009  1.0000  0.0036
     4 H(1)   Bbb     0.0000     0.000     0.000     0.000  0.9973 -0.0011  0.0728
              Bcc     0.0000     0.000     0.000     0.000 -0.0728 -0.0035  0.9973
 
              Baa    -0.0000    -0.000    -0.000    -0.000  0.0452  0.9253 -0.3765
     5 H(1)   Bbb    -0.0000    -0.000    -0.000    -0.000  0.9978 -0.0237  0.0614
              Bcc     0.0000     0.000     0.000     0.000 -0.0479  0.3785  0.9244
 
              Baa    -0.0000    -0.000    -0.000    -0.000 -0.0009  0.4823  0.8760
     6 H(1)   Bbb     0.0000     0.000     0.000     0.000  0.9974 -0.0633  0.0359
              Bcc     0.0000     0.000     0.000     0.000  0.0727  0.8737 -0.4810
 
              Baa    -0.0000    -0.000    -0.000    -0.000 -0.0671 -0.5092  0.8581
     7 H(1)   Bbb     0.0000     0.000     0.000     0.000  0.9977 -0.0342  0.0578
              Bcc     0.0000     0.000     0.000     0.000 -0.0001  0.8600  0.5103
 

 ---------------------------------------------------------------------------------

 No NMR shielding tensors so no spin-rotation constants.
 Leave Link  601 at Mon Apr 21 18:13:34 2025, MaxMem=   536870912 cpu:               1.6 elap:               0.3
 (Enter /home/szhao/Apps/g16/l9999.exe)
 1\1\GINC-NODE06\FOpt\UM062X\6-311+G(d,p)\C1H5N1\SZHAO\21-Apr-2025\0\\#
 p opt UM062X/6-311+G** nosymm int=superfine\\Title Card Required\\0,1\
 C,-1.45554223,0.,0.\N,1.45554223,0.,0.\H,1.4467586874,-1.0160452681,0.
 1383798217\H,-1.5121377466,1.0787747221,0.0048178985\H,1.4466987024,0.
 3672644599,0.9573983109\H,-1.5120380682,-0.5211639536,-0.9445515115\H,
 -1.6202992407,-0.5451606189,0.9187266728\\Version=ES64L-G16RevA.03\HF=
 -95.6588469\S2=0.\S2-1=0.\S2A=0.\RMSD=5.160e-09\RMSF=9.654e-06\Dipole=
 -1.0476876,-0.3800076,0.6418319\Quadrupole=-0.7314835,0.6656391,0.0658
 444,-1.1612872,1.9612928,0.5468488\PG=C01 [X(C1H5N1)]\\@


 THERE ARE PEOPLE SO ADDICTED TO EXAGERATING THEY
 CAN'T TELL THE TRUTH WITHOUT LYING. -- FORTUNE COOKIE
 Job cpu time:       0 days  0 hours 14 minutes 15.2 seconds.
 Elapsed time:       0 days  0 hours  1 minutes 55.8 seconds.
 File lengths (MBytes):  RWF=     22 Int=      0 D2E=      0 Chk=      2 Scr=      2
 Normal termination of Gaussian 16 at Mon Apr 21 18:13:35 2025.
