Title Card Required                                                     
FOpt      UM062X                                                      6-311+G(d,p)        
Number of atoms                            I                4
Info1-9                                    I   N=           9
          13          13           0           0           0         110
           2          18        -502
Full Title                                 C   N=           2
Title Card Required     
Route                                      C   N=           4
#p opt UM062X/6-311+G** nosymm int=superfine    
Charge                                     I                0
Multiplicity                               I                1
Number of electrons                        I               14
Number of alpha electrons                  I                7
Number of beta electrons                   I                7
Number of basis functions                  I               56
Number of independent functions            I               56
Number of point charges in /Mol/           I                0
Number of translation vectors              I                0
Atomic numbers                             I   N=           4
           6           6           1           1
Nuclear charges                            R   N=           4
  6.00000000E+00  6.00000000E+00  1.00000000E+00  1.00000000E+00
Current cartesian coordinates              R   N=          12
 -2.28208051E+00  0.00000000E+00  0.00000000E+00  2.28208051E+00  0.00000000E+00
  0.00000000E+00 -2.26230582E+00  5.93139701E-01  2.02784256E+00  2.26238262E+00
  1.90673705E+00 -9.10127832E-01
Number of symbols in /Mol/                 I                0
Force Field                                I                0
Atom Types                                 C   N=           4
                                                
Int Atom Types                             I   N=           4
           0           0           0           0
MM charges                                 R   N=           4
  0.00000000E+00  0.00000000E+00  0.00000000E+00  0.00000000E+00
Integer atomic weights                     I   N=           4
          12          12           1           1
Real atomic weights                        R   N=           4
  1.20000000E+01  1.20000000E+01  1.00782504E+00  1.00782504E+00
Atom fragment info                         I   N=           4
           0           0           0           0
Atom residue num                           I   N=           4
           0           0           0           0
Nuclear spins                              I   N=           4
           0           0           1           1
Nuclear ZEff                               R   N=           4
 -3.60000000E+00 -3.60000000E+00 -1.00000000E+00 -1.00000000E+00
Nuclear ZNuc                               R   N=           4
  6.00000000E+00  6.00000000E+00  1.00000000E+00  1.00000000E+00
Nuclear QMom                               R   N=           4
  0.00000000E+00  0.00000000E+00  0.00000000E+00  0.00000000E+00
Nuclear GFac                               R   N=           4
  0.00000000E+00  0.00000000E+00  2.79284600E+00  2.79284600E+00
MicOpt                                     I   N=           4
          -2          -2          -1          -1
Number of residues                         I                0
Number of secondary structures             I                0
Redundant internal dimensions              I   N=           4
          11           8           2           1
Redundant internal coordinate indices      I   N=          44
           1          -1           0           0           1          -2
           0           0           1          -3           0           0
           2          -1           0           0           2          -2
           0           0           2          -3           0           0
           1           3           0           0           2           4
           0           0           2           1           3           0
           1           2           4           0           3           1
           2           4
Redundant internal coordinates             R   N=          11
 -2.28208051E+00  0.00000000E+00  0.00000000E+00  2.28208051E+00  0.00000000E+00
  0.00000000E+00  2.11290113E+00  2.11290483E+00  1.56143717E+00  1.56147353E+00
 -1.73157762E+00
ZRed-IntVec                                I   N=          11
          -1          -1          -1          -1          -1          -1
           0           0           0           0           0
ZRed-FPVec                                 R   N=          11
  0.00000000E+00  0.00000000E+00  0.00000000E+00  0.00000000E+00  0.00000000E+00
  0.00000000E+00  0.00000000E+00  0.00000000E+00  0.00000000E+00  0.00000000E+00
  0.00000000E+00
ZRed-Constraint1                           R   N=          11
 -2.28208051E+00  0.00000000E+00  0.00000000E+00  2.28208051E+00  0.00000000E+00
  0.00000000E+00  2.11079913E+00  2.11070705E+00  1.67217611E+00  1.67276462E+00
 -1.65242814E+00
ZRed-Constraint2                           R   N=          11
 -2.28208051E+00  0.00000000E+00  0.00000000E+00  2.28208051E+00  0.00000000E+00
  0.00000000E+00  0.00000000E+00  0.00000000E+00  0.00000000E+00  0.00000000E+00
  0.00000000E+00
Number of contracted shells                I               20
Number of primitive shells                 I               38
Pure/Cartesian d shells                    I                0
Pure/Cartesian f shells                    I                0
Highest angular momentum                   I                2
Largest degree of contraction              I                6
Shell types                                I   N=          20
           0          -1          -1          -1          -1          -2
           0          -1          -1          -1          -1          -2
           0           0           0           1           0           0
           0           1
Number of primitives per shell             I   N=          20
           6           3           1           1           1           1
           6           3           1           1           1           1
           3           1           1           1           3           1
           1           1
Shell to atom map                          I   N=          20
           1           1           1           1           1           1
           2           2           2           2           2           2
           3           3           3           3           4           4
           4           4
Primitive exponents                        R   N=          38
  4.56324000E+03  6.82024000E+02  1.54973000E+02  4.44553000E+01  1.30290000E+01
  1.82773000E+00  2.09642000E+01  4.80331000E+00  1.45933000E+00  4.83456000E-01
  1.45585000E-01  4.38000000E-02  6.26000000E-01  4.56324000E+03  6.82024000E+02
  1.54973000E+02  4.44553000E+01  1.30290000E+01  1.82773000E+00  2.09642000E+01
  4.80331000E+00  1.45933000E+00  4.83456000E-01  1.45585000E-01  4.38000000E-02
  6.26000000E-01  3.38650000E+01  5.09479000E+00  1.15879000E+00  3.25840000E-01
  1.02741000E-01  7.50000000E-01  3.38650000E+01  5.09479000E+00  1.15879000E+00
  3.25840000E-01  1.02741000E-01  7.50000000E-01
Contraction coefficients                   R   N=          38
  1.96665025E-03  1.52306019E-02  7.61269097E-02  2.60801033E-01  6.16462078E-01
  2.21006028E-01  1.14660081E-01  9.19999648E-01 -3.03068213E-03  1.00000000E+00
  1.00000000E+00  1.00000000E+00  1.00000000E+00  1.96665025E-03  1.52306019E-02
  7.61269097E-02  2.60801033E-01  6.16462078E-01  2.21006028E-01  1.14660081E-01
  9.19999648E-01 -3.03068213E-03  1.00000000E+00  1.00000000E+00  1.00000000E+00
  1.00000000E+00  2.54938145E-02  1.90373109E-01  8.52161486E-01  1.00000000E+00
  1.00000000E+00  1.00000000E+00  2.54938145E-02  1.90373109E-01  8.52161486E-01
  1.00000000E+00  1.00000000E+00  1.00000000E+00
P(S=P) Contraction coefficients            R   N=          38
  0.00000000E+00  0.00000000E+00  0.00000000E+00  0.00000000E+00  0.00000000E+00
  0.00000000E+00  4.02486927E-02  2.37593957E-01  8.15853851E-01  1.00000000E+00
  1.00000000E+00  1.00000000E+00  0.00000000E+00  0.00000000E+00  0.00000000E+00
  0.00000000E+00  0.00000000E+00  0.00000000E+00  0.00000000E+00  4.02486927E-02
  2.37593957E-01  8.15853851E-01  1.00000000E+00  1.00000000E+00  1.00000000E+00
  0.00000000E+00  0.00000000E+00  0.00000000E+00  0.00000000E+00  0.00000000E+00
  0.00000000E+00  0.00000000E+00  0.00000000E+00  0.00000000E+00  0.00000000E+00
  0.00000000E+00  0.00000000E+00  0.00000000E+00
Coordinates of each shell                  R   N=          60
 -2.28208051E+00  0.00000000E+00  0.00000000E+00 -2.28208051E+00  0.00000000E+00
  0.00000000E+00 -2.28208051E+00  0.00000000E+00  0.00000000E+00 -2.28208051E+00
  0.00000000E+00  0.00000000E+00 -2.28208051E+00  0.00000000E+00  0.00000000E+00
 -2.28208051E+00  0.00000000E+00  0.00000000E+00  2.28208051E+00  0.00000000E+00
  0.00000000E+00  2.28208051E+00  0.00000000E+00  0.00000000E+00  2.28208051E+00
  0.00000000E+00  0.00000000E+00  2.28208051E+00  0.00000000E+00  0.00000000E+00
  2.28208051E+00  0.00000000E+00  0.00000000E+00  2.28208051E+00  0.00000000E+00
  0.00000000E+00 -2.26230582E+00  5.93139701E-01  2.02784256E+00 -2.26230582E+00
  5.93139701E-01  2.02784256E+00 -2.26230582E+00  5.93139701E-01  2.02784256E+00
 -2.26230582E+00  5.93139701E-01  2.02784256E+00  2.26238262E+00  1.90673705E+00
 -9.10127832E-01  2.26238262E+00  1.90673705E+00 -9.10127832E-01  2.26238262E+00
  1.90673705E+00 -9.10127832E-01  2.26238262E+00  1.90673705E+00 -9.10127832E-01
Num ILSW                                   I              100
ILSW                                       I   N=         100
           1           0           0           0           2           0
           0           0           0           0        4336          -1
           7           0           0           0           2           0
           0           0           0           0           1           0
           1           1           0           0           0           0
           0           0      100000           0          -1           0
           0           0           0           0           0           0
           0           0           0           1           0           0
           0 -2000000000           1           0           0           0
           0           0           4          52           0           0
           0           0          55           0           0           0
           0           0           0           4           0           1
           0           0           0           0           0           0
           0           0           0           0           0           0
           0           0           0           0           0           0
           0           0           0           0           0           0
           0           0           0           0
Num RLSW                                   I               52
RLSW                                       R   N=          52
  1.00000000E+00  1.00000000E+00  1.00000000E+00  1.00000000E+00  5.40000000E-01
  0.00000000E+00  0.00000000E+00  1.00000000E+00  0.00000000E+00  0.00000000E+00
  0.00000000E+00  0.00000000E+00  1.00000000E+00  0.00000000E+00  0.00000000E+00
  0.00000000E+00  0.00000000E+00  1.00000000E+00  0.00000000E+00  0.00000000E+00
  0.00000000E+00  0.00000000E+00  1.00000000E+00  0.00000000E+00  0.00000000E+00
  0.00000000E+00  0.00000000E+00  1.00000000E+00  0.00000000E+00  0.00000000E+00
  0.00000000E+00  0.00000000E+00  1.00000000E+00  0.00000000E+00  0.00000000E+00
  0.00000000E+00  0.00000000E+00  0.00000000E+00  1.00000000E+00  1.00000000E+00
  0.00000000E+00  1.00000000E+00  0.00000000E+00  0.00000000E+00  0.00000000E+00
  0.00000000E+00  0.00000000E+00  0.00000000E+00  0.00000000E+00  0.00000000E+00
  0.00000000E+00  0.00000000E+00
MxBond                                     I                2
NBond                                      I   N=           4
           2           2           1           1
IBond                                      I   N=           8
           2           3           1           4           1           0
           2           0
RBond                                      R   N=           8
  1.00000000E-01  1.00000000E+00  1.00000000E-01  1.00000000E+00  1.00000000E+00
  0.00000000E+00  1.00000000E+00  0.00000000E+00
Virial Ratio                               R      2.007056070275560E+00
SCF Energy                                 R     -7.697109500436295E+01
Total Energy                               R     -7.697109500436295E+01
S**2                                       R     -3.552713678800501E-15
S**2 after annihilation                    R     -1.607602939657227E-13
RMS Force                                  R      2.984003490517580E-06
RMS Density                                R      6.116895139183558E-09
Job Status                                 I                1
Nuclear derivative order                   I                1
External E-field                           R   N=          35
  0.00000000E+00  0.00000000E+00  0.00000000E+00  0.00000000E+00  0.00000000E+00
  0.00000000E+00  0.00000000E+00  0.00000000E+00  0.00000000E+00  0.00000000E+00
  0.00000000E+00  0.00000000E+00  0.00000000E+00  0.00000000E+00  0.00000000E+00
  0.00000000E+00  0.00000000E+00  0.00000000E+00  0.00000000E+00  0.00000000E+00
  0.00000000E+00  0.00000000E+00  0.00000000E+00  0.00000000E+00  0.00000000E+00
  0.00000000E+00  0.00000000E+00  0.00000000E+00  0.00000000E+00  0.00000000E+00
  0.00000000E+00  0.00000000E+00  0.00000000E+00  0.00000000E+00  0.00000000E+00
IOpCl                                      I                1
IROHF                                      I                0
Alpha Orbital Energies                     R   N=          56
 -1.06661698E+01 -1.06661085E+01 -7.46851847E-01 -6.97787935E-01 -3.93397278E-01
 -3.81578589E-01 -2.86002973E-01 -9.57467104E-02 -8.85472795E-02 -3.63253103E-02
  2.77380754E-02  6.03183521E-02  7.64628424E-02  7.65217970E-02  9.96589194E-02
  1.00536988E-01  1.03772805E-01  1.55102754E-01  1.66916953E-01  2.08200281E-01
  4.51526642E-01  4.71326303E-01  5.71335758E-01  5.73051533E-01  5.90303609E-01
  6.19639035E-01  6.31497633E-01  6.49441248E-01  7.04737899E-01  8.11949777E-01
  1.12309330E+00  1.12381057E+00  1.14913519E+00  1.16468331E+00  1.28328603E+00
  1.35135638E+00  1.36414521E+00  1.59745949E+00  1.59898091E+00  1.64618695E+00
  1.85358690E+00  1.85827679E+00  1.89004688E+00  1.90337108E+00  2.41026742E+00
  2.41334804E+00  2.49904702E+00  2.54451237E+00  2.71690840E+00  2.71744181E+00
  2.76541973E+00  2.77933150E+00  3.18860602E+00  3.19759032E+00  2.35139429E+01
  2.35490375E+01
Beta Orbital Energies                      R   N=          56
 -1.06661698E+01 -1.06661085E+01 -7.46851847E-01 -6.97787935E-01 -3.93397278E-01
 -3.81578589E-01 -2.86002973E-01 -9.57467104E-02 -8.85472795E-02 -3.63253103E-02
  2.77380754E-02  6.03183521E-02  7.64628424E-02  7.65217970E-02  9.96589194E-02
  1.00536988E-01  1.03772805E-01  1.55102754E-01  1.66916953E-01  2.08200281E-01
  4.51526642E-01  4.71326303E-01  5.71335758E-01  5.73051533E-01  5.90303609E-01
  6.19639035E-01  6.31497633E-01  6.49441248E-01  7.04737899E-01  8.11949777E-01
  1.12309330E+00  1.12381057E+00  1.14913519E+00  1.16468331E+00  1.28328603E+00
  1.35135638E+00  1.36414521E+00  1.59745949E+00  1.59898091E+00  1.64618695E+00
  1.85358690E+00  1.85827679E+00  1.89004688E+00  1.90337108E+00  2.41026742E+00
  2.41334804E+00  2.49904702E+00  2.54451237E+00  2.71690840E+00  2.71744181E+00
  2.76541973E+00  2.77933150E+00  3.18860602E+00  3.19759032E+00  2.35139429E+01
  2.35490375E+01
Alpha MO coefficients                      R   N=        3136
  4.04001900E-01  3.32769306E-01  7.62946246E-04  3.19015106E-04  1.09885208E-03
  6.72335807E-03 -1.98013324E-04  3.16928199E-04  1.02323806E-03 -2.71793412E-03
  1.99826119E-04 -5.31572656E-05  4.67056116E-06  9.09378238E-05 -1.01549575E-04
 -7.99702061E-05 -6.17748158E-04  6.64102097E-04  1.03229790E-05  3.60046192E-04
 -3.20051890E-05 -1.85731587E-05  3.93636800E-01  3.24232650E-01 -7.43886074E-04
  1.00395894E-03 -4.81426160E-04  6.53868013E-03  1.94139054E-04  9.55166110E-04
 -4.37702075E-04 -2.60670667E-03 -2.22893289E-04 -3.05182613E-05 -4.32451888E-05
 -1.17258397E-05  1.45198023E-04 -5.07510377E-04  3.50214122E-04 -1.83732993E-04
  2.10600666E-05 -5.05701494E-04 -5.04842363E-04  3.94319753E-06  2.32124745E-04
 -2.09168374E-03  1.92257682E-03  3.31446768E-05  3.94383232E-04  1.33261908E-03
  2.28564195E-04 -2.06086143E-03  1.90088182E-03 -3.04251017E-05  1.22699872E-03
 -5.80727903E-04 -3.93644624E-01 -3.24200377E-01 -7.24566175E-04 -3.21354293E-04
 -1.12556755E-03 -7.02252160E-03  1.50121153E-04 -2.31695581E-04 -7.42503210E-04
  4.24564802E-03  8.89157319E-04  1.96890495E-05  5.54233158E-05 -3.94756036E-03
 -1.68067052E-03  9.88961687E-05  2.23781529E-04 -6.35095078E-04  3.26937305E-05
 -2.66303195E-04  2.69478996E-04  8.73917285E-06  4.04009595E-01  3.32737745E-01
 -7.44169898E-04  1.07959160E-03 -5.23628926E-04  7.19492718E-03  1.55301515E-04
  7.32904013E-04 -3.34041519E-04 -4.31487149E-03  8.83638595E-04 -5.52458036E-05
  2.12252387E-05  3.94858183E-03 -1.67746263E-03 -2.45995570E-04  8.46341987E-05
  1.65990850E-06 -1.47982419E-05 -3.96514407E-04 -6.45776887E-04  3.03392019E-05
 -1.34061186E-04  1.16126692E-03 -8.11917362E-04 -1.02534331E-04 -3.42386945E-04
 -1.17605488E-03  1.40039847E-04 -1.21525846E-03  8.61641901E-04 -1.03328540E-04
  1.13704200E-03 -5.44299730E-04 -7.60304418E-02 -1.22633193E-01  1.33471413E-02
  1.50454742E-02  4.48705026E-02  3.44197047E-01  2.15551998E-02  2.29541815E-02
  6.77987008E-02  2.47447878E-01  1.72063259E-02  1.32455883E-02  2.85602899E-02
 -9.16850796E-05 -2.92452639E-03  1.39914641E-04  8.23773950E-04  7.00480305E-03
  1.15023205E-03  4.23305028E-03 -2.84200315E-04  1.25772309E-03 -7.60291593E-02
 -1.22631057E-01 -1.33455396E-02  4.34704826E-02 -1.87071408E-02  3.44191130E-01
 -2.15531111E-02  6.58303175E-02 -2.81011647E-02  2.47443683E-01 -1.72055612E-02
  3.01163658E-02 -9.17236143E-03 -8.99829072E-05  2.92390980E-03  7.07286096E-04
 -4.45108717E-04 -2.33737655E-03 -1.70994411E-04 -5.41893563E-03 -5.67769957E-03
 -1.69522028E-03  9.61283150E-02  1.14097166E-01  1.13039446E-02  1.98724955E-04
 -3.68541255E-03 -1.33793339E-02  9.61258532E-02  1.14094276E-01  1.13030599E-02
 -1.99254158E-04 -1.24279022E-02  6.17467186E-03  7.63207976E-02  1.23473627E-01
  1.01451974E-02 -1.62437734E-02 -5.75795506E-02 -3.51469038E-01  1.61448472E-02
 -2.45683706E-02 -8.69329383E-02 -2.51827536E-01  6.68492657E-03 -1.03948627E-02
 -3.32072301E-02  2.82796085E-02  1.27049397E-02  7.31825765E-04  1.52726304E-03
 -1.18328371E-02  2.19589449E-04 -4.91704523E-03  5.90117514E-03  9.69666612E-04
 -7.63221784E-02 -1.23475805E-01  1.01474545E-02  5.37426347E-02 -2.62896657E-02
  3.51475348E-01  1.61480434E-02  8.11691983E-02 -3.96587303E-02  2.51832021E-01
  6.68572982E-03  3.16795039E-02 -1.43961607E-02 -2.82794361E-02  1.27049354E-02
 -1.62618092E-03  4.72970969E-04  5.81443775E-04  5.75575198E-04 -6.70783074E-03
 -1.23974689E-02  8.10952349E-04 -1.08044477E-01 -1.36773612E-01 -2.82817735E-02
  1.20816505E-03  4.18250782E-03  1.50832470E-02  1.08046553E-01  1.36776060E-01
  2.82820730E-02  1.20755610E-03 -1.40296197E-02  6.94062395E-03 -3.49044302E-02
 -5.74130353E-02  3.27746411E-02 -5.18629995E-02 -1.44663737E-01  1.64782674E-01
  5.24829534E-02 -7.51597331E-02 -2.06063437E-01  2.60240198E-01  5.11867931E-02
 -5.59614106E-02 -1.39505520E-01  2.76035628E-02 -3.18802494E-03 -4.20083488E-03
 -1.18636474E-02 -2.27148551E-02  1.29590585E-05 -1.23495079E-02  4.90231860E-03
 -3.73698285E-03 -3.49029980E-02 -5.74106165E-02 -3.27790679E-02 -1.42384141E-01
  5.78070632E-02  1.64775688E-01 -5.24893056E-02 -2.03673382E-01  8.13853205E-02
  2.60228502E-01 -5.11903165E-02 -1.41272611E-01  5.13127286E-02  2.76030205E-02
  3.18714748E-03 -1.16422493E-02  4.77960673E-03  4.47950894E-03  2.79447743E-03
  1.57456359E-02  2.06024260E-02  2.48120949E-03 -1.01149387E-01 -1.82773804E-01
 -1.04409957E-01  2.95273684E-03  1.11928312E-03  8.36151963E-03 -1.01145073E-01
 -1.82765965E-01 -1.04405271E-01 -2.95230996E-03  6.97724548E-03 -4.74115858E-03
  4.54570622E-02  7.50032394E-02  2.43650434E-02  2.95963458E-02  1.45871220E-01
 -2.21475427E-01  3.57976836E-02  4.11885775E-02  2.08974709E-01 -3.04847173E-01
  3.49655611E-02  1.86650504E-02  1.49154096E-01 -7.30244932E-02 -6.67225003E-03
 -1.73485612E-03  7.19673244E-03  1.92435501E-02  7.75256502E-03  1.12344605E-02
  3.91495200E-03 -1.60721998E-03 -4.54577363E-02 -7.50042671E-02  2.43555566E-02
 -1.28449759E-01  7.52124902E-02  2.21477820E-01  3.57831705E-02 -1.83209869E-01
  1.08652401E-01  3.04853737E-01  3.49537867E-02 -1.23607274E-01  8.55483212E-02
  7.30241949E-02 -6.67174752E-03 -4.20782249E-03  6.09244629E-03  8.34036252E-03
 -6.36653304E-03  1.72643525E-02  1.20122228E-02  4.70486958E-03  8.81953393E-02
  1.58408723E-01  1.21132744E-01  3.06916969E-03 -2.11810596E-03 -5.61669968E-03
 -8.81998224E-02 -1.58416990E-01 -1.21135596E-01  3.06890779E-03  5.59824400E-03
 -2.16691957E-03 -1.84353386E-02 -3.10038378E-02 -1.79799280E-01 -2.36353483E-02
 -2.02079811E-02  1.02284992E-01 -2.72211003E-01 -3.31663876E-02 -2.99154489E-02
  9.94657714E-02 -2.87698653E-01 -4.50785014E-02 -3.11164344E-02  3.10188001E-02
 -3.67189909E-02 -1.06113889E-02  6.01038173E-03  3.34052433E-03 -1.47277190E-02
 -4.23994270E-03 -1.30720313E-02 -7.44225386E-03 -1.84361367E-02 -3.10052560E-02
  1.79800013E-01 -3.08285311E-02 -4.13664178E-03  1.02290023E-01  2.72211279E-01
 -4.44222920E-02 -4.76488384E-03  9.94702297E-02  2.87701470E-01 -5.32599560E-02
 -1.28407459E-02  3.10150327E-02  3.67214870E-02 -2.59851753E-03 -1.19144500E-02
  1.04949079E-02 -4.27464333E-03  3.15150575E-03 -8.94072384E-03  1.59384018E-02
 -5.26553135E-03  1.05751682E-03 -1.82310483E-02 -1.56131756E-02 -1.80131624E-03
 -1.62048145E-03 -5.26760684E-03  1.05431773E-03 -1.82347396E-02  1.56129810E-02
 -2.40906596E-03 -2.61680293E-04 -2.93803775E-03 -4.89347560E-03 -1.69088562E-02
  1.56828852E-01 -7.21569440E-02  1.26190035E-02 -2.76272073E-02  2.44773846E-01
 -1.09682720E-01  3.86363209E-02 -2.72681854E-02  2.86950308E-01 -1.03008689E-01
  5.22880723E-02 -4.01128276E-04  1.45768492E-01 -4.73954920E-02 -9.54865791E-03
  2.72514078E-03  9.32266616E-03 -5.22808779E-03  4.36034618E-03 -2.93894178E-03
 -4.89481039E-03  1.69040021E-02  5.07914985E-02  1.64979384E-01  1.26219279E-02
  2.76202536E-02  8.14629459E-02  2.55535674E-01  3.86468460E-02  2.72607863E-02
  1.14561575E-01  2.82513998E-01  5.22991110E-02  3.95397718E-04  6.18720508E-02
  1.40226907E-01 -7.10230729E-03 -1.43132179E-03  1.18486936E-02 -3.81613133E-03
 -4.93902792E-03 -1.72595499E-02 -3.40774169E-02 -5.81849350E-02  2.08075925E-03
  1.67116899E-02 -1.55719553E-03 -1.72603456E-02 -3.40801140E-02 -5.81902464E-02
 -2.08091584E-03  9.98228597E-03  1.34915640E-02  2.73109253E-03  4.61474890E-03
  2.21468583E-02  1.73993719E-01 -2.62383247E-02 -1.44332288E-02  3.20380430E-02
  2.69733571E-01 -4.39656945E-02 -2.48210087E-02  4.61865604E-02  3.08464630E-01
 -5.84875596E-02  4.71474329E-02  3.96437343E-02  1.64356409E-01 -3.01946985E-02
 -2.97807755E-03 -3.62893260E-03  1.33768022E-02 -4.95737127E-03  9.83073402E-04
 -2.73103338E-03 -4.61480388E-03  2.21454253E-02 -9.64671973E-02 -1.47173704E-01
  1.44342568E-02  3.20353671E-02 -1.47096171E-01 -2.30349067E-01  2.48202065E-02
  4.61834873E-02 -1.62101866E-01 -2.68898147E-01 -4.71535916E-02  3.96430821E-02
 -8.70950710E-02 -1.42628474E-01  9.62634923E-03  3.15196022E-03 -6.50940516E-03
  8.79604253E-03 -2.04871998E-03  1.63905371E-02  2.84132158E-02  2.02783709E-02
 -1.94809617E-03  1.55054239E-02 -6.75187250E-03 -1.63897704E-02 -2.84133183E-02
 -2.02763087E-02 -1.94775227E-03 -5.30775120E-03 -1.60584240E-02 -2.45103926E-02
 -4.07180345E-02  1.93165294E-01 -1.96851822E-02 -1.08313309E-02  1.26340781E-01
  2.94208212E-01 -2.82752746E-02 -1.17846636E-02  2.13689142E-01  3.67509906E-01
 -3.74642595E-02 -2.13850547E-02  2.47020206E-01  3.84134632E-01 -8.01778840E-02
 -6.72143725E-02  4.78048536E-03  1.45357535E-02 -1.59130349E-03 -8.61897008E-03
  5.08935455E-03  2.45106939E-02  4.07184534E-02  1.93165633E-01  2.11947063E-02
  7.45381715E-03 -1.26341708E-01  2.94208348E-01  2.76318819E-02  1.32229084E-02
 -2.13693108E-01  3.67510498E-01  4.09103389E-02  1.36737745E-02 -2.47021810E-01
  3.84138140E-01  1.03549835E-01  1.49436374E-02 -6.31308756E-03 -5.89959766E-03
  8.30252693E-06  7.73460483E-03  1.42260623E-02  5.90772178E-03 -4.05052396E-03
  1.79305378E-02  1.88296820E-02 -2.10336521E-03 -2.21956399E-03 -5.90630467E-03
  4.05396624E-03 -1.79255877E-02  1.88300637E-02  3.05623737E-03  8.82763505E-05
  2.33759671E-02  3.79703865E-02  1.27479296E-02 -3.64363930E-02 -2.32035986E-02
 -8.83012658E-02  7.20547753E-03 -5.91015152E-02 -7.14978891E-02 -5.05226699E-01
  2.86809585E-02 -9.82014598E-02 -1.42459143E-02  1.04145719E+00 -3.18587010E-02
  1.75825110E-01  5.05924575E-01 -1.06342971E-02 -2.61938328E-04 -8.46893579E-03
 -1.47277136E-04 -1.51412925E-04  2.33760745E-02  3.79705242E-02 -1.27493199E-02
 -4.15889491E-02 -1.16822853E-02 -8.83014227E-02 -7.20860496E-03 -9.26933162E-02
  3.62883068E-03 -5.05230112E-01 -2.86842997E-02 -7.60997431E-02 -6.36857071E-02
  1.04147037E+00  3.18716958E-02  4.94289368E-01 -2.06314865E-01  5.58495992E-03
 -6.13371937E-05  8.28826629E-03  9.21720016E-03  2.95236140E-04 -1.27951111E-02
  1.32133851E-01 -4.99835741E-01 -1.38956715E-03 -4.06110683E-04  1.61670234E-03
 -1.27956897E-02  1.32135764E-01 -4.99843210E-01  1.38926340E-03  9.34014989E-04
 -1.38085217E-03  2.65300836E-03  4.45586023E-03  7.20715088E-02  2.07719929E-02
 -6.29899814E-02 -6.62182588E-03  8.38770717E-02  1.78302842E-02 -8.78406000E-02
 -1.15170392E-01  2.51165976E-01  8.01621617E-02 -2.20852729E-01  1.12892500E+00
 -2.04848029E-04  1.60426584E-01  7.78669318E-01 -1.53282050E-02  2.57584340E-03
 -6.01705782E-03 -2.00113404E-03  9.73625885E-04 -2.65268301E-03 -4.45539761E-03
  7.20720118E-02  3.30901506E-02 -5.74824709E-02  6.62112343E-03  8.38780243E-02
  5.35703828E-02 -7.18596289E-02  1.15162117E-01  2.51168007E-01  1.11133305E-01
 -2.07008808E-01 -1.12891567E+00 -2.31496375E-04 -6.87258860E-01  3.99675843E-01
 -3.58256011E-03 -9.92638734E-04 -1.35208769E-02 -8.91687183E-03  2.56961253E-03
 -1.95736314E-02  1.02278066E-01 -4.48242992E-01  5.27014418E-04  1.20080172E-03
  3.33091233E-03  1.95739473E-02 -1.02276750E-01  4.48231645E-01  5.27019915E-04
 -3.28316871E-03  1.32632498E-03 -1.37944818E-02 -2.20395486E-02 -1.88903607E-02
 -7.69194606E-02 -1.05012935E-02  4.85305418E-02 -9.09324189E-03 -7.43097816E-02
  2.55477829E-03  3.26260571E-01 -9.24751669E-02 -3.17327980E-01 -5.36019005E-02
 -2.91326264E-01  2.79908884E-01  5.68606143E-01  3.62260605E-01 -3.08815671E-03
 -3.06908059E-03 -7.55611703E-03  1.83200089E-03 -2.88350892E-03 -1.37717348E-02
 -2.20015134E-02  1.86244537E-02 -5.91427650E-02 -5.04579813E-02  4.84097735E-02
  8.81809960E-03 -4.76946789E-02 -5.72146794E-02  3.25873010E-01  9.14079107E-02
 -2.51613608E-01 -2.01310632E-01 -2.95917154E-01 -2.75621956E-01  6.48848432E-01
  1.83400542E-01  5.10438335E-03  1.15339542E-04  8.90545164E-04  6.56150099E-03
  4.18775711E-03 -1.52159775E-02  1.56403981E-02 -2.74967397E-01 -1.03095700E-03
  1.70432739E-03  4.71082387E-03 -1.51799664E-02  1.56018377E-02 -2.74352007E-01
  1.02841882E-03  4.64767716E-03 -1.87127830E-03 -7.89909128E-03 -1.32366041E-02
 -9.28838229E-02  4.24480416E-02 -2.53292524E-02  4.23375242E-02 -9.61817013E-02
  4.65427591E-02 -1.86921576E-02  1.32795865E-01 -3.72433829E-01  1.66989194E-01
 -1.15759141E-01  1.60538048E+00  1.49519845E+00 -2.55519515E-01  3.53665421E-01
 -6.26456476E-03 -8.79919443E-03 -2.98292204E-04 -3.37837426E-03 -1.71170874E-03
  7.93792015E-03  1.32986391E-02 -9.29378381E-02 -9.25719296E-03 -4.83789467E-02
 -4.24742654E-02 -9.62080884E-02 -1.69659055E-02 -4.69861455E-02 -1.33712259E-01
 -3.72698447E-01 -2.43543144E-02 -2.01057814E-01 -1.60454554E+00  1.49598601E+00
 -9.50298592E-02  4.25697143E-01 -8.50785359E-04  4.59103677E-03 -7.03987056E-03
 -7.39718877E-04 -7.71066834E-03 -1.25808025E-02  1.36140196E-02 -2.12957825E-01
 -8.95526572E-04 -5.35015142E-05 -1.56244520E-04  1.26227488E-02 -1.36584396E-02
  2.13723608E-01 -8.98328576E-04  1.39050784E-04 -5.91848263E-05 -1.04697406E-02
 -1.61646420E-02  3.20429694E-02  3.64692316E-02 -2.86827754E-02  2.49656387E-02
  2.72426305E-02  3.78275149E-02 -6.24170967E-03  3.81127943E-01  1.79545468E-01
  1.63902210E-01 -1.67556459E-01  3.86158230E-02 -5.49327439E-01 -4.23459214E-01
  1.11560868E+00 -1.36019293E-02 -2.61455557E-03 -1.14431407E-03  6.70755450E-03
  3.68565570E-03 -1.04693119E-02 -1.61638428E-02 -3.20405026E-02  2.94797982E-03
  4.63120220E-02  2.49619502E-02 -2.72387343E-02  2.05777769E-02  3.23600362E-02
  3.81127285E-01 -1.79539463E-01 -1.55569050E-02  2.33910173E-01  3.83949000E-02
  5.49429931E-01  5.48875955E-01 -1.05953553E+00 -4.51286574E-03 -4.49014903E-03
  8.24662668E-03  1.19546432E-02 -5.09903215E-04 -2.58690869E-02 -1.21138933E-03
 -3.28211670E-01 -4.69486090E-03 -2.72936072E-04  9.78184773E-04 -2.58664126E-02
 -1.21539465E-03 -3.28151589E-01  4.69519028E-03  5.47337497E-04 -8.55989534E-04
  2.67853360E-03  4.71567945E-03  1.61428425E-02  7.88210616E-02 -5.80132018E-03
 -2.36808088E-02  1.03713272E-02  7.63085602E-02  5.48319235E-03  1.36032712E-02
  8.75711224E-02  3.45599040E-01 -6.15227891E-02 -2.16829240E+00 -1.17807056E+00
 -1.28095645E+00 -5.12056950E-01  5.11242944E-03  2.74411203E-03  1.05036265E-02
  7.75838001E-04  6.20460648E-03 -2.68002552E-03 -4.71805864E-03  1.61381011E-02
 -4.82345894E-02 -6.26056378E-02  2.36848904E-02  1.03669454E-02 -5.49663931E-02