 Entering Gaussian System, Link 0=g16
 Initial command:
 /home/szhao/Apps/g16/l1.exe "/home/szhao/tmp/Gau-74421.inp" -scrdir="/home/szhao/tmp/"
 Default is to use a total of  16 processors:
                               16 via shared-memory
                                1 via Linda
 Entering Link 1 = /home/szhao/Apps/g16/l1.exe PID=     74423.
  
 Copyright (c) 1988,1990,1992,1993,1995,1998,2003,2009,2016,
            Gaussian, Inc.  All Rights Reserved.
  
 This is part of the Gaussian(R) 16 program.  It is based on
 the Gaussian(R) 09 system (copyright 2009, Gaussian, Inc.),
 the Gaussian(R) 03 system (copyright 2003, Gaussian, Inc.),
 the Gaussian(R) 98 system (copyright 1998, Gaussian, Inc.),
 the Gaussian(R) 94 system (copyright 1995, Gaussian, Inc.),
 the Gaussian 92(TM) system (copyright 1992, Gaussian, Inc.),
 the Gaussian 90(TM) system (copyright 1990, Gaussian, Inc.),
 the Gaussian 88(TM) system (copyright 1988, Gaussian, Inc.),
 the Gaussian 86(TM) system (copyright 1986, Carnegie Mellon
 University), and the Gaussian 82(TM) system (copyright 1983,
 Carnegie Mellon University). Gaussian is a federally registered
 trademark of Gaussian, Inc.
  
 This software contains proprietary and confidential information,
 including trade secrets, belonging to Gaussian, Inc.
  
 This software is provided under written license and may be
 used, copied, transmitted, or stored only in accord with that
 written license.
  
 The following legend is applicable only to US Government
 contracts under FAR:
  
                    RESTRICTED RIGHTS LEGEND
  
 Use, reproduction and disclosure by the US Government is
 subject to restrictions as set forth in subparagraphs (a)
 and (c) of the Commercial Computer Software - Restricted
 Rights clause in FAR 52.227-19.
  
 Gaussian, Inc.
 340 Quinnipiac St., Bldg. 40, Wallingford CT 06492
  
  
 ---------------------------------------------------------------
 Warning -- This program may not be used in any manner that
 competes with the business of Gaussian, Inc. or will provide
 assistance to any competitor of Gaussian, Inc.  The licensee
 of this program is prohibited from giving any competitor of
 Gaussian, Inc. access to this program.  By using this program,
 the user acknowledges that Gaussian, Inc. is engaged in the
 business of creating and licensing software in the field of
 computational chemistry and represents and warrants to the
 licensee that it is not a competitor of Gaussian, Inc. and that
 it will not use this program in any manner prohibited above.
 ---------------------------------------------------------------
  

 Cite this work as:
 Gaussian 16, Revision A.03,
 M. J. Frisch, G. W. Trucks, H. B. Schlegel, G. E. Scuseria, 
 M. A. Robb, J. R. Cheeseman, G. Scalmani, V. Barone, 
 G. A. Petersson, H. Nakatsuji, X. Li, M. Caricato, A. V. Marenich, 
 J. Bloino, B. G. Janesko, R. Gomperts, B. Mennucci, H. P. Hratchian, 
 J. V. Ortiz, A. F. Izmaylov, J. L. Sonnenberg, D. Williams-Young, 
 F. Ding, F. Lipparini, F. Egidi, J. Goings, B. Peng, A. Petrone, 
 T. Henderson, D. Ranasinghe, V. G. Zakrzewski, J. Gao, N. Rega, 
 G. Zheng, W. Liang, M. Hada, M. Ehara, K. Toyota, R. Fukuda, 
 J. Hasegawa, M. Ishida, T. Nakajima, Y. Honda, O. Kitao, H. Nakai, 
 T. Vreven, K. Throssell, J. A. Montgomery, Jr., J. E. Peralta, 
 F. Ogliaro, M. J. Bearpark, J. J. Heyd, E. N. Brothers, K. N. Kudin, 
 V. N. Staroverov, T. A. Keith, R. Kobayashi, J. Normand, 
 K. Raghavachari, A. P. Rendell, J. C. Burant, S. S. Iyengar, 
 J. Tomasi, M. Cossi, J. M. Millam, M. Klene, C. Adamo, R. Cammi, 
 J. W. Ochterski, R. L. Martin, K. Morokuma, O. Farkas, 
 J. B. Foresman, and D. J. Fox, Gaussian, Inc., Wallingford CT, 2016.
 
 ******************************************
 Gaussian 16:  ES64L-G16RevA.03 25-Dec-2016
                19-Nov-2024 
 ******************************************
 %chk=opt.chk
 %mem=4GB
 %nprocshared=8
 Will use up to    8 processors via shared memory.
 ---------------------------------------
 #p UM062X/6-311+G** force int=superfine
 ---------------------------------------
 1/10=7,30=1,38=1/1,3;
 2/12=2,17=6,18=5,40=1/2;
 3/5=4,6=6,7=111,11=2,25=1,30=1,71=1,74=-55,75=-7,116=2/1,2,3;
 4//1;
 5/5=2,38=5/2;
 6/7=2,8=2,9=2,10=2,28=1/1;
 7/29=1/1,2,3,16;
 1/10=7,30=1/3;
 99//99;
 Leave Link    1 at Tue Nov 19 11:55:38 2024, MaxMem=   536870912 cpu:               0.3 elap:               0.0
 (Enter /home/szhao/Apps/g16/l101.exe)
 -------------------
 Title Card Required
 -------------------
 Symbolic Z-matrix:
 Charge =  1 Multiplicity = 2
 C                    -0.91189   0.        0. 
 C                     0.91189   0.        0. 
 H                    -1.40095  -0.96821   0. 
 H                    -1.40098   0.96815   0. 
 H                     1.40095   0.96821   0. 
 H                     1.40098  -0.96815   0. 
 
 ITRead=  0  0  0  0  0  0
 MicOpt= -1 -1 -1 -1 -1 -1
 NAtoms=      6 NQM=        6 NQMF=       0 NMMI=      0 NMMIF=      0
                NMic=       0 NMicF=      0.
                    Isotopes and Nuclear Properties:
 (Nuclear quadrupole moments (NQMom) in fm**2, nuclear magnetic moments (NMagM)
  in nuclear magnetons)

  Atom         1           2           3           4           5           6
 IAtWgt=          12          12           1           1           1           1
 AtmWgt=  12.0000000  12.0000000   1.0078250   1.0078250   1.0078250   1.0078250
 NucSpn=           0           0           1           1           1           1
 AtZEff=  -0.0000000  -0.0000000  -0.0000000  -0.0000000  -0.0000000  -0.0000000
 NQMom=    0.0000000   0.0000000   0.0000000   0.0000000   0.0000000   0.0000000
 NMagM=    0.0000000   0.0000000   2.7928460   2.7928460   2.7928460   2.7928460
 AtZNuc=   6.0000000   6.0000000   1.0000000   1.0000000   1.0000000   1.0000000
 Leave Link  101 at Tue Nov 19 11:55:38 2024, MaxMem=   536870912 cpu:               1.4 elap:               0.2
 (Enter /home/szhao/Apps/g16/l103.exe)

 GradGradGradGradGradGradGradGradGradGradGradGradGradGradGradGradGradGrad
 Berny optimization.
 Initialization pass.
 Trust Radius=3.00D-01 FncErr=1.00D-07 GrdErr=1.00D-07 EigMax=2.50D+02 EigMin=1.00D-04
 Number of steps in this run=      2 maximum allowed number of steps=      2.
 GradGradGradGradGradGradGradGradGradGradGradGradGradGradGradGradGradGrad

 Leave Link  103 at Tue Nov 19 11:55:38 2024, MaxMem=   536870912 cpu:               0.1 elap:               0.0
 (Enter /home/szhao/Apps/g16/l202.exe)
                          Input orientation:                          
 ---------------------------------------------------------------------
 Center     Atomic      Atomic             Coordinates (Angstroms)
 Number     Number       Type             X           Y           Z
 ---------------------------------------------------------------------
      1          6           0       -0.911891    0.000000    0.000000
      2          6           0        0.911891    0.000000    0.000000
      3          1           0       -1.400947   -0.968213    0.000000
      4          1           0       -1.400978    0.968149    0.000000
      5          1           0        1.400947    0.968212    0.000000
      6          1           0        1.400977   -0.968149    0.000000
 ---------------------------------------------------------------------
                    Distance matrix (angstroms):
                    1          2          3          4          5
     1  C    0.000000
     2  C    1.823782   0.000000
     3  H    1.084718   2.507320   0.000000
     4  H    1.084674   2.507324   1.936362   0.000000
     5  H    2.507320   1.084717   3.405929   2.801925   0.000000
     6  H    2.507323   1.084674   2.801924   3.405907   1.936361
                    6
     6  H    0.000000
 Stoichiometry    C2H4(1+,2)
 Framework group  C2H[SGH(C2H4)]
 Deg. of freedom     5
 Full point group                 C2H     NOp   4
 Largest Abelian subgroup         C2H     NOp   4
 Largest concise Abelian subgroup C2      NOp   2
                         Standard orientation:                         
 ---------------------------------------------------------------------
 Center     Atomic      Atomic             Coordinates (Angstroms)
 Number     Number       Type             X           Y           Z
 ---------------------------------------------------------------------
      1          6           0        0.000000    0.911891    0.000000
      2          6           0       -0.000000   -0.911891    0.000000
      3          1           0       -0.968213    1.400947    0.000000
      4          1           0        0.968149    1.400978    0.000000
      5          1           0        0.968213   -1.400947    0.000000
      6          1           0       -0.968149   -1.400978    0.000000
 ---------------------------------------------------------------------
 Rotational constants (GHZ):         133.7392716          18.1338983          15.9686820
 Leave Link  202 at Tue Nov 19 11:55:38 2024, MaxMem=   536870912 cpu:               0.0 elap:               0.0
 (Enter /home/szhao/Apps/g16/l301.exe)
 Standard basis: 6-311+G(d,p) (5D, 7F)
 Ernie: Thresh=  0.10000D-02 Tol=  0.10000D-05 Strict=F.
 There are    27 symmetry adapted cartesian basis functions of AG  symmetry.
 There are     8 symmetry adapted cartesian basis functions of BG  symmetry.
 There are     8 symmetry adapted cartesian basis functions of AU  symmetry.
 There are    27 symmetry adapted cartesian basis functions of BU  symmetry.
 There are    26 symmetry adapted basis functions of AG  symmetry.
 There are     8 symmetry adapted basis functions of BG  symmetry.
 There are     8 symmetry adapted basis functions of AU  symmetry.
 There are    26 symmetry adapted basis functions of BU  symmetry.
    68 basis functions,   104 primitive gaussians,    70 cartesian basis functions
     8 alpha electrons        7 beta electrons
       nuclear repulsion energy        28.4544170423 Hartrees.
 IExCor= 4336 DFT=T Ex+Corr=M062X ExCW=0 ScaHFX=  0.540000
 ScaDFX=  1.000000  1.000000  1.000000  1.000000 ScalE2=  1.000000  1.000000
 IRadAn=      7 IRanWt=     -1 IRanGd=            0 ICorTp=0 IEmpDi=  4
 NAtoms=    6 NActive=    6 NUniq=    3 SFac= 4.00D+00 NAtFMM=   60 NAOKFM=F Big=F
 Integral buffers will be    131072 words long.
 Raffenetti 2 integral format.
 Two-electron integral symmetry is turned on.
 Leave Link  301 at Tue Nov 19 11:55:38 2024, MaxMem=   536870912 cpu:               0.3 elap:               0.0
 (Enter /home/szhao/Apps/g16/l302.exe)
 NPDir=0 NMtPBC=     1 NCelOv=     1 NCel=       1 NClECP=     1 NCelD=      1
         NCelK=      1 NCelE2=     1 NClLst=     1 CellRange=     0.0.
 One-electron integrals computed using PRISM.
 One-electron integral symmetry used in STVInt
 NBasis=    68 RedAO= T EigKep=  8.19D-04  NBF=    26     8     8    26
 NBsUse=    68 1.00D-06 EigRej= -1.00D+00 NBFU=    26     8     8    26
 Precomputing XC quadrature grid using
 IXCGrd= 4 IRadAn=           7 IRanWt=          -1 IRanGd=           0 AccXCQ= 0.00D+00.
 Generated NRdTot=       0 NPtTot=           0 NUsed=           0 NTot=          32
 NSgBfM=    70    70    70    70    70 MxSgAt=     6 MxSgA2=     6.
 Leave Link  302 at Tue Nov 19 11:55:39 2024, MaxMem=   536870912 cpu:               1.1 elap:               0.1
 (Enter /home/szhao/Apps/g16/l303.exe)
 DipDrv:  MaxL=1.
 Leave Link  303 at Tue Nov 19 11:55:39 2024, MaxMem=   536870912 cpu:               0.3 elap:               0.0
 (Enter /home/szhao/Apps/g16/l401.exe)
 ExpMin= 4.38D-02 ExpMax= 4.56D+03 ExpMxC= 6.82D+02 IAcc=3 IRadAn=         7 AccDes= 0.00D+00
 Harris functional with IExCor= 1009 and IRadAn=       7 diagonalized for initial guess.
 HarFok:  IExCor= 1009 AccDes= 0.00D+00 IRadAn=         7 IDoV= 1 UseB2=F ITyADJ=14
 ICtDFT=  3500011 ScaDFX=  1.000000  1.000000  1.000000  1.000000
 FoFCou: FMM=F IPFlag=           0 FMFlag=      100000 FMFlg1=           0
         NFxFlg=           0 DoJE=T BraDBF=F KetDBF=T FulRan=T
         wScrn=  0.000000 ICntrl=       500 IOpCl=  0 I1Cent=   200000004 NGrid=           0
         NMat0=    1 NMatS0=      1 NMatT0=    0 NMatD0=    1 NMtDS0=    0 NMtDT0=    0
 Petite list used in FoFCou.
 Harris En= -78.1265249090496    
 JPrj=0 DoOrth=F DoCkMO=F.
 Initial guess orbital symmetries:
 Alpha Orbitals:
       Occupied  (AG) (BU) (AG) (BU) (BU) (AG) (AG) (AU)
       Virtual   (BG) (BU) (AG) (BU) (BU) (AU) (AG) (AG) (BG) (AG)
                 (BU) (BU) (BU) (AG) (BU) (AG) (BU) (AU) (AG) (BG)
                 (BU) (BU) (AG) (AG) (AG) (BU) (BG) (AU) (AU) (AG)
                 (AG) (BU) (AG) (BG) (BU) (BU) (AU) (BG) (BU) (AG)
                 (BG) (AG) (AU) (BU) (BU) (BU) (AG) (AG) (AG) (BU)
                 (AU) (BU) (AG) (BG) (AG) (BU) (BU) (AG) (BU) (AG)
 Beta  Orbitals:
       Occupied  (AG) (BU) (AG) (BU) (BU) (AG) (AG)
       Virtual   (AU) (BG) (BU) (AG) (BU) (BU) (AU) (AG) (AG) (BG)
                 (AG) (BU) (BU) (BU) (AG) (BU) (AG) (BU) (AU) (AG)
                 (BG) (BU) (BU) (AG) (AG) (AG) (BU) (BG) (AU) (AU)
                 (AG) (AG) (BU) (AG) (BG) (BU) (BU) (AU) (BG) (BU)
                 (AG) (BG) (AG) (AU) (BU) (BU) (BU) (AG) (AG) (AG)
                 (BU) (AU) (BU) (AG) (BG) (AG) (BU) (BU) (AG) (BU)
                 (AG)
 The electronic state of the initial guess is 2-AU.
 Initial guess <Sx>= 0.0000 <Sy>= 0.0000 <Sz>= 0.5000 <S**2>= 0.7500 S= 0.5000
 Leave Link  401 at Tue Nov 19 11:55:39 2024, MaxMem=   536870912 cpu:               1.4 elap:               0.2
 (Enter /home/szhao/Apps/g16/l502.exe)
 Keep R1 and R2 ints in memory in symmetry-blocked form, NReq=9935231.
 FoFCou: FMM=F IPFlag=           0 FMFlag=           0 FMFlg1=           0
         NFxFlg=           0 DoJE=F BraDBF=F KetDBF=F FulRan=T
         wScrn=  0.000000 ICntrl=       600 IOpCl=  0 I1Cent=           0 NGrid=           0
         NMat0=    1 NMatS0=   2346 NMatT0=    0 NMatD0=    1 NMtDS0=    0 NMtDT0=    0
 Petite list used in FoFCou.
 UHF open shell SCF:
 Using DIIS extrapolation, IDIIS=  1040.
 NGot=   536870912 LenX=   535358062 LenY=   535352721
 Requested convergence on RMS density matrix=1.00D-08 within 128 cycles.
 Requested convergence on MAX density matrix=1.00D-06.
 Requested convergence on             energy=1.00D-06.
 No special actions if energy rises.

 Cycle   1  Pass 1  IDiag  1:
 E= -78.1039851656240    
 DIIS: error= 1.93D-02 at cycle   1 NSaved=   1.
 NSaved= 1 IEnMin= 1 EnMin= -78.1039851656240     IErMin= 1 ErrMin= 1.93D-02
 ErrMax= 1.93D-02  0.00D+00 EMaxC= 1.00D-01 BMatC= 5.84D-02 BMatP= 5.84D-02
 IDIUse=3 WtCom= 8.07D-01 WtEn= 1.93D-01
 Coeff-Com:  0.100D+01
 Coeff-En:   0.100D+01
 Coeff:      0.100D+01
 Gap=     0.241 Goal=   None    Shift=    0.000
 Gap=     0.334 Goal=   None    Shift=    0.000
 GapD=    0.241 DampG=1.000 DampE=0.500 DampFc=0.5000 IDamp=-1.
 Damping current iteration by 5.00D-01
 RMSDP=1.47D-03 MaxDP=1.92D-02              OVMax= 3.77D-02

 Cycle   2  Pass 1  IDiag  1:
 E= -78.1079417741571     Delta-E=       -0.003956608533 Rises=F Damp=T
 DIIS: error= 9.65D-03 at cycle   2 NSaved=   2.
 NSaved= 2 IEnMin= 2 EnMin= -78.1079417741571     IErMin= 2 ErrMin= 9.65D-03
 ErrMax= 9.65D-03  0.00D+00 EMaxC= 1.00D-01 BMatC= 1.37D-02 BMatP= 5.84D-02
 IDIUse=3 WtCom= 9.04D-01 WtEn= 9.65D-02
 Coeff-Com: -0.882D+00 0.188D+01
 Coeff-En:   0.000D+00 0.100D+01
 Coeff:     -0.797D+00 0.180D+01
 Gap=     0.240 Goal=   None    Shift=    0.000
 Gap=     0.326 Goal=   None    Shift=    0.000
 RMSDP=7.08D-04 MaxDP=1.06D-02 DE=-3.96D-03 OVMax= 8.80D-03

 Cycle   3  Pass 1  IDiag  1:
 E= -78.1118264154003     Delta-E=       -0.003884641243 Rises=F Damp=F
 DIIS: error= 1.29D-03 at cycle   3 NSaved=   3.
 NSaved= 3 IEnMin= 3 EnMin= -78.1118264154003     IErMin= 3 ErrMin= 1.29D-03
 ErrMax= 1.29D-03  0.00D+00 EMaxC= 1.00D-01 BMatC= 1.16D-04 BMatP= 1.37D-02
 IDIUse=3 WtCom= 9.87D-01 WtEn= 1.29D-02
 Coeff-Com: -0.172D+00 0.337D+00 0.835D+00
 Coeff-En:   0.000D+00 0.000D+00 0.100D+01
 Coeff:     -0.170D+00 0.333D+00 0.838D+00
 Gap=     0.240 Goal=   None    Shift=    0.000
 Gap=     0.327 Goal=   None    Shift=    0.000
 RMSDP=6.67D-05 MaxDP=1.79D-03 DE=-3.88D-03 OVMax= 2.44D-03

 Cycle   4  Pass 1  IDiag  1:
 E= -78.1118618239203     Delta-E=       -0.000035408520 Rises=F Damp=F
 DIIS: error= 4.09D-04 at cycle   4 NSaved=   4.
 NSaved= 4 IEnMin= 4 EnMin= -78.1118618239203     IErMin= 4 ErrMin= 4.09D-04
 ErrMax= 4.09D-04  0.00D+00 EMaxC= 1.00D-01 BMatC= 1.05D-05 BMatP= 1.16D-04
 IDIUse=3 WtCom= 9.96D-01 WtEn= 4.09D-03
 Coeff-Com:  0.230D-01-0.539D-01 0.700D-01 0.961D+00
 Coeff-En:   0.000D+00 0.000D+00 0.000D+00 0.100D+01
 Coeff:      0.229D-01-0.537D-01 0.697D-01 0.961D+00
 Gap=     0.240 Goal=   None    Shift=    0.000
 Gap=     0.327 Goal=   None    Shift=    0.000
 RMSDP=2.68D-05 MaxDP=9.47D-04 DE=-3.54D-05 OVMax= 1.00D-03

 Cycle   5  Pass 1  IDiag  1:
 E= -78.1118664243478     Delta-E=       -0.000004600427 Rises=F Damp=F
 DIIS: error= 1.59D-04 at cycle   5 NSaved=   5.
 NSaved= 5 IEnMin= 5 EnMin= -78.1118664243478     IErMin= 5 ErrMin= 1.59D-04
 ErrMax= 1.59D-04  0.00D+00 EMaxC= 1.00D-01 BMatC= 1.44D-06 BMatP= 1.05D-05
 IDIUse=3 WtCom= 9.98D-01 WtEn= 1.59D-03
 Coeff-Com:  0.254D-01-0.493D-01-0.123D+00 0.400D-01 0.111D+01
 Coeff-En:   0.000D+00 0.000D+00 0.000D+00 0.000D+00 0.100D+01
 Coeff:      0.253D-01-0.493D-01-0.123D+00 0.399D-01 0.111D+01
 Gap=     0.240 Goal=   None    Shift=    0.000
 Gap=     0.327 Goal=   None    Shift=    0.000
 RMSDP=1.28D-05 MaxDP=3.05D-04 DE=-4.60D-06 OVMax= 4.02D-04

 Cycle   6  Pass 1  IDiag  1:
 E= -78.1118672232959     Delta-E=       -0.000000798948 Rises=F Damp=F
 DIIS: error= 2.97D-05 at cycle   6 NSaved=   6.
 NSaved= 6 IEnMin= 6 EnMin= -78.1118672232959     IErMin= 6 ErrMin= 2.97D-05
 ErrMax= 2.97D-05  0.00D+00 EMaxC= 1.00D-01 BMatC= 4.42D-08 BMatP= 1.44D-06
 IDIUse=1 WtCom= 1.00D+00 WtEn= 0.00D+00
 Coeff-Com: -0.662D-02 0.135D-01 0.259D-01-0.604D-01-0.258D+00 0.129D+01
 Coeff:     -0.662D-02 0.135D-01 0.259D-01-0.604D-01-0.258D+00 0.129D+01
 Gap=     0.240 Goal=   None    Shift=    0.000
 Gap=     0.327 Goal=   None    Shift=    0.000
 RMSDP=2.62D-06 MaxDP=4.47D-05 DE=-7.99D-07 OVMax= 8.94D-05

 Cycle   7  Pass 1  IDiag  1:
 E= -78.1118672507602     Delta-E=       -0.000000027464 Rises=F Damp=F
 DIIS: error= 2.38D-06 at cycle   7 NSaved=   7.
 NSaved= 7 IEnMin= 7 EnMin= -78.1118672507602     IErMin= 7 ErrMin= 2.38D-06
 ErrMax= 2.38D-06  0.00D+00 EMaxC= 1.00D-01 BMatC= 3.30D-10 BMatP= 4.42D-08
 IDIUse=1 WtCom= 1.00D+00 WtEn= 0.00D+00
 Coeff-Com:  0.456D-03-0.953D-03-0.128D-02 0.524D-02 0.183D-01-0.161D+00
 Coeff-Com:  0.114D+01
 Coeff:      0.456D-03-0.953D-03-0.128D-02 0.524D-02 0.183D-01-0.161D+00
 Coeff:      0.114D+01
 Gap=     0.240 Goal=   None    Shift=    0.000
 Gap=     0.327 Goal=   None    Shift=    0.000
 RMSDP=1.69D-07 MaxDP=2.78D-06 DE=-2.75D-08 OVMax= 6.83D-06

 Cycle   8  Pass 1  IDiag  1:
 E= -78.1118672509587     Delta-E=       -0.000000000198 Rises=F Damp=F
 DIIS: error= 2.66D-07 at cycle   8 NSaved=   8.
 NSaved= 8 IEnMin= 8 EnMin= -78.1118672509587     IErMin= 8 ErrMin= 2.66D-07
 ErrMax= 2.66D-07  0.00D+00 EMaxC= 1.00D-01 BMatC= 5.26D-12 BMatP= 3.30D-10
 IDIUse=1 WtCom= 1.00D+00 WtEn= 0.00D+00
 Coeff-Com: -0.136D-04 0.319D-04 0.110D-04-0.166D-03-0.117D-02 0.138D-01
 Coeff-Com: -0.213D+00 0.120D+01
 Coeff:     -0.136D-04 0.319D-04 0.110D-04-0.166D-03-0.117D-02 0.138D-01
 Coeff:     -0.213D+00 0.120D+01
 Gap=     0.240 Goal=   None    Shift=    0.000
 Gap=     0.327 Goal=   None    Shift=    0.000
 RMSDP=2.63D-08 MaxDP=3.86D-07 DE=-1.98D-10 OVMax= 1.26D-06

 Cycle   9  Pass 1  IDiag  1:
 E= -78.1118672509622     Delta-E=       -0.000000000004 Rises=F Damp=F
 DIIS: error= 3.47D-08 at cycle   9 NSaved=   9.
 NSaved= 9 IEnMin= 9 EnMin= -78.1118672509622     IErMin= 9 ErrMin= 3.47D-08
 ErrMax= 3.47D-08  0.00D+00 EMaxC= 1.00D-01 BMatC= 5.25D-14 BMatP= 5.26D-12
 IDIUse=1 WtCom= 1.00D+00 WtEn= 0.00D+00
 Coeff-Com: -0.294D-05 0.525D-05 0.736D-05-0.289D-04 0.496D-04-0.987D-03
 Coeff-Com:  0.297D-01-0.237D+00 0.121D+01
 Coeff:     -0.294D-05 0.525D-05 0.736D-05-0.289D-04 0.496D-04-0.987D-03
 Coeff:      0.297D-01-0.237D+00 0.121D+01
 Gap=     0.240 Goal=   None    Shift=    0.000
 Gap=     0.327 Goal=   None    Shift=    0.000
 RMSDP=2.98D-09 MaxDP=3.96D-08 DE=-3.54D-12 OVMax= 1.25D-07

 SCF Done:  E(UM062X) =  -78.1118672510     A.U. after    9 cycles
            NFock=  9  Conv=0.30D-08     -V/T= 2.0098
 <Sx>= 0.0000 <Sy>= 0.0000 <Sz>= 0.5000 <S**2>= 0.7523 S= 0.5011
 <L.S>=  0.00000000000    
 KE= 7.735412261590D+01 PE=-2.329011298116D+02 EE= 4.898072290236D+01
 Annihilation of the first spin contaminant:
 S**2 before annihilation     0.7523,   after     0.7500
 Leave Link  502 at Tue Nov 19 11:55:40 2024, MaxMem=   536870912 cpu:              13.0 elap:               1.6
 (Enter /home/szhao/Apps/g16/l601.exe)
 Copying SCF densities to generalized density rwf, IOpCl= 1 IROHF=0.

 **********************************************************************

            Population analysis using the SCF density.

 **********************************************************************

 Orbital symmetries:
 Alpha Orbitals:
       Occupied  (AG) (BU) (AG) (BU) (BU) (AG) (AG) (AU)
       Virtual   (BG) (BU) (AG) (BU) (BU) (AU) (AG) (AG) (BG) (AG)
                 (BU) (BU) (BU) (AG) (BU) (AG) (BU) (AU) (AG) (BG)
                 (BU) (BU) (AG) (AG) (AG) (BU) (BG) (AU) (AU) (AG)
                 (AG) (BU) (AG) (BG) (BU) (BU) (AU) (BG) (BU) (AG)
                 (BG) (AG) (AU) (BU) (BU) (BU) (AG) (AG) (AG) (BU)
                 (AU) (BU) (AG) (BG) (AG) (BU) (BU) (AG) (BU) (AG)
 Beta  Orbitals:
       Occupied  (AG) (BU) (AG) (BU) (BU) (AG) (AG)
       Virtual   (AU) (BG) (BU) (AG) (BU) (AU) (BU) (AG) (AG) (AG)
                 (BG) (BU) (BU) (BU) (AG) (BU) (AG) (BU) (AU) (BG)
                 (AG) (BU) (BU) (AG) (AG) (AG) (BU) (BG) (AU) (AU)
                 (AG) (AG) (BU) (AG) (BG) (BU) (BU) (AU) (BG) (BU)
                 (AG) (BG) (AG) (AU) (BU) (BU) (BU) (AG) (AG) (AG)
                 (BU) (AU) (BU) (AG) (AG) (BG) (BU) (BU) (AG) (BU)
                 (AG)
 The electronic state is 2-AU.
 Alpha  occ. eigenvalues --  -10.91737 -10.91714  -1.09315  -0.99455  -0.81521
 Alpha  occ. eigenvalues --   -0.76474  -0.71138  -0.58885
 Alpha virt. eigenvalues --   -0.34838  -0.18374  -0.14346  -0.11247  -0.09038
 Alpha virt. eigenvalues --   -0.08720  -0.07356  -0.07338  -0.04714  -0.04408
 Alpha virt. eigenvalues --   -0.01957  -0.01241   0.02503   0.09630   0.18387
 Alpha virt. eigenvalues --    0.23220   0.24976   0.32838   0.35556   0.37431
 Alpha virt. eigenvalues --    0.41355   0.44276   0.46222   0.46969   0.53896
 Alpha virt. eigenvalues --    0.56471   0.78807   0.80465   0.82641   1.02272
 Alpha virt. eigenvalues --    1.15405   1.17476   1.21486   1.25145   1.26951
 Alpha virt. eigenvalues --    1.33870   1.46841   1.56439   1.61679   1.66308
 Alpha virt. eigenvalues --    1.67307   1.72585   1.78610   1.81304   2.11728
 Alpha virt. eigenvalues --    2.25917   2.28632   2.31895   2.36766   2.38031
 Alpha virt. eigenvalues --    2.42907   2.46398   2.47171   2.49605   2.52836
 Alpha virt. eigenvalues --    3.40019   3.43270   3.48296  23.47101  23.53704
  Beta  occ. eigenvalues --  -10.91507 -10.91493  -1.06021  -0.97316  -0.80846
  Beta  occ. eigenvalues --   -0.76123  -0.69824
  Beta virt. eigenvalues --   -0.37107  -0.26572  -0.16271  -0.15857  -0.11619
  Beta virt. eigenvalues --   -0.08501  -0.08492  -0.07944  -0.07324  -0.04441
  Beta virt. eigenvalues --   -0.04010  -0.01551  -0.00625   0.01838   0.10225
  Beta virt. eigenvalues --    0.18200   0.23082   0.25502   0.33543   0.35937
  Beta virt. eigenvalues --    0.37140   0.42358   0.45741   0.45922   0.48263
  Beta virt. eigenvalues --    0.52757   0.56141   0.82042   0.84080   0.85414
  Beta virt. eigenvalues --    1.05503   1.16377   1.19156   1.25472   1.26936
  Beta virt. eigenvalues --    1.29692   1.35776   1.48329   1.58636   1.65002
  Beta virt. eigenvalues --    1.67711   1.69250   1.73837   1.80460   1.83730
  Beta virt. eigenvalues --    2.15428   2.27286   2.31615   2.33115   2.40733
  Beta virt. eigenvalues --    2.41078   2.46875   2.48207   2.50778   2.53733
  Beta virt. eigenvalues --    2.53934   3.46024   3.48104   3.53125  23.48339
  Beta virt. eigenvalues --   23.55009
          Condensed to atoms (all electrons):
               1          2          3          4          5          6
     1  C    4.968797   0.380369   0.373884   0.373891  -0.016293  -0.016290
     2  C    0.380369   4.968797  -0.016293  -0.016290   0.373884   0.373891
     3  H    0.373884  -0.016293   0.364905  -0.005735   0.000653   0.000406
     4  H    0.373891  -0.016290  -0.005735   0.364899   0.000406   0.000653
     5  H   -0.016293   0.373884   0.000653   0.000406   0.364905  -0.005735
     6  H   -0.016290   0.373891   0.000406   0.000653  -0.005735   0.364899
          Atomic-Atomic Spin Densities.
               1          2          3          4          5          6
     1  C    0.468263   0.082027  -0.005902  -0.005902   0.000912   0.000912
     2  C    0.082027   0.468263   0.000912   0.000912  -0.005902  -0.005902
     3  H   -0.005902   0.000912  -0.014908  -0.000092  -0.000012  -0.000153
     4  H   -0.005902   0.000912  -0.000092  -0.014907  -0.000153  -0.000012
     5  H    0.000912  -0.005902  -0.000012  -0.000153  -0.014908  -0.000092
     6  H    0.000912  -0.005902  -0.000153  -0.000012  -0.000092  -0.014907
 Mulliken charges and spin densities:
               1          2
     1  C   -0.064358   0.540309
     2  C   -0.064358   0.540309
     3  H    0.282180  -0.020155
     4  H    0.282178  -0.020154
     5  H    0.282180  -0.020155
     6  H    0.282178  -0.020154
 Sum of Mulliken charges =   1.00000   1.00000
 Mulliken charges and spin densities with hydrogens summed into heavy atoms:
               1          2
     1  C    0.500000   0.500000
     2  C    0.500000   0.500000
 Electronic spatial extent (au):  <R**2>=             94.8116
 Charge=              1.0000 electrons
 Dipole moment (field-independent basis, Debye):
    X=              0.0000    Y=              0.0000    Z=              0.0000  Tot=              0.0000
 Quadrupole moment (field-independent basis, Debye-Ang):
   XX=             -8.2655   YY=             -3.3688   ZZ=            -12.2430
   XY=             -0.0001   XZ=              0.0000   YZ=              0.0000
 Traceless Quadrupole moment (field-independent basis, Debye-Ang):
   XX=             -0.3064   YY=              4.5903   ZZ=             -4.2839
   XY=             -0.0001   XZ=              0.0000   YZ=              0.0000
 Octapole moment (field-independent basis, Debye-Ang**2):
  XXX=              0.0000  YYY=              0.0000  ZZZ=              0.0000  XYY=              0.0000
  XXY=              0.0000  XXZ=              0.0000  XZZ=              0.0000  YZZ=             -0.0000
  YYZ=              0.0000  XYZ=              0.0000
 Hexadecapole moment (field-independent basis, Debye-Ang**3):
 XXXX=            -17.8693 YYYY=            -71.6123 ZZZZ=            -12.1039 XXXY=             -0.0003
 XXXZ=              0.0000 YYYX=              0.0007 YYYZ=              0.0000 ZZZX=              0.0000
 ZZZY=              0.0000 XXYY=             -8.0491 XXZZ=             -6.2966 YYZZ=            -16.2950
 XXYZ=              0.0000 YYXZ=              0.0000 ZZXY=              0.0002
 N-N= 2.845441704234D+01 E-N=-2.329011298433D+02  KE= 7.735412261590D+01
 Symmetry AG   KE= 3.935940891562D+01
 Symmetry BG   KE= 9.917091924401D-33
 Symmetry AU   KE= 1.083468216080D+00
 Symmetry BU   KE= 3.691124548420D+01
 Symmetry AG   SP= 8.373363786417D-15
 Symmetry BG   SP= 1.164053968402D-33
 Symmetry AU   SP= 1.000000000000D+00
 Symmetry BU   SP= 1.078594466488D-14
                          Isotropic Fermi Contact Couplings
        Atom                 a.u.       MegaHertz       Gauss      10(-4) cm-1
     1  C(13)              0.09333     104.92415      37.43955      34.99893
     2  C(13)              0.09333     104.92415      37.43955      34.99893
     3  H(1)              -0.00835     -37.33758     -13.32298     -12.45448
     4  H(1)              -0.00835     -37.33616     -13.32247     -12.45400
     5  H(1)              -0.00835     -37.33758     -13.32298     -12.45448
     6  H(1)              -0.00835     -37.33616     -13.32247     -12.45400
 --------------------------------------------------------
       Center         ----  Spin Dipole Couplings  ----
                      3XX-RR        3YY-RR        3ZZ-RR
 --------------------------------------------------------
     1   Atom       -0.283072     -0.277073      0.560145
     2   Atom       -0.283072     -0.277073      0.560145
     3   Atom        0.017773     -0.010786     -0.006987
     4   Atom        0.017769     -0.010784     -0.006985
     5   Atom        0.017773     -0.010786     -0.006987
     6   Atom        0.017769     -0.010784     -0.006985
 --------------------------------------------------------
                        XY            XZ            YZ
 --------------------------------------------------------
     1   Atom       -0.000001      0.000000      0.000000
     2   Atom       -0.000001      0.000000      0.000000
     3   Atom       -0.036447      0.000000      0.000000
     4   Atom        0.036451      0.000000      0.000000
     5   Atom       -0.036447      0.000000      0.000000
     6   Atom        0.036451      0.000000      0.000000
 --------------------------------------------------------


 ---------------------------------------------------------------------------------
              Anisotropic Spin Dipole Couplings in Principal Axis System
 ---------------------------------------------------------------------------------

       Atom             a.u.   MegaHertz   Gauss  10(-4) cm-1        Axes

              Baa    -0.2831   -37.986   -13.554   -12.671  1.0000  0.0002  0.0000
     1 C(13)  Bbb    -0.2771   -37.181   -13.267   -12.402 -0.0002  1.0000 -0.0000
              Bcc     0.5601    75.166    26.821    25.073  0.0000  0.0000  1.0000
 
              Baa    -0.2831   -37.986   -13.554   -12.671  1.0000  0.0002  0.0000
     2 C(13)  Bbb    -0.2771   -37.181   -13.267   -12.402 -0.0002  1.0000 -0.0000
              Bcc     0.5601    75.166    26.821    25.073  0.0000  0.0000  1.0000
 
              Baa    -0.0357   -19.022    -6.787    -6.345  0.5636  0.8261  0.0000
     3 H(1)   Bbb    -0.0070    -3.728    -1.330    -1.243  0.0000  0.0000  1.0000
              Bcc     0.0426    22.750     8.118     7.588  0.8261 -0.5636 -0.0000
 
              Baa    -0.0357   -19.023    -6.788    -6.345 -0.5636  0.8260 -0.0000
     4 H(1)   Bbb    -0.0070    -3.727    -1.330    -1.243  0.0000  0.0000  1.0000
              Bcc     0.0426    22.750     8.118     7.589  0.8260  0.5636  0.0000
 
              Baa    -0.0357   -19.022    -6.787    -6.345  0.5636  0.8261  0.0000
     5 H(1)   Bbb    -0.0070    -3.728    -1.330    -1.243  0.0000  0.0000  1.0000
              Bcc     0.0426    22.750     8.118     7.588  0.8261 -0.5636 -0.0000
 
              Baa    -0.0357   -19.023    -6.788    -6.345 -0.5636  0.8260 -0.0000
     6 H(1)   Bbb    -0.0070    -3.727    -1.330    -1.243  0.0000  0.0000  1.0000
              Bcc     0.0426    22.750     8.118     7.589  0.8260  0.5636  0.0000
 

 ---------------------------------------------------------------------------------

 No NMR shielding tensors so no spin-rotation constants.
 Leave Link  601 at Tue Nov 19 11:55:41 2024, MaxMem=   536870912 cpu:               1.4 elap:               0.2
 (Enter /home/szhao/Apps/g16/l701.exe)
 ... and contract with generalized density number  0.
 Compute integral first derivatives.
 Leave Link  701 at Tue Nov 19 11:55:41 2024, MaxMem=   536870912 cpu:               0.7 elap:               0.1
 (Enter /home/szhao/Apps/g16/l702.exe)
 L702 exits ... SP integral derivatives will be done elsewhere.
 Leave Link  702 at Tue Nov 19 11:55:41 2024, MaxMem=   536870912 cpu:               0.2 elap:               0.0
 (Enter /home/szhao/Apps/g16/l703.exe)
 Integral derivatives from FoFJK, PRISM(SPDF).
 Compute integral first derivatives, UseDBF=F ICtDFT=           0.
 Calling FoFJK, ICntrl=      2127 FMM=F ISym2X=1 I1Cent= 0 IOpClX= 1 NMat=1 NMatS=1 NMatT=0.
 FoFJK:  IHMeth= 1 ICntrl=    2127 DoSepK=F KAlg= 0 I1Cent=           0 FoldK=F
 IRaf=         0 NMat=       1 IRICut=       1 DoRegI=T DoRafI=F ISym2E= 1 IDoP0=0 IntGTp=1.
 FoFCou: FMM=F IPFlag=           0 FMFlag=      100000 FMFlg1=         800
         NFxFlg=           0 DoJE=F BraDBF=F KetDBF=F FulRan=T
         wScrn=  0.000000 ICntrl=      2127 IOpCl=  1 I1Cent=           0 NGrid=           0
         NMat0=    1 NMatS0=      1 NMatT0=    0 NMatD0=    1 NMtDS0=    0 NMtDT0=    0
 Petite list used in FoFCou.
 Leave Link  703 at Tue Nov 19 11:55:41 2024, MaxMem=   536870912 cpu:               3.2 elap:               0.4
 (Enter /home/szhao/Apps/g16/l716.exe)
 Dipole        = 2.22044605D-16 1.33226763D-15 0.00000000D+00
 ***** Axes restored to original set *****
 -------------------------------------------------------------------
 Center     Atomic                   Forces (Hartrees/Bohr)
 Number     Number              X              Y              Z
 -------------------------------------------------------------------
      1        6           0.131665178   -0.000032419   -0.000000000
      2        6          -0.131665178    0.000032419   -0.000000000
      3        1          -0.000011683   -0.000010734   -0.000000000
      4        1          -0.000022616    0.000039384   -0.000000000
      5        1           0.000011683    0.000010734   -0.000000000
      6        1           0.000022616   -0.000039384   -0.000000000
 -------------------------------------------------------------------
 Cartesian Forces:  Max     0.131665178 RMS     0.043888397
 Z-matrix is all fixed cartesians, so copy forces.
 Force constants in Cartesian coordinates: 
                1             2             3             4             5 
      1  0.457780D+00
      2 -0.244565D-04  0.674802D+00
      3  0.000000D+00  0.000000D+00  0.805153D-01
      4 -0.131678D+00  0.000000D+00  0.000000D+00  0.457780D+00
      5  0.000000D+00 -0.947286D-01  0.000000D+00 -0.244565D-04  0.674802D+00
      6  0.000000D+00  0.000000D+00 -0.349260D-01  0.000000D+00  0.000000D+00
      7 -0.163038D+00 -0.107046D+00  0.000000D+00  0.000000D+00 -0.202156D-01
      8 -0.966105D-01 -0.300233D+00  0.000000D+00  0.000000D+00  0.102111D-01
      9  0.000000D+00  0.000000D+00 -0.295324D-01  0.000000D+00  0.000000D+00
     10 -0.163064D+00  0.107071D+00  0.000000D+00  0.000000D+00  0.202159D-01
     11  0.966352D-01 -0.300264D+00  0.000000D+00  0.000000D+00  0.102126D-01
     12  0.000000D+00  0.000000D+00 -0.295337D-01  0.000000D+00  0.000000D+00
     13  0.000000D+00 -0.202156D-01  0.000000D+00 -0.163038D+00 -0.107046D+00
     14  0.000000D+00  0.102111D-01  0.000000D+00 -0.966105D-01 -0.300233D+00
     15  0.000000D+00  0.000000D+00  0.673833D-02  0.000000D+00  0.000000D+00
     16  0.000000D+00  0.202159D-01  0.000000D+00 -0.163064D+00  0.107071D+00
     17  0.000000D+00  0.102126D-01  0.000000D+00  0.966352D-01 -0.300264D+00
     18  0.000000D+00  0.000000D+00  0.673852D-02  0.000000D+00  0.000000D+00
                6             7             8             9            10 
      6  0.805153D-01
      7  0.000000D+00  0.132698D+00
      8  0.000000D+00  0.111935D+00  0.297763D+00
      9  0.673833D-02  0.000000D+00  0.000000D+00  0.120839D-01
     10  0.000000D+00  0.303391D-01 -0.153247D-01  0.000000D+00  0.132725D+00
     11  0.000000D+00  0.153266D-01 -0.774167D-02  0.000000D+00 -0.111962D+00
     12  0.673852D-02  0.000000D+00  0.000000D+00  0.107102D-01  0.000000D+00
     13  0.000000D+00  0.000000D+00  0.000000D+00  0.000000D+00  0.000000D+00
     14  0.000000D+00  0.000000D+00  0.000000D+00  0.000000D+00  0.000000D+00
     15 -0.295324D-01  0.000000D+00  0.000000D+00  0.687050D-03  0.000000D+00
     16  0.000000D+00  0.000000D+00  0.000000D+00  0.000000D+00  0.000000D+00
     17  0.000000D+00  0.000000D+00  0.000000D+00  0.000000D+00  0.000000D+00
     18 -0.295337D-01  0.000000D+00  0.000000D+00 -0.687095D-03  0.000000D+00
               11            12            13            14            15 
     11  0.297793D+00
     12  0.000000D+00  0.120849D-01
     13  0.000000D+00  0.000000D+00  0.132698D+00
     14  0.000000D+00  0.000000D+00  0.111935D+00  0.297763D+00
     15  0.000000D+00 -0.687095D-03  0.000000D+00  0.000000D+00  0.120839D-01
     16  0.000000D+00  0.000000D+00  0.303391D-01 -0.153247D-01  0.000000D+00
     17  0.000000D+00  0.000000D+00  0.153266D-01 -0.774167D-02  0.000000D+00
     18  0.000000D+00  0.687141D-03  0.000000D+00  0.000000D+00  0.107102D-01
               16            17            18 
     16  0.132725D+00
     17 -0.111962D+00  0.297793D+00
     18  0.000000D+00  0.000000D+00  0.120849D-01
 Leave Link  716 at Tue Nov 19 11:55:41 2024, MaxMem=   536870912 cpu:               0.3 elap:               0.0
 (Enter /home/szhao/Apps/g16/l103.exe)

 GradGradGradGradGradGradGradGradGradGradGradGradGradGradGradGradGradGrad
 Berny optimization.
 Search for a local minimum.
 Step number   1 out of a maximum of    2
 All quantities printed in internal units (Hartrees-Bohrs-Radians)
 Second derivative matrix not updated -- first step.
 The second derivative matrix:
                          X1        Y1        Z1        X2        Y2
           X1           0.45778
           Y1          -0.00002   0.67480
           Z1           0.00000   0.00000   0.08052
           X2          -0.13168  -0.00000   0.00000   0.45778
           Y2          -0.00000  -0.09473   0.00000  -0.00002   0.67480
           Z2           0.00000   0.00000  -0.03493   0.00000   0.00000
           X3          -0.16304  -0.10705   0.00000  -0.00000  -0.02022
           Y3          -0.09661  -0.30023   0.00000   0.00000   0.01021
           Z3           0.00000   0.00000  -0.02953   0.00000   0.00000
           X4          -0.16306   0.10707   0.00000   0.00000   0.02022
           Y4           0.09664  -0.30026   0.00000   0.00000   0.01021
           Z4           0.00000   0.00000  -0.02953   0.00000   0.00000
           X5          -0.00000  -0.02022   0.00000  -0.16304  -0.10705
           Y5           0.00000   0.01021   0.00000  -0.09661  -0.30023
           Z5           0.00000   0.00000   0.00674   0.00000   0.00000
           X6           0.00000   0.02022   0.00000  -0.16306   0.10707
           Y6           0.00000   0.01021   0.00000   0.09664  -0.30026
           Z6           0.00000   0.00000   0.00674   0.00000   0.00000
                          Z2        X3        Y3        Z3        X4
           Z2           0.08052
           X3           0.00000   0.13270
           Y3           0.00000   0.11194   0.29776
           Z3           0.00674   0.00000   0.00000   0.01208
           X4           0.00000   0.03034  -0.01532   0.00000   0.13273
           Y4           0.00000   0.01533  -0.00774   0.00000  -0.11196
           Z4           0.00674   0.00000   0.00000   0.01071   0.00000
           X5           0.00000   0.00000   0.00000   0.00000   0.00000
           Y5           0.00000   0.00000   0.00000   0.00000   0.00000
           Z5          -0.02953   0.00000   0.00000   0.00069   0.00000
           X6           0.00000   0.00000   0.00000   0.00000   0.00000
           Y6           0.00000   0.00000   0.00000   0.00000   0.00000
           Z6          -0.02953   0.00000   0.00000  -0.00069   0.00000
                          Y4        Z4        X5        Y5        Z5
           Y4           0.29779
           Z4           0.00000   0.01208
           X5           0.00000   0.00000   0.13270
           Y5           0.00000   0.00000   0.11194   0.29776
           Z5           0.00000  -0.00069   0.00000   0.00000   0.01208
           X6           0.00000   0.00000   0.03034  -0.01532   0.00000
           Y6           0.00000   0.00000   0.01533  -0.00774   0.00000
           Z6           0.00000   0.00069   0.00000   0.00000   0.01071
                          X6        Y6        Z6
           X6           0.13273
           Y6          -0.11196   0.29779
           Z6           0.00000   0.00000   0.01208
 ITU=  0
     Eigenvalues ---    0.00275   0.04297   0.05641   0.05668   0.09837
     Eigenvalues ---    0.11452   0.19481   0.25049   0.51422   0.75086
     Eigenvalues ---    0.77717   0.93896
 Quadratic step=1.224D+00 exceeds max=3.000D-01 adjusted using Lamda=-2.547D-01.
 Angle between NR and scaled steps=  28.46 degrees.
 Angle between quadratic step and forces=  28.32 degrees.
 ClnCor:  largest displacement from symmetrization is 8.92D-15 for atom     6.
 Linear search not attempted -- first point.
 ClnCor:  largest displacement from symmetrization is 2.59D-15 for atom     4.
 B after Tr=    -0.000000    0.000000    0.000000
         Rot=    1.000000   -0.000000   -0.000000   -0.000001 Ang=  -0.00 deg.
 Variable       Old X    -DE/DX   Delta X   Delta X   Delta X     New X
                                 (Linear)    (Quad)   (Total)
    X1       -1.72322   0.13167   0.00000   0.18699   0.18699  -1.53623
    Y1        0.00000  -0.00003   0.00000  -0.00002  -0.00002  -0.00002
    Z1        0.00000  -0.00000   0.00000   0.00000   0.00000   0.00000
    X2        1.72322  -0.13167   0.00000  -0.18699  -0.18699   1.53623
    Y2       -0.00000   0.00003   0.00000   0.00002   0.00002   0.00002
    Z2        0.00000  -0.00000   0.00000   0.00000   0.00000   0.00000
    X3       -2.64741  -0.00001   0.00000   0.06821   0.06821  -2.57920
    Y3       -1.82966  -0.00001   0.00000   0.02046   0.02045  -1.80921
    Z3        0.00000  -0.00000   0.00000   0.00000   0.00000   0.00000
    X4       -2.64746  -0.00002   0.00000   0.06821   0.06820  -2.57926
    Y4        1.82954   0.00004   0.00000  -0.02042  -0.02043   1.80911
    Z4        0.00000  -0.00000   0.00000   0.00000   0.00000   0.00000
    X5        2.64741   0.00001   0.00000  -0.06821  -0.06821   2.57920
    Y5        1.82966   0.00001   0.00000  -0.02046  -0.02045   1.80921
    Z5        0.00000  -0.00000   0.00000   0.00000   0.00000   0.00000
    X6        2.64746   0.00002   0.00000  -0.06821  -0.06820   2.57926
    Y6       -1.82954  -0.00004   0.00000   0.02042   0.02043  -1.80911
    Z6        0.00000  -0.00000   0.00000   0.00000   0.00000   0.00000
         Item               Value     Threshold  Converged?
 Maximum Force            0.131665     0.000450     NO 
 RMS     Force            0.043888     0.000300     NO 
 Maximum Displacement     0.186991     0.001800     NO 
 RMS     Displacement     0.070794     0.001200     NO 
 Predicted change in Energy=-3.610719D-02
 GradGradGradGradGradGradGradGradGradGradGradGradGradGradGradGradGradGrad

 Leave Link  103 at Tue Nov 19 11:55:41 2024, MaxMem=   536870912 cpu:               0.1 elap:               0.0
 (Enter /home/szhao/Apps/g16/l9999.exe)
 1\1\GINC-NODE01\Force\UM062X\6-311+G(d,p)\C2H4(1+,2)\SZHAO\19-Nov-2024
 \0\\#p UM062X/6-311+G** force int=superfine\\Title Card Required\\1,2\
 C,-0.911891,0.,0.\C,0.911890875,-0.000000125,0.\H,-1.400947,-0.968213,
 0.\H,-1.400978,0.968149,0.\H,1.400946875,0.968212875,0.\H,1.400977875,
 -0.968149125,0.\\Version=ES64L-G16RevA.03\State=2-AU\HF=-78.1118673\S2
 =0.752295\S2-1=0.\S2A=0.750004\RMSD=2.975e-09\RMSF=4.389e-02\Dipole=0.
 ,0.,0.\Quadrupole=3.4128047,-0.2278314,-3.1849733,0.000047,0.,0.\PG=C0
 2H [SGH(C2H4)]\\@


 THE THINKER DIES, BUT HIS THOUGHTS ARE BEYOND THE 
 REACH OF DESTRUCTION.  MEN ARE MORTAL; BUT IDEAS 
 ARE IMMORTAL.
                              -- WALTER LIPPMANN
 Job cpu time:       0 days  0 hours  0 minutes 24.4 seconds.
 Elapsed time:       0 days  0 hours  0 minutes  3.1 seconds.
 File lengths (MBytes):  RWF=      6 Int=      0 D2E=      0 Chk=      1 Scr=      1
 Normal termination of Gaussian 16 at Tue Nov 19 11:55:41 2024.
