Title Card Required                                                     
Force     UM062X                                                      6-311+G(d,p)        
Number of atoms                            I                6
Info1-9                                    I   N=           9
          15          15           0           0           0         100
           5          18        -502
Full Title                                 C   N=           2
Title Card Required     
Route                                      C   N=           4
#p UM062X/6-311+G** force int=superfine         
Charge                                     I                1
Multiplicity                               I                2
Number of electrons                        I               15
Number of alpha electrons                  I                8
Number of beta electrons                   I                7
Number of basis functions                  I               68
Number of independent functions            I               68
Number of point charges in /Mol/           I                0
Number of translation vectors              I                0
Atomic numbers                             I   N=           6
           6           6           1           1           1           1
Nuclear charges                            R   N=           6
  6.00000000E+00  6.00000000E+00  1.00000000E+00  1.00000000E+00  1.00000000E+00
  1.00000000E+00
Current cartesian coordinates              R   N=          18
  1.18107883E-07  1.72322413E+00  0.00000000E+00 -1.18107883E-07 -1.72322413E+00
  0.00000000E+00 -1.82965728E+00  2.64740603E+00  0.00000000E+00  1.82953658E+00
  2.64746461E+00  0.00000000E+00  1.82965728E+00 -2.64740603E+00  0.00000000E+00
 -1.82953658E+00 -2.64746461E+00  0.00000000E+00
Number of symbols in /Mol/                 I                0
Force Field                                I                0
Atom Types                                 C   N=           6
                                                            
            
Int Atom Types                             I   N=           6
           0           0           0           0           0           0
MM charges                                 R   N=           6
  0.00000000E+00  0.00000000E+00  0.00000000E+00  0.00000000E+00  0.00000000E+00
  0.00000000E+00
Integer atomic weights                     I   N=           6
          12          12           1           1           1           1
Real atomic weights                        R   N=           6
  1.20000000E+01  1.20000000E+01  1.00782504E+00  1.00782504E+00  1.00782504E+00
  1.00782504E+00
Atom fragment info                         I   N=           6
           0           0           0           0           0           0
Atom residue num                           I   N=           6
           0           0           0           0           0           0
Nuclear spins                              I   N=           6
           0           0           1           1           1           1
Nuclear ZEff                               R   N=           6
 -3.60000000E+00 -3.60000000E+00 -1.00000000E+00 -1.00000000E+00 -1.00000000E+00
 -1.00000000E+00
Nuclear ZNuc                               R   N=           6
  6.00000000E+00  6.00000000E+00  1.00000000E+00  1.00000000E+00  1.00000000E+00
  1.00000000E+00
Nuclear QMom                               R   N=           6
  0.00000000E+00  0.00000000E+00  0.00000000E+00  0.00000000E+00  0.00000000E+00
  0.00000000E+00
Nuclear GFac                               R   N=           6
  0.00000000E+00  0.00000000E+00  2.79284600E+00  2.79284600E+00  2.79284600E+00
  2.79284600E+00
MicOpt                                     I   N=           6
          -1          -1          -1          -1          -1          -1
Number of residues                         I                0
Number of secondary structures             I                0
SymInf integers                            I   N=          26
           2           4           1           1           1          -1
          -1           1           1           1          -1          -1
          -1          -1           0           0           0           0
           0           0           0           0           0           0
           0           0
RotTr to input orientation                 R   N=          12
  6.78014472E-17  1.00000000E+00  0.00000000E+00 -1.00000000E+00  6.78030642E-17
  0.00000000E+00  0.00000000E+00  0.00000000E+00  1.00000000E+00 -1.18107883E-07
 -1.18107883E-07  0.00000000E+00
Number of contracted shells                I               28
Number of primitive shells                 I               50
Pure/Cartesian d shells                    I                0
Pure/Cartesian f shells                    I                0
Highest angular momentum                   I                2
Largest degree of contraction              I                6
Shell types                                I   N=          28
           0          -1          -1          -1          -1          -2
           0          -1          -1          -1          -1          -2
           0           0           0           1           0           0
           0           1           0           0           0           1
           0           0           0           1
Number of primitives per shell             I   N=          28
           6           3           1           1           1           1
           6           3           1           1           1           1
           3           1           1           1           3           1
           1           1           3           1           1           1
           3           1           1           1
Shell to atom map                          I   N=          28
           1           1           1           1           1           1
           2           2           2           2           2           2
           3           3           3           3           4           4
           4           4           5           5           5           5
           6           6           6           6
Primitive exponents                        R   N=          50
  4.56324000E+03  6.82024000E+02  1.54973000E+02  4.44553000E+01  1.30290000E+01
  1.82773000E+00  2.09642000E+01  4.80331000E+00  1.45933000E+00  4.83456000E-01
  1.45585000E-01  4.38000000E-02  6.26000000E-01  4.56324000E+03  6.82024000E+02
  1.54973000E+02  4.44553000E+01  1.30290000E+01  1.82773000E+00  2.09642000E+01
  4.80331000E+00  1.45933000E+00  4.83456000E-01  1.45585000E-01  4.38000000E-02
  6.26000000E-01  3.38650000E+01  5.09479000E+00  1.15879000E+00  3.25840000E-01
  1.02741000E-01  7.50000000E-01  3.38650000E+01  5.09479000E+00  1.15879000E+00
  3.25840000E-01  1.02741000E-01  7.50000000E-01  3.38650000E+01  5.09479000E+00
  1.15879000E+00  3.25840000E-01  1.02741000E-01  7.50000000E-01  3.38650000E+01
  5.09479000E+00  1.15879000E+00  3.25840000E-01  1.02741000E-01  7.50000000E-01
Contraction coefficients                   R   N=          50
  1.96665025E-03  1.52306019E-02  7.61269097E-02  2.60801033E-01  6.16462078E-01
  2.21006028E-01  1.14660081E-01  9.19999648E-01 -3.03068213E-03  1.00000000E+00
  1.00000000E+00  1.00000000E+00  1.00000000E+00  1.96665025E-03  1.52306019E-02
  7.61269097E-02  2.60801033E-01  6.16462078E-01  2.21006028E-01  1.14660081E-01
  9.19999648E-01 -3.03068213E-03  1.00000000E+00  1.00000000E+00  1.00000000E+00
  1.00000000E+00  2.54938145E-02  1.90373109E-01  8.52161486E-01  1.00000000E+00
  1.00000000E+00  1.00000000E+00  2.54938145E-02  1.90373109E-01  8.52161486E-01
  1.00000000E+00  1.00000000E+00  1.00000000E+00  2.54938145E-02  1.90373109E-01
  8.52161486E-01  1.00000000E+00  1.00000000E+00  1.00000000E+00  2.54938145E-02
  1.90373109E-01  8.52161486E-01  1.00000000E+00  1.00000000E+00  1.00000000E+00
P(S=P) Contraction coefficients            R   N=          50
  0.00000000E+00  0.00000000E+00  0.00000000E+00  0.00000000E+00  0.00000000E+00
  0.00000000E+00  4.02486927E-02  2.37593957E-01  8.15853851E-01  1.00000000E+00
  1.00000000E+00  1.00000000E+00  0.00000000E+00  0.00000000E+00  0.00000000E+00
  0.00000000E+00  0.00000000E+00  0.00000000E+00  0.00000000E+00  4.02486927E-02
  2.37593957E-01  8.15853851E-01  1.00000000E+00  1.00000000E+00  1.00000000E+00
  0.00000000E+00  0.00000000E+00  0.00000000E+00  0.00000000E+00  0.00000000E+00
  0.00000000E+00  0.00000000E+00  0.00000000E+00  0.00000000E+00  0.00000000E+00
  0.00000000E+00  0.00000000E+00  0.00000000E+00  0.00000000E+00  0.00000000E+00
  0.00000000E+00  0.00000000E+00  0.00000000E+00  0.00000000E+00  0.00000000E+00
  0.00000000E+00  0.00000000E+00  0.00000000E+00  0.00000000E+00  0.00000000E+00
Coordinates of each shell                  R   N=          84
  1.18107883E-07  1.72322413E+00  0.00000000E+00  1.18107883E-07  1.72322413E+00
  0.00000000E+00  1.18107883E-07  1.72322413E+00  0.00000000E+00  1.18107883E-07
  1.72322413E+00  0.00000000E+00  1.18107883E-07  1.72322413E+00  0.00000000E+00
  1.18107883E-07  1.72322413E+00  0.00000000E+00 -1.18107883E-07 -1.72322413E+00
  0.00000000E+00 -1.18107883E-07 -1.72322413E+00  0.00000000E+00 -1.18107883E-07
 -1.72322413E+00  0.00000000E+00 -1.18107883E-07 -1.72322413E+00  0.00000000E+00
 -1.18107883E-07 -1.72322413E+00  0.00000000E+00 -1.18107883E-07 -1.72322413E+00
  0.00000000E+00 -1.82965728E+00  2.64740603E+00  0.00000000E+00 -1.82965728E+00
  2.64740603E+00  0.00000000E+00 -1.82965728E+00  2.64740603E+00  0.00000000E+00
 -1.82965728E+00  2.64740603E+00  0.00000000E+00  1.82953658E+00  2.64746461E+00
  0.00000000E+00  1.82953658E+00  2.64746461E+00  0.00000000E+00  1.82953658E+00
  2.64746461E+00  0.00000000E+00  1.82953658E+00  2.64746461E+00  0.00000000E+00
  1.82965728E+00 -2.64740603E+00  0.00000000E+00  1.82965728E+00 -2.64740603E+00
  0.00000000E+00  1.82965728E+00 -2.64740603E+00  0.00000000E+00  1.82965728E+00
 -2.64740603E+00  0.00000000E+00 -1.82953658E+00 -2.64746461E+00  0.00000000E+00
 -1.82953658E+00 -2.64746461E+00  0.00000000E+00 -1.82953658E+00 -2.64746461E+00
  0.00000000E+00 -1.82953658E+00 -2.64746461E+00  0.00000000E+00
Num ILSW                                   I              100
ILSW                                       I   N=         100
           1           0           0           0           2           0
           0           0           0           0        4336          -1
           7           0           0           0           2           0
           0           0           0           0           1           0
           1           0           0           0           0           0
           0           0      100000           0          -1           0
           0           0           0           0           0           0
           0           0           0           1           0           0
           0 -2000000000           1           0           0           0
           0           0           4          52           0           0
           0           0          55           0           0           0
           0           0           0           6           0           1
           0           0           0           0           0           0
           0           0           0           0           0           0
           0           0           0           0           0           0
           0           0           0           0           0           0
           0           0           0           0
Num RLSW                                   I               52
RLSW                                       R   N=          52
  1.00000000E+00  1.00000000E+00  1.00000000E+00  1.00000000E+00  5.40000000E-01
  0.00000000E+00  0.00000000E+00  1.00000000E+00  0.00000000E+00  0.00000000E+00
  0.00000000E+00  0.00000000E+00  1.00000000E+00  0.00000000E+00  0.00000000E+00
  0.00000000E+00  0.00000000E+00  1.00000000E+00  0.00000000E+00  0.00000000E+00
  0.00000000E+00  0.00000000E+00  1.00000000E+00  0.00000000E+00  0.00000000E+00
  0.00000000E+00  0.00000000E+00  1.00000000E+00  0.00000000E+00  0.00000000E+00
  0.00000000E+00  0.00000000E+00  1.00000000E+00  0.00000000E+00  0.00000000E+00
  0.00000000E+00  0.00000000E+00  0.00000000E+00  1.00000000E+00  1.00000000E+00
  0.00000000E+00  1.00000000E+00  0.00000000E+00  0.00000000E+00  0.00000000E+00
  0.00000000E+00  0.00000000E+00  0.00000000E+00  0.00000000E+00  0.00000000E+00
  0.00000000E+00  0.00000000E+00
MxBond                                     I                3
NBond                                      I   N=           6
           3           3           1           1           1           1
IBond                                      I   N=          18
           2           3           4           1           5           6
           1           0           0           1           0           0
           2           0           0           2           0           0
RBond                                      R   N=          18
  1.00000000E+00  1.00000000E+00  1.00000000E+00  1.00000000E+00  1.00000000E+00
  1.00000000E+00  1.00000000E+00  0.00000000E+00  0.00000000E+00  1.00000000E+00
  0.00000000E+00  0.00000000E+00  1.00000000E+00  0.00000000E+00  0.00000000E+00
  1.00000000E+00  0.00000000E+00  0.00000000E+00
Virial Ratio                               R      2.009795788633390E+00
SCF Energy                                 R     -7.811186725096225E+01
Total Energy                               R     -7.811186725096225E+01
S**2                                       R      7.522953203419274E-01
S**2 after annihilation                    R      7.500040574167343E-01
RMS Force                                  R      4.388839695205537E-02
RMS Density                                R      2.975102010349235E-09
Job Status                                 I                1
Nuclear derivative order                   I                1
External E-field                           R   N=          35
  0.00000000E+00  0.00000000E+00  0.00000000E+00  0.00000000E+00  0.00000000E+00
  0.00000000E+00  0.00000000E+00  0.00000000E+00  0.00000000E+00  0.00000000E+00
  0.00000000E+00  0.00000000E+00  0.00000000E+00  0.00000000E+00  0.00000000E+00
  0.00000000E+00  0.00000000E+00  0.00000000E+00  0.00000000E+00  0.00000000E+00
  0.00000000E+00  0.00000000E+00  0.00000000E+00  0.00000000E+00  0.00000000E+00
  0.00000000E+00  0.00000000E+00  0.00000000E+00  0.00000000E+00  0.00000000E+00
  0.00000000E+00  0.00000000E+00  0.00000000E+00  0.00000000E+00  0.00000000E+00
IOpCl                                      I                1
IROHF                                      I                0
Alpha Orbital Energies                     R   N=          68
 -1.09173660E+01 -1.09171425E+01 -1.09314735E+00 -9.94547070E-01 -8.15208959E-01
 -7.64742851E-01 -7.11382639E-01 -5.88847263E-01 -3.48377459E-01 -1.83735087E-01
 -1.43463125E-01 -1.12470243E-01 -9.03801431E-02 -8.71980677E-02 -7.35553824E-02
 -7.33838879E-02 -4.71436795E-02 -4.40810053E-02 -1.95749238E-02 -1.24067201E-02
  2.50292586E-02  9.63030173E-02  1.83873268E-01  2.32195823E-01  2.49763959E-01
  3.28379569E-01  3.55557580E-01  3.74313792E-01  4.13553035E-01  4.42760145E-01
  4.62216920E-01  4.69688777E-01  5.38955609E-01  5.64708956E-01  7.88065824E-01
  8.04647871E-01  8.26411324E-01  1.02271537E+00  1.15404767E+00  1.17476066E+00
  1.21485804E+00  1.25145072E+00  1.26951343E+00  1.33869572E+00  1.46841081E+00
  1.56438971E+00  1.61678957E+00  1.66307654E+00  1.67307243E+00  1.72584929E+00
  1.78610369E+00  1.81303702E+00  2.11727762E+00  2.25916997E+00  2.28631860E+00
  2.31894754E+00  2.36765505E+00  2.38031148E+00  2.42907093E+00  2.46397886E+00
  2.47170648E+00  2.49604703E+00  2.52835759E+00  3.40019201E+00  3.43270062E+00
  3.48296350E+00  2.34710073E+01  2.35370418E+01
Beta Orbital Energies                      R   N=          68
 -1.09150729E+01 -1.09149254E+01 -1.06021321E+00 -9.73158627E-01 -8.08460473E-01
 -7.61228648E-01 -6.98236244E-01 -3.71066805E-01 -2.65721159E-01 -1.62712963E-01
 -1.58571593E-01 -1.16186984E-01 -8.50110816E-02 -8.49202454E-02 -7.94409074E-02
 -7.32378267E-02 -4.44057580E-02 -4.01026303E-02 -1.55100599E-02 -6.24749079E-03
  1.83785750E-02  1.02245375E-01  1.81998040E-01  2.30819770E-01  2.55021724E-01
  3.35428748E-01  3.59372587E-01  3.71403000E-01  4.23578238E-01  4.57407284E-01
  4.59216262E-01  4.82625377E-01  5.27567365E-01  5.61414165E-01  8.20417877E-01
  8.40803886E-01  8.54136663E-01  1.05503025E+00  1.16376611E+00  1.19155502E+00
  1.25471956E+00  1.26936066E+00  1.29691850E+00  1.35776074E+00  1.48328978E+00
  1.58635649E+00  1.65001636E+00  1.67710548E+00  1.69249619E+00  1.73837285E+00
  1.80459915E+00  1.83730489E+00  2.15428190E+00  2.27286132E+00  2.31614928E+00
  2.33115475E+00  2.40732509E+00  2.41078188E+00  2.46874987E+00  2.48207380E+00
  2.50777800E+00  2.53733339E+00  2.53934135E+00  3.46024216E+00  3.48103826E+00
  3.53125040E+00  2.34833926E+01  2.35500940E+01
Alpha MO coefficients                      R   N=        4624
  3.99028956E-01  3.28022920E-01 -9.56159191E-09 -6.19414205E-04  0.00000000E+00
  8.09155099E-03  4.29489881E-07  1.41573028E-03  0.00000000E+00 -2.04357175E-03
  4.63996439E-08  1.38794379E-05  0.00000000E+00 -5.47307907E-04 -2.05206957E-07
 -4.51736854E-04  0.00000000E+00 -7.86171178E-04  0.00000000E+00  0.00000000E+00
  9.02665816E-04  2.30220086E-07  3.99028956E-01  3.28022920E-01  9.56159191E-09
  6.19414205E-04  0.00000000E+00  8.09155099E-03 -4.29489881E-07 -1.41573028E-03
  0.00000000E+00 -2.04357175E-03 -4.63996439E-08 -1.38794379E-05  0.00000000E+00
 -5.47307907E-04  2.05206957E-07  4.51736854E-04  0.00000000E+00 -7.86171178E-04
  0.00000000E+00  0.00000000E+00  9.02665816E-04  2.30220086E-07  1.49779013E-04
 -2.27909513E-03  1.48782832E-03 -1.25791743E-03  6.76763434E-04  0.00000000E+00
  1.49688013E-04 -2.27992831E-03  1.48839787E-03  1.25821615E-03  6.76997554E-04
  0.00000000E+00  1.49779013E-04 -2.27909513E-03  1.48782832E-03  1.25791743E-03
 -6.76763434E-04  0.00000000E+00  1.49688013E-04 -2.27992831E-03  1.48839787E-03
 -1.25821615E-03 -6.76997554E-04  0.00000000E+00  3.99046568E-01  3.28101570E-01
 -1.00386312E-08 -5.92930050E-04  0.00000000E+00  8.00375082E-03  4.03120172E-07
  1.84762462E-03  0.00000000E+00 -3.70709112E-03 -1.64988018E-08  6.10846784E-04
  0.00000000E+00  1.63855043E-03 -5.50533664E-08 -1.15914230E-03  0.00000000E+00
 -7.13284947E-04  0.00000000E+00  0.00000000E+00  1.01876431E-03  2.09725947E-07
 -3.99046568E-01 -3.28101570E-01 -1.00386312E-08 -5.92930050E-04  0.00000000E+00
 -8.00375082E-03  4.03120172E-07  1.84762462E-03  0.00000000E+00  3.70709112E-03
 -1.64988018E-08  6.10846784E-04  0.00000000E+00 -1.63855043E-03 -5.50533664E-08
 -1.15914230E-03  0.00000000E+00  7.13284947E-04  0.00000000E+00  0.00000000E+00
 -1.01876431E-03 -2.09725947E-07  1.22120826E-04 -2.07374619E-03  1.60529859E-03
 -1.25863432E-03  5.99365216E-04  0.00000000E+00  1.22015323E-04 -2.07443675E-03
  1.60573216E-03  1.25891330E-03  5.99585826E-04  0.00000000E+00 -1.22120826E-04
  2.07374619E-03 -1.60529859E-03 -1.25863432E-03  5.99365216E-04  0.00000000E+00
 -1.22015323E-04  2.07443675E-03 -1.60573216E-03  1.25891330E-03  5.99585826E-04
  0.00000000E+00 -8.14416172E-02 -1.32671612E-01  3.34752164E-06 -7.09475908E-03
  0.00000000E+00  3.64515468E-01  3.22450380E-06 -2.19625777E-02  0.00000000E+00
  2.36931505E-01  9.20484681E-07 -1.12540403E-02  0.00000000E+00  5.29069926E-04
  9.92737735E-07  7.33334823E-03  0.00000000E+00 -5.95495886E-03  0.00000000E+00
  0.00000000E+00 -3.60761344E-03  5.87772886E-07 -8.14416172E-02 -1.32671612E-01
 -3.34752164E-06  7.09475908E-03  0.00000000E+00  3.64515468E-01 -3.22450380E-06
  2.19625777E-02  0.00000000E+00  2.36931505E-01 -9.20484681E-07  1.12540403E-02
  0.00000000E+00  5.29069926E-04 -9.92737735E-07 -7.33334823E-03  0.00000000E+00
 -5.95495886E-03  0.00000000E+00  0.00000000E+00 -3.60761344E-03  5.87772886E-07
  6.35582731E-02  6.96218163E-02 -8.70881131E-03  1.11474212E-02 -5.51063441E-03
  0.00000000E+00  6.35649813E-02  6.96284682E-02 -8.71122623E-03 -1.11479031E-02
 -5.51182124E-03  0.00000000E+00  6.35582731E-02  6.96218163E-02 -8.70881131E-03
 -1.11474212E-02  5.51063441E-03  0.00000000E+00  6.35649813E-02  6.96284682E-02
 -8.71122623E-03  1.11479031E-02  5.51182124E-03  0.00000000E+00 -7.65994633E-02
 -1.25245589E-01  7.19917895E-06  5.47018052E-02  0.00000000E+00  3.50836566E-01
  8.77831284E-06  8.13183780E-02  0.00000000E+00  2.57856859E-01  3.37016789E-06
  2.18412277E-02  0.00000000E+00 -3.95868528E-02  1.14403108E-07  1.63373633E-02
  0.00000000E+00 -2.71027253E-03  0.00000000E+00  0.00000000E+00  1.09769064E-02
  1.07432117E-06  7.65994633E-02  1.25245589E-01  7.19917895E-06  5.47018052E-02
  0.00000000E+00 -3.50836566E-01  8.77831284E-06  8.13183780E-02  0.00000000E+00
 -2.57856859E-01  3.37016789E-06  2.18412277E-02  0.00000000E+00  3.95868528E-02
  1.14403108E-07  1.63373633E-02  0.00000000E+00  2.71027253E-03  0.00000000E+00
  0.00000000E+00 -1.09769064E-02 -1.07432117E-06  8.30204937E-02  9.61318458E-02
 -2.93796807E-03  1.29924349E-02 -3.97754299E-03  0.00000000E+00  8.30336855E-02
  9.61445228E-02 -2.93910142E-03 -1.29935803E-02 -3.97897444E-03  0.00000000E+00
 -8.30204937E-02 -9.61318458E-02  2.93796807E-03  1.29924349E-02 -3.97754299E-03
  0.00000000E+00 -8.30336855E-02 -9.61445228E-02  2.93910142E-03 -1.29935803E-02
 -3.97897444E-03  0.00000000E+00  3.02166541E-06  5.09881214E-06  1.58106493E-01
  5.96243927E-07  0.00000000E+00 -1.48814390E-05  2.33509296E-01 -6.46865197E-07
  0.00000000E+00 -1.85905546E-05  1.42331583E-01  1.42607570E-06  0.00000000E+00
  3.50299222E-07  3.89799736E-03 -3.14592716E-07  0.00000000E+00 -2.05920527E-09
  0.00000000E+00  0.00000000E+00 -1.03127831E-06  6.21927392E-03 -3.02166541E-06
 -5.09881214E-06  1.58106493E-01  5.96243927E-07  0.00000000E+00  1.48814390E-05
  2.33509296E-01 -6.46865197E-07  0.00000000E+00  1.85905546E-05  1.42331583E-01
  1.42607570E-06  0.00000000E+00 -3.50299222E-07  3.89799736E-03 -3.14592716E-07
  0.00000000E+00  2.05920527E-09  0.00000000E+00  0.00000000E+00  1.03127831E-06
 -6.21927392E-03 -1.01238254E-01 -1.27924561E-01 -3.85940492E-03 -9.51116402E-03
  7.80629793E-03  0.00000000E+00  1.01232489E-01  1.27913353E-01  3.85782118E-03
 -9.50954383E-03 -7.80673747E-03  0.00000000E+00  1.01238254E-01  1.27924561E-01
  3.85940492E-03 -9.51116402E-03  7.80629793E-03  0.00000000E+00 -1.01232489E-01
 -1.27913353E-01 -3.85782118E-03 -9.50954383E-03 -7.80673747E-03  0.00000000E+00
  1.46514732E-06  2.58811505E-06  1.62545771E-01  2.86169260E-05  0.00000000E+00
 -7.65995381E-06  2.35212780E-01  4.41152106E-05  0.00000000E+00 -1.28606432E-05
  1.53602600E-01  2.47238163E-05  0.00000000E+00  1.95556850E-07  1.34565376E-02
 -1.21116234E-06  0.00000000E+00  1.67390916E-07  0.00000000E+00  0.00000000E+00
  2.37405158E-06  2.15673268E-02  1.46514732E-06  2.58811505E-06 -1.62545771E-01
 -2.86169260E-05  0.00000000E+00 -7.65995381E-06 -2.35212780E-01 -4.41152106E-05
  0.00000000E+00 -1.28606432E-05 -1.53602600E-01 -2.47238163E-05  0.00000000E+00
  1.95556850E-07 -1.34565376E-02  1.21116234E-06  0.00000000E+00  1.67390916E-07
  0.00000000E+00  0.00000000E+00  2.37405158E-06  2.15673268E-02 -1.10378052E-01
 -1.48663891E-01 -1.25043026E-02 -9.23076564E-03  8.80354514E-03  0.00000000E+00
  1.10395092E-01  1.48684177E-01  1.25066661E-02 -9.23202677E-03 -8.80315609E-03
  0.00000000E+00 -1.10378052E-01 -1.48663891E-01 -1.25043026E-02  9.23076564E-03
 -8.80354514E-03  0.00000000E+00  1.10395092E-01  1.48684177E-01  1.25066661E-02
  9.23202677E-03  8.80315609E-03  0.00000000E+00  5.66251778E-03  9.89293225E-03
 -2.45240597E-05  1.83631724E-01  0.00000000E+00 -2.84509862E-02 -3.72461385E-05
  2.95295407E-01  0.00000000E+00 -4.80801914E-02 -2.50783566E-05  1.77564063E-01
  0.00000000E+00  1.86381919E-03 -1.33715678E-06 -9.83058347E-03  0.00000000E+00
  1.48009316E-03  0.00000000E+00  0.00000000E+00  2.04492758E-02 -2.49101849E-06
  5.66251778E-03  9.89293225E-03  2.45240597E-05 -1.83631724E-01  0.00000000E+00
 -2.84509862E-02  3.72461385E-05 -2.95295407E-01  0.00000000E+00 -4.80801914E-02
  2.50783566E-05 -1.77564063E-01  0.00000000E+00  1.86381919E-03  1.33715678E-06
  9.83058347E-03  0.00000000E+00  1.48009316E-03  0.00000000E+00  0.00000000E+00
  2.04492758E-02 -2.49101849E-06  6.28416155E-02  9.39900499E-02  2.19352340E-02
  9.13752129E-03  4.07414823E-03  0.00000000E+00  6.28132109E-02  9.39466036E-02
  2.19271765E-02 -9.13557277E-03  4.07646884E-03  0.00000000E+00  6.28416155E-02
  9.39900499E-02  2.19352340E-02 -9.13752129E-03 -4.07414823E-03  0.00000000E+00
  6.28132109E-02  9.39466036E-02  2.19271765E-02  9.13557277E-03 -4.07646884E-03
  0.00000000E+00  0.00000000E+00  0.00000000E+00  0.00000000E+00  0.00000000E+00
  1.86067024E-01  0.00000000E+00  0.00000000E+00  0.00000000E+00  3.04749877E-01
  0.00000000E+00  0.00000000E+00  0.00000000E+00  2.80033589E-01  0.00000000E+00
  0.00000000E+00  0.00000000E+00  3.63487842E-03  0.00000000E+00  3.46232192E-07
 -1.84867945E-02  0.00000000E+00  0.00000000E+00  0.00000000E+00  0.00000000E+00
  0.00000000E+00  0.00000000E+00  1.86067024E-01  0.00000000E+00  0.00000000E+00
  0.00000000E+00  3.04749877E-01  0.00000000E+00  0.00000000E+00  0.00000000E+00
  2.80033589E-01  0.00000000E+00  0.00000000E+00  0.00000000E+00  3.63487842E-03
  0.00000000E+00 -3.46232192E-07  1.84867945E-02  0.00000000E+00  0.00000000E+00
  0.00000000E+00  0.00000000E+00  0.00000000E+00  0.00000000E+00  0.00000000E+00
  1.13434947E-02  0.00000000E+00  0.00000000E+00  0.00000000E+00  0.00000000E+00
  0.00000000E+00  1.13441067E-02  0.00000000E+00  0.00000000E+00  0.00000000E+00
  0.00000000E+00  0.00000000E+00  1.13434947E-02  0.00000000E+00  0.00000000E+00
  0.00000000E+00  0.00000000E+00  0.00000000E+00  1.13441067E-02  0.00000000E+00
  0.00000000E+00  0.00000000E+00  0.00000000E+00  2.08143729E-01  0.00000000E+00
  0.00000000E+00  0.00000000E+00  3.32319583E-01  0.00000000E+00  0.00000000E+00
  0.00000000E+00  3.79186043E-01  0.00000000E+00  0.00000000E+00  0.00000000E+00
  6.69781881E-02  0.00000000E+00  3.65568525E-07  1.65206092E-02  0.00000000E+00
  0.00000000E+00  0.00000000E+00  0.00000000E+00  0.00000000E+00  0.00000000E+00
 -2.08143729E-01  0.00000000E+00  0.00000000E+00  0.00000000E+00 -3.32319583E-01
  0.00000000E+00  0.00000000E+00  0.00000000E+00 -3.79186043E-01  0.00000000E+00
  0.00000000E+00  0.00000000E+00 -6.69781881E-02  0.00000000E+00  3.65568525E-07
  1.65206092E-02  0.00000000E+00  0.00000000E+00  0.00000000E+00  0.00000000E+00
  0.00000000E+00  0.00000000E+00  0.00000000E+00  1.70752857E-02  0.00000000E+00
  0.00000000E+00  0.00000000E+00  0.00000000E+00  0.00000000E+00  1.70762049E-02
  0.00000000E+00  0.00000000E+00  0.00000000E+00  0.00000000E+00  0.00000000E+00
 -1.70752857E-02  0.00000000E+00  0.00000000E+00  0.00000000E+00  0.00000000E+00
  0.00000000E+00 -1.70762049E-02 -5.57972377E-02 -9.52381965E-02  4.85777794E-07
 -1.60906880E-01  0.00000000E+00  2.82511428E-01  2.79727949E-06 -2.51222900E-01
  0.00000000E+00  8.50120278E-01  5.88682839E-06 -5.06442421E-01  0.00000000E+00
  1.33910428E+00  7.18248551E-06 -7.15290906E-01  0.00000000E+00  1.90623600E-02
  0.00000000E+00  0.00000000E+00  2.44817776E-02 -7.49828306E-07  5.57972377E-02
  9.52381965E-02  4.85777794E-07 -1.60906880E-01  0.00000000E+00 -2.82511428E-01
  2.79727949E-06 -2.51222900E-01  0.00000000E+00 -8.50120278E-01  5.88682839E-06
 -5.06442421E-01  0.00000000E+00 -1.33910428E+00  7.18248551E-06 -7.15290906E-01
  0.00000000E+00 -1.90623600E-02  0.00000000E+00  0.00000000E+00 -2.44817776E-02
  7.49828306E-07 -2.87202733E-02 -8.58574570E-02 -1.23374464E-01 -4.61551573E-03
 -1.63925723E-02  0.00000000E+00 -2.87244608E-02 -8.58680838E-02 -1.23380305E-01
  4.61757521E-03 -1.63929583E-02  0.00000000E+00  2.87202733E-02  8.58574570E-02
  1.23374464E-01 -4.61551573E-03 -1.63925723E-02  0.00000000E+00  2.87244608E-02
  8.58680838E-02  1.23380305E-01  4.61757521E-03 -1.63929583E-02  0.00000000E+00
  3.29174555E-02  5.67428531E-02  6.22260825E-06 -3.83891443E-02  0.00000000E+00
 -1.72740466E-01  4.94171164E-06 -5.32973647E-02  0.00000000E+00 -7.09417770E-01
  3.10825500E-05 -1.58669339E-01  0.00000000E+00  8.27504288E-01  2.42760292E-05
  1.11898914E-01  0.00000000E+00  1.08951392E-02  0.00000000E+00  0.00000000E+00
  5.43276476E-03 -1.48129408E-06  3.29174555E-02  5.67428531E-02 -6.22260825E-06
  3.83891443E-02  0.00000000E+00 -1.72740466E-01 -4.94171164E-06  5.32973647E-02
  0.00000000E+00 -7.09417770E-01 -3.10825500E-05  1.58669339E-01  0.00000000E+00
  8.27504288E-01 -2.42760292E-05 -1.11898914E-01  0.00000000E+00  1.08951392E-02
  0.00000000E+00  0.00000000E+00  5.43276476E-03 -1.48129408E-06  3.26642098E-03
  1.09482794E-01  2.93075710E-02 -8.19925389E-03 -2.17090670E-03  0.00000000E+00
  3.26279950E-03  1.09482097E-01  2.92371843E-02  8.19726866E-03 -2.17201117E-03
  0.00000000E+00  3.26642098E-03  1.09482794E-01  2.93075710E-02  8.19925389E-03
  2.17090670E-03  0.00000000E+00  3.26279950E-03  1.09482097E-01  2.92371843E-02
 -8.19726866E-03  2.17201117E-03  0.00000000E+00 -4.52729747E-07 -6.88542718E-07
 -7.70659241E-02  4.72392207E-06  0.00000000E+00  1.94115050E-07 -1.26295289E-01
  5.94449463E-06  0.00000000E+00  1.62505666E-05 -2.60921592E-01  2.58953367E-05
  0.00000000E+00 -1.11032057E-04  6.76746979E-01  5.64975529E-05  0.00000000E+00
  4.85699082E-07  0.00000000E+00  0.00000000E+00 -1.06319022E-06 -6.18394151E-04
  4.52729747E-07  6.88542718E-07 -7.70659241E-02  4.72392207E-06  0.00000000E+00
 -1.94115050E-07 -1.26295289E-01  5.94449463E-06  0.00000000E+00 -1.62505666E-05
 -2.60921592E-01  2.58953367E-05  0.00000000E+00  1.11032057E-04  6.76746979E-01
  5.64975529E-05  0.00000000E+00 -4.85699082E-07  0.00000000E+00  0.00000000E+00