Title Card Required                                                     
FOpt      UM062X                                                      6-311+G(d,p)        
Number of atoms                            I                6
Info1-9                                    I   N=           9
          15          15           0           0           0         110
           2          18        -502
Full Title                                 C   N=           2
Title Card Required     
Route                                      C   N=           4
#p opt UM062X/6-311+G** nosymm int=superfine    
Charge                                     I                1
Multiplicity                               I                2
Number of electrons                        I               15
Number of alpha electrons                  I                8
Number of beta electrons                   I                7
Number of basis functions                  I               68
Number of independent functions            I               68
Number of point charges in /Mol/           I                0
Number of translation vectors              I                0
Atomic numbers                             I   N=           6
           6           6           1           1           1           1
Nuclear charges                            R   N=           6
  6.00000000E+00  6.00000000E+00  1.00000000E+00  1.00000000E+00  1.00000000E+00
  1.00000000E+00
Current cartesian coordinates              R   N=          18
 -1.62971538E+00  0.00000000E+00  0.00000000E+00  1.62971538E+00  0.00000000E+00
  0.00000000E+00 -2.58281914E+00 -1.81453423E+00 -1.30303768E-08 -2.58307372E+00
  1.81447438E+00  5.13677753E-09  2.58281914E+00  1.81453423E+00 -8.50450384E-09
  2.58307372E+00 -1.81447438E+00  9.66262076E-09
Number of symbols in /Mol/                 I                0
Force Field                                I                0
Atom Types                                 C   N=           6
                                                            
            
Int Atom Types                             I   N=           6
           0           0           0           0           0           0
MM charges                                 R   N=           6
  0.00000000E+00  0.00000000E+00  0.00000000E+00  0.00000000E+00  0.00000000E+00
  0.00000000E+00
Integer atomic weights                     I   N=           6
          12          12           1           1           1           1
Real atomic weights                        R   N=           6
  1.20000000E+01  1.20000000E+01  1.00782504E+00  1.00782504E+00  1.00782504E+00
  1.00782504E+00
Atom fragment info                         I   N=           6
           0           0           0           0           0           0
Atom residue num                           I   N=           6
           0           0           0           0           0           0
Nuclear spins                              I   N=           6
           0           0           1           1           1           1
Nuclear ZEff                               R   N=           6
 -3.60000000E+00 -3.60000000E+00 -1.00000000E+00 -1.00000000E+00 -1.00000000E+00
 -1.00000000E+00
Nuclear ZNuc                               R   N=           6
  6.00000000E+00  6.00000000E+00  1.00000000E+00  1.00000000E+00  1.00000000E+00
  1.00000000E+00
Nuclear QMom                               R   N=           6
  0.00000000E+00  0.00000000E+00  0.00000000E+00  0.00000000E+00  0.00000000E+00
  0.00000000E+00
Nuclear GFac                               R   N=           6
  0.00000000E+00  0.00000000E+00  2.79284600E+00  2.79284600E+00  2.79284600E+00
  2.79284600E+00
MicOpt                                     I   N=           6
          -2          -2          -1          -1          -1          -1
Number of residues                         I                0
Number of secondary structures             I                0
Redundant internal dimensions              I   N=           4
          20          10           6           4
Redundant internal coordinate indices      I   N=          80
           1          -1           0           0           1          -2
           0           0           1          -3           0           0
           2          -1           0           0           2          -2
           0           0           2          -3           0           0
           1           3           0           0           1           4
           0           0           2           5           0           0
           2           6           0           0           2           1
           3           0           2           1           4           0
           3           1           4           0           1           2
           5           0           1           2           6           0
           5           2           6           0           3           1
           2           5           3           1           2           6
           4           1           2           5           4           1
           2           6
Redundant internal coordinates             R   N=          20
 -1.62971538E+00  0.00000000E+00  0.00000000E+00  1.62971538E+00  0.00000000E+00
  0.00000000E+00  2.04961978E+00  2.04968519E+00  2.04961978E+00  2.04968519E+00
  2.05444778E+00  2.05457132E+00  2.17416621E+00  2.05444778E+00  2.05457132E+00
  2.17416621E+00  3.14159265E+00 -1.49011612E-08 -0.00000000E+00  3.14159265E+00
ZRed-IntVec                                I   N=          20
          -1          -1          -1          -1          -1          -1
           0           0           0           0           0           0
           0           0           0           0           0           0
           0           0
ZRed-FPVec                                 R   N=          20
  0.00000000E+00  0.00000000E+00  0.00000000E+00  0.00000000E+00  0.00000000E+00
  0.00000000E+00  0.00000000E+00  0.00000000E+00  0.00000000E+00  0.00000000E+00
  0.00000000E+00  0.00000000E+00  0.00000000E+00  0.00000000E+00  0.00000000E+00
  0.00000000E+00  0.00000000E+00  0.00000000E+00  0.00000000E+00  0.00000000E+00
ZRed-Constraint1                           R   N=          20
 -1.62971538E+00  0.00000000E+00  0.00000000E+00  1.62971538E+00  0.00000000E+00
  0.00000000E+00  2.17852540E+00  2.18076147E+00  2.17852540E+00  2.18076147E+00
  2.19964420E+00  2.19461195E+00  1.88892915E+00  2.19964420E+00  2.19461195E+00
  1.88892915E+00  3.14159265E+00  0.00000000E+00  0.00000000E+00  3.14159265E+00
ZRed-Constraint2                           R   N=          20
 -1.62971538E+00  0.00000000E+00  0.00000000E+00  1.62971538E+00  0.00000000E+00
  0.00000000E+00  0.00000000E+00  0.00000000E+00  0.00000000E+00  0.00000000E+00
  0.00000000E+00  0.00000000E+00  0.00000000E+00  0.00000000E+00  0.00000000E+00
  0.00000000E+00  0.00000000E+00  0.00000000E+00  0.00000000E+00  0.00000000E+00
Number of contracted shells                I               28
Number of primitive shells                 I               50
Pure/Cartesian d shells                    I                0
Pure/Cartesian f shells                    I                0
Highest angular momentum                   I                2
Largest degree of contraction              I                6
Shell types                                I   N=          28
           0          -1          -1          -1          -1          -2
           0          -1          -1          -1          -1          -2
           0           0           0           1           0           0
           0           1           0           0           0           1
           0           0           0           1
Number of primitives per shell             I   N=          28
           6           3           1           1           1           1
           6           3           1           1           1           1
           3           1           1           1           3           1
           1           1           3           1           1           1
           3           1           1           1
Shell to atom map                          I   N=          28
           1           1           1           1           1           1
           2           2           2           2           2           2
           3           3           3           3           4           4
           4           4           5           5           5           5
           6           6           6           6
Primitive exponents                        R   N=          50
  4.56324000E+03  6.82024000E+02  1.54973000E+02  4.44553000E+01  1.30290000E+01
  1.82773000E+00  2.09642000E+01  4.80331000E+00  1.45933000E+00  4.83456000E-01
  1.45585000E-01  4.38000000E-02  6.26000000E-01  4.56324000E+03  6.82024000E+02
  1.54973000E+02  4.44553000E+01  1.30290000E+01  1.82773000E+00  2.09642000E+01
  4.80331000E+00  1.45933000E+00  4.83456000E-01  1.45585000E-01  4.38000000E-02
  6.26000000E-01  3.38650000E+01  5.09479000E+00  1.15879000E+00  3.25840000E-01
  1.02741000E-01  7.50000000E-01  3.38650000E+01  5.09479000E+00  1.15879000E+00
  3.25840000E-01  1.02741000E-01  7.50000000E-01  3.38650000E+01  5.09479000E+00
  1.15879000E+00  3.25840000E-01  1.02741000E-01  7.50000000E-01  3.38650000E+01
  5.09479000E+00  1.15879000E+00  3.25840000E-01  1.02741000E-01  7.50000000E-01
Contraction coefficients                   R   N=          50
  1.96665025E-03  1.52306019E-02  7.61269097E-02  2.60801033E-01  6.16462078E-01
  2.21006028E-01  1.14660081E-01  9.19999648E-01 -3.03068213E-03  1.00000000E+00
  1.00000000E+00  1.00000000E+00  1.00000000E+00  1.96665025E-03  1.52306019E-02
  7.61269097E-02  2.60801033E-01  6.16462078E-01  2.21006028E-01  1.14660081E-01
  9.19999648E-01 -3.03068213E-03  1.00000000E+00  1.00000000E+00  1.00000000E+00
  1.00000000E+00  2.54938145E-02  1.90373109E-01  8.52161486E-01  1.00000000E+00
  1.00000000E+00  1.00000000E+00  2.54938145E-02  1.90373109E-01  8.52161486E-01
  1.00000000E+00  1.00000000E+00  1.00000000E+00  2.54938145E-02  1.90373109E-01
  8.52161486E-01  1.00000000E+00  1.00000000E+00  1.00000000E+00  2.54938145E-02
  1.90373109E-01  8.52161486E-01  1.00000000E+00  1.00000000E+00  1.00000000E+00
P(S=P) Contraction coefficients            R   N=          50
  0.00000000E+00  0.00000000E+00  0.00000000E+00  0.00000000E+00  0.00000000E+00
  0.00000000E+00  4.02486927E-02  2.37593957E-01  8.15853851E-01  1.00000000E+00
  1.00000000E+00  1.00000000E+00  0.00000000E+00  0.00000000E+00  0.00000000E+00
  0.00000000E+00  0.00000000E+00  0.00000000E+00  0.00000000E+00  4.02486927E-02
  2.37593957E-01  8.15853851E-01  1.00000000E+00  1.00000000E+00  1.00000000E+00
  0.00000000E+00  0.00000000E+00  0.00000000E+00  0.00000000E+00  0.00000000E+00
  0.00000000E+00  0.00000000E+00  0.00000000E+00  0.00000000E+00  0.00000000E+00
  0.00000000E+00  0.00000000E+00  0.00000000E+00  0.00000000E+00  0.00000000E+00
  0.00000000E+00  0.00000000E+00  0.00000000E+00  0.00000000E+00  0.00000000E+00
  0.00000000E+00  0.00000000E+00  0.00000000E+00  0.00000000E+00  0.00000000E+00
Coordinates of each shell                  R   N=          84
 -1.62971538E+00  0.00000000E+00  0.00000000E+00 -1.62971538E+00  0.00000000E+00
  0.00000000E+00 -1.62971538E+00  0.00000000E+00  0.00000000E+00 -1.62971538E+00
  0.00000000E+00  0.00000000E+00 -1.62971538E+00  0.00000000E+00  0.00000000E+00
 -1.62971538E+00  0.00000000E+00  0.00000000E+00  1.62971538E+00  0.00000000E+00
  0.00000000E+00  1.62971538E+00  0.00000000E+00  0.00000000E+00  1.62971538E+00
  0.00000000E+00  0.00000000E+00  1.62971538E+00  0.00000000E+00  0.00000000E+00
  1.62971538E+00  0.00000000E+00  0.00000000E+00  1.62971538E+00  0.00000000E+00
  0.00000000E+00 -2.58281914E+00 -1.81453423E+00 -1.30303768E-08 -2.58281914E+00
 -1.81453423E+00 -1.30303768E-08 -2.58281914E+00 -1.81453423E+00 -1.30303768E-08
 -2.58281914E+00 -1.81453423E+00 -1.30303768E-08 -2.58307372E+00  1.81447438E+00
  5.13677753E-09 -2.58307372E+00  1.81447438E+00  5.13677753E-09 -2.58307372E+00
  1.81447438E+00  5.13677753E-09 -2.58307372E+00  1.81447438E+00  5.13677753E-09
  2.58281914E+00  1.81453423E+00 -8.50450384E-09  2.58281914E+00  1.81453423E+00
 -8.50450384E-09  2.58281914E+00  1.81453423E+00 -8.50450384E-09  2.58281914E+00
  1.81453423E+00 -8.50450384E-09  2.58307372E+00 -1.81447438E+00  9.66262076E-09
  2.58307372E+00 -1.81447438E+00  9.66262076E-09  2.58307372E+00 -1.81447438E+00
  9.66262076E-09  2.58307372E+00 -1.81447438E+00  9.66262076E-09
Num ILSW                                   I              100
ILSW                                       I   N=         100
           1           0           0           0           2           0
           0           0           0           0        4336          -1
           7           0           0           0           2           0
           0           0           0           0           1           0
           1           1           0           0           0           0
           0           0      100000           0          -1           0
           0           0           0           0           0           0
           0           0           0           1           0           0
           0 -2000000000           1           0           0           0
           0           0           4          52           0           0
           0           0          55           0           0           0
           0           0           0           6           0           1
           0           0           0           0           0           0
           0           0           0           0           0           0
           0           0           0           0           0           0
           0           0           0           0           0           0
           0           0           0           0
Num RLSW                                   I               52
RLSW                                       R   N=          52
  1.00000000E+00  1.00000000E+00  1.00000000E+00  1.00000000E+00  5.40000000E-01
  0.00000000E+00  0.00000000E+00  1.00000000E+00  0.00000000E+00  0.00000000E+00
  0.00000000E+00  0.00000000E+00  1.00000000E+00  0.00000000E+00  0.00000000E+00
  0.00000000E+00  0.00000000E+00  1.00000000E+00  0.00000000E+00  0.00000000E+00
  0.00000000E+00  0.00000000E+00  1.00000000E+00  0.00000000E+00  0.00000000E+00
  0.00000000E+00  0.00000000E+00  1.00000000E+00  0.00000000E+00  0.00000000E+00
  0.00000000E+00  0.00000000E+00  1.00000000E+00  0.00000000E+00  0.00000000E+00
  0.00000000E+00  0.00000000E+00  0.00000000E+00  1.00000000E+00  1.00000000E+00
  0.00000000E+00  1.00000000E+00  0.00000000E+00  0.00000000E+00  0.00000000E+00
  0.00000000E+00  0.00000000E+00  0.00000000E+00  0.00000000E+00  0.00000000E+00
  0.00000000E+00  0.00000000E+00
MxBond                                     I                3
NBond                                      I   N=           6
           3           3           1           1           1           1
IBond                                      I   N=          18
           2           3           4           1           5           6
           1           0           0           1           0           0
           2           0           0           2           0           0
RBond                                      R   N=          18
  1.00000000E+00  1.00000000E+00  1.00000000E+00  1.00000000E+00  1.00000000E+00
  1.00000000E+00  1.00000000E+00  0.00000000E+00  0.00000000E+00  1.00000000E+00
  0.00000000E+00  0.00000000E+00  1.00000000E+00  0.00000000E+00  0.00000000E+00
  1.00000000E+00  0.00000000E+00  0.00000000E+00
Virial Ratio                               R      2.009212352093014E+00
SCF Energy                                 R     -7.813602857881065E+01
Total Energy                               R     -7.813602857881065E+01
S**2                                       R      7.523493838827919E-01
S**2 after annihilation                    R      7.500043045434485E-01
RMS Force                                  R      1.012036016813982E-04
RMS Density                                R      8.012062625563603E-09
Job Status                                 I                1
Nuclear derivative order                   I                1
External E-field                           R   N=          35
  0.00000000E+00  0.00000000E+00  0.00000000E+00  0.00000000E+00  0.00000000E+00
  0.00000000E+00  0.00000000E+00  0.00000000E+00  0.00000000E+00  0.00000000E+00
  0.00000000E+00  0.00000000E+00  0.00000000E+00  0.00000000E+00  0.00000000E+00
  0.00000000E+00  0.00000000E+00  0.00000000E+00  0.00000000E+00  0.00000000E+00
  0.00000000E+00  0.00000000E+00  0.00000000E+00  0.00000000E+00  0.00000000E+00
  0.00000000E+00  0.00000000E+00  0.00000000E+00  0.00000000E+00  0.00000000E+00
  0.00000000E+00  0.00000000E+00  0.00000000E+00  0.00000000E+00  0.00000000E+00
IOpCl                                      I                1
IROHF                                      I                0
Alpha Orbital Energies                     R   N=          68
 -1.09138425E+01 -1.09135629E+01 -1.10923661E+00 -9.91106160E-01 -8.20431473E-01
 -7.58235793E-01 -7.31451146E-01 -6.03786218E-01 -3.38452104E-01 -1.56991167E-01
 -1.44366241E-01 -1.14123247E-01 -8.90364792E-02 -7.52821647E-02 -7.43623474E-02
 -7.25324534E-02 -4.67297961E-02 -4.50019162E-02 -1.58169216E-02 -1.55719266E-02
  2.78584401E-02  9.81783346E-02  1.87218455E-01  2.33009972E-01  2.54852742E-01
  3.28916188E-01  3.38109694E-01  3.73732452E-01  4.17259255E-01  4.35382427E-01
  4.64896409E-01  4.67465839E-01  5.43577067E-01  5.68774251E-01  7.81210144E-01
  7.86310241E-01  8.32603933E-01  1.09158359E+00  1.16357123E+00  1.16841297E+00
  1.19994178E+00  1.27530757E+00  1.28298572E+00  1.32321893E+00  1.47045569E+00
  1.60002457E+00  1.63547800E+00  1.64563786E+00  1.68510644E+00  1.75934443E+00
  1.79456735E+00  1.83758326E+00  2.12156726E+00  2.25195000E+00  2.26057824E+00
  2.32218520E+00  2.37391756E+00  2.38438614E+00  2.42437821E+00  2.47853795E+00
  2.51069811E+00  2.52437433E+00  2.59003958E+00  3.43435633E+00  3.49438322E+00
  3.55841711E+00  2.34644112E+01  2.35479563E+01
Beta Orbital Energies                      R   N=          68
 -1.09115727E+01 -1.09113818E+01 -1.07506649E+00 -9.70242120E-01 -8.12820818E-01
 -7.54724263E-01 -7.19461029E-01 -3.80690713E-01 -2.58123236E-01 -1.60371248E-01
 -1.43559799E-01 -1.17700084E-01 -8.87673024E-02 -8.11095356E-02 -7.26870926E-02
 -6.31578678E-02 -4.52458478E-02 -4.01990488E-02 -1.13008168E-02 -9.73055182E-03
  2.24143871E-02  1.03596308E-01  1.84196171E-01  2.30323779E-01  2.60748468E-01
  3.31429614E-01  3.54730849E-01  3.58969714E-01  4.27319229E-01  4.49678134E-01
  4.68041859E-01  4.77011874E-01  5.27362177E-01  5.63203178E-01  8.14025744E-01
  8.24249960E-01  8.59747523E-01  1.12114639E+00  1.17315113E+00  1.18671467E+00
  1.24372060E+00  1.29889587E+00  1.30312081E+00  1.34162016E+00  1.48536037E+00
  1.62501290E+00  1.66585480E+00  1.66669809E+00  1.69987835E+00  1.77297054E+00
  1.81385252E+00  1.86522413E+00  2.15755385E+00  2.27298819E+00  2.28621231E+00
  2.33143534E+00  2.40516549E+00  2.41269566E+00  2.46321342E+00  2.49718426E+00
  2.55497868E+00  2.56330849E+00  2.60268126E+00  3.48316468E+00  3.54312756E+00
  3.61982889E+00  2.34769188E+01  2.35613381E+01
Alpha MO coefficients                      R   N=        4624
  3.99020782E-01  3.28000310E-01  6.55769873E-04  6.63625371E-08  3.16950891E-12
  8.21264424E-03 -1.49482022E-03 -4.65396083E-07 -7.89461315E-12 -2.08038767E-03
 -3.24492014E-05 -1.41200142E-08  3.72809705E-13 -5.68282479E-04  4.93531559E-04
  6.28293747E-08  2.12395122E-12 -7.62887831E-04  2.35859190E-12  1.22080136E-11
 -9.02365261E-04 -1.42367739E-08  3.99023441E-01  3.28002496E-01 -6.55773268E-04
 -6.63628710E-08  3.77781229E-14  8.21269726E-03  1.49483176E-03  4.65398920E-07
  9.43838936E-13 -2.08041371E-03  3.24540788E-05  1.41195573E-08  4.33258607E-13
 -5.68268496E-04 -4.93540044E-04 -6.28298979E-08 -1.23610621E-12 -7.62892714E-04
  5.98088203E-14 -1.22068315E-11 -9.02370988E-04 -1.42365124E-08  1.53174469E-04
 -2.31402936E-03  1.51708113E-03 -6.94507002E-04 -1.26272386E-03 -8.77354275E-12
  1.53259993E-04 -2.31351668E-03  1.51682830E-03 -6.94534474E-04  1.26240832E-03
  3.31639606E-12  1.53175423E-04 -2.31404275E-03  1.51709156E-03  6.94510868E-04
  1.26273197E-03 -5.62872341E-12  1.53260947E-04 -2.31353007E-03  1.51683872E-03
  6.94538340E-04 -1.26241643E-03  6.46125643E-12  3.99042164E-01  3.28104314E-01
  5.09598869E-04  5.01293870E-08  3.06050759E-12  7.95883212E-03 -1.73222134E-03
 -4.26119919E-07 -7.61223443E-12 -3.90881797E-03 -7.32192709E-04  6.71856344E-08
  1.49572552E-12  2.09966900E-03  1.27392940E-03  7.80295668E-08  1.63678947E-12
 -7.33006049E-04  2.37378948E-12  9.89695973E-12 -8.59649851E-04  3.97799484E-08
 -3.99039506E-01 -3.28102129E-01  5.09594499E-04  5.01289447E-08 -1.47223562E-13
 -7.95877739E-03 -1.73221138E-03 -4.26116813E-07 -1.03949495E-12  3.90880411E-03
 -7.32192492E-04  6.71857851E-08  1.81027695E-13 -2.09967279E-03  1.27392611E-03
  7.80291774E-08 -3.99993349E-13  7.33000965E-04 -2.88875252E-13  9.89643539E-12
  8.59643839E-04 -3.97800391E-08  1.43170055E-04 -2.01076557E-03  1.56516447E-03
 -5.80255683E-04 -1.21740925E-03 -8.75417673E-12  1.43250576E-04 -2.01029553E-03
  1.56478557E-03 -5.80276025E-04  1.21709854E-03  3.33749083E-12 -1.43169034E-04
  2.01075015E-03 -1.56515437E-03 -5.80251056E-04 -1.21740084E-03  5.61195581E-12
 -1.43249554E-04  2.01028012E-03 -1.56477547E-03 -5.80271397E-04  1.21709013E-03
 -6.47879115E-12 -8.19882309E-02 -1.33525108E-01  1.50137288E-02 -4.10108936E-06
 -5.96037401E-11  3.65913765E-01  3.35839719E-02 -4.23600893E-06 -6.86423876E-11
  2.31441654E-01  1.35883113E-02 -2.05091596E-06 -3.68502351E-11  3.40752885E-04
 -8.18731939E-03  1.42673743E-08 -2.14186656E-11 -6.10807599E-03  2.15828254E-12
  2.80661327E-11  5.00311770E-03 -3.63744402E-07 -8.19882314E-02 -1.33525109E-01
 -1.50137285E-02  4.10108939E-06 -6.43787359E-12  3.65913768E-01 -3.35839715E-02
  4.23600895E-06 -7.10158250E-12  2.31441655E-01 -1.35883112E-02  2.05091600E-06
 -1.10596327E-11  3.40752651E-04  8.18731948E-03 -1.42673516E-08  1.41581654E-11
 -6.10807600E-03  2.28323037E-12 -2.80685369E-11  5.00311763E-03 -3.63744405E-07
  6.08082247E-02  6.60330642E-02 -9.13032689E-03  5.69143442E-03  1.06538078E-02
  7.59604007E-11  6.08012438E-02  6.60282834E-02 -9.12941098E-03  5.69224113E-03
 -1.06522681E-02 -3.59673865E-11  6.08082252E-02  6.60330648E-02 -9.13032692E-03
 -5.69143444E-03 -1.06538079E-02  5.29973450E-11  6.08012443E-02  6.60282840E-02
 -9.12941102E-03 -5.69224115E-03  1.06522682E-02 -5.89274222E-11 -7.55913523E-02
 -1.23660797E-01 -5.88473835E-02 -7.52232512E-06 -1.31111825E-10  3.45760214E-01
 -8.72538228E-02 -9.51271070E-06 -1.77136319E-10  2.60255334E-01 -2.30275512E-02
 -4.57120872E-06 -8.24961033E-11 -4.63453010E-02 -1.81087364E-02 -1.79475688E-07
 -1.62511780E-11 -2.24329712E-03  1.06971870E-11  7.44298695E-11 -1.11929011E-02
 -9.09352633E-07  7.55913518E-02  1.23660796E-01 -5.88473839E-02 -7.52232507E-06
 -2.93633742E-11 -3.45760212E-01 -8.72538235E-02 -9.51271063E-06 -4.47026636E-11
 -2.60255332E-01 -2.30275516E-02 -4.57120890E-06 -2.08563517E-11  4.63453010E-02
 -1.81087364E-02 -1.79475817E-07  6.36482686E-12  2.24329707E-03  4.19945247E-12
  7.44191044E-11  1.11929012E-02  9.09352629E-07  8.39166700E-02  9.76281564E-02
 -2.91945756E-03  4.22307431E-03  1.31335269E-02  9.46792070E-11  8.39097690E-02
  9.76234976E-02 -2.91830520E-03  4.22428746E-03 -1.31325224E-02 -4.97451423E-11
 -8.39166697E-02 -9.76281561E-02  2.91945750E-03  4.22307427E-03  1.31335269E-02
 -7.01869707E-11 -8.39097688E-02 -9.76234973E-02  2.91830514E-03  4.22428742E-03
 -1.31325224E-02  7.42272995E-11 -2.18254924E-06 -3.64983933E-06 -6.36001082E-06
  1.57930564E-01  5.48240962E-10  1.08998728E-05 -9.14215905E-06  2.34863982E-01
  7.73426490E-10  9.59396248E-06 -6.71659072E-06  1.42969252E-01  4.90211896E-10
 -1.48445272E-05 -5.44091156E-06  3.98233507E-03  7.53757154E-11  4.63226550E-07
 -8.07730456E-11 -6.09807799E-11  2.31163989E-06 -3.91315082E-03  2.18254925E-06
  3.64983935E-06 -6.36001110E-06  1.57930566E-01 -5.48220284E-10 -1.08998728E-05
 -9.14215948E-06  2.34863985E-01 -7.73397499E-10 -9.59396260E-06 -6.71659096E-06
  1.42969254E-01 -4.90193614E-10  1.48445272E-05 -5.44091157E-06  3.98233523E-03
 -7.53779783E-11 -4.63226555E-07 -8.07769257E-11  5.82630774E-12 -2.31163989E-06
  3.91315111E-03 -9.99745743E-02 -1.25599960E-01 -2.33968966E-03 -7.97408973E-03
 -9.39306941E-03 -9.60474457E-11  9.99750751E-02  1.25605114E-01  2.34153002E-03
  7.97607335E-03 -9.39347241E-03 -3.10973440E-11  9.99745756E-02  1.25599962E-01
  2.33968974E-03 -7.97408984E-03 -9.39306953E-03  5.87895042E-11 -9.99750764E-02
 -1.25605116E-01 -2.34153011E-03  7.97607346E-03 -9.39347252E-03  6.83582701E-11
 -1.15784018E-06 -1.93788539E-06 -4.17734245E-05  1.61936507E-01  1.14673924E-09
  5.49896797E-06 -6.58914349E-05  2.35832674E-01  1.76849313E-09  1.03774835E-05
 -3.74063865E-05  1.58869102E-01  1.15303216E-09  1.74865092E-06  3.66070521E-07
  1.40963318E-02  5.87217058E-12  6.70366157E-07  9.24867627E-12 -7.03010286E-11
 -1.61760481E-06 -2.31405896E-02 -1.15784011E-06 -1.93788527E-06  4.17734244E-05
 -1.61936505E-01  1.14677817E-09  5.49896762E-06  6.58914348E-05 -2.35832672E-01
  1.76855206E-09  1.03774831E-05  3.74063865E-05 -1.58869100E-01  1.15307342E-09
  1.74865187E-06 -3.66070822E-07 -1.40963317E-02  5.89302395E-12  6.70366148E-07
 -9.24135788E-12 -1.53564611E-11 -1.61760483E-06 -2.31405896E-02 -1.11015999E-01
 -1.49643626E-01 -1.36928477E-02 -8.92947003E-03 -8.63548509E-03 -6.19492208E-11
  1.11041813E-01  1.49684350E-01  1.36979296E-02  8.92970342E-03 -8.63854455E-03
  1.83120700E-13 -1.11015998E-01 -1.49643624E-01 -1.36928476E-02  8.92946994E-03
  8.63548500E-03 -2.59353228E-11  1.11041812E-01  1.49684349E-01  1.36979296E-02
 -8.92970333E-03  8.63854446E-03 -3.58360693E-11 -4.15194919E-03 -7.34518247E-03
  1.86102276E-01  4.10133928E-05  2.96182437E-10  2.39688897E-02  2.96177290E-01
  5.98149822E-05  4.42612387E-10  2.67494063E-02  1.67427396E-01  3.49397362E-05
  2.86296793E-10 -2.64219851E-03 -1.04792573E-02 -7.59780355E-07  2.05070257E-12
 -1.47965558E-03 -1.13821598E-11 -7.70079727E-11  2.05354359E-02 -4.77226058E-06
 -4.15194934E-03 -7.34518272E-03 -1.86102276E-01 -4.10133927E-05 -1.07690398E-11
  2.39688904E-02 -2.96177290E-01 -5.98149819E-05  4.27653223E-12  2.67494071E-02
 -1.67427396E-01 -3.49397360E-05 -9.46899589E-12 -2.64219866E-03  1.04792574E-02
  7.59780365E-07 -4.70624048E-12 -1.47965556E-03 -1.70202283E-11  7.69964669E-11
  2.05354358E-02 -4.77226057E-06 -6.61522106E-02 -9.69297389E-02 -2.11410015E-02
  3.34477395E-03 -9.68239206E-03 -5.76085784E-11 -6.61078697E-02 -9.68673617E-02
 -2.11254233E-02  3.34667608E-03  9.67983539E-03  4.74513932E-11 -6.61522105E-02
 -9.69297388E-02 -2.11410015E-02 -3.34477396E-03  9.68239206E-03 -5.07435543E-11
 -6.61078696E-02 -9.68673616E-02 -2.11254233E-02 -3.34667609E-03 -9.67983538E-03
  5.43135036E-11 -1.05949423E-10 -1.81979483E-10 -1.92243227E-10 -1.30379818E-09
  1.85557818E-01  5.89710700E-10 -3.21428720E-10 -2.01584196E-09  3.06653371E-01
  5.80332262E-10 -1.81017943E-10 -9.18670229E-10  2.71717528E-01 -4.48364109E-10
 -1.32061684E-10  3.02066279E-10  1.43004949E-03  3.04495701E-11  2.17251456E-02
 -4.72385303E-07  3.67255053E-13  9.86696331E-11  4.52124850E-11  7.80879814E-11
  1.71752348E-10  1.30377695E-09  1.85557818E-01 -2.49676001E-10  2.57583240E-10
  2.01579972E-09  3.06653371E-01 -2.71288788E-10  2.17230197E-10  9.18667335E-10
  2.71717529E-01  4.14886337E-10 -1.19902505E-10 -3.02042877E-10  1.43004948E-03
 -7.76030702E-12 -2.17251456E-02  4.72385300E-07 -7.09510454E-12  9.86670630E-11
  2.49991354E-10  7.85152887E-10  7.03448480E-10  2.26341661E-11 -2.16882598E-11
  1.09458521E-02 -4.44311489E-10 -9.49101964E-10 -6.26641657E-10 -6.22076667E-11
 -2.78590350E-12  1.09455861E-02  4.09530192E-10  9.66369208E-10  6.65152200E-10
 -3.78834518E-11  1.68976425E-12  1.09458521E-02 -2.84749116E-10 -7.67869303E-10
 -6.64811369E-10  4.69553008E-11  2.27853695E-11  1.09455861E-02 -1.10900855E-10
 -1.91785176E-10 -2.32678566E-10 -8.21025527E-10  2.08178060E-01  6.01477231E-10
 -4.02524942E-10 -1.35856732E-09  3.34264362E-01  1.09693664E-09 -4.33361376E-10
 -1.87925331E-09  3.93642136E-01 -4.13210575E-10 -2.21491826E-10 -2.74204305E-10
  7.66579259E-02  4.10634855E-11 -1.79257618E-02 -4.82025405E-07  1.83065388E-11
 -1.26104066E-10  1.59375224E-11  2.52234887E-11  1.86085403E-10 -8.20990988E-10
 -2.08178060E-01 -7.42716346E-11  3.12879930E-10 -1.35856823E-09 -3.34264362E-01
 -2.51723186E-11  2.91395516E-10 -1.87890415E-09 -3.93642135E-01  5.49032914E-10
 -1.11115590E-10 -2.73389124E-10 -7.66579257E-02  3.35504034E-12 -1.79257620E-02
 -4.82025401E-07  5.42344004E-12  1.26103077E-10 -4.94116958E-10 -9.60687015E-10
 -7.22281991E-10 -2.13419011E-11 -1.16284371E-10  1.73037859E-02  1.02808889E-10
  2.58490188E-10  3.27484018E-10 -2.84635832E-11 -7.47233471E-11  1.73040718E-02
  3.02350962E-10  6.12574129E-10  4.95159854E-10  1.69483234E-11 -9.59961547E-11
 -1.73037859E-02 -2.94575267E-10 -6.06730701E-10 -5.53454915E-10  9.82544044E-12
 -9.50164027E-11 -1.73040718E-02 -5.47949292E-02 -9.40256867E-02  1.16710837E-01
  1.46047391E-05 -1.39505702E-10  2.80213342E-01  1.87341786E-01  2.22258460E-05
 -2.73569207E-10  9.36868264E-01  4.29507515E-01  7.06725036E-05 -5.56864426E-10
  2.02231181E+00  1.07107134E+00  1.15550782E-05  2.26427618E-10  1.78366233E-02
 -1.86406180E-11 -5.81754782E-11 -2.39055690E-02  5.54041944E-06  5.47949295E-02
  9.40256873E-02  1.16710836E-01  1.46047391E-05  2.52069634E-11 -2.80213344E-01
  1.87341785E-01  2.22258464E-05  2.85396388E-11 -9.36868270E-01  4.29507513E-01