Title Card Required                                                     
FOpt      UM062X                                                      6-311+G(d,p)        
Number of atoms                            I                4
Info1-9                                    I   N=           9
          13          13           0           0           0         110
           2          18        -502
Full Title                                 C   N=           2
Title Card Required     
Route                                      C   N=           4
#p opt UM062X/6-311+G** nosymm int=superfine    
Charge                                     I                0
Multiplicity                               I                1
Number of electrons                        I               14
Number of alpha electrons                  I                7
Number of beta electrons                   I                7
Number of basis functions                  I               56
Number of independent functions            I               56
Number of point charges in /Mol/           I                0
Number of translation vectors              I                0
Atomic numbers                             I   N=           4
           6           6           1           1
Nuclear charges                            R   N=           4
  6.00000000E+00  6.00000000E+00  1.00000000E+00  1.00000000E+00
Current cartesian coordinates              R   N=          12
 -2.51829628E+00  0.00000000E+00  0.00000000E+00  2.51829628E+00  0.00000000E+00
  0.00000000E+00 -2.42304267E+00  3.49699938E-01  2.08080348E+00  2.42337586E+00
  1.85603793E+00 -1.00362395E+00
Number of symbols in /Mol/                 I                0
Force Field                                I                0
Atom Types                                 C   N=           4
                                                
Int Atom Types                             I   N=           4
           0           0           0           0
MM charges                                 R   N=           4
  0.00000000E+00  0.00000000E+00  0.00000000E+00  0.00000000E+00
Integer atomic weights                     I   N=           4
          12          12           1           1
Real atomic weights                        R   N=           4
  1.20000000E+01  1.20000000E+01  1.00782504E+00  1.00782504E+00
Atom fragment info                         I   N=           4
           0           0           0           0
Atom residue num                           I   N=           4
           0           0           0           0
Nuclear spins                              I   N=           4
           0           0           1           1
Nuclear ZEff                               R   N=           4
 -3.60000000E+00 -3.60000000E+00 -1.00000000E+00 -1.00000000E+00
Nuclear ZNuc                               R   N=           4
  6.00000000E+00  6.00000000E+00  1.00000000E+00  1.00000000E+00
Nuclear QMom                               R   N=           4
  0.00000000E+00  0.00000000E+00  0.00000000E+00  0.00000000E+00
Nuclear GFac                               R   N=           4
  0.00000000E+00  0.00000000E+00  2.79284600E+00  2.79284600E+00
MicOpt                                     I   N=           4
          -2          -2          -1          -1
Number of residues                         I                0
Number of secondary structures             I                0
Redundant internal dimensions              I   N=           4
          11           8           2           1
Redundant internal coordinate indices      I   N=          44
           1          -1           0           0           1          -2
           0           0           1          -3           0           0
           2          -1           0           0           2          -2
           0           0           2          -3           0           0
           1           3           0           0           2           4
           0           0           2           1           3           0
           1           2           4           0           3           1
           2           4
Redundant internal coordinates             R   N=          11
 -2.51829628E+00  0.00000000E+00  0.00000000E+00  2.51829628E+00  0.00000000E+00
  0.00000000E+00  2.11213314E+00  2.11214292E+00  1.52568273E+00  1.52584085E+00
 -1.89999408E+00
ZRed-IntVec                                I   N=          11
          -1          -1          -1          -1          -1          -1
           0           0           0           0           0
ZRed-FPVec                                 R   N=          11
  0.00000000E+00  0.00000000E+00  0.00000000E+00  0.00000000E+00  0.00000000E+00
  0.00000000E+00  0.00000000E+00  0.00000000E+00  0.00000000E+00  0.00000000E+00
  0.00000000E+00
ZRed-Constraint1                           R   N=          11
 -2.51829628E+00  0.00000000E+00  0.00000000E+00  2.51829628E+00  0.00000000E+00
  0.00000000E+00  2.11079913E+00  2.11070705E+00  1.67217611E+00  1.67276462E+00
 -1.65242814E+00
ZRed-Constraint2                           R   N=          11
 -2.51829628E+00  0.00000000E+00  0.00000000E+00  2.51829628E+00  0.00000000E+00
  0.00000000E+00  0.00000000E+00  0.00000000E+00  0.00000000E+00  0.00000000E+00
  0.00000000E+00
Number of contracted shells                I               20
Number of primitive shells                 I               38
Pure/Cartesian d shells                    I                0
Pure/Cartesian f shells                    I                0
Highest angular momentum                   I                2
Largest degree of contraction              I                6
Shell types                                I   N=          20
           0          -1          -1          -1          -1          -2
           0          -1          -1          -1          -1          -2
           0           0           0           1           0           0
           0           1
Number of primitives per shell             I   N=          20
           6           3           1           1           1           1
           6           3           1           1           1           1
           3           1           1           1           3           1
           1           1
Shell to atom map                          I   N=          20
           1           1           1           1           1           1
           2           2           2           2           2           2
           3           3           3           3           4           4
           4           4
Primitive exponents                        R   N=          38
  4.56324000E+03  6.82024000E+02  1.54973000E+02  4.44553000E+01  1.30290000E+01
  1.82773000E+00  2.09642000E+01  4.80331000E+00  1.45933000E+00  4.83456000E-01
  1.45585000E-01  4.38000000E-02  6.26000000E-01  4.56324000E+03  6.82024000E+02
  1.54973000E+02  4.44553000E+01  1.30290000E+01  1.82773000E+00  2.09642000E+01
  4.80331000E+00  1.45933000E+00  4.83456000E-01  1.45585000E-01  4.38000000E-02
  6.26000000E-01  3.38650000E+01  5.09479000E+00  1.15879000E+00  3.25840000E-01
  1.02741000E-01  7.50000000E-01  3.38650000E+01  5.09479000E+00  1.15879000E+00
  3.25840000E-01  1.02741000E-01  7.50000000E-01
Contraction coefficients                   R   N=          38
  1.96665025E-03  1.52306019E-02  7.61269097E-02  2.60801033E-01  6.16462078E-01
  2.21006028E-01  1.14660081E-01  9.19999648E-01 -3.03068213E-03  1.00000000E+00
  1.00000000E+00  1.00000000E+00  1.00000000E+00  1.96665025E-03  1.52306019E-02
  7.61269097E-02  2.60801033E-01  6.16462078E-01  2.21006028E-01  1.14660081E-01
  9.19999648E-01 -3.03068213E-03  1.00000000E+00  1.00000000E+00  1.00000000E+00
  1.00000000E+00  2.54938145E-02  1.90373109E-01  8.52161486E-01  1.00000000E+00
  1.00000000E+00  1.00000000E+00  2.54938145E-02  1.90373109E-01  8.52161486E-01
  1.00000000E+00  1.00000000E+00  1.00000000E+00
P(S=P) Contraction coefficients            R   N=          38
  0.00000000E+00  0.00000000E+00  0.00000000E+00  0.00000000E+00  0.00000000E+00
  0.00000000E+00  4.02486927E-02  2.37593957E-01  8.15853851E-01  1.00000000E+00
  1.00000000E+00  1.00000000E+00  0.00000000E+00  0.00000000E+00  0.00000000E+00
  0.00000000E+00  0.00000000E+00  0.00000000E+00  0.00000000E+00  4.02486927E-02
  2.37593957E-01  8.15853851E-01  1.00000000E+00  1.00000000E+00  1.00000000E+00
  0.00000000E+00  0.00000000E+00  0.00000000E+00  0.00000000E+00  0.00000000E+00
  0.00000000E+00  0.00000000E+00  0.00000000E+00  0.00000000E+00  0.00000000E+00
  0.00000000E+00  0.00000000E+00  0.00000000E+00
Coordinates of each shell                  R   N=          60
 -2.51829628E+00  0.00000000E+00  0.00000000E+00 -2.51829628E+00  0.00000000E+00
  0.00000000E+00 -2.51829628E+00  0.00000000E+00  0.00000000E+00 -2.51829628E+00
  0.00000000E+00  0.00000000E+00 -2.51829628E+00  0.00000000E+00  0.00000000E+00
 -2.51829628E+00  0.00000000E+00  0.00000000E+00  2.51829628E+00  0.00000000E+00
  0.00000000E+00  2.51829628E+00  0.00000000E+00  0.00000000E+00  2.51829628E+00
  0.00000000E+00  0.00000000E+00  2.51829628E+00  0.00000000E+00  0.00000000E+00
  2.51829628E+00  0.00000000E+00  0.00000000E+00  2.51829628E+00  0.00000000E+00
  0.00000000E+00 -2.42304267E+00  3.49699938E-01  2.08080348E+00 -2.42304267E+00
  3.49699938E-01  2.08080348E+00 -2.42304267E+00  3.49699938E-01  2.08080348E+00
 -2.42304267E+00  3.49699938E-01  2.08080348E+00  2.42337586E+00  1.85603793E+00
 -1.00362395E+00  2.42337586E+00  1.85603793E+00 -1.00362395E+00  2.42337586E+00
  1.85603793E+00 -1.00362395E+00  2.42337586E+00  1.85603793E+00 -1.00362395E+00
Num ILSW                                   I              100
ILSW                                       I   N=         100
           1           0           0           1           2           0
           0           0           0           0        4336          -1
           7           0           0           0           2           0
           0           0           0           0           1           0
           1           1           0           0           0           0
           0           0      100000           0          -1           0
           0           0           0           0           0           0
           0           0           0           1           0           0
           0 -2000000000           1           0           0           0
           0           0           4          52           0           0
           0           0          55           0           0           0
           0           0           0           4           0           1
           0           0           0           0           0           0
           0           0           0           0           0           0
           0           0           0           0           0           0
           0           0           0           0           0           0
           0           0           0           0
Num RLSW                                   I               52
RLSW                                       R   N=          52
  1.00000000E+00  1.00000000E+00  1.00000000E+00  1.00000000E+00  5.40000000E-01
  0.00000000E+00  0.00000000E+00  1.00000000E+00  0.00000000E+00  0.00000000E+00
  0.00000000E+00  0.00000000E+00  1.00000000E+00  0.00000000E+00  0.00000000E+00
  0.00000000E+00  0.00000000E+00  1.00000000E+00  0.00000000E+00  0.00000000E+00
  0.00000000E+00  0.00000000E+00  1.00000000E+00  0.00000000E+00  0.00000000E+00
  0.00000000E+00  0.00000000E+00  1.00000000E+00  0.00000000E+00  0.00000000E+00
  0.00000000E+00  0.00000000E+00  1.00000000E+00  0.00000000E+00  0.00000000E+00
  0.00000000E+00  0.00000000E+00  0.00000000E+00  1.00000000E+00  1.00000000E+00
  0.00000000E+00  1.00000000E+00  0.00000000E+00  0.00000000E+00  0.00000000E+00
  0.00000000E+00  0.00000000E+00  0.00000000E+00  0.00000000E+00  0.00000000E+00
  0.00000000E+00  0.00000000E+00
MxBond                                     I                2
NBond                                      I   N=           4
           2           2           1           1
IBond                                      I   N=           8
           2           3           1           4           1           0
           2           0
RBond                                      R   N=           8
  1.00000000E-01  1.00000000E+00  1.00000000E-01  1.00000000E+00  1.00000000E+00
  0.00000000E+00  1.00000000E+00  0.00000000E+00
Virial Ratio                               R      2.006560037293931E+00
SCF Energy                                 R     -7.694367899992292E+01
Total Energy                               R     -7.694367899992292E+01
S**2                                       R     -1.687538997430238E-14
S**2 after annihilation                    R      1.501021529293208E-13
RMS Force                                  R      2.078114270679944E-06
RMS Density                                R      1.042913585313250E-09
Job Status                                 I                1
Nuclear derivative order                   I                1
External E-field                           R   N=          35
  0.00000000E+00  0.00000000E+00  0.00000000E+00  0.00000000E+00  0.00000000E+00
  0.00000000E+00  0.00000000E+00  0.00000000E+00  0.00000000E+00  0.00000000E+00
  0.00000000E+00  0.00000000E+00  0.00000000E+00  0.00000000E+00  0.00000000E+00
  0.00000000E+00  0.00000000E+00  0.00000000E+00  0.00000000E+00  0.00000000E+00
  0.00000000E+00  0.00000000E+00  0.00000000E+00  0.00000000E+00  0.00000000E+00
  0.00000000E+00  0.00000000E+00  0.00000000E+00  0.00000000E+00  0.00000000E+00
  0.00000000E+00  0.00000000E+00  0.00000000E+00  0.00000000E+00  0.00000000E+00
IOpCl                                      I                1
IROHF                                      I                0
Alpha Orbital Energies                     R   N=          56
 -1.06693736E+01 -1.06693327E+01 -7.37715016E-01 -7.06556259E-01 -3.87664692E-01
 -3.84796189E-01 -2.73402046E-01 -9.93035809E-02 -8.90296259E-02 -6.43419252E-02
  2.91084955E-02  5.65720092E-02  7.46290182E-02  7.60390766E-02  9.90585024E-02
  9.99420067E-02  1.05082777E-01  1.51401998E-01  1.71830897E-01  2.02609873E-01
  4.46269266E-01  4.66576360E-01  5.67268875E-01  5.80042853E-01  5.99407937E-01
  6.13383039E-01  6.23169650E-01  6.33609700E-01  6.79611211E-01  8.17495040E-01
  1.12850819E+00  1.12856090E+00  1.14498863E+00  1.16238520E+00  1.33127888E+00
  1.33724192E+00  1.34974929E+00  1.52184937E+00  1.59184321E+00  1.60879757E+00
  1.85383870E+00  1.85805983E+00  1.88420323E+00  1.89625363E+00  2.40625954E+00
  2.40638138E+00  2.52157025E+00  2.52468804E+00  2.71049425E+00  2.71275802E+00
  2.71894397E+00  2.81544643E+00  3.18985799E+00  3.19395604E+00  2.35077161E+01
  2.35391320E+01
Beta Orbital Energies                      R   N=          56
 -1.06693736E+01 -1.06693327E+01 -7.37715016E-01 -7.06556259E-01 -3.87664692E-01
 -3.84796189E-01 -2.73402046E-01 -9.93035809E-02 -8.90296259E-02 -6.43419252E-02
  2.91084955E-02  5.65720092E-02  7.46290182E-02  7.60390766E-02  9.90585024E-02
  9.99420067E-02  1.05082777E-01  1.51401998E-01  1.71830897E-01  2.02609873E-01
  4.46269266E-01  4.66576360E-01  5.67268875E-01  5.80042853E-01  5.99407937E-01
  6.13383039E-01  6.23169650E-01  6.33609700E-01  6.79611211E-01  8.17495040E-01
  1.12850819E+00  1.12856090E+00  1.14498863E+00  1.16238520E+00  1.33127888E+00
  1.33724192E+00  1.34974929E+00  1.52184937E+00  1.59184321E+00  1.60879757E+00
  1.85383870E+00  1.85805983E+00  1.88420323E+00  1.89625363E+00  2.40625954E+00
  2.40638138E+00  2.52157025E+00  2.52468804E+00  2.71049425E+00  2.71275802E+00
  2.71894397E+00  2.81544643E+00  3.18985799E+00  3.19395604E+00  2.35077161E+01
  2.35391320E+01
Alpha MO coefficients                      R   N=        3136
  4.12976972E-01  3.40188738E-01  7.24723221E-04  1.95503512E-04  1.16685847E-03
  6.85317351E-03 -2.18809906E-04  2.03718338E-04  1.10041386E-03 -2.74429720E-03
  2.45719027E-04 -4.07483122E-05  5.08095279E-05  1.77306890E-04 -1.15494615E-04
 -2.43269889E-05 -6.15286210E-04  7.73145122E-04  6.74226982E-05  2.31099248E-04
 -1.80261417E-05 -6.51114690E-06  3.84191558E-01  3.16479229E-01 -6.78831900E-04
  9.64469727E-04 -5.22042118E-04  6.34907401E-03  2.17586672E-04  9.42376954E-04
 -4.89041502E-04 -2.46652289E-03 -2.92534882E-04  1.78112824E-05 -6.53386264E-05
 -2.69887199E-05  2.05239265E-04 -4.82133578E-04  3.51821682E-04 -1.32182626E-04
  4.62498738E-05 -5.53504304E-04 -5.01240011E-04 -4.82604669E-05  2.51332065E-04
 -2.21876974E-03  1.90124719E-03  7.04750478E-05  2.47173664E-04  1.43134439E-03
  2.40720687E-04 -2.12798797E-03  1.83478490E-03 -6.03269427E-05  1.20279591E-03
 -6.42730506E-04 -3.84196213E-01 -3.16446952E-01 -6.10178685E-04 -1.90044103E-04
 -1.14082085E-03 -6.74137925E-03  1.35345737E-05 -1.30478329E-04 -7.43792340E-04
  3.75178473E-03  6.56960275E-04  7.18423166E-07  4.89522885E-05 -2.82442318E-03
 -1.24839045E-03  7.39013227E-05  2.37908369E-04 -6.25866051E-04 -7.05979246E-06
 -1.58403017E-04  1.69183343E-04 -3.98659076E-06  4.12981335E-01  3.40158681E-01
 -6.60854550E-04  1.08900136E-03 -5.90777672E-04  7.21807312E-03  2.95703512E-05
  7.36646898E-04 -3.90702778E-04 -3.93995364E-03  6.37461536E-04 -3.78529262E-05
  2.48836309E-05  2.82983751E-03 -1.23683345E-03 -2.68560283E-04  1.13712918E-04
 -9.48756119E-06  4.42467574E-06 -4.46045952E-04 -5.68098806E-04 -1.13628692E-05
 -1.38323757E-04  1.17849610E-03 -8.53266079E-04 -1.35298436E-04 -1.92212277E-04
 -1.16260754E-03  1.56087784E-04 -1.33542595E-03  9.88201878E-04 -1.39865414E-04
  1.12471730E-03 -6.11186723E-04 -7.62110228E-02 -1.23055678E-01  1.07422870E-02
  9.51643439E-03  4.87459223E-02  3.47929934E-01  1.59435717E-02  1.44727466E-02
  7.38867180E-02  2.46990956E-01  1.33752589E-02  8.69793748E-03  2.99071900E-02
 -6.38314891E-05 -1.78406181E-03  1.58699483E-04  6.38507768E-04  8.91134018E-03
  1.46405152E-03  2.70886336E-03 -1.63732666E-03  7.49845268E-04 -7.62055916E-02
 -1.23046970E-01 -1.07347804E-02  4.42900518E-02 -2.24646550E-02  3.47904820E-01
 -1.59329451E-02  6.71629089E-02 -3.40130427E-02  2.46975169E-01 -1.33724188E-02
  2.89317204E-02 -1.15276165E-02 -6.12829358E-05  1.78330977E-03  6.01793641E-04
 -2.67489150E-04 -7.95314758E-04  3.06737867E-04 -6.02910961E-03 -7.24066204E-03
 -1.61273766E-03  9.83808233E-02  1.18640333E-01  1.36216159E-02 -5.32078236E-04
 -2.13567622E-03 -1.40567053E-02  9.83713898E-02  1.18629541E-01  1.36192159E-02
  5.29663008E-04 -1.23978812E-02  6.95804162E-03  7.68441358E-02  1.24286759E-01
  5.05560513E-03 -9.53679495E-03 -5.74360541E-02 -3.54125411E-01  9.06307876E-03
 -1.45821837E-02 -8.70348436E-02 -2.50089743E-01  4.45541425E-03 -6.55295581E-03
 -3.32044350E-02  2.13603624E-02  1.03191701E-02  4.14683850E-04  1.19270433E-03
 -1.18408420E-02 -5.24586721E-04 -2.96662595E-03  4.86919949E-03  3.90750799E-04
 -7.68495960E-02 -1.24295695E-01  5.06470782E-03  5.11634014E-02 -2.77957972E-02
  3.54150708E-01  9.07648117E-03  7.76108796E-02 -4.20171945E-02  2.50107871E-01
  4.45904769E-03  3.02169464E-02 -1.52485813E-02 -2.13601245E-02  1.03191524E-02
 -1.19541073E-03  4.06178024E-04  9.25500211E-04  6.28668683E-04 -6.86079607E-03
 -1.11722298E-02 -1.70254099E-04 -1.06196319E-01 -1.32911188E-01 -2.51751932E-02
  1.93236469E-03  2.32999313E-03  1.52730095E-02  1.06204336E-01  1.32921591E-01
  2.51769766E-02  1.92979452E-03 -1.34785023E-02  7.55379512E-03 -3.78160516E-02
 -6.22679835E-02  1.41849905E-02 -3.13908722E-02 -1.53614931E-01  1.80451164E-01
  2.23077338E-02 -4.51583466E-02 -2.18894252E-01  2.77192701E-01  2.96447946E-02
 -3.41692546E-02 -1.47660024E-01  3.36732849E-02 -2.17677626E-03 -2.97132990E-03
 -1.27026696E-02 -2.39098445E-02 -1.67145290E-03 -7.75775325E-03  8.06352268E-04
 -2.54338178E-03 -3.78009185E-02 -6.22429364E-02 -1.42120462E-02 -1.40396617E-01
  6.96638313E-02  1.80376610E-01 -2.23460886E-02 -2.00321084E-01  9.89298080E-02
  2.77089115E-01 -2.96734864E-02 -1.37412227E-01  6.38095999E-02  3.36534005E-02
  2.17600140E-03 -1.18428820E-02  5.46477707E-03  4.47538554E-03  9.82244292E-04
  1.77909652E-02  1.71909337E-02  2.87614399E-03 -9.96196766E-02 -1.82450970E-01
 -1.06366356E-01  2.93212425E-03  4.62423695E-04  8.47982019E-03 -9.95849744E-02
 -1.82389698E-01 -1.06321711E-01 -2.93036680E-03  6.97000997E-03 -4.84812667E-03
  4.46843852E-02  7.37278398E-02  2.31547857E-02  1.77464731E-02  1.49097198E-01
 -2.18240260E-01  3.40487274E-02  2.48758265E-02  2.13524944E-01 -2.98763515E-01
  3.27255761E-02  1.04040764E-02  1.47780312E-01 -6.22563240E-02 -4.11678311E-03
 -1.63657939E-03  7.79833454E-03  2.16464409E-02  6.67881380E-03  7.04117924E-03
  4.31138713E-03 -8.87407221E-04 -4.46958146E-02 -7.37465854E-02  2.31190151E-02
 -1.28548770E-01  7.77059651E-02  2.18292857E-01  3.39957518E-02 -1.83764893E-01
  1.11709378E-01  2.98853282E-01  3.26788234E-02 -1.22998705E-01  8.26881845E-02
  6.22634254E-02 -4.11511046E-03 -5.15079904E-03  6.08962789E-03  6.78484064E-03
 -4.80401164E-03  1.85604282E-02  1.21115502E-02  4.71784090E-03  9.03496235E-02
  1.61182696E-01  1.19210021E-01  1.70996637E-03 -1.17554160E-03 -6.17706828E-03
 -9.03879112E-02 -1.61253164E-01 -1.19241335E-01  1.70895366E-03  5.59706953E-03
 -2.87290719E-03 -1.43761756E-02 -2.42958957E-02 -1.80668879E-01 -1.42528760E-02
 -7.33127981E-03  8.14909168E-02 -2.70943748E-01 -1.97312759E-02 -1.15496555E-02
  7.05749125E-02 -2.99298371E-01 -2.83308380E-02 -1.45936975E-02  1.90878506E-02
 -4.60737945E-02 -1.09980376E-02  8.87437302E-03  2.50886022E-03 -1.51550860E-02
 -2.33452599E-03 -1.05577309E-02 -4.36502777E-03 -1.43781135E-02 -2.42994105E-02
  1.80672654E-01 -1.45737385E-02 -6.71056149E-03  8.15034415E-02  2.70946764E-01
 -2.12821987E-02 -8.42588983E-03  7.05875781E-02  2.99309236E-01 -2.89718171E-02
 -1.33351993E-02  1.90674278E-02  4.60867805E-02  2.27931249E-04 -1.41218261E-02
  7.81580898E-03 -5.87745847E-03  2.44649609E-03 -7.48977485E-03  1.46369133E-02
 -1.82500043E-03  7.76052808E-03 -1.30195600E-02 -1.63069544E-02 -1.32875431E-03
 -1.99465365E-03 -1.83043603E-03  7.75223613E-03 -1.30285305E-02  1.63061181E-02
 -2.39143864E-03  1.80119738E-04 -1.64979150E-03 -2.74772934E-03 -1.39578634E-02
  1.64877580E-01 -4.51618599E-02  6.79083449E-03 -2.23818481E-02  2.57745463E-01
 -6.93784170E-02  2.30459446E-02 -2.32071270E-02  2.92977976E-01 -5.98191156E-02
  4.45700410E-02  6.80999549E-04  1.47125539E-01 -2.05990887E-02 -6.59549312E-03
  1.68877354E-03  1.19053064E-02 -3.45646328E-03  3.78434947E-03 -1.65070860E-03
 -2.74918722E-03  1.39504621E-02  6.57525130E-02  1.57785689E-01  6.79443418E-03
  2.23710123E-02  1.03750725E-01  2.45908255E-01  2.30591652E-02  2.31961032E-02
  1.32956941E-01  2.67812518E-01  4.45906180E-02 -6.92202026E-04  7.42139913E-02
  1.28687001E-01 -8.57916470E-03 -1.94372241E-03  1.01186506E-02 -4.60193268E-03
 -3.65886612E-03 -1.17462304E-02 -2.02126046E-02 -4.77306819E-02  1.59383007E-03
  1.65786888E-02 -5.46942438E-04 -1.17472404E-02 -2.02181838E-02 -4.77440605E-02
 -1.59348240E-03  9.76163074E-03  1.34096072E-02  1.64310242E-04  3.35834839E-04
  3.61500553E-02  1.74184564E-01 -1.46384364E-02 -1.33688988E-03  5.31642271E-02
  2.71791969E-01 -2.44021549E-02 -4.23503771E-03  6.85091248E-02  3.06915468E-01
 -3.26273424E-02  3.28277130E-02  4.49582168E-02  1.60474216E-01 -2.30894170E-02
 -1.03626189E-03 -4.44430013E-04  1.38808552E-02 -3.67578367E-03  1.19081080E-03
 -1.64653406E-04 -3.36470728E-04  3.61542762E-02 -9.55596817E-02 -1.46378160E-01
  1.33889999E-03  5.31701262E-02 -1.47876790E-01 -2.29363630E-01  4.24127184E-03
  6.85170967E-02 -1.62987883E-01 -2.62123171E-01 -3.28323907E-02  4.49643039E-02
 -8.04666565E-02 -1.40764304E-01  9.74868261E-03  1.21077784E-03 -6.03912645E-03
  8.70601777E-03  3.81075025E-04  1.12386858E-02  1.54834920E-02  1.44628224E-02
 -6.43336260E-06  1.60832292E-02 -4.33401115E-03 -1.12374682E-02 -1.54848157E-02
 -1.44635707E-02 -4.74088581E-06 -6.47210124E-03 -1.53494154E-02 -1.86794827E-02
 -3.09645818E-02  1.96569668E-01 -3.23942112E-02 -1.53765383E-02  9.64183479E-02
  2.96654859E-01 -4.95225341E-02 -1.91758333E-02  1.42514594E-01  3.58207795E-01
 -5.74499464E-02 -2.98281680E-02  9.97310109E-02  2.49776140E-01 -6.46722861E-02
 -4.55572675E-02  2.34644302E-03  1.58231071E-02 -2.70452771E-03 -5.49181555E-03
  3.42248202E-03  1.86803109E-02  3.09657654E-02  1.96568925E-01  3.20275220E-02
  1.61119719E-02 -9.64205929E-02  2.96653318E-01  4.55470799E-02  2.72935414E-02
 -1.42525479E-01  3.58205012E-01  5.88120141E-02  2.70061776E-02 -9.97460658E-02
  2.49786793E-01  7.56702226E-02  2.30139581E-02 -5.38790146E-03 -7.02937835E-03
 -3.09119379E-05  3.73894428E-03  1.45835531E-02  4.04045006E-03 -3.78131161E-03
  1.29053826E-02  1.78744803E-02 -3.09778708E-03 -1.99025129E-03 -4.03514010E-03
  3.79025131E-03 -1.28838147E-02  1.78755520E-02  3.47203278E-03  1.22154643E-03
  2.39088821E-02  3.87571112E-02  7.46390754E-03 -3.21693677E-02 -2.54435382E-02
 -8.86634921E-02  9.95539566E-04 -4.84773789E-02 -7.52259723E-02 -5.14832232E-01
  9.28896657E-03 -9.34583084E-02 -2.86229413E-02  1.04568562E+00 -5.03760338E-02
  1.24336447E-01  5.03163204E-01 -1.27955539E-02 -1.36067976E-03 -6.07879586E-03
 -8.15495172E-04 -2.47701386E-05  2.39101253E-02  3.87591954E-02 -7.46836160E-03
 -3.98480520E-02 -9.72649581E-03 -8.86687324E-02 -1.00588538E-03 -8.91386474E-02
  8.02218883E-03 -5.14859893E-01 -9.30173452E-03 -8.00445693E-02 -5.61071013E-02
  1.04574153E+00  5.04497038E-02  4.73316137E-01 -2.11306177E-01  4.68643476E-03
 -8.15151932E-04  9.66030886E-03  9.27906159E-03  1.08438857E-03 -1.31612192E-02
  1.32952210E-01 -4.66798896E-01 -1.35662782E-03 -5.94138278E-04  4.13745717E-04
 -1.31630085E-02  1.32963042E-01 -4.66829391E-01  1.35563148E-03 -3.92107796E-05
 -7.23158928E-04  6.50305415E-03  1.07699261E-02  6.39858018E-02  2.06292813E-02
 -5.85781764E-02 -2.38018010E-02  6.88248005E-02  2.05038483E-02 -8.77865012E-02
 -1.80650087E-01  2.28813203E-01  7.54664745E-02 -1.88843955E-01  1.06993854E+00
 -8.22746170E-02  9.40933044E-02  7.46622397E-01 -1.65160401E-02  2.64555951E-03
 -3.07235667E-03 -1.39482962E-03  4.94707403E-05 -6.50065721E-03 -1.07661612E-02
  6.39876381E-02  3.35067002E-02 -5.22879146E-02  2.37937933E-02  6.88307202E-02
  5.66135446E-02 -7.01456300E-02  1.80592175E-01  2.28819424E-01  1.02518683E-01
 -1.75642317E-01 -1.06988131E+00 -8.23649454E-02 -6.46663257E-01  3.84918543E-01
 -2.22350030E-03 -1.58982831E-03 -1.37984286E-02 -9.42433748E-03  2.12033560E-03
 -2.02165541E-02  1.02100800E-01 -4.61217139E-01 -1.45526461E-05  7.44849212E-04
  3.52302287E-03  2.02193569E-02 -1.02094195E-01  4.61196320E-01 -1.44664135E-05
 -3.23740723E-03  1.57911233E-03 -1.11527410E-02 -1.83906743E-02 -7.37978325E-02
  4.21633806E-02 -2.81121793E-02  5.24270503E-02 -6.93409246E-02  4.63131260E-02
 -2.17398409E-02  2.05432545E-01 -2.98148358E-01  1.64764344E-01 -1.18865020E-01
  1.11439280E+00  1.29926801E+00 -2.48435914E-01  4.21952021E-01 -7.70787230E-03
 -7.14860071E-03  7.52696544E-04 -3.05249113E-03 -8.57006887E-04  1.11440202E-02
  1.83768718E-02 -7.37908672E-02 -3.78080846E-03 -5.05629532E-02 -5.23977961E-02
 -6.93386737E-02 -1.13510025E-02 -4.99233496E-02 -2.05223257E-01 -2.98112522E-01
 -7.67875567E-03 -2.03125214E-01 -1.11457272E+00  1.29910085E+00 -1.79669471E-01
  4.55425245E-01 -4.92094450E-04  3.71823302E-03 -8.13627995E-03 -1.68084748E-03
 -6.16224837E-03 -1.56515855E-02  1.82944405E-02 -2.66524175E-01  5.81236758E-04
  1.57729129E-04  1.04666483E-03  1.56403927E-02 -1.82854650E-02  2.66347265E-01
  5.81760544E-04 -9.19317320E-04  5.17551107E-04 -1.29317728E-02 -2.06394400E-02
 -1.50177532E-02 -8.30553823E-02 -1.57311022E-02  4.54323659E-02 -8.25332053E-03
 -8.34516535E-02 -2.71507078E-03  3.04313681E-01 -7.69458333E-02 -3.35635134E-01
 -7.24374589E-02 -2.70210902E-01  2.37378692E-01  5.73210293E-01  3.76748710E-01
 -3.71233193E-03 -2.25895206E-03 -7.44684059E-03  3.83059516E-04 -1.65453073E-03
 -1.29370966E-02 -2.06482721E-02  1.50588514E-02 -6.34726929E-02 -5.57988936E-02
  4.54578743E-02  8.29443111E-03 -5.34457536E-02 -6.41151896E-02  3.04405498E-01
  7.71076198E-02 -2.63505457E-01 -2.20034392E-01 -2.69721614E-01 -2.37983670E-01
  6.49651034E-01  2.20164212E-01  5.79921427E-03 -8.66082705E-05  1.12017464E-03
  5.87594003E-03  2.80098395E-03 -1.49238066E-02  1.19725863E-02 -2.55270964E-01
 -3.84247627E-04  1.13587188E-03  4.91635044E-03 -1.49315073E-02  1.19810378E-02
 -2.55366656E-01  3.84161276E-04  4.57629739E-03 -2.12737756E-03 -9.67555711E-03
 -1.49619596E-02  1.33781996E-02  4.84731105E-02 -3.95033274E-02  2.42768167E-02
  1.46992139E-02  4.58031370E-02 -2.28569687E-02  3.11349400E-01  7.07572086E-02
  2.21277927E-01 -1.94741047E-01 -1.14380813E-02 -1.46516652E-01 -5.75785517E-01
  1.19936295E+00 -1.26097885E-02 -4.62289164E-03  1.37064677E-03  2.11045561E-03
  3.25389624E-03 -9.67414743E-03 -1.49594891E-02 -1.33743613E-02 -1.31874354E-03
  6.25585501E-02  2.42644291E-02 -1.46903782E-02  1.01695371E-02  5.02145083E-02
  3.11356964E-01 -7.07557766E-02 -1.73990416E-02  2.94437018E-01 -1.22851476E-02
  1.46988180E-01  5.91127414E-01 -1.19189386E+00 -3.13868758E-03 -5.40859909E-03
  9.89912889E-03  7.57688258E-03  1.64037420E-03 -2.36544154E-02  1.76543303E-02
 -3.67892889E-01 -4.21765942E-03  1.99412831E-04  3.60225894E-03 -2.36438111E-02
  1.76323779E-02 -3.67644167E-01  4.21804088E-03  2.96518116E-03 -2.05917684E-03
 -2.52662534E-03 -4.35914944E-03 -1.43724086E-02 -8.24299573E-02 -1.35782742E-03
  1.94785475E-02 -7.83767097E-03 -7.84715700E-02 -1.04116191E-02 -8.78494520E-04
 -7.60961658E-02 -3.63958720E-01  2.45129587E-02  1.46359539E+00  9.08366541E-01
  1.17974168E+00  5.13266222E-01 -5.47008703E-03 -3.77509021E-03 -8.81369144E-03
 -1.00010902E-03 -5.65914892E-03  2.53306182E-03  4.36912886E-03 -1.43628237E-02
  5.17577733E-02  6.41365711E-02 -1.94940013E-02 -7.82612692E-03  5.64564936E-02