 Entering Gaussian System, Link 0=g16
 Initial command:
 /home/szhao/Apps/g16/l1.exe "/home/szhao/tmp/Gau-126064.inp" -scrdir="/home/szhao/tmp/"
 Default is to use a total of  16 processors:
                               16 via shared-memory
                                1 via Linda
 Entering Link 1 = /home/szhao/Apps/g16/l1.exe PID=    126077.
  
 Copyright (c) 1988,1990,1992,1993,1995,1998,2003,2009,2016,
            Gaussian, Inc.  All Rights Reserved.
  
 This is part of the Gaussian(R) 16 program.  It is based on
 the Gaussian(R) 09 system (copyright 2009, Gaussian, Inc.),
 the Gaussian(R) 03 system (copyright 2003, Gaussian, Inc.),
 the Gaussian(R) 98 system (copyright 1998, Gaussian, Inc.),
 the Gaussian(R) 94 system (copyright 1995, Gaussian, Inc.),
 the Gaussian 92(TM) system (copyright 1992, Gaussian, Inc.),
 the Gaussian 90(TM) system (copyright 1990, Gaussian, Inc.),
 the Gaussian 88(TM) system (copyright 1988, Gaussian, Inc.),
 the Gaussian 86(TM) system (copyright 1986, Carnegie Mellon
 University), and the Gaussian 82(TM) system (copyright 1983,
 Carnegie Mellon University). Gaussian is a federally registered
 trademark of Gaussian, Inc.
  
 This software contains proprietary and confidential information,
 including trade secrets, belonging to Gaussian, Inc.
  
 This software is provided under written license and may be
 used, copied, transmitted, or stored only in accord with that
 written license.
  
 The following legend is applicable only to US Government
 contracts under FAR:
  
                    RESTRICTED RIGHTS LEGEND
  
 Use, reproduction and disclosure by the US Government is
 subject to restrictions as set forth in subparagraphs (a)
 and (c) of the Commercial Computer Software - Restricted
 Rights clause in FAR 52.227-19.
  
 Gaussian, Inc.
 340 Quinnipiac St., Bldg. 40, Wallingford CT 06492
  
  
 ---------------------------------------------------------------
 Warning -- This program may not be used in any manner that
 competes with the business of Gaussian, Inc. or will provide
 assistance to any competitor of Gaussian, Inc.  The licensee
 of this program is prohibited from giving any competitor of
 Gaussian, Inc. access to this program.  By using this program,
 the user acknowledges that Gaussian, Inc. is engaged in the
 business of creating and licensing software in the field of
 computational chemistry and represents and warrants to the
 licensee that it is not a competitor of Gaussian, Inc. and that
 it will not use this program in any manner prohibited above.
 ---------------------------------------------------------------
  

 Cite this work as:
 Gaussian 16, Revision A.03,
 M. J. Frisch, G. W. Trucks, H. B. Schlegel, G. E. Scuseria, 
 M. A. Robb, J. R. Cheeseman, G. Scalmani, V. Barone, 
 G. A. Petersson, H. Nakatsuji, X. Li, M. Caricato, A. V. Marenich, 
 J. Bloino, B. G. Janesko, R. Gomperts, B. Mennucci, H. P. Hratchian, 
 J. V. Ortiz, A. F. Izmaylov, J. L. Sonnenberg, D. Williams-Young, 
 F. Ding, F. Lipparini, F. Egidi, J. Goings, B. Peng, A. Petrone, 
 T. Henderson, D. Ranasinghe, V. G. Zakrzewski, J. Gao, N. Rega, 
 G. Zheng, W. Liang, M. Hada, M. Ehara, K. Toyota, R. Fukuda, 
 J. Hasegawa, M. Ishida, T. Nakajima, Y. Honda, O. Kitao, H. Nakai, 
 T. Vreven, K. Throssell, J. A. Montgomery, Jr., J. E. Peralta, 
 F. Ogliaro, M. J. Bearpark, J. J. Heyd, E. N. Brothers, K. N. Kudin, 
 V. N. Staroverov, T. A. Keith, R. Kobayashi, J. Normand, 
 K. Raghavachari, A. P. Rendell, J. C. Burant, S. S. Iyengar, 
 J. Tomasi, M. Cossi, J. M. Millam, M. Klene, C. Adamo, R. Cammi, 
 J. W. Ochterski, R. L. Martin, K. Morokuma, O. Farkas, 
 J. B. Foresman, and D. J. Fox, Gaussian, Inc., Wallingford CT, 2016.
 
 ******************************************
 Gaussian 16:  ES64L-G16RevA.03 25-Dec-2016
                21-Apr-2025 
 ******************************************
 %chk=opt.chk
 %mem=4GB
 %nprocshared=8
 Will use up to    8 processors via shared memory.
 --------------------------------------------
 #p opt UM062X/6-311+G** nosymm int=superfine
 --------------------------------------------
 1/18=20,19=15,26=5,38=1/1,3;
 2/9=110,12=2,15=1,17=6,18=5,40=1/2;
 3/5=4,6=6,7=111,11=2,25=1,30=1,71=1,74=-55,75=-7,116=2/1,2,3;
 4//1;
 5/5=2,38=5/2;
 6/7=2,8=2,9=2,10=2,28=1/1;
 7/30=1/1,2,3,16;
 1/18=20,19=15,26=5/3(2);
 2/9=110,15=1/2;
 99//99;
 2/9=110,15=1/2;
 3/5=4,6=6,7=111,11=2,25=1,30=1,71=1,74=-55,75=-7,116=2/1,2,3;
 4/5=5,16=3,69=1/1;
 5/5=2,38=5/2;
 7/30=1/1,2,3,16;
 1/18=20,19=15,26=5/3(-5);
 2/9=110,15=1/2;
 6/7=2,8=2,9=2,10=2,19=2,28=1/1;
 99/9=1/99;
 Leave Link    1 at Mon Apr 21 21:12:20 2025, MaxMem=   536870912 cpu:               3.3 elap:               0.4
 (Enter /home/szhao/Apps/g16/l101.exe)
 -------------------
 Title Card Required
 -------------------
 Symbolic Z-matrix:
 Charge =  0 Multiplicity = 1
 P                    -1   -1.65949   0.        0. 
 P                    -1    1.65949   0.        0. 
 H                    0    -1.76235  -1.41726   0. 
 H                    0     1.76235   1.41726   0. 
 
 Add virtual bond connecting atoms P2         and P1         Dist= 6.27D+00.
 ITRead=  2  2  0  0
 MicOpt= -2 -2 -1 -1
 NAtoms=      4 NQM=        2 NQMF=       2 NMMI=      0 NMMIF=      0
                NMic=       0 NMicF=      0.
                    Isotopes and Nuclear Properties:
 (Nuclear quadrupole moments (NQMom) in fm**2, nuclear magnetic moments (NMagM)
  in nuclear magnetons)

  Atom         1           2           3           4
 IAtWgt=          31          31           1           1
 AtmWgt=  30.9737634  30.9737634   1.0078250   1.0078250
 NucSpn=           1           1           1           1
 AtZEff=  -0.0000000  -0.0000000  -0.0000000  -0.0000000
 NQMom=    0.0000000   0.0000000   0.0000000   0.0000000
 NMagM=    1.1316000   1.1316000   2.7928460   2.7928460
 AtZNuc=  15.0000000  15.0000000   1.0000000   1.0000000
 Leave Link  101 at Mon Apr 21 21:12:22 2025, MaxMem=   536870912 cpu:               2.5 elap:               0.5
 (Enter /home/szhao/Apps/g16/l103.exe)

 GradGradGradGradGradGradGradGradGradGradGradGradGradGradGradGradGradGrad
 Berny optimization.
 Initialization pass.
                           ----------------------------
                           !    Initial Parameters    !
                           ! (Angstroms and Degrees)  !
 --------------------------                            --------------------------
 ! Name  Definition              Value          Derivative Info.                !
 --------------------------------------------------------------------------------
 ! X1    R(1,-1)                -1.6595         Frozen                          !
 ! Y1    R(1,-2)                 0.0            Frozen                          !
 ! Z1    R(1,-3)                 0.0            Frozen                          !
 ! X2    R(2,-1)                 1.6595         Frozen                          !
 ! Y2    R(2,-2)                 0.0            Frozen                          !
 ! Z2    R(2,-3)                 0.0            Frozen                          !
 ! R1    R(1,3)                  1.421          estimate D2E/DX2                !
 ! R2    R(2,4)                  1.421          estimate D2E/DX2                !
 ! A1    A(2,1,3)               94.1511         estimate D2E/DX2                !
 ! A2    A(1,2,4)               94.1511         estimate D2E/DX2                !
 ! D1    D(3,1,2,4)            180.0            estimate D2E/DX2                !
 --------------------------------------------------------------------------------
 Trust Radius=3.00D-01 FncErr=1.00D-07 GrdErr=1.00D-07 EigMax=2.50D+02 EigMin=1.00D-04
 Number of steps in this run=     21 maximum allowed number of steps=    100.
 GradGradGradGradGradGradGradGradGradGradGradGradGradGradGradGradGradGrad

 Leave Link  103 at Mon Apr 21 21:12:22 2025, MaxMem=   536870912 cpu:               1.0 elap:               0.2
 (Enter /home/szhao/Apps/g16/l202.exe)
                          Input orientation:                          
 ---------------------------------------------------------------------
 Center     Atomic      Atomic             Coordinates (Angstroms)
 Number     Number       Type             X           Y           Z
 ---------------------------------------------------------------------
      1         15           0       -1.659490    0.000000    0.000000
      2         15           0        1.659490    0.000000    0.000000
      3          1           0       -1.762351   -1.417255    0.000000
      4          1           0        1.762351    1.417255    0.000000
 ---------------------------------------------------------------------
                    Distance matrix (angstroms):
                    1          2          3          4
     1  P    0.000000
     2  P    3.318979   0.000000
     3  H    1.420983   3.703728   0.000000
     4  H    3.703728   1.420983   4.523048   0.000000
 Symmetry turned off by external request.
 Stoichiometry    H2P2
 Framework group  C2H[SGH(H2P2)]
 Deg. of freedom     3
 Full point group                 C2H     NOp   4
 Rotational constants (GHZ):         129.5142102           2.8551748           2.7935894
 Leave Link  202 at Mon Apr 21 21:12:23 2025, MaxMem=   536870912 cpu:               0.1 elap:               0.0
 (Enter /home/szhao/Apps/g16/l301.exe)
 Standard basis: 6-311+G(d,p) (5D, 7F)
 Ernie: Thresh=  0.10000D-02 Tol=  0.10000D-05 Strict=F.
    72 basis functions,   116 primitive gaussians,    74 cartesian basis functions
    16 alpha electrons       16 beta electrons
       nuclear repulsion energy        51.4493120546 Hartrees.
 IExCor= 4336 DFT=T Ex+Corr=M062X ExCW=0 ScaHFX=  0.540000
 ScaDFX=  1.000000  1.000000  1.000000  1.000000 ScalE2=  1.000000  1.000000
 IRadAn=      7 IRanWt=     -1 IRanGd=            0 ICorTp=0 IEmpDi=  4
 NAtoms=    4 NActive=    4 NUniq=    4 SFac= 1.00D+00 NAtFMM=   60 NAOKFM=F Big=F
 Integral buffers will be    131072 words long.
 Raffenetti 2 integral format.
 Two-electron integral symmetry is turned off.
 Leave Link  301 at Mon Apr 21 21:12:24 2025, MaxMem=   536870912 cpu:               3.8 elap:               0.7
 (Enter /home/szhao/Apps/g16/l302.exe)
 NPDir=0 NMtPBC=     1 NCelOv=     1 NCel=       1 NClECP=     1 NCelD=      1
         NCelK=      1 NCelE2=     1 NClLst=     1 CellRange=     0.0.
 One-electron integrals computed using PRISM.
 NBasis=    72 RedAO= T EigKep=  7.97D-03  NBF=    72
 NBsUse=    72 1.00D-06 EigRej= -1.00D+00 NBFU=    72
 Precomputing XC quadrature grid using
 IXCGrd= 4 IRadAn=           7 IRanWt=          -1 IRanGd=           0 AccXCQ= 0.00D+00.
 Generated NRdTot=       0 NPtTot=           0 NUsed=           0 NTot=          32
 NSgBfM=    68    68    68    68    68 MxSgAt=     4 MxSgA2=     4.
 Leave Link  302 at Mon Apr 21 21:12:25 2025, MaxMem=   536870912 cpu:               2.4 elap:               0.4
 (Enter /home/szhao/Apps/g16/l303.exe)
 DipDrv:  MaxL=1.
 Leave Link  303 at Mon Apr 21 21:12:25 2025, MaxMem=   536870912 cpu:               0.5 elap:               0.1
 (Enter /home/szhao/Apps/g16/l401.exe)
 ExpMin= 3.48D-02 ExpMax= 7.75D+04 ExpMxC= 2.65D+03 IAcc=3 IRadAn=         7 AccDes= 0.00D+00
 Harris functional with IExCor= 1009 and IRadAn=       7 diagonalized for initial guess.
 HarFok:  IExCor= 1009 AccDes= 0.00D+00 IRadAn=         7 IDoV= 1 UseB2=F ITyADJ=14
 ICtDFT=  3500011 ScaDFX=  1.000000  1.000000  1.000000  1.000000
 FoFCou: FMM=F IPFlag=           0 FMFlag=      100000 FMFlg1=           0
         NFxFlg=           0 DoJE=T BraDBF=F KetDBF=T FulRan=T
         wScrn=  0.000000 ICntrl=       500 IOpCl=  0 I1Cent=   200000004 NGrid=           0
         NMat0=    1 NMatS0=      1 NMatT0=    0 NMatD0=    1 NMtDS0=    0 NMtDT0=    0
 Symmetry not used in FoFCou.
 Harris En= -683.405877662511    
 JPrj=0 DoOrth=F DoCkMO=F.
 Initial guess <Sx>= 0.0000 <Sy>= 0.0000 <Sz>= 0.0000 <S**2>=-0.0000 S=-0.0000
 Leave Link  401 at Mon Apr 21 21:12:26 2025, MaxMem=   536870912 cpu:               3.4 elap:               0.6
 (Enter /home/szhao/Apps/g16/l502.exe)
 Keep R1 and R2 ints in memory in canonical form, NReq=14118010.
 FoFCou: FMM=F IPFlag=           0 FMFlag=           0 FMFlg1=           0
         NFxFlg=           0 DoJE=F BraDBF=F KetDBF=F FulRan=T
         wScrn=  0.000000 ICntrl=       600 IOpCl=  0 I1Cent=           0 NGrid=           0
         NMat0=    1 NMatS0=   2628 NMatT0=    0 NMatD0=    1 NMtDS0=    0 NMtDT0=    0
 Symmetry not used in FoFCou.
 Two-electron integral symmetry not used.
 UHF open shell SCF:
 Using DIIS extrapolation, IDIIS=  1040.
 NGot=   536870912 LenX=   529949706 LenY=   529943789
 Requested convergence on RMS density matrix=1.00D-08 within 128 cycles.
 Requested convergence on MAX density matrix=1.00D-06.
 Requested convergence on             energy=1.00D-06.
 No special actions if energy rises.

 Cycle   1  Pass 1  IDiag  1:
 E= -683.654189656140    
 DIIS: error= 2.68D-02 at cycle   1 NSaved=   1.
 NSaved= 1 IEnMin= 1 EnMin= -683.654189656140     IErMin= 1 ErrMin= 2.68D-02
 ErrMax= 2.68D-02  0.00D+00 EMaxC= 1.00D-01 BMatC= 2.23D-01 BMatP= 2.23D-01
 IDIUse=3 WtCom= 7.32D-01 WtEn= 2.68D-01
 Coeff-Com:  0.100D+01
 Coeff-En:   0.100D+01
 Coeff:      0.100D+01
 Gap=     0.101 Goal=   None    Shift=    0.000
 Gap=     0.101 Goal=   None    Shift=    0.000
 GapD=    0.101 DampG=1.000 DampE=0.500 DampFc=0.5000 IDamp=-1.
 Damping current iteration by 5.00D-01
 RMSDP=1.88D-03 MaxDP=2.90D-02              OVMax= 4.44D-02

 Cycle   2  Pass 1  IDiag  1:
 E= -683.662225747911     Delta-E=       -0.008036091771 Rises=F Damp=T
 DIIS: error= 9.80D-03 at cycle   2 NSaved=   2.
 NSaved= 2 IEnMin= 2 EnMin= -683.662225747911     IErMin= 2 ErrMin= 9.80D-03
 ErrMax= 9.80D-03  0.00D+00 EMaxC= 1.00D-01 BMatC= 3.42D-02 BMatP= 2.23D-01
 IDIUse=3 WtCom= 9.02D-01 WtEn= 9.80D-02
 Coeff-Com: -0.567D+00 0.157D+01
 Coeff-En:   0.000D+00 0.100D+01
 Coeff:     -0.511D+00 0.151D+01
 Gap=     0.101 Goal=   None    Shift=    0.000
 Gap=     0.101 Goal=   None    Shift=    0.000
 RMSDP=7.28D-04 MaxDP=8.53D-03 DE=-8.04D-03 OVMax= 1.19D-02

 Cycle   3  Pass 1  IDiag  1:
 E= -683.669517258468     Delta-E=       -0.007291510557 Rises=F Damp=F
 DIIS: error= 4.74D-04 at cycle   3 NSaved=   3.
 NSaved= 3 IEnMin= 3 EnMin= -683.669517258468     IErMin= 3 ErrMin= 4.74D-04
 ErrMax= 4.74D-04  0.00D+00 EMaxC= 1.00D-01 BMatC= 1.60D-04 BMatP= 3.42D-02
 IDIUse=3 WtCom= 9.95D-01 WtEn= 4.74D-03
 Coeff-Com: -0.646D-01 0.132D+00 0.933D+00
 Coeff-En:   0.000D+00 0.000D+00 0.100D+01
 Coeff:     -0.643D-01 0.131D+00 0.933D+00
 Gap=     0.101 Goal=   None    Shift=    0.000
 Gap=     0.101 Goal=   None    Shift=    0.000
 RMSDP=1.57D-04 MaxDP=3.88D-03 DE=-7.29D-03 OVMax= 3.50D-03

 Cycle   4  Pass 1  IDiag  1:
 E= -683.669557279424     Delta-E=       -0.000040020956 Rises=F Damp=F
 DIIS: error= 1.91D-04 at cycle   4 NSaved=   4.
 NSaved= 4 IEnMin= 4 EnMin= -683.669557279424     IErMin= 4 ErrMin= 1.91D-04
 ErrMax= 1.91D-04  0.00D+00 EMaxC= 1.00D-01 BMatC= 8.56D-06 BMatP= 1.60D-04
 IDIUse=3 WtCom= 9.98D-01 WtEn= 1.91D-03
 Coeff-Com:  0.351D-02-0.109D-01 0.152D+00 0.856D+00
 Coeff-En:   0.000D+00 0.000D+00 0.000D+00 0.100D+01
 Coeff:      0.351D-02-0.109D-01 0.151D+00 0.856D+00
 Gap=     0.101 Goal=   None    Shift=    0.000
 Gap=     0.101 Goal=   None    Shift=    0.000
 RMSDP=3.74D-05 MaxDP=8.13D-04 DE=-4.00D-05 OVMax= 1.22D-03

 Cycle   5  Pass 1  IDiag  1:
 E= -683.669561021844     Delta-E=       -0.000003742419 Rises=F Damp=F
 DIIS: error= 5.24D-05 at cycle   5 NSaved=   5.
 NSaved= 5 IEnMin= 5 EnMin= -683.669561021844     IErMin= 5 ErrMin= 5.24D-05
 ErrMax= 5.24D-05  0.00D+00 EMaxC= 1.00D-01 BMatC= 5.55D-07 BMatP= 8.56D-06
 IDIUse=1 WtCom= 1.00D+00 WtEn= 0.00D+00
 Coeff-Com:  0.267D-02-0.540D-02-0.680D-01 0.183D-02 0.107D+01
 Coeff:      0.267D-02-0.540D-02-0.680D-01 0.183D-02 0.107D+01
 Gap=     0.101 Goal=   None    Shift=    0.000
 Gap=     0.101 Goal=   None    Shift=    0.000
 RMSDP=1.24D-05 MaxDP=1.27D-04 DE=-3.74D-06 OVMax= 5.29D-04

 Cycle   6  Pass 1  IDiag  1:
 E= -683.669561382701     Delta-E=       -0.000000360857 Rises=F Damp=F
 DIIS: error= 8.30D-06 at cycle   6 NSaved=   6.
 NSaved= 6 IEnMin= 6 EnMin= -683.669561382701     IErMin= 6 ErrMin= 8.30D-06
 ErrMax= 8.30D-06  0.00D+00 EMaxC= 1.00D-01 BMatC= 1.69D-08 BMatP= 5.55D-07
 IDIUse=1 WtCom= 1.00D+00 WtEn= 0.00D+00
 Coeff-Com:  0.610D-04 0.834D-04-0.144D-01-0.302D-01 0.121D+00 0.923D+00
 Coeff:      0.610D-04 0.834D-04-0.144D-01-0.302D-01 0.121D+00 0.923D+00
 Gap=     0.101 Goal=   None    Shift=    0.000
 Gap=     0.101 Goal=   None    Shift=    0.000
 RMSDP=2.62D-06 MaxDP=2.52D-05 DE=-3.61D-07 OVMax= 1.48D-04

 Cycle   7  Pass 1  IDiag  1:
 E= -683.669561400218     Delta-E=       -0.000000017517 Rises=F Damp=F
 DIIS: error= 3.02D-06 at cycle   7 NSaved=   7.
 NSaved= 7 IEnMin= 7 EnMin= -683.669561400218     IErMin= 7 ErrMin= 3.02D-06
 ErrMax= 3.02D-06  0.00D+00 EMaxC= 1.00D-01 BMatC= 2.15D-09 BMatP= 1.69D-08
 IDIUse=1 WtCom= 1.00D+00 WtEn= 0.00D+00
 Coeff-Com: -0.297D-04 0.789D-04 0.218D-02-0.328D-02-0.624D-01 0.741D-01
 Coeff-Com:  0.989D+00
 Coeff:     -0.297D-04 0.789D-04 0.218D-02-0.328D-02-0.624D-01 0.741D-01
 Coeff:      0.989D+00
 Gap=     0.101 Goal=   None    Shift=    0.000
 Gap=     0.101 Goal=   None    Shift=    0.000
 RMSDP=7.60D-07 MaxDP=7.00D-06 DE=-1.75D-08 OVMax= 4.30D-05

 Cycle   8  Pass 1  IDiag  1:
 E= -683.669561401886     Delta-E=       -0.000000001669 Rises=F Damp=F
 DIIS: error= 4.40D-07 at cycle   8 NSaved=   8.
 NSaved= 8 IEnMin= 8 EnMin= -683.669561401886     IErMin= 8 ErrMin= 4.40D-07
 ErrMax= 4.40D-07  0.00D+00 EMaxC= 1.00D-01 BMatC= 5.21D-11 BMatP= 2.15D-09
 IDIUse=1 WtCom= 1.00D+00 WtEn= 0.00D+00
 Coeff-Com: -0.203D-04 0.306D-04 0.897D-03 0.219D-02-0.675D-02-0.567D-01
 Coeff-Com: -0.133D-01 0.107D+01
 Coeff:     -0.203D-04 0.306D-04 0.897D-03 0.219D-02-0.675D-02-0.567D-01
 Coeff:     -0.133D-01 0.107D+01
 Gap=     0.101 Goal=   None    Shift=    0.000
 Gap=     0.101 Goal=   None    Shift=    0.000
 RMSDP=1.57D-07 MaxDP=1.51D-06 DE=-1.67D-09 OVMax= 1.01D-05

 Cycle   9  Pass 1  IDiag  1:
 E= -683.669561401951     Delta-E=       -0.000000000065 Rises=F Damp=F
 DIIS: error= 6.69D-08 at cycle   9 NSaved=   9.
 NSaved= 9 IEnMin= 9 EnMin= -683.669561401951     IErMin= 9 ErrMin= 6.69D-08
 ErrMax= 6.69D-08  0.00D+00 EMaxC= 1.00D-01 BMatC= 1.30D-12 BMatP= 5.21D-11
 IDIUse=1 WtCom= 1.00D+00 WtEn= 0.00D+00
 Coeff-Com: -0.221D-05 0.284D-05 0.551D-04 0.375D-03 0.552D-03-0.905D-02
 Coeff-Com: -0.244D-01 0.135D+00 0.897D+00
 Coeff:     -0.221D-05 0.284D-05 0.551D-04 0.375D-03 0.552D-03-0.905D-02
 Coeff:     -0.244D-01 0.135D+00 0.897D+00
 Gap=     0.101 Goal=   None    Shift=    0.000
 Gap=     0.101 Goal=   None    Shift=    0.000
 RMSDP=1.73D-08 MaxDP=1.57D-07 DE=-6.48D-11 OVMax= 7.46D-07

 Cycle  10  Pass 1  IDiag  1:
 E= -683.669561401952     Delta-E=       -0.000000000000 Rises=F Damp=F
 DIIS: error= 1.05D-08 at cycle  10 NSaved=  10.
 NSaved=10 IEnMin=10 EnMin= -683.669561401952     IErMin=10 ErrMin= 1.05D-08
 ErrMax= 1.05D-08  0.00D+00 EMaxC= 1.00D-01 BMatC= 3.52D-14 BMatP= 1.30D-12
 IDIUse=1 WtCom= 1.00D+00 WtEn= 0.00D+00
 Coeff-Com:  0.326D-06-0.257D-06-0.297D-04-0.932D-04 0.192D-03 0.232D-02
 Coeff-Com: -0.119D-03-0.405D-01 0.241D-01 0.101D+01
 Coeff:      0.326D-06-0.257D-06-0.297D-04-0.932D-04 0.192D-03 0.232D-02
 Coeff:     -0.119D-03-0.405D-01 0.241D-01 0.101D+01
 Gap=     0.101 Goal=   None    Shift=    0.000
 Gap=     0.101 Goal=   None    Shift=    0.000
 RMSDP=5.73D-09 MaxDP=6.23D-08 DE=-4.55D-13 OVMax= 1.60D-07

 SCF Done:  E(UM062X) =  -683.669561402     A.U. after   10 cycles
            NFock= 10  Conv=0.57D-08     -V/T= 2.0018
 <Sx>= 0.0000 <Sy>= 0.0000 <Sz>= 0.0000 <S**2>=-0.0000 S=-0.0000
 <L.S>=  0.00000000000    
 KE= 6.824319120104D+02 PE=-1.729079071666D+03 EE= 3.115282861993D+02
 Annihilation of the first spin contaminant:
 S**2 before annihilation    -0.0000,   after     0.0000
 Leave Link  502 at Mon Apr 21 21:12:33 2025, MaxMem=   536870912 cpu:              46.2 elap:               6.4
 (Enter /home/szhao/Apps/g16/l601.exe)
 Copying SCF densities to generalized density rwf, IOpCl= 1 IROHF=0.

 **********************************************************************

            Population analysis using the SCF density.

 **********************************************************************

 Alpha  occ. eigenvalues --  -78.08352 -78.08352  -6.90314  -6.90314  -5.01730
 Alpha  occ. eigenvalues --   -5.01730  -5.01718  -5.01718  -5.01529  -5.01529
 Alpha  occ. eigenvalues --   -0.69334  -0.67359  -0.40466  -0.40430  -0.28392
 Alpha  occ. eigenvalues --   -0.25448
 Alpha virt. eigenvalues --   -0.15324  -0.11405   0.01994   0.03086   0.03851
 Alpha virt. eigenvalues --    0.04691   0.05495   0.05935   0.06592   0.07809
 Alpha virt. eigenvalues --    0.09046   0.11985   0.27610   0.29705   0.30267
 Alpha virt. eigenvalues --    0.31567   0.33779   0.35781   0.38124   0.44213
 Alpha virt. eigenvalues --    0.49180   0.60166   0.66138   0.66237   0.66837
 Alpha virt. eigenvalues --    0.67148   0.70655   0.71453   0.71520   0.78440
 Alpha virt. eigenvalues --    0.91085   0.92439   1.44690   1.45499   1.45627
 Alpha virt. eigenvalues --    1.46551   1.55040   1.55422   1.55762   1.57207
 Alpha virt. eigenvalues --    1.57727   1.61515   2.02409   2.02851   2.56518
 Alpha virt. eigenvalues --    2.59045   6.82902   6.90821  13.95275  13.96038
 Alpha virt. eigenvalues --   13.96194  13.97959  14.00574  14.00632 163.07125
 Alpha virt. eigenvalues --  163.17346
  Beta  occ. eigenvalues --  -78.08352 -78.08352  -6.90314  -6.90314  -5.01730
  Beta  occ. eigenvalues --   -5.01730  -5.01718  -5.01718  -5.01529  -5.01529
  Beta  occ. eigenvalues --   -0.69334  -0.67359  -0.40466  -0.40430  -0.28392
  Beta  occ. eigenvalues --   -0.25448
  Beta virt. eigenvalues --   -0.15324  -0.11405   0.01994   0.03086   0.03851
  Beta virt. eigenvalues --    0.04691   0.05495   0.05935   0.06592   0.07809
  Beta virt. eigenvalues --    0.09046   0.11985   0.27610   0.29705   0.30267
  Beta virt. eigenvalues --    0.31567   0.33779   0.35781   0.38124   0.44213
  Beta virt. eigenvalues --    0.49180   0.60166   0.66138   0.66237   0.66837
  Beta virt. eigenvalues --    0.67148   0.70655   0.71453   0.71520   0.78440
  Beta virt. eigenvalues --    0.91085   0.92439   1.44690   1.45499   1.45627
  Beta virt. eigenvalues --    1.46551   1.55040   1.55422   1.55762   1.57207
  Beta virt. eigenvalues --    1.57727   1.61515   2.02409   2.02851   2.56518
  Beta virt. eigenvalues --    2.59045   6.82902   6.90821  13.95275  13.96038
  Beta virt. eigenvalues --   13.96194  13.97959  14.00574  14.00632 163.07125
  Beta virt. eigenvalues --  163.17346
          Condensed to atoms (all electrons):
               1          2          3          4
     1  P   14.505656   0.264823   0.219954   0.000155
     2  P    0.264823  14.505656   0.000155   0.219954
     3  H    0.219954   0.000155   0.789023   0.000279
     4  H    0.000155   0.219954   0.000279   0.789023
          Atomic-Atomic Spin Densities.
               1          2          3          4
     1  P    0.000000  -0.000000   0.000000   0.000000
     2  P   -0.000000  -0.000000  -0.000000   0.000000
     3  H    0.000000  -0.000000  -0.000000   0.000000
     4  H    0.000000   0.000000   0.000000   0.000000
 Mulliken charges and spin densities:
               1          2
     1  P    0.009411   0.000000
     2  P    0.009412  -0.000000
     3  H   -0.009411  -0.000000
     4  H   -0.009411   0.000000
 Sum of Mulliken charges =  -0.00000   0.00000
 Mulliken charges and spin densities with hydrogens summed into heavy atoms:
               1          2
     1  P   -0.000000   0.000000
     2  P    0.000000  -0.000000
 Electronic spatial extent (au):  <R**2>=            395.5081
 Charge=             -0.0000 electrons
 Dipole moment (field-independent basis, Debye):
    X=              0.0000    Y=              0.0000    Z=              0.0000  Tot=              0.0000
 Quadrupole moment (field-independent basis, Debye-Ang):
   XX=            -26.8405   YY=            -28.4390   ZZ=            -30.7333
   XY=              3.2618   XZ=              0.0000   YZ=              0.0000
 Traceless Quadrupole moment (field-independent basis, Debye-Ang):
   XX=              1.8304   YY=              0.2319   ZZ=             -2.0623
   XY=              3.2618   XZ=              0.0000   YZ=              0.0000
 Octapole moment (field-independent basis, Debye-Ang**2):
  XXX=              0.0000  YYY=             -0.0000  ZZZ=              0.0000  XYY=              0.0000
  XXY=             -0.0000  XXZ=              0.0000  XZZ=              0.0000  YZZ=              0.0000
  YYZ=              0.0000  XYZ=              0.0000
 Hexadecapole moment (field-independent basis, Debye-Ang**3):
 XXXX=           -518.4154 YYYY=            -64.5579 ZZZZ=            -56.9651 XXXY=              4.8016
 XXXZ=              0.0000 YYYX=             -8.0624 YYYZ=              0.0000 ZZZX=              0.0000
 ZZZY=              0.0000 XXYY=            -95.9669 XXZZ=            -98.1296 YYZZ=            -20.8200
 XXYZ=              0.0000 YYXZ=              0.0000 ZZXY=             -2.5705
 N-N= 5.144931205460D+01 E-N=-1.729079071604D+03  KE= 6.824319120104D+02
                          Isotropic Fermi Contact Couplings
        Atom                 a.u.       MegaHertz       Gauss      10(-4) cm-1
     1  P(31)              0.00000       0.00000       0.00000       0.00000
     2  P(31)             -0.00000      -0.00000      -0.00000      -0.00000
     3  H(1)              -0.00000      -0.00000      -0.00000      -0.00000
     4  H(1)               0.00000       0.00000       0.00000       0.00000
 --------------------------------------------------------
       Center         ----  Spin Dipole Couplings  ----
                      3XX-RR        3YY-RR        3ZZ-RR
 --------------------------------------------------------
     1   Atom        0.000000      0.000000      0.000000
     2   Atom        0.000000      0.000000      0.000000
     3   Atom        0.000000      0.000000      0.000000
     4   Atom        0.000000      0.000000      0.000000
 --------------------------------------------------------
                        XY            XZ            YZ
 --------------------------------------------------------
     1   Atom        0.000000      0.000000      0.000000
     2   Atom        0.000000      0.000000      0.000000
     3   Atom        0.000000      0.000000      0.000000
     4   Atom        0.000000      0.000000      0.000000
 --------------------------------------------------------


 ---------------------------------------------------------------------------------
              Anisotropic Spin Dipole Couplings in Principal Axis System
 ---------------------------------------------------------------------------------

       Atom             a.u.   MegaHertz   Gauss  10(-4) cm-1        Axes

              Baa     0.0000     0.000     0.000     0.000  1.0000  0.0000  0.0000
     1 P(31)  Bbb     0.0000     0.000     0.000     0.000 -0.0000  1.0000  0.0000
              Bcc     0.0000     0.000     0.000     0.000  0.0000  0.0000  1.0000
 
              Baa     0.0000     0.000     0.000     0.000  1.0000  0.0000  0.0000
     2 P(31)  Bbb     0.0000     0.000     0.000     0.000 -0.0000  1.0000  0.0000
              Bcc     0.0000     0.000     0.000     0.000  0.0000  0.0000  1.0000
 
              Baa     0.0000     0.000     0.000     0.000  1.0000  0.0000  0.0000
     3 H(1)   Bbb     0.0000     0.000     0.000     0.000 -0.0000  1.0000  0.0000
              Bcc     0.0000     0.000     0.000     0.000  0.0000  0.0000  1.0000
 
              Baa     0.0000     0.000     0.000     0.000  1.0000  0.0000  0.0000
     4 H(1)   Bbb     0.0000     0.000     0.000     0.000 -0.0000  1.0000  0.0000
              Bcc     0.0000     0.000     0.000     0.000  0.0000  0.0000  1.0000
 

 ---------------------------------------------------------------------------------

 No NMR shielding tensors so no spin-rotation constants.
 Leave Link  601 at Mon Apr 21 21:12:33 2025, MaxMem=   536870912 cpu:               1.5 elap:               0.3
 (Enter /home/szhao/Apps/g16/l701.exe)
 ... and contract with generalized density number  0.
 Compute integral first derivatives.
 Leave Link  701 at Mon Apr 21 21:12:33 2025, MaxMem=   536870912 cpu:               1.5 elap:               0.3
 (Enter /home/szhao/Apps/g16/l702.exe)
 L702 exits ... SP integral derivatives will be done elsewhere.
 Leave Link  702 at Mon Apr 21 21:12:34 2025, MaxMem=   536870912 cpu:               0.5 elap:               0.1
 (Enter /home/szhao/Apps/g16/l703.exe)
 Integral derivatives from FoFJK, PRISM(SPDF).
 Compute integral first derivatives, UseDBF=F ICtDFT=           0.
 Calling FoFJK, ICntrl=      2127 FMM=F ISym2X=0 I1Cent= 0 IOpClX= 1 NMat=1 NMatS=1 NMatT=0.
 FoFJK:  IHMeth= 1 ICntrl=    2127 DoSepK=F KAlg= 0 I1Cent=           0 FoldK=F
 IRaf=         0 NMat=       1 IRICut=       1 DoRegI=T DoRafI=F ISym2E= 0 IDoP0=0 IntGTp=1.
 FoFCou: FMM=F IPFlag=           0 FMFlag=      100000 FMFlg1=         800
         NFxFlg=           0 DoJE=F BraDBF=F KetDBF=F FulRan=T
         wScrn=  0.000000 ICntrl=      2127 IOpCl=  1 I1Cent=           0 NGrid=           0
         NMat0=    1 NMatS0=      1 NMatT0=    0 NMatD0=    1 NMtDS0=    0 NMtDT0=    0
 Symmetry not used in FoFCou.
 Leave Link  703 at Mon Apr 21 21:12:35 2025, MaxMem=   536870912 cpu:               6.5 elap:               1.0
 (Enter /home/szhao/Apps/g16/l716.exe)
 Dipole        = 2.43467578D-06 2.10629736D-10 5.25808027D-13
 -------------------------------------------------------------------
 Center     Atomic                   Forces (Hartrees/Bohr)
 Number     Number              X              Y              Z
 -------------------------------------------------------------------
      1       15          -0.000000000   -0.000000000   -0.000000000
      2       15          -0.000000000   -0.000000000   -0.000000000
      3        1           0.003865677   -0.001450943    0.000000000
      4        1          -0.003865680    0.001450917   -0.000000000
 -------------------------------------------------------------------
 Cartesian Forces:  Max     0.003865680 RMS     0.001685659
 Leave Link  716 at Mon Apr 21 21:12:35 2025, MaxMem=   536870912 cpu:               0.7 elap:               0.3
 (Enter /home/szhao/Apps/g16/l103.exe)

 GradGradGradGradGradGradGradGradGradGradGradGradGradGradGradGradGradGrad
 Berny optimization.
 FormGI is forming the generalized inverse of G from B-inverse, IUseBI=4.
 Internal  Forces:  Max     0.010635186 RMS     0.005271894
 Search for a local minimum.
 Step number   1 out of a maximum of   21
 All quantities printed in internal units (Hartrees-Bohrs-Radians)
 RMS Force = .67667D-02 SwitMx=.10000D-02 MixMth= 1
 Mixed Optimization -- RFO/linear search
 Second derivative matrix not updated -- first step.
 The second derivative matrix:
                          X1        Y1        Z1        X2        Y2
           X1           0.50000
           Y1           0.00000   0.50000
           Z1           0.00000   0.00000   0.50000
           X2           0.00000   0.00000   0.00000   0.50000
           Y2           0.00000   0.00000   0.00000   0.00000   0.50000
           Z2           0.00000   0.00000   0.00000   0.00000   0.00000
           R1           0.00000   0.00000   0.00000   0.00000   0.00000
           R2           0.00000   0.00000   0.00000   0.00000   0.00000
           A1           0.00000   0.00000   0.00000   0.00000   0.00000
           A2           0.00000   0.00000   0.00000   0.00000   0.00000
           D1           0.00000   0.00000   0.00000   0.00000   0.00000
                          Z2        R1        R2        A1        A2
           Z2           0.50000
           R1           0.00000   0.20874
           R2           0.00000   0.00000   0.20874
           A1           0.00000   0.00000   0.00000   0.16000
           A2           0.00000   0.00000   0.00000   0.00000   0.16000
           D1           0.00000   0.00000   0.00000   0.00000   0.00000
                          D1
           D1           0.00230
 ITU=  0
     Eigenvalues ---    0.00230   0.16000   0.16000   0.20874   0.20874
     Eigenvalues --- 1000.000001000.000001000.000001000.000001000.00000
     Eigenvalues --- 1000.00000
 RFO step:  Lambda=-1.41441879D-03 EMin= 2.30000000D-03
 Linear search not attempted -- first point.
 Iteration  1 RMS(Cart)=  0.07461320 RMS(Int)=  0.00243016
 Iteration  2 RMS(Cart)=  0.00264568 RMS(Int)=  0.00000103
 Iteration  3 RMS(Cart)=  0.00000241 RMS(Int)=  0.00000000
 Iteration  4 RMS(Cart)=  0.00000000 RMS(Int)=  0.00000000
 ITry= 1 IFail=0 DXMaxC= 1.77D-01 DCOld= 1.00D+10 DXMaxT= 3.00D-01 DXLimC= 3.00D+00 Rises=F
 Variable       Old X    -DE/DX   Delta X   Delta X   Delta X     New X
                                 (Linear)    (Quad)   (Total)
    X1       -3.13598   0.00387   0.00000   0.00000   0.00000  -3.13598
    Y1        0.00000  -0.00484   0.00000   0.00000   0.00000   0.00000
    Z1        0.00000  -0.00000   0.00000   0.00000   0.00000   0.00000
    X2        3.13598  -0.00387   0.00000   0.00000   0.00000   3.13598
    Y2        0.00000   0.00484   0.00000   0.00000   0.00000   0.00000
    Z2        0.00000  -0.00000   0.00000   0.00000   0.00000   0.00000
    R1        2.68527   0.00117   0.00000   0.00555   0.00555   2.69082
    R2        2.68527   0.00117   0.00000   0.00555   0.00555   2.69082
    A1        1.64325  -0.01064   0.00000  -0.06589  -0.06589   1.57736
    A2        1.64325  -0.01064   0.00000  -0.06589  -0.06589   1.57736
    D1        3.14159  -0.00000   0.00000  -0.00000   0.00000   3.14159
         Item               Value     Threshold  Converged?
 Maximum Force            0.010635     0.000450     NO 
 RMS     Force            0.006767     0.000300     NO 
 Maximum Displacement     0.176719     0.001800     NO 
 RMS     Displacement     0.075543     0.001200     NO 
 Predicted change in Energy=-7.133928D-04
 Lowest energy point so far.  Saving SCF results.
 GradGradGradGradGradGradGradGradGradGradGradGradGradGradGradGradGradGrad

 Leave Link  103 at Mon Apr 21 21:12:36 2025, MaxMem=   536870912 cpu:               2.0 elap:               0.4
 (Enter /home/szhao/Apps/g16/l202.exe)
                          Input orientation:                          
 ---------------------------------------------------------------------
 Center     Atomic      Atomic             Coordinates (Angstroms)
 Number     Number       Type             X           Y           Z
 ---------------------------------------------------------------------
      1         15           0       -1.659490    0.000000    0.000000
      2         15           0        1.659490    0.000000    0.000000
      3          1           0       -1.668835   -1.423892   -0.000000
      4          1           0        1.668835    1.423892   -0.000000
 ---------------------------------------------------------------------
                    Distance matrix (angstroms):
                    1          2          3          4
     1  P    0.000000
     2  P    3.318979   0.000000
     3  H    1.423922   3.620112   0.000000
     4  H    3.620112   1.423922   4.387472   0.000000
 Symmetry turned off by external request.
 Stoichiometry    H2P2
 Framework group  CS[SG(H2P2)]
 Deg. of freedom     5
 Full point group                 CS      NOp   2
 Rotational constants (GHZ):         127.8312210           2.8658629           2.8030217
 Leave Link  202 at Mon Apr 21 21:12:36 2025, MaxMem=   536870912 cpu:               0.1 elap:               0.1
 (Enter /home/szhao/Apps/g16/l301.exe)
 Standard basis: 6-311+G(d,p) (5D, 7F)
 Ernie: Thresh=  0.10000D-02 Tol=  0.10000D-05 Strict=F.
    72 basis functions,   116 primitive gaussians,    74 cartesian basis functions
    16 alpha electrons       16 beta electrons
       nuclear repulsion energy        51.5288690185 Hartrees.
 IExCor= 4336 DFT=T Ex+Corr=M062X ExCW=0 ScaHFX=  0.540000
 ScaDFX=  1.000000  1.000000  1.000000  1.000000 ScalE2=  1.000000  1.000000
 IRadAn=      7 IRanWt=     -1 IRanGd=            0 ICorTp=0 IEmpDi=  4
 NAtoms=    4 NActive=    4 NUniq=    4 SFac= 1.00D+00 NAtFMM=   60 NAOKFM=F Big=F
 Integral buffers will be    131072 words long.
 Raffenetti 2 integral format.
 Two-electron integral symmetry is turned off.
 Leave Link  301 at Mon Apr 21 21:12:37 2025, MaxMem=   536870912 cpu:               0.8 elap:               0.2
 (Enter /home/szhao/Apps/g16/l302.exe)
 NPDir=0 NMtPBC=     1 NCelOv=     1 NCel=       1 NClECP=     1 NCelD=      1
         NCelK=      1 NCelE2=     1 NClLst=     1 CellRange=     0.0.
 One-electron integrals computed using PRISM.
 NBasis=    72 RedAO= T EigKep=  7.93D-03  NBF=    72
 NBsUse=    72 1.00D-06 EigRej= -1.00D+00 NBFU=    72
 Precomputing XC quadrature grid using
 IXCGrd= 4 IRadAn=           7 IRanWt=          -1 IRanGd=           0 AccXCQ= 0.00D+00.
 Generated NRdTot=       0 NPtTot=           0 NUsed=           0 NTot=          32
 NSgBfM=    68    68    68    68    68 MxSgAt=     4 MxSgA2=     4.
 Leave Link  302 at Mon Apr 21 21:12:37 2025, MaxMem=   536870912 cpu:               1.9 elap:               0.3
 (Enter /home/szhao/Apps/g16/l303.exe)
 DipDrv:  MaxL=1.
 Leave Link  303 at Mon Apr 21 21:12:37 2025, MaxMem=   536870912 cpu:               0.7 elap:               0.2
 (Enter /home/szhao/Apps/g16/l401.exe)
 Initial guess from the checkpoint file:  "opt.chk"
 B after Tr=    -0.000000   -0.000000   -0.000000
         Rot=    0.999999    0.000000   -0.000000   -0.001559 Ang=  -0.18 deg.
 Guess basis will be translated and rotated to current coordinates.
 JPrj=2 DoOrth=T DoCkMO=T.
 Initial guess <Sx>= 0.0000 <Sy>= 0.0000 <Sz>= 0.0000 <S**2>=-0.0000 S=-0.0000
 Generating alternative initial guess.
 ExpMin= 3.48D-02 ExpMax= 7.75D+04 ExpMxC= 2.65D+03 IAcc=3 IRadAn=         5 AccDes= 0.00D+00
 Harris functional with IExCor= 1009 and IRadAn=       5 diagonalized for initial guess.
 HarFok:  IExCor= 1009 AccDes= 0.00D+00 IRadAn=         5 IDoV= 1 UseB2=F ITyADJ=14
 ICtDFT=  3500011 ScaDFX=  1.000000  1.000000  1.000000  1.000000
 FoFCou: FMM=F IPFlag=           0 FMFlag=      100000 FMFlg1=           0
         NFxFlg=           0 DoJE=T BraDBF=F KetDBF=T FulRan=T
         wScrn=  0.000000 ICntrl=       500 IOpCl=  0 I1Cent=   200000004 NGrid=           0
         NMat0=    1 NMatS0=      1 NMatT0=    0 NMatD0=    1 NMtDS0=    0 NMtDT0=    0
 Symmetry not used in FoFCou.
 Harris En= -683.407960643017    
 Leave Link  401 at Mon Apr 21 21:12:38 2025, MaxMem=   536870912 cpu:               5.8 elap:               0.9
 (Enter /home/szhao/Apps/g16/l502.exe)
 Keep R1 and R2 ints in memory in canonical form, NReq=14118010.
 FoFCou: FMM=F IPFlag=           0 FMFlag=           0 FMFlg1=           0
         NFxFlg=           0 DoJE=F BraDBF=F KetDBF=F FulRan=T
         wScrn=  0.000000 ICntrl=       600 IOpCl=  0 I1Cent=           0 NGrid=           0
         NMat0=    1 NMatS0=   2628 NMatT0=    0 NMatD0=    1 NMtDS0=    0 NMtDT0=    0
 Symmetry not used in FoFCou.
 Two-electron integral symmetry not used.
 UHF open shell SCF:
 Using DIIS extrapolation, IDIIS=  1040.
 NGot=   536870912 LenX=   529949706 LenY=   529943789
 Requested convergence on RMS density matrix=1.00D-08 within 128 cycles.
 Requested convergence on MAX density matrix=1.00D-06.
 Requested convergence on             energy=1.00D-06.
 No special actions if energy rises.

 Cycle   1  Pass 1  IDiag  1:
 E= -683.669805810039    
 DIIS: error= 3.17D-03 at cycle   1 NSaved=   1.
 NSaved= 1 IEnMin= 1 EnMin= -683.669805810039     IErMin= 1 ErrMin= 3.17D-03
 ErrMax= 3.17D-03  0.00D+00 EMaxC= 1.00D-01 BMatC= 1.23D-03 BMatP= 1.23D-03
 IDIUse=3 WtCom= 9.68D-01 WtEn= 3.17D-02
 Coeff-Com:  0.100D+01
 Coeff-En:   0.100D+01
 Coeff:      0.100D+01
 Gap=     0.412 Goal=   None    Shift=    0.000
 Gap=     0.412 Goal=   None    Shift=    0.000
 GapD=    0.412 DampG=2.000 DampE=1.000 DampFc=2.0000 IDamp=-1.
 RMSDP=3.96D-04 MaxDP=4.86D-03              OVMax= 1.52D-02

 Cycle   2  Pass 1  IDiag  1:
 E= -683.670546491435     Delta-E=       -0.000740681396 Rises=F Damp=F
 DIIS: error= 4.67D-04 at cycle   2 NSaved=   2.
 NSaved= 2 IEnMin= 2 EnMin= -683.670546491435     IErMin= 2 ErrMin= 4.67D-04
 ErrMax= 4.67D-04  0.00D+00 EMaxC= 1.00D-01 BMatC= 5.50D-05 BMatP= 1.23D-03
 IDIUse=3 WtCom= 9.95D-01 WtEn= 4.67D-03
 Coeff-Com: -0.143D+00 0.114D+01
 Coeff-En:   0.000D+00 0.100D+01
 Coeff:     -0.142D+00 0.114D+01
 Gap=     0.101 Goal=   None    Shift=    0.000
 Gap=     0.101 Goal=   None    Shift=    0.000
 RMSDP=1.29D-04 MaxDP=1.68D-03 DE=-7.41D-04 OVMax= 5.94D-03

 Cycle   3  Pass 1  IDiag  1:
 E= -683.670603779330     Delta-E=       -0.000057287895 Rises=F Damp=F
 DIIS: error= 8.44D-05 at cycle   3 NSaved=   3.
 NSaved= 3 IEnMin= 3 EnMin= -683.670603779330     IErMin= 3 ErrMin= 8.44D-05
 ErrMax= 8.44D-05  0.00D+00 EMaxC= 1.00D-01 BMatC= 2.79D-06 BMatP= 5.50D-05
 IDIUse=1 WtCom= 1.00D+00 WtEn= 0.00D+00
 Coeff-Com: -0.255D-01 0.478D-01 0.978D+00
 Coeff:     -0.255D-01 0.478D-01 0.978D+00
 Gap=     0.101 Goal=   None    Shift=    0.000
 Gap=     0.101 Goal=   None    Shift=    0.000
 RMSDP=4.14D-05 MaxDP=5.71D-04 DE=-5.73D-05 OVMax= 2.00D-03

 Cycle   4  Pass 1  IDiag  1:
 E= -683.670607445763     Delta-E=       -0.000003666433 Rises=F Damp=F
 DIIS: error= 7.45D-05 at cycle   4 NSaved=   4.
 NSaved= 4 IEnMin= 4 EnMin= -683.670607445763     IErMin= 4 ErrMin= 7.45D-05
 ErrMax= 7.45D-05  0.00D+00 EMaxC= 1.00D-01 BMatC= 7.56D-07 BMatP= 2.79D-06
 IDIUse=1 WtCom= 1.00D+00 WtEn= 0.00D+00
 Coeff-Com:  0.110D-01-0.133D+00 0.198D+00 0.924D+00
 Coeff:      0.110D-01-0.133D+00 0.198D+00 0.924D+00
 Gap=     0.101 Goal=   None    Shift=    0.000
 Gap=     0.101 Goal=   None    Shift=    0.000
 RMSDP=1.17D-05 MaxDP=1.19D-04 DE=-3.67D-06 OVMax= 6.41D-04

 Cycle   5  Pass 1  IDiag  1:
 E= -683.670607884536     Delta-E=       -0.000000438774 Rises=F Damp=F
 DIIS: error= 2.07D-05 at cycle   5 NSaved=   5.
 NSaved= 5 IEnMin= 5 EnMin= -683.670607884536     IErMin= 5 ErrMin= 2.07D-05
 ErrMax= 2.07D-05  0.00D+00 EMaxC= 1.00D-01 BMatC= 5.58D-08 BMatP= 7.56D-07
 IDIUse=1 WtCom= 1.00D+00 WtEn= 0.00D+00
 Coeff-Com:  0.474D-02-0.523D-01 0.638D-01 0.334D+00 0.650D+00
 Coeff:      0.474D-02-0.523D-01 0.638D-01 0.334D+00 0.650D+00
 Gap=     0.101 Goal=   None    Shift=    0.000
 Gap=     0.101 Goal=   None    Shift=    0.000
 RMSDP=6.18D-06 MaxDP=1.43D-04 DE=-4.39D-07 OVMax= 4.01D-04

 Cycle   6  Pass 1  IDiag  1:
 E= -683.670607709998     Delta-E=        0.000000174538 Rises=F Damp=F
 DIIS: error= 6.39D-05 at cycle   6 NSaved=   6.
 NSaved= 6 IEnMin= 5 EnMin= -683.670607884536     IErMin= 5 ErrMin= 2.07D-05
 ErrMax= 6.39D-05  0.00D+00 EMaxC= 1.00D-01 BMatC= 4.67D-07 BMatP= 5.58D-08
 IDIUse=1 WtCom= 1.00D+00 WtEn= 0.00D+00
 Coeff-Com: -0.327D-03 0.101D-01-0.304D-01-0.112D+00 0.847D+00 0.286D+00
 Coeff:     -0.327D-03 0.101D-01-0.304D-01-0.112D+00 0.847D+00 0.286D+00
 Gap=     0.101 Goal=   None    Shift=    0.000
 Gap=     0.101 Goal=   None    Shift=    0.000
 RMSDP=4.77D-06 MaxDP=1.10D-04 DE= 1.75D-07 OVMax= 3.09D-04

 Cycle   7  Pass 1  IDiag  1:
 E= -683.670607914940     Delta-E=       -0.000000204941 Rises=F Damp=F
 DIIS: error= 1.39D-06 at cycle   7 NSaved=   7.
 NSaved= 7 IEnMin= 7 EnMin= -683.670607914940     IErMin= 7 ErrMin= 1.39D-06
 ErrMax= 1.39D-06  0.00D+00 EMaxC= 1.00D-01 BMatC= 9.26D-10 BMatP= 5.58D-08
 IDIUse=1 WtCom= 1.00D+00 WtEn= 0.00D+00
 Coeff-Com: -0.529D-03 0.799D-02-0.157D-01-0.674D-01 0.226D+00 0.939D-01
 Coeff-Com:  0.756D+00
 Coeff:     -0.529D-03 0.799D-02-0.157D-01-0.674D-01 0.226D+00 0.939D-01
 Coeff:      0.756D+00
 Gap=     0.101 Goal=   None    Shift=    0.000
 Gap=     0.101 Goal=   None    Shift=    0.000
 RMSDP=4.15D-07 MaxDP=5.59D-06 DE=-2.05D-07 OVMax= 1.27D-05

 Cycle   8  Pass 1  IDiag  1:
 E= -683.670607915317     Delta-E=       -0.000000000377 Rises=F Damp=F
 DIIS: error= 2.40D-07 at cycle   8 NSaved=   8.
 NSaved= 8 IEnMin= 8 EnMin= -683.670607915317     IErMin= 8 ErrMin= 2.40D-07
 ErrMax= 2.40D-07  0.00D+00 EMaxC= 1.00D-01 BMatC= 1.72D-11 BMatP= 9.26D-10
 IDIUse=1 WtCom= 1.00D+00 WtEn= 0.00D+00
 Coeff-Com: -0.734D-05-0.258D-03 0.111D-02 0.461D-02-0.506D-01-0.172D-01
 Coeff-Com: -0.104D-01 0.107D+01
 Coeff:     -0.734D-05-0.258D-03 0.111D-02 0.461D-02-0.506D-01-0.172D-01
 Coeff:     -0.104D-01 0.107D+01
 Gap=     0.101 Goal=   None    Shift=    0.000
 Gap=     0.101 Goal=   None    Shift=    0.000
 RMSDP=1.87D-07 MaxDP=2.38D-06 DE=-3.77D-10 OVMax= 4.30D-06

 Cycle   9  Pass 1  IDiag  1:
 E= -683.670607915337     Delta-E=       -0.000000000020 Rises=F Damp=F
 DIIS: error= 5.54D-08 at cycle   9 NSaved=   9.
 NSaved= 9 IEnMin= 9 EnMin= -683.670607915337     IErMin= 9 ErrMin= 5.54D-08
 ErrMax= 5.54D-08  0.00D+00 EMaxC= 1.00D-01 BMatC= 4.34D-13 BMatP= 1.72D-11
 IDIUse=1 WtCom= 1.00D+00 WtEn= 0.00D+00
 Coeff-Com:  0.142D-04-0.220D-03 0.458D-03 0.198D-02-0.776D-02-0.285D-02
 Coeff-Com: -0.967D-02-0.138D-01 0.103D+01
 Coeff:      0.142D-04-0.220D-03 0.458D-03 0.198D-02-0.776D-02-0.285D-02
 Coeff:     -0.967D-02-0.138D-01 0.103D+01
 Gap=     0.101 Goal=   None    Shift=    0.000
 Gap=     0.101 Goal=   None    Shift=    0.000
 RMSDP=2.81D-08 MaxDP=3.49D-07 DE=-2.05D-11 OVMax= 6.73D-07

 Cycle  10  Pass 1  IDiag  1:
 E= -683.670607915338     Delta-E=       -0.000000000001 Rises=F Damp=F
 DIIS: error= 6.86D-09 at cycle  10 NSaved=  10.
 NSaved=10 IEnMin=10 EnMin= -683.670607915338     IErMin=10 ErrMin= 6.86D-09
 ErrMax= 6.86D-09  0.00D+00 EMaxC= 1.00D-01 BMatC= 1.58D-14 BMatP= 4.34D-13
 IDIUse=1 WtCom= 1.00D+00 WtEn= 0.00D+00
 Coeff-Com:  0.159D-05-0.136D-04 0.165D-04 0.602D-04 0.929D-03 0.246D-03
 Coeff-Com: -0.265D-02-0.248D-01 0.826D-01 0.944D+00
 Coeff:      0.159D-05-0.136D-04 0.165D-04 0.602D-04 0.929D-03 0.246D-03
 Coeff:     -0.265D-02-0.248D-01 0.826D-01 0.944D+00
 Gap=     0.101 Goal=   None    Shift=    0.000
 Gap=     0.101 Goal=   None    Shift=    0.000
 RMSDP=3.43D-09 MaxDP=4.49D-08 DE=-5.68D-13 OVMax= 9.55D-08

 SCF Done:  E(UM062X) =  -683.670607915     A.U. after   10 cycles
            NFock= 10  Conv=0.34D-08     -V/T= 2.0018
 <Sx>= 0.0000 <Sy>= 0.0000 <Sz>= 0.0000 <S**2>=-0.0000 S=-0.0000
 <L.S>=  0.00000000000    
 KE= 6.824238360751D+02 PE=-1.729230738768D+03 EE= 3.116074257586D+02
 Annihilation of the first spin contaminant:
 S**2 before annihilation    -0.0000,   after     0.0000
 Leave Link  502 at Mon Apr 21 21:12:46 2025, MaxMem=   536870912 cpu:              49.8 elap:               7.1
 (Enter /home/szhao/Apps/g16/l701.exe)
 ... and contract with generalized density number  0.
 Compute integral first derivatives.
 Leave Link  701 at Mon Apr 21 21:12:47 2025, MaxMem=   536870912 cpu:               1.4 elap:               0.2
 (Enter /home/szhao/Apps/g16/l702.exe)
 L702 exits ... SP integral derivatives will be done elsewhere.
 Leave Link  702 at Mon Apr 21 21:12:47 2025, MaxMem=   536870912 cpu:               0.6 elap:               0.3
 (Enter /home/szhao/Apps/g16/l703.exe)
 Integral derivatives from FoFJK, PRISM(SPDF).
 Compute integral first derivatives, UseDBF=F ICtDFT=           0.
 Calling FoFJK, ICntrl=      2127 FMM=F ISym2X=0 I1Cent= 0 IOpClX= 1 NMat=1 NMatS=1 NMatT=0.
 FoFJK:  IHMeth= 1 ICntrl=    2127 DoSepK=F KAlg= 0 I1Cent=           0 FoldK=F
 IRaf=         0 NMat=       1 IRICut=       1 DoRegI=T DoRafI=F ISym2E= 0 IDoP0=0 IntGTp=1.
 FoFCou: FMM=F IPFlag=           0 FMFlag=      100000 FMFlg1=         800
         NFxFlg=           0 DoJE=F BraDBF=F KetDBF=F FulRan=T
         wScrn=  0.000000 ICntrl=      2127 IOpCl=  1 I1Cent=           0 NGrid=           0
         NMat0=    1 NMatS0=      1 NMatT0=    0 NMatD0=    1 NMtDS0=    0 NMtDT0=    0
 Symmetry not used in FoFCou.
 Leave Link  703 at Mon Apr 21 21:12:48 2025, MaxMem=   536870912 cpu:               7.0 elap:               1.0
 (Enter /home/szhao/Apps/g16/l716.exe)
 Dipole        = 7.68757946D-10 2.94572486D-08-8.44214431D-12
 -------------------------------------------------------------------
 Center     Atomic                   Forces (Hartrees/Bohr)
 Number     Number              X              Y              Z
 -------------------------------------------------------------------
      1       15          -0.000000000   -0.000000000   -0.000000000
      2       15          -0.000000000   -0.000000000   -0.000000000
      3        1           0.001915609    0.000249525    0.000000000
      4        1          -0.001915609   -0.000249499    0.000000000
 -------------------------------------------------------------------
 Cartesian Forces:  Max     0.001915609 RMS     0.000788650
 Leave Link  716 at Mon Apr 21 21:12:48 2025, MaxMem=   536870912 cpu:               0.4 elap:               0.1
 (Enter /home/szhao/Apps/g16/l103.exe)

 GradGradGradGradGradGradGradGradGradGradGradGradGradGradGradGradGradGrad
 Berny optimization.
 Using GEDIIS/GDIIS optimizer.
 FormGI is forming the generalized inverse of G from B-inverse, IUseBI=4.
 Internal  Forces:  Max     0.005150048 RMS     0.002419652
 Search for a local minimum.
 Step number   2 out of a maximum of   21
 All quantities printed in internal units (Hartrees-Bohrs-Radians)
 RMS Force = .32614D-02 SwitMx=.10000D-02 MixMth= 1
 Mixed Optimization -- RFO/linear search
 Update second derivatives using D2CorX and points    1    2
 DE= -1.05D-03 DEPred=-7.13D-04 R= 1.47D+00
 TightC=F SS=  1.41D+00  RLast= 9.35D-02 DXNew= 5.0454D-01 2.8053D-01
 Trust test= 1.47D+00 RLast= 9.35D-02 DXMaxT set to 3.00D-01
 The second derivative matrix:
                          X1        Y1        Z1        X2        Y2
           X1           0.50515
           Y1          -0.00911   0.51611
           Z1          -0.00000   0.00000   0.50000
           X2          -0.00515   0.00911   0.00000   0.50515
           Y2           0.00911  -0.01611  -0.00000  -0.00911   0.51611
           Z2          -0.00000   0.00000   0.00000   0.00000  -0.00000
           R1           0.00377  -0.00668  -0.00000  -0.00377   0.00668
           R2           0.00377  -0.00667  -0.00000  -0.00377   0.00667
           A1          -0.01448   0.02561   0.00000   0.01448  -0.02561
           A2          -0.01448   0.02561   0.00000   0.01448  -0.02561
           D1          -0.00000   0.00000   0.00000   0.00000  -0.00000
                          Z2        R1        R2        A1        A2
           Z2           0.50000
           R1          -0.00000   0.21055
           R2          -0.00000   0.00181   0.21054
           A1           0.00000  -0.00190  -0.00190   0.12147
           A2           0.00000  -0.00190  -0.00190  -0.03853   0.12147
           D1           0.00000  -0.00000  -0.00000   0.00000   0.00000
                          D1
           D1           0.00230
 ITU=  1  0
 Use linear search instead of GDIIS.
     Eigenvalues ---    0.00230   0.08282   0.16000   0.20874   0.21246
     Eigenvalues --- 1000.000001000.000001000.000001000.000001000.00000
     Eigenvalues --- 1000.00000
 RFO step:  Lambda=-2.32743465D-05 EMin= 2.30000000D-03
 Quartic linear search produced a step of  0.89489.
 Iteration  1 RMS(Cart)=  0.06963010 RMS(Int)=  0.00211744
 Iteration  2 RMS(Cart)=  0.00212970 RMS(Int)=  0.00000017
 Iteration  3 RMS(Cart)=  0.00000045 RMS(Int)=  0.00000000
 ITry= 1 IFail=0 DXMaxC= 1.64D-01 DCOld= 1.00D+10 DXMaxT= 3.00D-01 DXLimC= 3.00D+00 Rises=F
 Variable       Old X    -DE/DX   Delta X   Delta X   Delta X     New X
                                 (Linear)    (Quad)   (Total)
    X1       -3.13598   0.00192   0.00000   0.00000   0.00000  -3.13598
    Y1        0.00000  -0.00139   0.00000   0.00000   0.00000   0.00000
    Z1        0.00000   0.00000   0.00000   0.00000   0.00000   0.00000
    X2        3.13598  -0.00192   0.00000   0.00000   0.00000   3.13598
    Y2        0.00000   0.00139   0.00000   0.00000   0.00000   0.00000
    Z2        0.00000   0.00000   0.00000   0.00000   0.00000   0.00000
    R1        2.69082  -0.00026   0.00497  -0.00734  -0.00236   2.68846
    R2        2.69082  -0.00026   0.00497  -0.00733  -0.00236   2.68846
    A1        1.57736  -0.00515  -0.05896  -0.00191  -0.06087   1.51649
    A2        1.57736  -0.00515  -0.05896  -0.00191  -0.06087   1.51649
    D1        3.14159   0.00000   0.00000   0.00000   0.00000   3.14159
         Item               Value     Threshold  Converged?
 Maximum Force            0.005150     0.000450     NO 
 RMS     Force            0.003261     0.000300     NO 
 Maximum Displacement     0.163598     0.001800     NO 
 RMS     Displacement     0.069810     0.001200     NO 
 Predicted change in Energy=-3.208411D-04
 Lowest energy point so far.  Saving SCF results.
 GradGradGradGradGradGradGradGradGradGradGradGradGradGradGradGradGradGrad

 Leave Link  103 at Mon Apr 21 21:12:49 2025, MaxMem=   536870912 cpu:               0.8 elap:               0.3
 (Enter /home/szhao/Apps/g16/l202.exe)
                          Input orientation:                          
 ---------------------------------------------------------------------
 Center     Atomic      Atomic             Coordinates (Angstroms)
 Number     Number       Type             X           Y           Z
 ---------------------------------------------------------------------
      1         15           0       -1.659490    0.000000    0.000000
      2         15           0        1.659490    0.000000    0.000000
      3          1           0       -1.582262   -1.420573    0.000000
      4          1           0        1.582262    1.420573    0.000000
 ---------------------------------------------------------------------
                    Distance matrix (angstroms):
                    1          2          3          4
     1  P    0.000000
     2  P    3.318979   0.000000
     3  H    1.422671   3.539348   0.000000
     4  H    3.539348   1.422671   4.252803   0.000000
 Symmetry turned off by external request.
 Stoichiometry    H2P2
 Framework group  CS[SG(H2P2)]
 Deg. of freedom     5
 Full point group                 CS      NOp   2
 Rotational constants (GHZ):         128.0059977           2.8753353           2.8121670
 Leave Link  202 at Mon Apr 21 21:12:49 2025, MaxMem=   536870912 cpu:               0.1 elap:               0.1
 (Enter /home/szhao/Apps/g16/l301.exe)
 Standard basis: 6-311+G(d,p) (5D, 7F)
 Ernie: Thresh=  0.10000D-02 Tol=  0.10000D-05 Strict=F.
    72 basis functions,   116 primitive gaussians,    74 cartesian basis functions
    16 alpha electrons       16 beta electrons
       nuclear repulsion energy        51.6425613886 Hartrees.
 IExCor= 4336 DFT=T Ex+Corr=M062X ExCW=0 ScaHFX=  0.540000
 ScaDFX=  1.000000  1.000000  1.000000  1.000000 ScalE2=  1.000000  1.000000
 IRadAn=      7 IRanWt=     -1 IRanGd=            0 ICorTp=0 IEmpDi=  4
 NAtoms=    4 NActive=    4 NUniq=    4 SFac= 1.00D+00 NAtFMM=   60 NAOKFM=F Big=F
 Integral buffers will be    131072 words long.
 Raffenetti 2 integral format.
 Two-electron integral symmetry is turned off.
 Leave Link  301 at Mon Apr 21 21:12:50 2025, MaxMem=   536870912 cpu:               0.6 elap:               0.2
 (Enter /home/szhao/Apps/g16/l302.exe)
 NPDir=0 NMtPBC=     1 NCelOv=     1 NCel=       1 NClECP=     1 NCelD=      1
         NCelK=      1 NCelE2=     1 NClLst=     1 CellRange=     0.0.
 One-electron integrals computed using PRISM.
 NBasis=    72 RedAO= T EigKep=  7.96D-03  NBF=    72
 NBsUse=    72 1.00D-06 EigRej= -1.00D+00 NBFU=    72
 Precomputing XC quadrature grid using
 IXCGrd= 4 IRadAn=           7 IRanWt=          -1 IRanGd=           0 AccXCQ= 0.00D+00.
 Generated NRdTot=       0 NPtTot=           0 NUsed=           0 NTot=          32
 NSgBfM=    70    70    70    70    70 MxSgAt=     4 MxSgA2=     4.
 Leave Link  302 at Mon Apr 21 21:12:51 2025, MaxMem=   536870912 cpu:               2.3 elap:               0.5
 (Enter /home/szhao/Apps/g16/l303.exe)
 DipDrv:  MaxL=1.
 Leave Link  303 at Mon Apr 21 21:12:51 2025, MaxMem=   536870912 cpu:               1.2 elap:               0.4
 (Enter /home/szhao/Apps/g16/l401.exe)
 Initial guess from the checkpoint file:  "opt.chk"
 B after Tr=     0.000000    0.000000    0.000000
         Rot=    0.999999    0.000000    0.000000   -0.001280 Ang=  -0.15 deg.
 Guess basis will be translated and rotated to current coordinates.
 JPrj=2 DoOrth=T DoCkMO=T.
 Initial guess <Sx>= 0.0000 <Sy>= 0.0000 <Sz>= 0.0000 <S**2>=-0.0000 S=-0.0000
 Generating alternative initial guess.
 ExpMin= 3.48D-02 ExpMax= 7.75D+04 ExpMxC= 2.65D+03 IAcc=3 IRadAn=         5 AccDes= 0.00D+00
 Harris functional with IExCor= 1009 and IRadAn=       5 diagonalized for initial guess.
 HarFok:  IExCor= 1009 AccDes= 0.00D+00 IRadAn=         5 IDoV= 1 UseB2=F ITyADJ=14
 ICtDFT=  3500011 ScaDFX=  1.000000  1.000000  1.000000  1.000000
 FoFCou: FMM=F IPFlag=           0 FMFlag=      100000 FMFlg1=           0
         NFxFlg=           0 DoJE=T BraDBF=F KetDBF=T FulRan=T
         wScrn=  0.000000 ICntrl=       500 IOpCl=  0 I1Cent=   200000004 NGrid=           0
         NMat0=    1 NMatS0=      1 NMatT0=    0 NMatD0=    1 NMtDS0=    0 NMtDT0=    0
 Symmetry not used in FoFCou.
 Harris En= -683.408408040470    
 Leave Link  401 at Mon Apr 21 21:12:53 2025, MaxMem=   536870912 cpu:               5.2 elap:               0.9
 (Enter /home/szhao/Apps/g16/l502.exe)
 Keep R1 and R2 ints in memory in canonical form, NReq=14118010.
 FoFCou: FMM=F IPFlag=           0 FMFlag=           0 FMFlg1=           0
         NFxFlg=           0 DoJE=F BraDBF=F KetDBF=F FulRan=T
         wScrn=  0.000000 ICntrl=       600 IOpCl=  0 I1Cent=           0 NGrid=           0
         NMat0=    1 NMatS0=   2628 NMatT0=    0 NMatD0=    1 NMtDS0=    0 NMtDT0=    0
 Symmetry not used in FoFCou.
 Two-electron integral symmetry not used.
 UHF open shell SCF:
 Using DIIS extrapolation, IDIIS=  1040.
 NGot=   536870912 LenX=   529949706 LenY=   529943789
 Requested convergence on RMS density matrix=1.00D-08 within 128 cycles.
 Requested convergence on MAX density matrix=1.00D-06.
 Requested convergence on             energy=1.00D-06.
 No special actions if energy rises.

 Cycle   1  Pass 1  IDiag  1:
 E= -683.670234749808    
 DIIS: error= 2.93D-03 at cycle   1 NSaved=   1.
 NSaved= 1 IEnMin= 1 EnMin= -683.670234749808     IErMin= 1 ErrMin= 2.93D-03
 ErrMax= 2.93D-03  0.00D+00 EMaxC= 1.00D-01 BMatC= 1.06D-03 BMatP= 1.06D-03
 IDIUse=3 WtCom= 9.71D-01 WtEn= 2.93D-02
 Coeff-Com:  0.100D+01
 Coeff-En:   0.100D+01
 Coeff:      0.100D+01
 Gap=     0.412 Goal=   None    Shift=    0.000
 Gap=     0.412 Goal=   None    Shift=    0.000
 GapD=    0.412 DampG=2.000 DampE=1.000 DampFc=2.0000 IDamp=-1.
 RMSDP=3.75D-04 MaxDP=4.59D-03              OVMax= 1.39D-02

 Cycle   2  Pass 1  IDiag  1:
 E= -683.670878471180     Delta-E=       -0.000643721373 Rises=F Damp=F
 DIIS: error= 4.25D-04 at cycle   2 NSaved=   2.
 NSaved= 2 IEnMin= 2 EnMin= -683.670878471180     IErMin= 2 ErrMin= 4.25D-04
 ErrMax= 4.25D-04  0.00D+00 EMaxC= 1.00D-01 BMatC= 4.85D-05 BMatP= 1.06D-03
 IDIUse=3 WtCom= 9.96D-01 WtEn= 4.25D-03
 Coeff-Com: -0.143D+00 0.114D+01
 Coeff-En:   0.000D+00 0.100D+01
 Coeff:     -0.143D+00 0.114D+01
 Gap=     0.102 Goal=   None    Shift=    0.000
 Gap=     0.102 Goal=   None    Shift=    0.000
 RMSDP=1.20D-04 MaxDP=1.55D-03 DE=-6.44D-04 OVMax= 5.35D-03

 Cycle   3  Pass 1  IDiag  1:
 E= -683.670927732384     Delta-E=       -0.000049261204 Rises=F Damp=F
 DIIS: error= 7.90D-05 at cycle   3 NSaved=   3.
 NSaved= 3 IEnMin= 3 EnMin= -683.670927732384     IErMin= 3 ErrMin= 7.90D-05
 ErrMax= 7.90D-05  0.00D+00 EMaxC= 1.00D-01 BMatC= 2.59D-06 BMatP= 4.85D-05
 IDIUse=1 WtCom= 1.00D+00 WtEn= 0.00D+00
 Coeff-Com: -0.294D-01 0.769D-01 0.952D+00
 Coeff:     -0.294D-01 0.769D-01 0.952D+00
 Gap=     0.101 Goal=   None    Shift=    0.000
 Gap=     0.101 Goal=   None    Shift=    0.000
 RMSDP=3.84D-05 MaxDP=5.27D-04 DE=-4.93D-05 OVMax= 1.79D-03

 Cycle   4  Pass 1  IDiag  1:
 E= -683.670930871539     Delta-E=       -0.000003139155 Rises=F Damp=F
 DIIS: error= 6.81D-05 at cycle   4 NSaved=   4.
 NSaved= 4 IEnMin= 4 EnMin= -683.670930871539     IErMin= 4 ErrMin= 6.81D-05
 ErrMax= 6.81D-05  0.00D+00 EMaxC= 1.00D-01 BMatC= 6.65D-07 BMatP= 2.59D-06
 IDIUse=1 WtCom= 1.00D+00 WtEn= 0.00D+00
 Coeff-Com:  0.112D-01-0.132D+00 0.180D+00 0.940D+00
 Coeff:      0.112D-01-0.132D+00 0.180D+00 0.940D+00
 Gap=     0.102 Goal=   None    Shift=    0.000
 Gap=     0.102 Goal=   None    Shift=    0.000
 RMSDP=1.10D-05 MaxDP=1.21D-04 DE=-3.14D-06 OVMax= 6.00D-04

 Cycle   5  Pass 1  IDiag  1:
 E= -683.670931278176     Delta-E=       -0.000000406637 Rises=F Damp=F
 DIIS: error= 3.86D-06 at cycle   5 NSaved=   5.
 NSaved= 5 IEnMin= 5 EnMin= -683.670931278176     IErMin= 5 ErrMin= 3.86D-06
 ErrMax= 3.86D-06  0.00D+00 EMaxC= 1.00D-01 BMatC= 6.74D-09 BMatP= 6.65D-07
 IDIUse=1 WtCom= 1.00D+00 WtEn= 0.00D+00
 Coeff-Com:  0.325D-03 0.314D-02-0.225D-01-0.776D-01 0.110D+01
 Coeff:      0.325D-03 0.314D-02-0.225D-01-0.776D-01 0.110D+01
 Gap=     0.102 Goal=   None    Shift=    0.000
 Gap=     0.102 Goal=   None    Shift=    0.000
 RMSDP=1.86D-06 MaxDP=1.65D-05 DE=-4.07D-07 OVMax= 1.04D-04

 Cycle   6  Pass 1  IDiag  1:
 E= -683.670931285823     Delta-E=       -0.000000007647 Rises=F Damp=F
 DIIS: error= 1.47D-06 at cycle   6 NSaved=   6.
 NSaved= 6 IEnMin= 6 EnMin= -683.670931285823     IErMin= 6 ErrMin= 1.47D-06
 ErrMax= 1.47D-06  0.00D+00 EMaxC= 1.00D-01 BMatC= 1.02D-09 BMatP= 6.74D-09
 IDIUse=1 WtCom= 1.00D+00 WtEn= 0.00D+00
 Coeff-Com: -0.640D-03 0.932D-02-0.164D-01-0.808D-01 0.291D+00 0.798D+00
 Coeff:     -0.640D-03 0.932D-02-0.164D-01-0.808D-01 0.291D+00 0.798D+00
 Gap=     0.102 Goal=   None    Shift=    0.000
 Gap=     0.102 Goal=   None    Shift=    0.000
 RMSDP=5.49D-07 MaxDP=7.45D-06 DE=-7.65D-09 OVMax= 1.91D-05

 Cycle   7  Pass 1  IDiag  1:
 E= -683.670931285753     Delta-E=        0.000000000070 Rises=F Damp=F
 DIIS: error= 3.16D-06 at cycle   7 NSaved=   7.
 NSaved= 7 IEnMin= 6 EnMin= -683.670931285823     IErMin= 6 ErrMin= 1.47D-06
 ErrMax= 3.16D-06  0.00D+00 EMaxC= 1.00D-01 BMatC= 1.16D-09 BMatP= 1.02D-09
 IDIUse=1 WtCom= 1.00D+00 WtEn= 0.00D+00
 Coeff-Com: -0.509D-03 0.721D-02-0.123D-01-0.612D-01 0.199D+00 0.613D+00
 Coeff-Com:  0.256D+00
 Coeff:     -0.509D-03 0.721D-02-0.123D-01-0.612D-01 0.199D+00 0.613D+00
 Coeff:      0.256D+00
 Gap=     0.102 Goal=   None    Shift=    0.000
 Gap=     0.102 Goal=   None    Shift=    0.000
 RMSDP=3.63D-07 MaxDP=8.41D-06 DE= 7.03D-11 OVMax= 2.37D-05

 Cycle   8  Pass 1  IDiag  1:
 E= -683.670931286091     Delta-E=       -0.000000000339 Rises=F Damp=F
 DIIS: error= 1.85D-06 at cycle   8 NSaved=   8.
 NSaved= 8 IEnMin= 8 EnMin= -683.670931286091     IErMin= 6 ErrMin= 1.47D-06
 ErrMax= 1.85D-06  0.00D+00 EMaxC= 1.00D-01 BMatC= 4.03D-10 BMatP= 1.02D-09
 IDIUse=1 WtCom= 1.00D+00 WtEn= 0.00D+00
 Coeff-Com: -0.140D-04-0.104D-03 0.596D-03 0.310D-02-0.462D-01-0.384D-01
 Coeff-Com:  0.394D+00 0.687D+00
 Coeff:     -0.140D-04-0.104D-03 0.596D-03 0.310D-02-0.462D-01-0.384D-01
 Coeff:      0.394D+00 0.687D+00
 Gap=     0.102 Goal=   None    Shift=    0.000
 Gap=     0.102 Goal=   None    Shift=    0.000
 RMSDP=2.03D-07 MaxDP=3.14D-06 DE=-3.39D-10 OVMax= 8.85D-06

 Cycle   9  Pass 1  IDiag  1:
 E= -683.670931286276     Delta-E=       -0.000000000185 Rises=F Damp=F
 DIIS: error= 3.57D-08 at cycle   9 NSaved=   9.
 NSaved= 9 IEnMin= 9 EnMin= -683.670931286276     IErMin= 9 ErrMin= 3.57D-08
 ErrMax= 3.57D-08  0.00D+00 EMaxC= 1.00D-01 BMatC= 5.20D-13 BMatP= 4.03D-10
 IDIUse=1 WtCom= 1.00D+00 WtEn= 0.00D+00
 Coeff-Com:  0.216D-04-0.333D-03 0.621D-03 0.315D-02-0.135D-01-0.258D-01
 Coeff-Com:  0.133D-01 0.425D-01 0.980D+00
 Coeff:      0.216D-04-0.333D-03 0.621D-03 0.315D-02-0.135D-01-0.258D-01
 Coeff:      0.133D-01 0.425D-01 0.980D+00
 Gap=     0.102 Goal=   None    Shift=    0.000
 Gap=     0.102 Goal=   None    Shift=    0.000
 RMSDP=3.02D-08 MaxDP=3.70D-07 DE=-1.85D-10 OVMax= 7.11D-07

 Cycle  10  Pass 1  IDiag  1:
 E= -683.670931286278     Delta-E=       -0.000000000002 Rises=F Damp=F
 DIIS: error= 7.48D-09 at cycle  10 NSaved=  10.
 NSaved=10 IEnMin=10 EnMin= -683.670931286278     IErMin=10 ErrMin= 7.48D-09
 ErrMax= 7.48D-09  0.00D+00 EMaxC= 1.00D-01 BMatC= 1.57D-14 BMatP= 5.20D-13
 IDIUse=1 WtCom= 1.00D+00 WtEn= 0.00D+00
 Coeff-Com:  0.453D-06 0.441D-05-0.133D-04-0.103D-03 0.180D-02 0.143D-02
 Coeff-Com: -0.128D-01-0.219D-01 0.469D-01 0.985D+00
 Coeff:      0.453D-06 0.441D-05-0.133D-04-0.103D-03 0.180D-02 0.143D-02
 Coeff:     -0.128D-01-0.219D-01 0.469D-01 0.985D+00
 Gap=     0.102 Goal=   None    Shift=    0.000
 Gap=     0.102 Goal=   None    Shift=    0.000
 RMSDP=3.51D-09 MaxDP=2.87D-08 DE=-1.59D-12 OVMax= 9.61D-08

 SCF Done:  E(UM062X) =  -683.670931286     A.U. after   10 cycles
            NFock= 10  Conv=0.35D-08     -V/T= 2.0018
 <Sx>= 0.0000 <Sy>= 0.0000 <Sz>= 0.0000 <S**2>=-0.0000 S=-0.0000
 <L.S>=  0.00000000000    
 KE= 6.824263336111D+02 PE=-1.729461612974D+03 EE= 3.117217866878D+02
 Annihilation of the first spin contaminant:
 S**2 before annihilation    -0.0000,   after    -0.0000
 Leave Link  502 at Mon Apr 21 21:12:59 2025, MaxMem=   536870912 cpu:              47.2 elap:               6.4
 (Enter /home/szhao/Apps/g16/l701.exe)
 ... and contract with generalized density number  0.
 Compute integral first derivatives.
 Leave Link  701 at Mon Apr 21 21:13:00 2025, MaxMem=   536870912 cpu:               1.3 elap:               0.2
 (Enter /home/szhao/Apps/g16/l702.exe)
 L702 exits ... SP integral derivatives will be done elsewhere.
 Leave Link  702 at Mon Apr 21 21:13:00 2025, MaxMem=   536870912 cpu:               0.5 elap:               0.1
 (Enter /home/szhao/Apps/g16/l703.exe)
 Integral derivatives from FoFJK, PRISM(SPDF).
 Compute integral first derivatives, UseDBF=F ICtDFT=           0.
 Calling FoFJK, ICntrl=      2127 FMM=F ISym2X=0 I1Cent= 0 IOpClX= 1 NMat=1 NMatS=1 NMatT=0.
 FoFJK:  IHMeth= 1 ICntrl=    2127 DoSepK=F KAlg= 0 I1Cent=           0 FoldK=F
 IRaf=         0 NMat=       1 IRICut=       1 DoRegI=T DoRafI=F ISym2E= 0 IDoP0=0 IntGTp=1.
 FoFCou: FMM=F IPFlag=           0 FMFlag=      100000 FMFlg1=         800
         NFxFlg=           0 DoJE=F BraDBF=F KetDBF=F FulRan=T
         wScrn=  0.000000 ICntrl=      2127 IOpCl=  1 I1Cent=           0 NGrid=           0
         NMat0=    1 NMatS0=      1 NMatT0=    0 NMatD0=    1 NMtDS0=    0 NMtDT0=    0
 Symmetry not used in FoFCou.
 Leave Link  703 at Mon Apr 21 21:13:01 2025, MaxMem=   536870912 cpu:               6.2 elap:               0.9
 (Enter /home/szhao/Apps/g16/l716.exe)
 Dipole        =-4.37357928D-09-2.69332405D-08 1.13590468D-09
 -------------------------------------------------------------------
 Center     Atomic                   Forces (Hartrees/Bohr)
 Number     Number              X              Y              Z
 -------------------------------------------------------------------
      1       15          -0.000000000   -0.000000000   -0.000000000
      2       15          -0.000000000   -0.000000000   -0.000000000
      3        1           0.000041540   -0.000070713   -0.000000000
      4        1          -0.000041538    0.000070686   -0.000000000
 -------------------------------------------------------------------
 Cartesian Forces:  Max     0.000070713 RMS     0.000033476
 Leave Link  716 at Mon Apr 21 21:13:02 2025, MaxMem=   536870912 cpu:               0.5 elap:               0.1
 (Enter /home/szhao/Apps/g16/l103.exe)

 GradGradGradGradGradGradGradGradGradGradGradGradGradGradGradGradGradGrad
 Berny optimization.
 Using GEDIIS/GDIIS optimizer.
 FormGI is forming the generalized inverse of G from B-inverse, IUseBI=4.
 Internal  Forces:  Max     0.000102981 RMS     0.000071191
 Search for a local minimum.
 Step number   3 out of a maximum of   21
 All quantities printed in internal units (Hartrees-Bohrs-Radians)
 RMS Force = .78860D-04 SwitMx=.10000D-02 MixMth= 2
 Mixed Optimization -- En-DIIS/RFO-DIIS
 Update second derivatives using D2CorX and points    1    2    3
 DE= -3.23D-04 DEPred=-3.21D-04 R= 1.01D+00
 TightC=F SS=  1.41D+00  RLast= 8.62D-02 DXNew= 5.0454D-01 2.5846D-01
 Trust test= 1.01D+00 RLast= 8.62D-02 DXMaxT set to 3.00D-01
 The second derivative matrix:
                          X1        Y1        Z1        X2        Y2
           X1           0.50590
           Y1          -0.00422   0.50315
           Z1           0.00000  -0.00000   0.50000
           X2          -0.00590   0.00422  -0.00000   0.50590
           Y2           0.00422  -0.00315   0.00000  -0.00422   0.50315
           Z2           0.00000  -0.00000   0.00000  -0.00000   0.00000
           R1           0.00360  -0.00617   0.00000  -0.00360   0.00617
           R2           0.00360  -0.00617   0.00000  -0.00360   0.00617
           A1          -0.01553   0.01083  -0.00000   0.01553  -0.01083
           A2          -0.01553   0.01083  -0.00000   0.01553  -0.01083
           D1           0.00000  -0.00000   0.00000  -0.00000   0.00000
                          Z2        R1        R2        A1        A2
           Z2           0.50000
           R1           0.00000   0.21053
           R2           0.00000   0.00179   0.21053
           A1          -0.00000  -0.00137  -0.00137   0.12152
           A2          -0.00000  -0.00137  -0.00137  -0.03848   0.12152
           D1           0.00000   0.00000   0.00000  -0.00000  -0.00000
                          D1
           D1           0.00230
 ITU=  1  1  0
 Use linear search instead of GDIIS.
     Eigenvalues ---    0.00230   0.08299   0.16000   0.20874   0.21237
     Eigenvalues --- 1000.000001000.000001000.000001000.000001000.00000
     Eigenvalues --- 1000.00000
 RFO step:  Lambda=-5.93037806D-08 EMin= 2.30000000D-03
 Quartic linear search produced a step of  0.01882.
 Iteration  1 RMS(Cart)=  0.00134854 RMS(Int)=  0.00000077
 Iteration  2 RMS(Cart)=  0.00000093 RMS(Int)=  0.00000000
 ITry= 1 IFail=0 DXMaxC= 3.16D-03 DCOld= 1.00D+10 DXMaxT= 3.00D-01 DXLimC= 3.00D+00 Rises=F
 Variable       Old X    -DE/DX   Delta X   Delta X   Delta X     New X
                                 (Linear)    (Quad)   (Total)
    X1       -3.13598   0.00004   0.00000   0.00000   0.00000  -3.13598
    Y1        0.00000  -0.00010   0.00000   0.00000   0.00000   0.00000
    Z1        0.00000  -0.00000   0.00000   0.00000   0.00000   0.00000
    X2        3.13598  -0.00004   0.00000   0.00000   0.00000   3.13598
    Y2        0.00000   0.00010   0.00000   0.00000   0.00000   0.00000
    Z2        0.00000  -0.00000   0.00000   0.00000   0.00000   0.00000
    R1        2.68846   0.00007  -0.00004   0.00037   0.00033   2.68879
    R2        2.68846   0.00007  -0.00004   0.00037   0.00033   2.68879
    A1        1.51649  -0.00010  -0.00115  -0.00002  -0.00117   1.51532
    A2        1.51649  -0.00010  -0.00115  -0.00002  -0.00117   1.51532
    D1        3.14159  -0.00000   0.00000  -0.00000  -0.00000   3.14159
         Item               Value     Threshold  Converged?
 Maximum Force            0.000101     0.000450     YES
 RMS     Force            0.000079     0.000300     YES
 Maximum Displacement     0.003160     0.001800     NO 
 RMS     Displacement     0.001349     0.001200     NO 
 Predicted change in Energy=-1.459523D-07
 Lowest energy point so far.  Saving SCF results.
 GradGradGradGradGradGradGradGradGradGradGradGradGradGradGradGradGradGrad

 Leave Link  103 at Mon Apr 21 21:13:02 2025, MaxMem=   536870912 cpu:               0.3 elap:               0.1
 (Enter /home/szhao/Apps/g16/l202.exe)
                          Input orientation:                          
 ---------------------------------------------------------------------
 Center     Atomic      Atomic             Coordinates (Angstroms)
 Number     Number       Type             X           Y           Z
 ---------------------------------------------------------------------
      1         15           0       -1.659490    0.000000    0.000000
      2         15           0        1.659490    0.000000    0.000000
      3          1           0       -1.580590   -1.420656   -0.000000
      4          1           0        1.580590    1.420656   -0.000000
 ---------------------------------------------------------------------
                    Distance matrix (angstroms):
                    1          2          3          4
     1  P    0.000000
     2  P    3.318979   0.000000
     3  H    1.422845   3.537850   0.000000
     4  H    3.537850   1.422845   4.250425   0.000000
 Symmetry turned off by external request.
 Stoichiometry    H2P2
 Framework group  C2[X(H2P2)]
 Deg. of freedom     4
 Full point group                 C2      NOp   2
 Rotational constants (GHZ):         127.9832461           2.8755135           2.8123265
 Leave Link  202 at Mon Apr 21 21:13:02 2025, MaxMem=   536870912 cpu:               0.1 elap:               0.0
 (Enter /home/szhao/Apps/g16/l301.exe)
 Standard basis: 6-311+G(d,p) (5D, 7F)
 Ernie: Thresh=  0.10000D-02 Tol=  0.10000D-05 Strict=F.
    72 basis functions,   116 primitive gaussians,    74 cartesian basis functions
    16 alpha electrons       16 beta electrons
       nuclear repulsion energy        51.6431672241 Hartrees.
 IExCor= 4336 DFT=T Ex+Corr=M062X ExCW=0 ScaHFX=  0.540000
 ScaDFX=  1.000000  1.000000  1.000000  1.000000 ScalE2=  1.000000  1.000000
 IRadAn=      7 IRanWt=     -1 IRanGd=            0 ICorTp=0 IEmpDi=  4
 NAtoms=    4 NActive=    4 NUniq=    4 SFac= 1.00D+00 NAtFMM=   60 NAOKFM=F Big=F
 Integral buffers will be    131072 words long.
 Raffenetti 2 integral format.
 Two-electron integral symmetry is turned off.
 Leave Link  301 at Mon Apr 21 21:13:02 2025, MaxMem=   536870912 cpu:               0.5 elap:               0.1
 (Enter /home/szhao/Apps/g16/l302.exe)
 NPDir=0 NMtPBC=     1 NCelOv=     1 NCel=       1 NClECP=     1 NCelD=      1
         NCelK=      1 NCelE2=     1 NClLst=     1 CellRange=     0.0.
 One-electron integrals computed using PRISM.
 NBasis=    72 RedAO= T EigKep=  7.96D-03  NBF=    72
 NBsUse=    72 1.00D-06 EigRej= -1.00D+00 NBFU=    72
 Precomputing XC quadrature grid using
 IXCGrd= 4 IRadAn=           7 IRanWt=          -1 IRanGd=           0 AccXCQ= 0.00D+00.
 Generated NRdTot=       0 NPtTot=           0 NUsed=           0 NTot=          32
 NSgBfM=    70    70    70    70    70 MxSgAt=     4 MxSgA2=     4.
 Leave Link  302 at Mon Apr 21 21:13:03 2025, MaxMem=   536870912 cpu:               1.5 elap:               0.4
 (Enter /home/szhao/Apps/g16/l303.exe)
 DipDrv:  MaxL=1.
 Leave Link  303 at Mon Apr 21 21:13:03 2025, MaxMem=   536870912 cpu:               0.6 elap:               0.2
 (Enter /home/szhao/Apps/g16/l401.exe)
 Initial guess from the checkpoint file:  "opt.chk"
 B after Tr=     0.000000   -0.000000   -0.000000
         Rot=    1.000000    0.000000    0.000000   -0.000027 Ang=  -0.00 deg.
 Guess basis will be translated and rotated to current coordinates.
 JPrj=2 DoOrth=T DoCkMO=T.
 Initial guess <Sx>= 0.0000 <Sy>= 0.0000 <Sz>= 0.0000 <S**2>= 0.0000 S= 0.0000
 Leave Link  401 at Mon Apr 21 21:13:04 2025, MaxMem=   536870912 cpu:               3.2 elap:               0.5
 (Enter /home/szhao/Apps/g16/l502.exe)
 Keep R1 and R2 ints in memory in canonical form, NReq=14118010.
 FoFCou: FMM=F IPFlag=           0 FMFlag=           0 FMFlg1=           0
         NFxFlg=           0 DoJE=F BraDBF=F KetDBF=F FulRan=T
         wScrn=  0.000000 ICntrl=       600 IOpCl=  0 I1Cent=           0 NGrid=           0
         NMat0=    1 NMatS0=   2628 NMatT0=    0 NMatD0=    1 NMtDS0=    0 NMtDT0=    0
 Symmetry not used in FoFCou.
 Two-electron integral symmetry not used.
 UHF open shell SCF:
 Using DIIS extrapolation, IDIIS=  1040.
 NGot=   536870912 LenX=   529949706 LenY=   529943789
 Requested convergence on RMS density matrix=1.00D-08 within 128 cycles.
 Requested convergence on MAX density matrix=1.00D-06.
 Requested convergence on             energy=1.00D-06.
 No special actions if energy rises.

 Cycle   1  Pass 1  IDiag  1:
 E= -683.670931164363    
 DIIS: error= 5.57D-05 at cycle   1 NSaved=   1.
 NSaved= 1 IEnMin= 1 EnMin= -683.670931164363     IErMin= 1 ErrMin= 5.57D-05
 ErrMax= 5.57D-05  0.00D+00 EMaxC= 1.00D-01 BMatC= 4.16D-07 BMatP= 4.16D-07
 IDIUse=1 WtCom= 1.00D+00 WtEn= 0.00D+00
 Coeff-Com:  0.100D+01
 Coeff:      0.100D+01
 Gap=     0.414 Goal=   None    Shift=    0.000
 Gap=     0.414 Goal=   None    Shift=    0.000
 RMSDP=7.38D-06 MaxDP=8.92D-05              OVMax= 2.67D-04

 Cycle   2  Pass 1  IDiag  1:
 E= -683.670931408317     Delta-E=       -0.000000243955 Rises=F Damp=F
 DIIS: error= 8.47D-06 at cycle   2 NSaved=   2.
 NSaved= 2 IEnMin= 2 EnMin= -683.670931408317     IErMin= 2 ErrMin= 8.47D-06
 ErrMax= 8.47D-06  0.00D+00 EMaxC= 1.00D-01 BMatC= 1.74D-08 BMatP= 4.16D-07
 IDIUse=1 WtCom= 1.00D+00 WtEn= 0.00D+00
 Coeff-Com: -0.131D+00 0.113D+01
 Coeff:     -0.131D+00 0.113D+01
 Gap=     0.102 Goal=   None    Shift=    0.000
 Gap=     0.102 Goal=   None    Shift=    0.000
 RMSDP=2.35D-06 MaxDP=2.99D-05 DE=-2.44D-07 OVMax= 9.82D-05

 Cycle   3  Pass 1  IDiag  1:
 E= -683.670931425999     Delta-E=       -0.000000017682 Rises=F Damp=F
 DIIS: error= 1.69D-06 at cycle   3 NSaved=   3.
 NSaved= 3 IEnMin= 3 EnMin= -683.670931425999     IErMin= 3 ErrMin= 1.69D-06
 ErrMax= 1.69D-06  0.00D+00 EMaxC= 1.00D-01 BMatC= 9.35D-10 BMatP= 1.74D-08
 IDIUse=1 WtCom= 1.00D+00 WtEn= 0.00D+00
 Coeff-Com: -0.272D-01 0.566D-01 0.971D+00
 Coeff:     -0.272D-01 0.566D-01 0.971D+00
 Gap=     0.102 Goal=   None    Shift=    0.000
 Gap=     0.102 Goal=   None    Shift=    0.000
 RMSDP=7.29D-07 MaxDP=9.86D-06 DE=-1.77D-08 OVMax= 3.31D-05

 Cycle   4  Pass 1  IDiag  1:
 E= -683.670931427130     Delta-E=       -0.000000001131 Rises=F Damp=F
 DIIS: error= 1.23D-06 at cycle   4 NSaved=   4.
 NSaved= 4 IEnMin= 4 EnMin= -683.670931427130     IErMin= 4 ErrMin= 1.23D-06
 ErrMax= 1.23D-06  0.00D+00 EMaxC= 1.00D-01 BMatC= 2.04D-10 BMatP= 9.35D-10
 IDIUse=1 WtCom= 1.00D+00 WtEn= 0.00D+00
 Coeff-Com:  0.845D-02-0.117D+00 0.168D+00 0.940D+00
 Coeff:      0.845D-02-0.117D+00 0.168D+00 0.940D+00
 Gap=     0.102 Goal=   None    Shift=    0.000
 Gap=     0.102 Goal=   None    Shift=    0.000
 RMSDP=2.14D-07 MaxDP=2.32D-06 DE=-1.13D-09 OVMax= 1.05D-05

 Cycle   5  Pass 1  IDiag  1:
 E= -683.670931427262     Delta-E=       -0.000000000132 Rises=F Damp=F
 DIIS: error= 9.55D-08 at cycle   5 NSaved=   5.
 NSaved= 5 IEnMin= 5 EnMin= -683.670931427262     IErMin= 5 ErrMin= 9.55D-08
 ErrMax= 9.55D-08  0.00D+00 EMaxC= 1.00D-01 BMatC= 2.46D-12 BMatP= 2.04D-10
 IDIUse=1 WtCom= 1.00D+00 WtEn= 0.00D+00
 Coeff-Com:  0.657D-03 0.834D-03-0.216D-01-0.457D-01 0.107D+01
 Coeff:      0.657D-03 0.834D-03-0.216D-01-0.457D-01 0.107D+01
 Gap=     0.102 Goal=   None    Shift=    0.000
 Gap=     0.102 Goal=   None    Shift=    0.000
 RMSDP=4.90D-08 MaxDP=9.16D-07 DE=-1.32D-10 OVMax= 2.57D-06

 Cycle   6  Pass 1  IDiag  1:
 E= -683.670931427263     Delta-E=       -0.000000000000 Rises=F Damp=F
 DIIS: error= 3.41D-07 at cycle   6 NSaved=   6.
 NSaved= 6 IEnMin= 6 EnMin= -683.670931427263     IErMin= 5 ErrMin= 9.55D-08
 ErrMax= 3.41D-07  0.00D+00 EMaxC= 1.00D-01 BMatC= 9.35D-12 BMatP= 2.46D-12
 IDIUse=1 WtCom= 1.00D+00 WtEn= 0.00D+00
 Coeff-Com:  0.249D-03 0.413D-02-0.220D-01-0.654D-01 0.824D+00 0.259D+00
 Coeff:      0.249D-03 0.413D-02-0.220D-01-0.654D-01 0.824D+00 0.259D+00
 Gap=     0.102 Goal=   None    Shift=    0.000
 Gap=     0.102 Goal=   None    Shift=    0.000
 RMSDP=3.27D-08 MaxDP=9.20D-07 DE=-1.14D-13 OVMax= 2.62D-06

 Cycle   7  Pass 1  IDiag  1:
 E= -683.670931427266     Delta-E=       -0.000000000004 Rises=F Damp=F
 DIIS: error= 2.44D-07 at cycle   7 NSaved=   7.
 NSaved= 7 IEnMin= 7 EnMin= -683.670931427266     IErMin= 5 ErrMin= 9.55D-08
 ErrMax= 2.44D-07  0.00D+00 EMaxC= 1.00D-01 BMatC= 3.60D-12 BMatP= 2.46D-12
 IDIUse=1 WtCom= 1.00D+00 WtEn= 0.00D+00
[...]

 Cycle  10  Pass 1  IDiag  1:
 E= -683.670931427266     Delta-E=        0.000000000000 Rises=F Damp=F
 DIIS: error= 2.90D-09 at cycle  10 NSaved=  10.
 NSaved=10 IEnMin= 8 EnMin= -683.670931427269     IErMin=10 ErrMin= 2.90D-09
 ErrMax= 2.90D-09  0.00D+00 EMaxC= 1.00D-01 BMatC= 3.03D-15 BMatP= 2.07D-13
 IDIUse=1 WtCom= 1.00D+00 WtEn= 0.00D+00
 Coeff-Com: -0.679D-05-0.210D-03 0.108D-02 0.397D-02-0.338D-01-0.198D-01
 Coeff-Com: -0.175D-01-0.173D+00 0.372D+00 0.868D+00
 Coeff:     -0.679D-05-0.210D-03 0.108D-02 0.397D-02-0.338D-01-0.198D-01
 Coeff:     -0.175D-01-0.173D+00 0.372D+00 0.868D+00
 Gap=     0.102 Goal=   None    Shift=    0.000
 Gap=     0.102 Goal=   None    Shift=    0.000
 RMSDP=1.82D-09 MaxDP=3.19D-08 DE= 4.55D-13 OVMax= 9.18D-08

 SCF Done:  E(UM062X) =  -683.670931427     A.U. after   10 cycles
            NFock= 10  Conv=0.18D-08     -V/T= 2.0018
 <Sx>= 0.0000 <Sy>= 0.0000 <Sz>= 0.0000 <S**2>=-0.0000 S=-0.0000
 <L.S>=  0.00000000000    
 KE= 6.824259730265D+02 PE=-1.729462458254D+03 EE= 3.117223865758D+02
 Annihilation of the first spin contaminant:
 S**2 before annihilation    -0.0000,   after     0.0000
 Leave Link  502 at Mon Apr 21 21:13:10 2025, MaxMem=   536870912 cpu:              42.5 elap:               5.8
 (Enter /home/szhao/Apps/g16/l701.exe)
 ... and contract with generalized density number  0.
 Compute integral first derivatives.
 Leave Link  701 at Mon Apr 21 21:13:11 2025, MaxMem=   536870912 cpu:               1.7 elap:               0.3
 (Enter /home/szhao/Apps/g16/l702.exe)
 L702 exits ... SP integral derivatives will be done elsewhere.
 Leave Link  702 at Mon Apr 21 21:13:11 2025, MaxMem=   536870912 cpu:               0.4 elap:               0.2
 (Enter /home/szhao/Apps/g16/l703.exe)
 Integral derivatives from FoFJK, PRISM(SPDF).
 Compute integral first derivatives, UseDBF=F ICtDFT=           0.
 Calling FoFJK, ICntrl=      2127 FMM=F ISym2X=0 I1Cent= 0 IOpClX= 1 NMat=1 NMatS=1 NMatT=0.
 FoFJK:  IHMeth= 1 ICntrl=    2127 DoSepK=F KAlg= 0 I1Cent=           0 FoldK=F
 IRaf=         0 NMat=       1 IRICut=       1 DoRegI=T DoRafI=F ISym2E= 0 IDoP0=0 IntGTp=1.
 FoFCou: FMM=F IPFlag=           0 FMFlag=      100000 FMFlg1=         800
         NFxFlg=           0 DoJE=F BraDBF=F KetDBF=F FulRan=T
         wScrn=  0.000000 ICntrl=      2127 IOpCl=  1 I1Cent=           0 NGrid=           0
         NMat0=    1 NMatS0=      1 NMatT0=    0 NMatD0=    1 NMtDS0=    0 NMtDT0=    0
 Symmetry not used in FoFCou.
 Leave Link  703 at Mon Apr 21 21:13:12 2025, MaxMem=   536870912 cpu:               7.1 elap:               1.0
 (Enter /home/szhao/Apps/g16/l716.exe)
 Dipole        =-6.09998274D-10 1.80630755D-09-9.79021867D-09
 -------------------------------------------------------------------
 Center     Atomic                   Forces (Hartrees/Bohr)
 Number     Number              X              Y              Z
 -------------------------------------------------------------------
      1       15          -0.000000000   -0.000000000   -0.000000000
      2       15          -0.000000000   -0.000000000   -0.000000000
      3        1          -0.000000315    0.000002504    0.000000000
      4        1           0.000000315   -0.000002503    0.000000000
 -------------------------------------------------------------------
 Cartesian Forces:  Max     0.000002504 RMS     0.000001030
 Leave Link  716 at Mon Apr 21 21:13:13 2025, MaxMem=   536870912 cpu:               0.7 elap:               0.1
 (Enter /home/szhao/Apps/g16/l103.exe)

 GradGradGradGradGradGradGradGradGradGradGradGradGradGradGradGradGradGrad
 Berny optimization.
 Using GEDIIS/GDIIS optimizer.
 FormGI is forming the generalized inverse of G from B-inverse, IUseBI=4.
 Internal  Forces:  Max     0.000002655 RMS     0.000001579
 Search for a local minimum.
 Step number   4 out of a maximum of   21
 All quantities printed in internal units (Hartrees-Bohrs-Radians)
 RMS Force = .16200D-05 SwitMx=.10000D-02 MixMth= 2
 Mixed Optimization -- En-DIIS/RFO-DIIS
 Swapping is turned off.
 Update second derivatives using D2CorX and points    1    2    3    4
 DE= -1.41D-07 DEPred=-1.46D-07 R= 9.66D-01
 Trust test= 9.66D-01 RLast= 1.72D-03 DXMaxT set to 3.00D-01
 The second derivative matrix:
                          X1        Y1        Z1        X2        Y2
           X1           0.50660
           Y1          -0.01545   0.53883
           Z1          -0.00000   0.00000   0.50000
           X2          -0.00660   0.01545   0.00000   0.50660
           Y2           0.01545  -0.03882  -0.00000  -0.01545   0.53881
           Z2          -0.00000   0.00000   0.00000   0.00000  -0.00000
           R1           0.00432  -0.02672  -0.00000  -0.00432   0.02671
           R2           0.00432  -0.02671  -0.00000  -0.00432   0.02670
           A1          -0.01667   0.03763   0.00000   0.01667  -0.03762
           A2          -0.01667   0.03763   0.00000   0.01667  -0.03762
           D1          -0.00000   0.00000   0.00000   0.00000  -0.00000
                          Z2        R1        R2        A1        A2
           Z2           0.50000
           R1          -0.00000   0.21115
           R2          -0.00000   0.00241   0.21115
           A1           0.00000  -0.00222  -0.00222   0.12281
           A2           0.00000  -0.00222  -0.00222  -0.03719   0.12281
           D1           0.00000  -0.00000  -0.00000   0.00000   0.00000
                          D1
           D1           0.00230
 ITU=  0  1  1  0
     Eigenvalues ---    0.00230   0.08547   0.16000   0.20874   0.21371
     Eigenvalues --- 1000.000001000.000001000.000001000.000001000.00000
     Eigenvalues --- 1000.00000
 En-DIIS/RFO-DIIS/Sim-DIIS IScMMF=       -3 using points:     4    3
 RFO step:  Lambda=-5.13058096D-11.
 NNeg= 0 NGDIIS= 2 SimSw=  2.50D-01 Rises=F DC= -1.41D-07 SmlDif=  1.00D-05
 NRisDI= 0 DoIntr=F SqrtH=F CThrHd= 10.0 CDAdj=  3.0
 RMS Error=  0.5407510351D-05 NUsed= 2 OKEnD=F EnDIS=F
 InvSVX:  RCond= 3.32D-06 Info=           0 Equed=N FErr=  8.94D-16 BErr=  5.13D-18
 DidBck=F Rises=F RFO-DIIS coefs:    0.99351    0.00649
 Iteration  1 RMS(Cart)=  0.00000753 RMS(Int)=  0.00000000
 Iteration  2 RMS(Cart)=  0.00000000 RMS(Int)=  0.00000000
 ITry= 1 IFail=0 DXMaxC= 1.39D-05 DCOld= 1.00D+10 DXMaxT= 3.00D-01 DXLimC= 3.00D+00 Rises=F
 Variable       Old X    -DE/DX   Delta X   Delta X   Delta X     New X
                                 (Linear)    (Quad)   (Total)
    X1       -3.13598  -0.00000   0.00000   0.00000   0.00000  -3.13598
    Y1        0.00000   0.00000   0.00000   0.00000   0.00000   0.00000
    Z1        0.00000   0.00000   0.00000   0.00000   0.00000   0.00000
    X2        3.13598   0.00000   0.00000   0.00000   0.00000   3.13598
    Y2        0.00000  -0.00000   0.00000   0.00000   0.00000   0.00000
    Z2        0.00000   0.00000   0.00000   0.00000   0.00000   0.00000
    R1        2.68879  -0.00000  -0.00000  -0.00001  -0.00001   2.68878
    R2        2.68879  -0.00000  -0.00000  -0.00001  -0.00001   2.68878
    A1        1.51532   0.00000   0.00001  -0.00000   0.00000   1.51532
    A2        1.51532   0.00000   0.00001  -0.00000   0.00000   1.51532
    D1        3.14159   0.00000   0.00000   0.00000   0.00000  -3.14159
         Item               Value     Threshold  Converged?
 Maximum Force            0.000003     0.000450     YES
 RMS     Force            0.000002     0.000300     YES
 Maximum Displacement     0.000014     0.001800     YES
 RMS     Displacement     0.000008     0.001200     YES
 Predicted change in Energy=-3.174372D-11
 Optimization completed.
    -- Stationary point found.
                           ----------------------------
                           !   Optimized Parameters   !
                           ! (Angstroms and Degrees)  !
 --------------------------                            --------------------------
 ! Name  Definition              Value          Derivative Info.                !
 --------------------------------------------------------------------------------
 ! X1    R(1,-1)                -1.6595         -DE/DX =    0.0                 !
 ! Y1    R(1,-2)                 0.0            -DE/DX =    0.0                 !
 ! Z1    R(1,-3)                 0.0            -DE/DX =    0.0                 !
 ! X2    R(2,-1)                 1.6595         -DE/DX =    0.0                 !
 ! Y2    R(2,-2)                 0.0            -DE/DX =    0.0                 !
 ! Z2    R(2,-3)                 0.0            -DE/DX =    0.0                 !
 ! R1    R(1,3)                  1.4228         -DE/DX =    0.0                 !
 ! R2    R(2,4)                  1.4228         -DE/DX =    0.0                 !
 ! A1    A(2,1,3)               86.8212         -DE/DX =    0.0                 !
 ! A2    A(1,2,4)               86.8212         -DE/DX =    0.0                 !
 ! D1    D(3,1,2,4)           -180.0            -DE/DX =    0.0                 !
 --------------------------------------------------------------------------------
 Lowest energy point so far.  Saving SCF results.
 Largest change from initial coordinates is atom    4       0.182 Angstoms.
 GradGradGradGradGradGradGradGradGradGradGradGradGradGradGradGradGradGrad

 Leave Link  103 at Mon Apr 21 21:13:13 2025, MaxMem=   536870912 cpu:               1.5 elap:               0.3
 (Enter /home/szhao/Apps/g16/l202.exe)
                          Input orientation:                          
 ---------------------------------------------------------------------
 Center     Atomic      Atomic             Coordinates (Angstroms)
 Number     Number       Type             X           Y           Z
 ---------------------------------------------------------------------
      1         15           0       -1.659490    0.000000    0.000000
      2         15           0        1.659490    0.000000    0.000000
      3          1           0       -1.580590   -1.420656   -0.000000
      4          1           0        1.580590    1.420656   -0.000000
 ---------------------------------------------------------------------
                    Distance matrix (angstroms):
                    1          2          3          4
     1  P    0.000000
     2  P    3.318979   0.000000
     3  H    1.422845   3.537850   0.000000
     4  H    3.537850   1.422845   4.250425   0.000000
 Symmetry turned off by external request.
 Stoichiometry    H2P2
 Framework group  C2[X(H2P2)]
 Deg. of freedom     4
 Full point group                 C2      NOp   2
 Rotational constants (GHZ):         127.9832461           2.8755135           2.8123265
 Leave Link  202 at Mon Apr 21 21:13:13 2025, MaxMem=   536870912 cpu:               0.1 elap:               0.1
 (Enter /home/szhao/Apps/g16/l601.exe)
 Copying SCF densities to generalized density rwf, IOpCl= 1 IROHF=0.

 **********************************************************************

            Population analysis using the SCF density.

 **********************************************************************

 Alpha  occ. eigenvalues --  -78.08374 -78.08374  -6.90331  -6.90331  -5.01750
 Alpha  occ. eigenvalues --   -5.01750  -5.01737  -5.01737  -5.01549  -5.01549
 Alpha  occ. eigenvalues --   -0.69327  -0.67185  -0.40688  -0.40062  -0.28555
 Alpha  occ. eigenvalues --   -0.25472
 Alpha virt. eigenvalues --   -0.15320  -0.11428   0.01981   0.03159   0.03780
 Alpha virt. eigenvalues --    0.04671   0.05222   0.05934   0.06599   0.08429
 Alpha virt. eigenvalues --    0.08691   0.12214   0.27675   0.29621   0.30247
 Alpha virt. eigenvalues --    0.31246   0.33767   0.35654   0.38144   0.44215
 Alpha virt. eigenvalues --    0.49501   0.60412   0.66132   0.66259   0.66364
 Alpha virt. eigenvalues --    0.67049   0.70635   0.71431   0.71489   0.78362
 Alpha virt. eigenvalues --    0.91026   0.92724   1.44408   1.44878   1.45586
 Alpha virt. eigenvalues --    1.46967   1.54487   1.54996   1.56522   1.57034
 Alpha virt. eigenvalues --    1.57817   1.62440   2.02106   2.02906   2.56364
 Alpha virt. eigenvalues --    2.59766   6.82891   6.90963  13.95237  13.96008
 Alpha virt. eigenvalues --   13.96184  13.98147  14.00355  14.00582 163.07101
 Alpha virt. eigenvalues --  163.17533
  Beta  occ. eigenvalues --  -78.08374 -78.08374  -6.90331  -6.90331  -5.01750
  Beta  occ. eigenvalues --   -5.01750  -5.01737  -5.01737  -5.01549  -5.01549
  Beta  occ. eigenvalues --   -0.69327  -0.67185  -0.40688  -0.40062  -0.28555
  Beta  occ. eigenvalues --   -0.25472
  Beta virt. eigenvalues --   -0.15320  -0.11428   0.01981   0.03159   0.03780
  Beta virt. eigenvalues --    0.04671   0.05222   0.05934   0.06599   0.08429
  Beta virt. eigenvalues --    0.08691   0.12214   0.27675   0.29621   0.30247
  Beta virt. eigenvalues --    0.31246   0.33767   0.35654   0.38144   0.44215
  Beta virt. eigenvalues --    0.49501   0.60412   0.66132   0.66259   0.66364
  Beta virt. eigenvalues --    0.67049   0.70635   0.71431   0.71489   0.78362
  Beta virt. eigenvalues --    0.91026   0.92724   1.44408   1.44878   1.45586
  Beta virt. eigenvalues --    1.46967   1.54487   1.54996   1.56522   1.57034
  Beta virt. eigenvalues --    1.57817   1.62440   2.02106   2.02906   2.56364
  Beta virt. eigenvalues --    2.59766   6.82891   6.90963  13.95237  13.96008
  Beta virt. eigenvalues --   13.96184  13.98147  14.00355  14.00582 163.07101
  Beta virt. eigenvalues --  163.17533
          Condensed to atoms (all electrons):
               1          2          3          4
     1  P   14.508012   0.267203   0.221243  -0.001929
     2  P    0.267203  14.508012  -0.001929   0.221243
     3  H    0.221243  -0.001929   0.785787   0.000371
     4  H   -0.001929   0.221243   0.000371   0.785787
          Atomic-Atomic Spin Densities.
               1          2          3          4
     1  P    0.000000  -0.000000  -0.000000  -0.000000
     2  P   -0.000000  -0.000000   0.000000   0.000000
     3  H   -0.000000   0.000000  -0.000000  -0.000000
     4  H   -0.000000   0.000000  -0.000000   0.000000
 Mulliken charges and spin densities:
               1          2
     1  P    0.005472   0.000000
     2  P    0.005472  -0.000000
     3  H   -0.005472  -0.000000
     4  H   -0.005472   0.000000
 Sum of Mulliken charges =  -0.00000   0.00000
 Mulliken charges and spin densities with hydrogens summed into heavy atoms:
               1          2
     1  P   -0.000000   0.000000
     2  P    0.000000  -0.000000
 Electronic spatial extent (au):  <R**2>=            391.4362
 Charge=             -0.0000 electrons
 Dipole moment (field-independent basis, Debye):
    X=             -0.0000    Y=              0.0000    Z=             -0.0000  Tot=              0.0000
 Quadrupole moment (field-independent basis, Debye-Ang):
   XX=            -27.1998   YY=            -28.3188   ZZ=            -30.7618
   XY=              2.8486   XZ=              0.0000   YZ=             -0.0000
 Traceless Quadrupole moment (field-independent basis, Debye-Ang):
   XX=              1.5603   YY=              0.4413   ZZ=             -2.0017
   XY=              2.8486   XZ=              0.0000   YZ=             -0.0000
 Octapole moment (field-independent basis, Debye-Ang**2):
  XXX=              0.0000  YYY=              0.0000  ZZZ=              0.0000  XYY=              0.0000
  XXY=             -0.0000  XXZ=             -0.0000  XZZ=              0.0000  YZZ=              0.0000
  YYZ=              0.0000  XYZ=             -0.0000
 Hexadecapole moment (field-independent basis, Debye-Ang**3):
 XXXX=           -515.9552 YYYY=            -64.2645 ZZZZ=            -57.0879 XXXY=              2.7090
 XXXZ=             -0.0000 YYYX=             -7.6944 YYYZ=             -0.0000 ZZZX=              0.0000
 ZZZY=             -0.0000 XXYY=            -95.0919 XXZZ=            -97.2942 YYZZ=            -20.8150
 XXYZ=             -0.0000 YYXZ=             -0.0000 ZZXY=             -2.2963
 N-N= 5.164316722412D+01 E-N=-1.729462458510D+03  KE= 6.824259730265D+02
                          Isotropic Fermi Contact Couplings
        Atom                 a.u.       MegaHertz       Gauss      10(-4) cm-1
     1  P(31)             -0.00000      -0.00000      -0.00000      -0.00000
     2  P(31)              0.00000       0.00000       0.00000       0.00000
     3  H(1)              -0.00000      -0.00000      -0.00000      -0.00000
     4  H(1)               0.00000       0.00000       0.00000       0.00000
 --------------------------------------------------------
       Center         ----  Spin Dipole Couplings  ----
                      3XX-RR        3YY-RR        3ZZ-RR
 --------------------------------------------------------
     1   Atom       -0.000000     -0.000000      0.000000
     2   Atom        0.000000      0.000000     -0.000000
     3   Atom       -0.000000      0.000000      0.000000
     4   Atom        0.000000     -0.000000     -0.000000
 --------------------------------------------------------
                        XY            XZ            YZ
 --------------------------------------------------------
     1   Atom        0.000000     -0.000000     -0.000000
     2   Atom       -0.000000     -0.000000     -0.000000
     3   Atom       -0.000000     -0.000000     -0.000000
     4   Atom        0.000000     -0.000000     -0.000000
 --------------------------------------------------------


 ---------------------------------------------------------------------------------
              Anisotropic Spin Dipole Couplings in Principal Axis System
 ---------------------------------------------------------------------------------

       Atom             a.u.   MegaHertz   Gauss  10(-4) cm-1        Axes

              Baa    -0.0000    -0.000    -0.000    -0.000 -0.0766  0.9971 -0.0010
     1 P(31)  Bbb    -0.0000    -0.000    -0.000    -0.000  0.9964  0.0765  0.0370
              Bcc     0.0000     0.000     0.000     0.000 -0.0369 -0.0019  0.9993
 
              Baa    -0.0000    -0.000    -0.000    -0.000  0.0369  0.0019  0.9993
     2 P(31)  Bbb     0.0000     0.000     0.000     0.000  0.9964  0.0765 -0.0370
              Bcc     0.0000     0.000     0.000     0.000 -0.0765  0.9971  0.0010
 
              Baa    -0.0000    -0.000    -0.000    -0.000  0.9947  0.0990  0.0261
     3 H(1)   Bbb     0.0000     0.000     0.000     0.000 -0.0258 -0.0039  0.9997
              Bcc     0.0000     0.000     0.000     0.000 -0.0990  0.9951  0.0013
 
              Baa    -0.0000    -0.000    -0.000    -0.000 -0.0990  0.9951 -0.0013
     4 H(1)   Bbb    -0.0000    -0.000    -0.000    -0.000  0.0258  0.0038  0.9997
              Bcc     0.0000     0.000     0.000     0.000  0.9947  0.0990 -0.0261
 

 ---------------------------------------------------------------------------------

 No NMR shielding tensors so no spin-rotation constants.
 Leave Link  601 at Mon Apr 21 21:13:14 2025, MaxMem=   536870912 cpu:               1.8 elap:               0.3
 (Enter /home/szhao/Apps/g16/l9999.exe)
 1\1\GINC-NODE05\FOpt\UM062X\6-311+G(d,p)\H2P2\SZHAO\21-Apr-2025\0\\#p 
 opt UM062X/6-311+G** nosymm int=superfine\\Title Card Required\\0,1\P,
 -1.65948966,0.,0.\P,1.65948966,0.,0.\H,-1.5805902889,-1.4206556635,-0.
 0000000365\H,1.5805902779,1.4206556593,-0.0000000365\\Version=ES64L-G1
 6RevA.03\HF=-683.6709314\S2=0.\S2-1=0.\S2A=0.\RMSD=1.824e-09\RMSF=1.03
 0e-06\Dipole=0.,0.,0.\Quadrupole=1.160062,0.3281216,-1.4881837,2.11787
 38,0.,0.\PG=C02 [X(H2P2)]\\@


 THEREFORE SHALL EVIL COME UPON THEE...
 THOU SHALT NOT KNOW FROM WHENCE IT RISETH...
 AND MISCHIEF SHALL FALL UPON THEE...
 THOU SHALT NOT BE ABLE TO PUT IT OFF...
 AND DESOLATION SHALL COME UPON THEE SUDDENLY...
 WHICH THOU SHALT NOT KNOW...

                                         ISAIAH 47.11
 Job cpu time:       0 days  0 hours  4 minutes 34.5 seconds.
 Elapsed time:       0 days  0 hours  0 minutes 42.1 seconds.
 File lengths (MBytes):  RWF=     22 Int=      0 D2E=      0 Chk=      2 Scr=      2
 Normal termination of Gaussian 16 at Mon Apr 21 21:13:14 2025.
