 Entering Gaussian System, Link 0=g16
 Initial command:
 /home/szhao/Apps/g16/l1.exe "/home/szhao/tmp/Gau-48329.inp" -scrdir="/home/szhao/tmp/"
 Default is to use a total of  16 processors:
                               16 via shared-memory
                                1 via Linda
 Entering Link 1 = /home/szhao/Apps/g16/l1.exe PID=     48331.
  
 Copyright (c) 1988,1990,1992,1993,1995,1998,2003,2009,2016,
            Gaussian, Inc.  All Rights Reserved.
  
 This is part of the Gaussian(R) 16 program.  It is based on
 the Gaussian(R) 09 system (copyright 2009, Gaussian, Inc.),
 the Gaussian(R) 03 system (copyright 2003, Gaussian, Inc.),
 the Gaussian(R) 98 system (copyright 1998, Gaussian, Inc.),
 the Gaussian(R) 94 system (copyright 1995, Gaussian, Inc.),
 the Gaussian 92(TM) system (copyright 1992, Gaussian, Inc.),
 the Gaussian 90(TM) system (copyright 1990, Gaussian, Inc.),
 the Gaussian 88(TM) system (copyright 1988, Gaussian, Inc.),
 the Gaussian 86(TM) system (copyright 1986, Carnegie Mellon
 University), and the Gaussian 82(TM) system (copyright 1983,
 Carnegie Mellon University). Gaussian is a federally registered
 trademark of Gaussian, Inc.
  
 This software contains proprietary and confidential information,
 including trade secrets, belonging to Gaussian, Inc.
  
 This software is provided under written license and may be
 used, copied, transmitted, or stored only in accord with that
 written license.
  
 The following legend is applicable only to US Government
 contracts under FAR:
  
                    RESTRICTED RIGHTS LEGEND
  
 Use, reproduction and disclosure by the US Government is
 subject to restrictions as set forth in subparagraphs (a)
 and (c) of the Commercial Computer Software - Restricted
 Rights clause in FAR 52.227-19.
  
 Gaussian, Inc.
 340 Quinnipiac St., Bldg. 40, Wallingford CT 06492
  
  
 ---------------------------------------------------------------
 Warning -- This program may not be used in any manner that
 competes with the business of Gaussian, Inc. or will provide
 assistance to any competitor of Gaussian, Inc.  The licensee
 of this program is prohibited from giving any competitor of
 Gaussian, Inc. access to this program.  By using this program,
 the user acknowledges that Gaussian, Inc. is engaged in the
 business of creating and licensing software in the field of
 computational chemistry and represents and warrants to the
 licensee that it is not a competitor of Gaussian, Inc. and that
 it will not use this program in any manner prohibited above.
 ---------------------------------------------------------------
  

 Cite this work as:
 Gaussian 16, Revision A.03,
 M. J. Frisch, G. W. Trucks, H. B. Schlegel, G. E. Scuseria, 
 M. A. Robb, J. R. Cheeseman, G. Scalmani, V. Barone, 
 G. A. Petersson, H. Nakatsuji, X. Li, M. Caricato, A. V. Marenich, 
 J. Bloino, B. G. Janesko, R. Gomperts, B. Mennucci, H. P. Hratchian, 
 J. V. Ortiz, A. F. Izmaylov, J. L. Sonnenberg, D. Williams-Young, 
 F. Ding, F. Lipparini, F. Egidi, J. Goings, B. Peng, A. Petrone, 
 T. Henderson, D. Ranasinghe, V. G. Zakrzewski, J. Gao, N. Rega, 
 G. Zheng, W. Liang, M. Hada, M. Ehara, K. Toyota, R. Fukuda, 
 J. Hasegawa, M. Ishida, T. Nakajima, Y. Honda, O. Kitao, H. Nakai, 
 T. Vreven, K. Throssell, J. A. Montgomery, Jr., J. E. Peralta, 
 F. Ogliaro, M. J. Bearpark, J. J. Heyd, E. N. Brothers, K. N. Kudin, 
 V. N. Staroverov, T. A. Keith, R. Kobayashi, J. Normand, 
 K. Raghavachari, A. P. Rendell, J. C. Burant, S. S. Iyengar, 
 J. Tomasi, M. Cossi, J. M. Millam, M. Klene, C. Adamo, R. Cammi, 
 J. W. Ochterski, R. L. Martin, K. Morokuma, O. Farkas, 
 J. B. Foresman, and D. J. Fox, Gaussian, Inc., Wallingford CT, 2016.
 
 ******************************************
 Gaussian 16:  ES64L-G16RevA.03 25-Dec-2016
                 3-Dec-2024 
 ******************************************
 %chk=opt.chk
 %mem=4GB
 %nprocshared=8
 Will use up to    8 processors via shared memory.
 --------------------------------------------
 #p opt UM062X/6-311+G** nosymm int=superfine
 --------------------------------------------
 1/18=20,19=15,26=5,38=1/1,3;
 2/9=110,12=2,15=1,17=6,18=5,40=1/2;
 3/5=4,6=6,7=111,11=2,25=1,30=1,71=1,74=-55,75=-7,116=2/1,2,3;
 4//1;
 5/5=2,38=5/2;
 6/7=2,8=2,9=2,10=2,28=1/1;
 7/30=1/1,2,3,16;
 1/18=20,19=15,26=5/3(2);
 2/9=110,15=1/2;
 99//99;
 2/9=110,15=1/2;
 3/5=4,6=6,7=111,11=2,25=1,30=1,71=1,74=-55,75=-7,116=2/1,2,3;
 4/5=5,16=3,69=1/1;
 5/5=2,38=5/2;
 7/30=1/1,2,3,16;
 1/18=20,19=15,26=5/3(-5);
 2/9=110,15=1/2;
 6/7=2,8=2,9=2,10=2,19=2,28=1/1;
 99/9=1/99;
 Leave Link    1 at Tue Dec  3 19:53:03 2024, MaxMem=   536870912 cpu:               0.3 elap:               0.0
 (Enter /home/szhao/Apps/g16/l101.exe)
 -------------------
 Title Card Required
 -------------------
 Symbolic Z-matrix:
 Charge =  0 Multiplicity = 1
 C                    -1   -0.39502   0.        0. 
 C                    -1    0.39502   0.        0. 
 H                    0    -1.09753   0.        0. 
 H                    0     1.09752   0.        0. 
 
 ITRead=  2  2  0  0
 MicOpt= -2 -2 -1 -1
 NAtoms=      4 NQM=        2 NQMF=       2 NMMI=      0 NMMIF=      0
                NMic=       0 NMicF=      0.
                    Isotopes and Nuclear Properties:
 (Nuclear quadrupole moments (NQMom) in fm**2, nuclear magnetic moments (NMagM)
  in nuclear magnetons)

  Atom         1           2           3           4
 IAtWgt=          12          12           1           1
 AtmWgt=  12.0000000  12.0000000   1.0078250   1.0078250
 NucSpn=           0           0           1           1
 AtZEff=  -0.0000000  -0.0000000  -0.0000000  -0.0000000
 NQMom=    0.0000000   0.0000000   0.0000000   0.0000000
 NMagM=    0.0000000   0.0000000   2.7928460   2.7928460
 AtZNuc=   6.0000000   6.0000000   1.0000000   1.0000000
 Leave Link  101 at Tue Dec  3 19:53:03 2024, MaxMem=   536870912 cpu:               1.9 elap:               0.2
 (Enter /home/szhao/Apps/g16/l103.exe)

 GradGradGradGradGradGradGradGradGradGradGradGradGradGradGradGradGradGrad
 Berny optimization.
 Initialization pass.
                           ----------------------------
                           !    Initial Parameters    !
                           ! (Angstroms and Degrees)  !
 --------------------------                            --------------------------
 ! Name  Definition              Value          Derivative Info.                !
 --------------------------------------------------------------------------------
 ! X1    R(1,-1)                -0.395          Frozen                          !
 ! Y1    R(1,-2)                 0.0            Frozen                          !
 ! Z1    R(1,-3)                 0.0            Frozen                          !
 ! X2    R(2,-1)                 0.395          Frozen                          !
 ! Y2    R(2,-2)                 0.0            Frozen                          !
 ! Z2    R(2,-3)                 0.0            Frozen                          !
 ! R1    R(1,3)                  0.7025         estimate D2E/DX2                !
 ! R2    R(2,4)                  0.7025         estimate D2E/DX2                !
 ! A1    L(2,1,3,-2,-1)        180.0            estimate D2E/DX2                !
 ! A2    L(1,2,4,-2,-1)        180.0            estimate D2E/DX2                !
 ! A3    L(2,1,3,-3,-2)        180.0            estimate D2E/DX2                !
 ! A4    L(1,2,4,-3,-2)        180.0            estimate D2E/DX2                !
 --------------------------------------------------------------------------------
 Trust Radius=3.00D-01 FncErr=1.00D-07 GrdErr=1.00D-07 EigMax=2.50D+02 EigMin=1.00D-04
 Number of steps in this run=     22 maximum allowed number of steps=    100.
 GradGradGradGradGradGradGradGradGradGradGradGradGradGradGradGradGradGrad

 Leave Link  103 at Tue Dec  3 19:53:03 2024, MaxMem=   536870912 cpu:               0.1 elap:               0.0
 (Enter /home/szhao/Apps/g16/l202.exe)
                          Input orientation:                          
 ---------------------------------------------------------------------
 Center     Atomic      Atomic             Coordinates (Angstroms)
 Number     Number       Type             X           Y           Z
 ---------------------------------------------------------------------
      1          6           0       -0.395020    0.000000    0.000000
      2          6           0        0.395020    0.000000    0.000000
      3          1           0       -1.097530    0.000000    0.000000
      4          1           0        1.097520    0.000000    0.000000
 ---------------------------------------------------------------------
                    Distance matrix (angstroms):
                    1          2          3          4
     1  C    0.000000
     2  C    0.790040   0.000000
     3  H    0.702510   1.492550   0.000000
     4  H    1.492540   0.702499   2.195050   0.000000
 Symmetry turned off by external request.
 Stoichiometry    C2H2
 Framework group  C*V[C*(HCCH)]
 Deg. of freedom     3
 Full point group                 C*V     NOp   4
 Rotational constants (GHZ):           0.0000000          81.8698438          81.8698438
 Leave Link  202 at Tue Dec  3 19:53:03 2024, MaxMem=   536870912 cpu:               0.0 elap:               0.0
 (Enter /home/szhao/Apps/g16/l301.exe)
 Standard basis: 6-311+G(d,p) (5D, 7F)
 Ernie: Thresh=  0.10000D-02 Tol=  0.10000D-05 Strict=F.
    56 basis functions,    88 primitive gaussians,    58 cartesian basis functions
     7 alpha electrons        7 beta electrons
       nuclear repulsion energy        37.6480757167 Hartrees.
 IExCor= 4336 DFT=T Ex+Corr=M062X ExCW=0 ScaHFX=  0.540000
 ScaDFX=  1.000000  1.000000  1.000000  1.000000 ScalE2=  1.000000  1.000000
 IRadAn=      7 IRanWt=     -1 IRanGd=            0 ICorTp=0 IEmpDi=  4
 NAtoms=    4 NActive=    4 NUniq=    4 SFac= 1.00D+00 NAtFMM=   60 NAOKFM=F Big=F
 Integral buffers will be    131072 words long.
 Raffenetti 2 integral format.
 Two-electron integral symmetry is turned off.
 Leave Link  301 at Tue Dec  3 19:53:03 2024, MaxMem=   536870912 cpu:               0.3 elap:               0.0
 (Enter /home/szhao/Apps/g16/l302.exe)
 NPDir=0 NMtPBC=     1 NCelOv=     1 NCel=       1 NClECP=     1 NCelD=      1
         NCelK=      1 NCelE2=     1 NClLst=     1 CellRange=     0.0.
 One-electron integrals computed using PRISM.
 NBasis=    56 RedAO= T EigKep=  9.40D-06  NBF=    56
 NBsUse=    56 1.00D-06 EigRej= -1.00D+00 NBFU=    56
 Precomputing XC quadrature grid using
 IXCGrd= 4 IRadAn=           7 IRanWt=          -1 IRanGd=           0 AccXCQ= 0.00D+00.
 Generated NRdTot=       0 NPtTot=           0 NUsed=           0 NTot=          32
 NSgBfM=    58    58    58    58    58 MxSgAt=     4 MxSgA2=     4.
 Leave Link  302 at Tue Dec  3 19:53:03 2024, MaxMem=   536870912 cpu:               1.0 elap:               0.1
 (Enter /home/szhao/Apps/g16/l303.exe)
 DipDrv:  MaxL=1.
 Leave Link  303 at Tue Dec  3 19:53:03 2024, MaxMem=   536870912 cpu:               0.3 elap:               0.0
 (Enter /home/szhao/Apps/g16/l401.exe)
 ExpMin= 4.38D-02 ExpMax= 4.56D+03 ExpMxC= 6.82D+02 IAcc=3 IRadAn=         7 AccDes= 0.00D+00
 Harris functional with IExCor= 1009 and IRadAn=       7 diagonalized for initial guess.
 HarFok:  IExCor= 1009 AccDes= 0.00D+00 IRadAn=         7 IDoV= 1 UseB2=F ITyADJ=14
 ICtDFT=  3500011 ScaDFX=  1.000000  1.000000  1.000000  1.000000
 FoFCou: FMM=F IPFlag=           0 FMFlag=      100000 FMFlg1=           0
         NFxFlg=           0 DoJE=T BraDBF=F KetDBF=T FulRan=T
         wScrn=  0.000000 ICntrl=       500 IOpCl=  0 I1Cent=   200000004 NGrid=           0
         NMat0=    1 NMatS0=      1 NMatT0=    0 NMatD0=    1 NMtDS0=    0 NMtDT0=    0
 Symmetry not used in FoFCou.
 Harris En= -76.6024106513262    
 JPrj=0 DoOrth=F DoCkMO=F.
 Initial guess <Sx>= 0.0000 <Sy>= 0.0000 <Sz>= 0.0000 <S**2>=-0.0000 S=-0.0000
 Leave Link  401 at Tue Dec  3 19:53:04 2024, MaxMem=   536870912 cpu:               1.8 elap:               0.2
 (Enter /home/szhao/Apps/g16/l502.exe)
 Keep R1 and R2 ints in memory in canonical form, NReq=9624198.
 FoFCou: FMM=F IPFlag=           0 FMFlag=           0 FMFlg1=           0
         NFxFlg=           0 DoJE=F BraDBF=F KetDBF=F FulRan=T
         wScrn=  0.000000 ICntrl=       600 IOpCl=  0 I1Cent=           0 NGrid=           0
         NMat0=    1 NMatS0=   1596 NMatT0=    0 NMatD0=    1 NMtDS0=    0 NMtDT0=    0
 Symmetry not used in FoFCou.
 Two-electron integral symmetry not used.
 UHF open shell SCF:
 Using DIIS extrapolation, IDIIS=  1040.
 NGot=   536870912 LenX=   534314338 LenY=   534310533
 Requested convergence on RMS density matrix=1.00D-08 within 128 cycles.
 Requested convergence on MAX density matrix=1.00D-06.
 Requested convergence on             energy=1.00D-06.
 No special actions if energy rises.

 Cycle   1  Pass 1  IDiag  1:
 E= -75.6631968109366    
 DIIS: error= 1.40D-01 at cycle   1 NSaved=   1.
 NSaved= 1 IEnMin= 1 EnMin= -75.6631968109366     IErMin= 1 ErrMin= 1.40D-01
 ErrMax= 1.40D-01  0.00D+00 EMaxC= 1.00D-01 BMatC= 2.44D+00 BMatP= 2.44D+00
 IDIUse=3 WtCom= 0.00D+00 WtEn= 1.00D+00
 Coeff-Com:  0.100D+01
 Coeff-En:   0.100D+01
 Coeff:      0.100D+01
 Gap=     0.599 Goal=   None    Shift=    0.000
 Gap=     0.599 Goal=   None    Shift=    0.000
 GapD=    0.599 DampG=2.000 DampE=0.250 DampFc=0.5000 IDamp=-1.
 Damping current iteration by 5.00D-01
 RMSDP=9.93D-02 MaxDP=1.75D+00              OVMax= 3.35D-01

 Cycle   2  Pass 1  IDiag  1:
 E= -75.9003228303480     Delta-E=       -0.237126019411 Rises=F Damp=T
 DIIS: error= 2.38D-02 at cycle   2 NSaved=   2.
 NSaved= 2 IEnMin= 2 EnMin= -75.9003228303480     IErMin= 2 ErrMin= 2.38D-02
 ErrMax= 2.38D-02  0.00D+00 EMaxC= 1.00D-01 BMatC= 1.02D-01 BMatP= 2.44D+00
 IDIUse=3 WtCom= 7.62D-01 WtEn= 2.38D-01
 Coeff-Com: -0.204D+00 0.120D+01
 Coeff-En:   0.000D+00 0.100D+01
 Coeff:     -0.155D+00 0.116D+01
 Gap=     0.491 Goal=   None    Shift=    0.000
 Gap=     0.491 Goal=   None    Shift=    0.000
 RMSDP=2.63D-02 MaxDP=4.15D-01 DE=-2.37D-01 OVMax= 1.61D-01

 Cycle   3  Pass 1  IDiag  1:
 E= -76.1210955882276     Delta-E=       -0.220772757880 Rises=F Damp=F
 DIIS: error= 4.55D-03 at cycle   3 NSaved=   3.
 NSaved= 3 IEnMin= 3 EnMin= -76.1210955882276     IErMin= 3 ErrMin= 4.55D-03
 ErrMax= 4.55D-03  0.00D+00 EMaxC= 1.00D-01 BMatC= 2.44D-03 BMatP= 1.02D-01
 IDIUse=3 WtCom= 9.55D-01 WtEn= 4.55D-02
 Coeff-Com: -0.426D-01 0.104D+00 0.939D+00
 Coeff-En:   0.000D+00 0.000D+00 0.100D+01
 Coeff:     -0.406D-01 0.992D-01 0.941D+00
 Gap=     0.498 Goal=   None    Shift=    0.000
 Gap=     0.498 Goal=   None    Shift=    0.000
 RMSDP=2.61D-03 MaxDP=4.67D-02 DE=-2.21D-01 OVMax= 5.63D-03

 Cycle   4  Pass 1  IDiag  1:
 E= -76.1215863309978     Delta-E=       -0.000490742770 Rises=F Damp=F
 DIIS: error= 2.71D-04 at cycle   4 NSaved=   4.
 NSaved= 4 IEnMin= 4 EnMin= -76.1215863309978     IErMin= 4 ErrMin= 2.71D-04
 ErrMax= 2.71D-04  0.00D+00 EMaxC= 1.00D-01 BMatC= 2.10D-05 BMatP= 2.44D-03
 IDIUse=3 WtCom= 9.97D-01 WtEn= 2.71D-03
 Coeff-Com: -0.604D-03-0.499D-03-0.560D-01 0.106D+01
 Coeff-En:   0.000D+00 0.000D+00 0.000D+00 0.100D+01
 Coeff:     -0.602D-03-0.498D-03-0.559D-01 0.106D+01
 Gap=     0.497 Goal=   None    Shift=    0.000
 Gap=     0.497 Goal=   None    Shift=    0.000
 RMSDP=7.06D-04 MaxDP=1.08D-02 DE=-4.91D-04 OVMax= 8.24D-04

 Cycle   5  Pass 1  IDiag  1:
 E= -76.1215920413956     Delta-E=       -0.000005710398 Rises=F Damp=F
 DIIS: error= 6.09D-05 at cycle   5 NSaved=   5.
 NSaved= 5 IEnMin= 5 EnMin= -76.1215920413956     IErMin= 5 ErrMin= 6.09D-05
 ErrMax= 6.09D-05  0.00D+00 EMaxC= 1.00D-01 BMatC= 8.43D-07 BMatP= 2.10D-05
 IDIUse=1 WtCom= 1.00D+00 WtEn= 0.00D+00
 Coeff-Com:  0.460D-04 0.955D-04-0.164D-01-0.386D-01 0.105D+01
 Coeff:      0.460D-04 0.955D-04-0.164D-01-0.386D-01 0.105D+01
 Gap=     0.497 Goal=   None    Shift=    0.000
 Gap=     0.497 Goal=   None    Shift=    0.000
 RMSDP=1.09D-04 MaxDP=1.78D-03 DE=-5.71D-06 OVMax= 1.10D-04

 Cycle   6  Pass 1  IDiag  1:
 E= -76.1215921916443     Delta-E=       -0.000000150249 Rises=F Damp=F
 DIIS: error= 1.02D-05 at cycle   6 NSaved=   6.
 NSaved= 6 IEnMin= 6 EnMin= -76.1215921916443     IErMin= 6 ErrMin= 1.02D-05
 ErrMax= 1.02D-05  0.00D+00 EMaxC= 1.00D-01 BMatC= 1.25D-08 BMatP= 8.43D-07
 IDIUse=1 WtCom= 1.00D+00 WtEn= 0.00D+00
 Coeff-Com: -0.733D-04 0.938D-04-0.236D-03-0.399D-02 0.589D-02 0.998D+00
 Coeff:     -0.733D-04 0.938D-04-0.236D-03-0.399D-02 0.589D-02 0.998D+00
 Gap=     0.497 Goal=   None    Shift=    0.000
 Gap=     0.497 Goal=   None    Shift=    0.000
 RMSDP=7.63D-06 MaxDP=1.13D-04 DE=-1.50D-07 OVMax= 1.37D-05

 Cycle   7  Pass 1  IDiag  1:
 E= -76.1215921941659     Delta-E=       -0.000000002522 Rises=F Damp=F
 DIIS: error= 4.86D-07 at cycle   7 NSaved=   7.
 NSaved= 7 IEnMin= 7 EnMin= -76.1215921941659     IErMin= 7 ErrMin= 4.86D-07
 ErrMax= 4.86D-07  0.00D+00 EMaxC= 1.00D-01 BMatC= 3.27D-11 BMatP= 1.25D-08
 IDIUse=1 WtCom= 1.00D+00 WtEn= 0.00D+00
 Coeff-Com: -0.173D-06 0.918D-05 0.426D-04-0.355D-04-0.635D-02-0.272D-01
 Coeff-Com:  0.103D+01
 Coeff:     -0.173D-06 0.918D-05 0.426D-04-0.355D-04-0.635D-02-0.272D-01
 Coeff:      0.103D+01
 Gap=     0.497 Goal=   None    Shift=    0.000
 Gap=     0.497 Goal=   None    Shift=    0.000
 RMSDP=1.37D-06 MaxDP=2.20D-05 DE=-2.52D-09 OVMax= 1.41D-06

 Cycle   8  Pass 1  IDiag  1:
 E= -76.1215921941741     Delta-E=       -0.000000000008 Rises=F Damp=F
 DIIS: error= 7.19D-08 at cycle   8 NSaved=   8.
 NSaved= 8 IEnMin= 8 EnMin= -76.1215921941741     IErMin= 8 ErrMin= 7.19D-08
 ErrMax= 7.19D-08  0.00D+00 EMaxC= 1.00D-01 BMatC= 3.10D-13 BMatP= 3.27D-11
 IDIUse=1 WtCom= 1.00D+00 WtEn= 0.00D+00
 Coeff-Com:  0.369D-06-0.114D-05-0.878D-05 0.400D-04 0.486D-03-0.509D-02
 Coeff-Com: -0.642D-01 0.107D+01
 Coeff:      0.369D-06-0.114D-05-0.878D-05 0.400D-04 0.486D-03-0.509D-02
 Coeff:     -0.642D-01 0.107D+01
 Gap=     0.497 Goal=   None    Shift=    0.000
 Gap=     0.497 Goal=   None    Shift=    0.000
 RMSDP=1.13D-07 MaxDP=1.86D-06 DE=-8.17D-12 OVMax= 1.64D-07

 Cycle   9  Pass 1  IDiag  1:
 E= -76.1215921941740     Delta-E=        0.000000000000 Rises=F Damp=F
 DIIS: error= 2.34D-08 at cycle   9 NSaved=   9.
 NSaved= 9 IEnMin= 8 EnMin= -76.1215921941741     IErMin= 9 ErrMin= 2.34D-08
 ErrMax= 2.34D-08  0.00D+00 EMaxC= 1.00D-01 BMatC= 6.45D-14 BMatP= 3.10D-13
 IDIUse=1 WtCom= 1.00D+00 WtEn= 0.00D+00
 Coeff-Com:  0.168D-06-0.740D-06-0.459D-05 0.204D-04 0.344D-03-0.129D-02
 Coeff-Com: -0.525D-01 0.455D+00 0.598D+00
 Coeff:      0.168D-06-0.740D-06-0.459D-05 0.204D-04 0.344D-03-0.129D-02
 Coeff:     -0.525D-01 0.455D+00 0.598D+00
 Gap=     0.497 Goal=   None    Shift=    0.000
 Gap=     0.497 Goal=   None    Shift=    0.000
 RMSDP=6.01D-09 MaxDP=1.07D-07 DE= 2.84D-14 OVMax= 3.76D-08

 SCF Done:  E(UM062X) =  -76.1215921942     A.U. after    9 cycles
            NFock=  9  Conv=0.60D-08     -V/T= 1.9225
 <Sx>= 0.0000 <Sy>= 0.0000 <Sz>= 0.0000 <S**2>=-0.0000 S=-0.0000
 <L.S>=  0.00000000000    
 KE= 8.251553154486D+01 PE=-2.570355164090D+02 EE= 6.075031695320D+01
 Annihilation of the first spin contaminant:
 S**2 before annihilation    -0.0000,   after     0.0000
 Leave Link  502 at Tue Dec  3 19:53:07 2024, MaxMem=   536870912 cpu:              24.6 elap:               3.1
 (Enter /home/szhao/Apps/g16/l601.exe)
 Copying SCF densities to generalized density rwf, IOpCl= 1 IROHF=0.

 **********************************************************************

            Population analysis using the SCF density.

 **********************************************************************

 Alpha  occ. eigenvalues --  -10.48158 -10.39749  -0.88275  -0.70098  -0.65242
 Alpha  occ. eigenvalues --   -0.47152  -0.47152
 Alpha virt. eigenvalues --    0.02574   0.04320   0.06851   0.06851   0.09043
 Alpha virt. eigenvalues --    0.09043   0.11107   0.16788   0.25843   0.26416
 Alpha virt. eigenvalues --    0.26720   0.26720   0.50674   0.51543   0.51543
 Alpha virt. eigenvalues --    0.59630   0.70569   0.75628   0.80712   0.80712
 Alpha virt. eigenvalues --    1.19083   1.19704   1.19704   1.26102   1.39596
 Alpha virt. eigenvalues --    1.39596   1.71135   1.71529   1.84401   1.84401
 Alpha virt. eigenvalues --    1.99671   1.99671   2.42532   2.42532   2.71726
 Alpha virt. eigenvalues --    2.76581   2.95508   2.97219   2.97219   3.05223
 Alpha virt. eigenvalues --    3.05223   3.29535   3.70619   3.70619   4.71922
 Alpha virt. eigenvalues --    4.96675   5.88500  25.96985  26.05161
  Beta  occ. eigenvalues --  -10.48158 -10.39749  -0.88275  -0.70098  -0.65242
  Beta  occ. eigenvalues --   -0.47152  -0.47152
  Beta virt. eigenvalues --    0.02574   0.04320   0.06851   0.06851   0.09043
  Beta virt. eigenvalues --    0.09043   0.11107   0.16788   0.25843   0.26416
  Beta virt. eigenvalues --    0.26720   0.26720   0.50674   0.51543   0.51543
  Beta virt. eigenvalues --    0.59630   0.70569   0.75628   0.80712   0.80712
  Beta virt. eigenvalues --    1.19083   1.19704   1.19704   1.26102   1.39596
  Beta virt. eigenvalues --    1.39596   1.71135   1.71529   1.84401   1.84401
  Beta virt. eigenvalues --    1.99671   1.99671   2.42532   2.42532   2.71726
  Beta virt. eigenvalues --    2.76581   2.95508   2.97219   2.97219   3.05223
  Beta virt. eigenvalues --    3.05223   3.29535   3.70619   3.70619   4.71922
  Beta virt. eigenvalues --    4.96675   5.88500  25.96985  26.05161
          Condensed to atoms (all electrons):
               1          2          3          4
     1  C    7.736642  -2.448542   1.233861  -0.936287
     2  C   -2.448542   7.736597  -0.936233   1.233897
     3  H    1.233861  -0.936233   1.187989  -0.071329
     4  H   -0.936287   1.233897  -0.071329   1.188038
          Atomic-Atomic Spin Densities.
               1          2          3          4
     1  C    0.000000  -0.000000   0.000000  -0.000000
     2  C   -0.000000   0.000000  -0.000000   0.000000
     3  H    0.000000  -0.000000  -0.000000   0.000000
     4  H   -0.000000   0.000000   0.000000  -0.000000
 Mulliken charges and spin densities:
               1          2
     1  C    0.414326   0.000000
     2  C    0.414283  -0.000000
     3  H   -0.414289  -0.000000
     4  H   -0.414320  -0.000000
 Sum of Mulliken charges =  -0.00000   0.00000
 Mulliken charges and spin densities with hydrogens summed into heavy atoms:
               1          2
     1  C    0.000037   0.000000
     2  C   -0.000037  -0.000000
 Electronic spatial extent (au):  <R**2>=             37.4467
 Charge=             -0.0000 electrons
 Dipole moment (field-independent basis, Debye):
    X=             -0.0000    Y=             -0.0000    Z=              0.0000  Tot=              0.0000
 Quadrupole moment (field-independent basis, Debye-Ang):
   XX=             -8.5604   YY=            -10.6206   ZZ=            -10.6206
   XY=             -0.0000   XZ=              0.0000   YZ=             -0.0000
 Traceless Quadrupole moment (field-independent basis, Debye-Ang):
   XX=              1.3735   YY=             -0.6868   ZZ=             -0.6868
   XY=             -0.0000   XZ=              0.0000   YZ=             -0.0000
 Octapole moment (field-independent basis, Debye-Ang**2):
  XXX=              0.0000  YYY=             -0.0000  ZZZ=              0.0000  XYY=              0.0000
  XXY=             -0.0000  XXZ=              0.0000  XZZ=              0.0000  YZZ=             -0.0000
  YYZ=              0.0000  XYZ=             -0.0000
 Hexadecapole moment (field-independent basis, Debye-Ang**3):
 XXXX=            -22.9678 YYYY=             -9.7688 ZZZZ=             -9.7688 XXXY=              0.0000
 XXXZ=              0.0000 YYYX=             -0.0000 YYYZ=              0.0000 ZZZX=              0.0000
 ZZZY=              0.0000 XXYY=             -5.6164 XXZZ=             -5.6164 YYZZ=             -3.2563
 XXYZ=             -0.0000 YYXZ=              0.0000 ZZXY=             -0.0000
 N-N= 3.764807571674D+01 E-N=-2.570355164784D+02  KE= 8.251553154486D+01
                          Isotropic Fermi Contact Couplings
        Atom                 a.u.       MegaHertz       Gauss      10(-4) cm-1
     1  C(13)              0.00000       0.00000       0.00000       0.00000
     2  C(13)             -0.00000      -0.00000      -0.00000      -0.00000
     3  H(1)               0.00000       0.00000       0.00000       0.00000
     4  H(1)               0.00000       0.00000       0.00000       0.00000
 --------------------------------------------------------
       Center         ----  Spin Dipole Couplings  ----
                      3XX-RR        3YY-RR        3ZZ-RR
 --------------------------------------------------------
     1   Atom        0.000000     -0.000000     -0.000000
     2   Atom       -0.000000      0.000000      0.000000
     3   Atom       -0.000000      0.000000      0.000000
     4   Atom        0.000000     -0.000000     -0.000000
 --------------------------------------------------------
                        XY            XZ            YZ
 --------------------------------------------------------
     1   Atom        0.000000      0.000000      0.000000
     2   Atom       -0.000000      0.000000      0.000000
     3   Atom        0.000000     -0.000000      0.000000
     4   Atom        0.000000      0.000000      0.000000
 --------------------------------------------------------


 ---------------------------------------------------------------------------------
              Anisotropic Spin Dipole Couplings in Principal Axis System
 ---------------------------------------------------------------------------------

       Atom             a.u.   MegaHertz   Gauss  10(-4) cm-1        Axes

              Baa    -0.0000    -0.000    -0.000    -0.000 -0.0011  1.0000  0.0000
     1 C(13)  Bbb    -0.0000    -0.000    -0.000    -0.000 -0.0021 -0.0000  1.0000
              Bcc     0.0000     0.000     0.000     0.000  1.0000  0.0011  0.0021
 
              Baa    -0.0000    -0.000    -0.000    -0.000  0.9987  0.0506 -0.0071
     2 C(13)  Bbb     0.0000     0.000     0.000     0.000 -0.0506  0.9987  0.0024
              Bcc     0.0000     0.000     0.000     0.000  0.0072 -0.0020  1.0000
 
              Baa    -0.0000    -0.000    -0.000    -0.000  0.9997 -0.0199  0.0125
     3 H(1)   Bbb     0.0000     0.000     0.000     0.000  0.0195  0.9995  0.0255
              Bcc     0.0000     0.000     0.000     0.000 -0.0130 -0.0252  0.9996
 
              Baa    -0.0000    -0.000    -0.000    -0.000 -0.0561  0.9984  0.0086
     4 H(1)   Bbb    -0.0000    -0.000    -0.000    -0.000 -0.0368 -0.0107  0.9993
              Bcc     0.0000     0.000     0.000     0.000  0.9977  0.0557  0.0373
 

 ---------------------------------------------------------------------------------

 No NMR shielding tensors so no spin-rotation constants.
 Leave Link  601 at Tue Dec  3 19:53:07 2024, MaxMem=   536870912 cpu:               1.2 elap:               0.2
 (Enter /home/szhao/Apps/g16/l701.exe)
 ... and contract with generalized density number  0.
 Compute integral first derivatives.
 Leave Link  701 at Tue Dec  3 19:53:07 2024, MaxMem=   536870912 cpu:               0.7 elap:               0.1
 (Enter /home/szhao/Apps/g16/l702.exe)
 L702 exits ... SP integral derivatives will be done elsewhere.
 Leave Link  702 at Tue Dec  3 19:53:07 2024, MaxMem=   536870912 cpu:               0.3 elap:               0.0
 (Enter /home/szhao/Apps/g16/l703.exe)
 Integral derivatives from FoFJK, PRISM(SPDF).
 Compute integral first derivatives, UseDBF=F ICtDFT=           0.
 Calling FoFJK, ICntrl=      2127 FMM=F ISym2X=0 I1Cent= 0 IOpClX= 1 NMat=1 NMatS=1 NMatT=0.
 FoFJK:  IHMeth= 1 ICntrl=    2127 DoSepK=F KAlg= 0 I1Cent=           0 FoldK=F
 IRaf=         0 NMat=       1 IRICut=       1 DoRegI=T DoRafI=F ISym2E= 0 IDoP0=0 IntGTp=1.
 FoFCou: FMM=F IPFlag=           0 FMFlag=      100000 FMFlg1=         800
         NFxFlg=           0 DoJE=F BraDBF=F KetDBF=F FulRan=T
         wScrn=  0.000000 ICntrl=      2127 IOpCl=  1 I1Cent=           0 NGrid=           0
         NMat0=    1 NMatS0=      1 NMatT0=    0 NMatD0=    1 NMtDS0=    0 NMtDT0=    0
 Symmetry not used in FoFCou.
 Leave Link  703 at Tue Dec  3 19:53:08 2024, MaxMem=   536870912 cpu:               5.0 elap:               0.6
 (Enter /home/szhao/Apps/g16/l716.exe)
 Dipole        =-2.38782484D-06-6.49121251D-16 1.46562749D-15
 -------------------------------------------------------------------
 Center     Atomic                   Forces (Hartrees/Bohr)
 Number     Number              X              Y              Z
 -------------------------------------------------------------------
      1        6          -0.000000000   -0.000000000   -0.000000000
      2        6          -0.000000000   -0.000000000   -0.000000000
      3        1          -0.845962582    0.000000000    0.000000000
      4        1           0.846020974   -0.000000000   -0.000000000
 -------------------------------------------------------------------
 Cartesian Forces:  Max     0.846020974 RMS     0.345374697
 Leave Link  716 at Tue Dec  3 19:53:08 2024, MaxMem=   536870912 cpu:               0.3 elap:               0.0
 (Enter /home/szhao/Apps/g16/l103.exe)

 GradGradGradGradGradGradGradGradGradGradGradGradGradGradGradGradGradGrad
 Berny optimization.
 FormGI is forming the generalized inverse of G from B-inverse, IUseBI=4.
 Internal  Forces:  Max     0.846020974 RMS     0.488433581
 Search for a local minimum.
 Step number   1 out of a maximum of   22
 All quantities printed in internal units (Hartrees-Bohrs-Radians)
 RMS Force = .48843D+00 SwitMx=.10000D-02 MixMth= 1
 Mixed Optimization -- RFO/linear search
 Second derivative matrix not updated -- first step.
 The second derivative matrix:
                          X1        Y1        Z1        X2        Y2
           X1           0.50000
           Y1           0.00000   0.50000
           Z1           0.00000   0.00000   0.50000
           X2           0.00000   0.00000   0.00000   0.50000
           Y2           0.00000   0.00000   0.00000   0.00000   0.50000
           Z2           0.00000   0.00000   0.00000   0.00000   0.00000
           R1           0.00000   0.00000   0.00000   0.00000   0.00000
           R2           0.00000   0.00000   0.00000   0.00000   0.00000
           A1           0.00000   0.00000   0.00000   0.00000   0.00000
           A2           0.00000   0.00000   0.00000   0.00000   0.00000
           A3           0.00000   0.00000   0.00000   0.00000   0.00000
           A4           0.00000   0.00000   0.00000   0.00000   0.00000
                          Z2        R1        R2        A1        A2
           Z2           0.50000
           R1           0.00000   1.86766
           R2           0.00000   0.00000   1.86778
           A1           0.00000   0.00000   0.00000   0.05361
           A2           0.00000   0.00000   0.00000   0.00000   0.05361
           A3           0.00000   0.00000   0.00000   0.00000   0.00000
           A4           0.00000   0.00000   0.00000   0.00000   0.00000
                          A3        A4
           A3           0.05361
           A4           0.00000   0.05361
 ITU=  0
     Eigenvalues ---    0.05361   0.05361   0.05361   1.86766   1.86778
     Eigenvalues --- 1000.000001000.000001000.000001000.000001000.00000
     Eigenvalues --- 1000.000001000.00000
 RFO step:  Lambda=-5.83867972D-01 EMin= 5.36058075D-02
 Linear search not attempted -- first point.
 Maximum step size (   0.300) exceeded in Quadratic search.
    -- Step size scaled by   0.615
 Iteration  1 RMS(Cart)=  0.08164966 RMS(Int)=  0.00495288
 Iteration  2 RMS(Cart)=  0.00495288 RMS(Int)=  0.00000001
 Iteration  3 RMS(Cart)=  0.00000002 RMS(Int)=  0.00000001
 ITry= 1 IFail=0 DXMaxC= 2.12D-01 DCOld= 1.00D+10 DXMaxT= 3.00D-01 DXLimC= 3.00D+00 Rises=F
 Variable       Old X    -DE/DX   Delta X   Delta X   Delta X     New X
                                 (Linear)    (Quad)   (Total)
    X1       -0.74648  -0.84596   0.00000   0.00000   0.00000  -0.74648
    Y1        0.00000   0.00000   0.00000   0.00000   0.00000   0.00000
    Z1        0.00000  -0.00000   0.00000   0.00000   0.00000   0.00000
    X2        0.74648   0.84602   0.00000   0.00000   0.00000   0.74648
    Y2        0.00000  -0.00000   0.00000   0.00000   0.00000   0.00000
    Z2        0.00000  -0.00000   0.00000   0.00000   0.00000   0.00000
    R1        1.32755   0.84596   0.00000   0.21213   0.21213   1.53968
    R2        1.32753   0.84602   0.00000   0.21213   0.21213   1.53967
    A1        3.14159   0.00000   0.00000   0.00000   0.00000   3.14159
    A2        3.14159  -0.00000   0.00000  -0.00000   0.00000   3.14159
    A3        3.14159   0.00000   0.00000   0.00000  -0.00000   3.14159
    A4        3.14159   0.00000   0.00000   0.00000   0.00000   3.14159
         Item               Value     Threshold  Converged?
 Maximum Force            0.846021     0.000450     NO 
 RMS     Force            0.488434     0.000300     NO 
 Maximum Displacement     0.212134     0.001800     NO 
 RMS     Displacement     0.086603     0.001200     NO 
 Predicted change in Energy=-2.748765D-01
 Lowest energy point so far.  Saving SCF results.
 GradGradGradGradGradGradGradGradGradGradGradGradGradGradGradGradGradGrad

 Leave Link  103 at Tue Dec  3 19:53:08 2024, MaxMem=   536870912 cpu:               0.1 elap:               0.0
 (Enter /home/szhao/Apps/g16/l202.exe)
                          Input orientation:                          
 ---------------------------------------------------------------------
 Center     Atomic      Atomic             Coordinates (Angstroms)
 Number     Number       Type             X           Y           Z
 ---------------------------------------------------------------------
      1          6           0       -0.395020    0.000000    0.000000
      2          6           0        0.395020    0.000000    0.000000
      3          1           0       -1.209784   -0.000000   -0.000000
      4          1           0        1.209776   -0.000000   -0.000000
 ---------------------------------------------------------------------
                    Distance matrix (angstroms):
                    1          2          3          4
     1  C    0.000000
     2  C    0.790040   0.000000
     3  H    0.814764   1.604805   0.000000
     4  H    1.604797   0.814756   2.419561   0.000000
 Symmetry turned off by external request.
 Stoichiometry    C2H2
 Framework group  C*V[C*(HCCH)]
 Deg. of freedom     3
 Full point group                 C*V     NOp   4
 Rotational constants (GHZ):           0.0000000          75.4857492          75.4857492
 Leave Link  202 at Tue Dec  3 19:53:08 2024, MaxMem=   536870912 cpu:               0.0 elap:               0.0
 (Enter /home/szhao/Apps/g16/l301.exe)
 Standard basis: 6-311+G(d,p) (5D, 7F)
 Ernie: Thresh=  0.10000D-02 Tol=  0.10000D-05 Strict=F.
    56 basis functions,    88 primitive gaussians,    58 cartesian basis functions
     7 alpha electrons        7 beta electrons
       nuclear repulsion energy        36.0826948738 Hartrees.
 IExCor= 4336 DFT=T Ex+Corr=M062X ExCW=0 ScaHFX=  0.540000
 ScaDFX=  1.000000  1.000000  1.000000  1.000000 ScalE2=  1.000000  1.000000
 IRadAn=      7 IRanWt=     -1 IRanGd=            0 ICorTp=0 IEmpDi=  4
 NAtoms=    4 NActive=    4 NUniq=    4 SFac= 1.00D+00 NAtFMM=   60 NAOKFM=F Big=F
 Integral buffers will be    131072 words long.
 Raffenetti 2 integral format.
 Two-electron integral symmetry is turned off.
 Leave Link  301 at Tue Dec  3 19:53:08 2024, MaxMem=   536870912 cpu:               0.3 elap:               0.0
 (Enter /home/szhao/Apps/g16/l302.exe)
 NPDir=0 NMtPBC=     1 NCelOv=     1 NCel=       1 NClECP=     1 NCelD=      1
         NCelK=      1 NCelE2=     1 NClLst=     1 CellRange=     0.0.
 One-electron integrals computed using PRISM.
 NBasis=    56 RedAO= T EigKep=  9.67D-06  NBF=    56
 NBsUse=    56 1.00D-06 EigRej= -1.00D+00 NBFU=    56
 Precomputing XC quadrature grid using
 IXCGrd= 4 IRadAn=           7 IRanWt=          -1 IRanGd=           0 AccXCQ= 0.00D+00.
 Generated NRdTot=       0 NPtTot=           0 NUsed=           0 NTot=          32
 NSgBfM=    58    58    58    58    58 MxSgAt=     4 MxSgA2=     4.
 Leave Link  302 at Tue Dec  3 19:53:08 2024, MaxMem=   536870912 cpu:               1.0 elap:               0.1
 (Enter /home/szhao/Apps/g16/l303.exe)
 DipDrv:  MaxL=1.
 Leave Link  303 at Tue Dec  3 19:53:08 2024, MaxMem=   536870912 cpu:               0.3 elap:               0.0
 (Enter /home/szhao/Apps/g16/l401.exe)
 Initial guess from the checkpoint file:  "opt.chk"
 B after Tr=     0.000000   -0.000000   -0.000000
         Rot=    0.720610   -0.693341    0.000000   -0.000000 Ang= -87.79 deg.
 Guess basis will be translated and rotated to current coordinates.
 JPrj=2 DoOrth=T DoCkMO=T.
 Initial guess <Sx>= 0.0000 <Sy>= 0.0000 <Sz>= 0.0000 <S**2>= 0.0000 S= 0.0000
 Generating alternative initial guess.
 ExpMin= 4.38D-02 ExpMax= 4.56D+03 ExpMxC= 6.82D+02 IAcc=3 IRadAn=         5 AccDes= 0.00D+00
 Harris functional with IExCor= 1009 and IRadAn=       5 diagonalized for initial guess.
 HarFok:  IExCor= 1009 AccDes= 0.00D+00 IRadAn=         5 IDoV= 1 UseB2=F ITyADJ=14
 ICtDFT=  3500011 ScaDFX=  1.000000  1.000000  1.000000  1.000000
 FoFCou: FMM=F IPFlag=           0 FMFlag=      100000 FMFlg1=           0
         NFxFlg=           0 DoJE=T BraDBF=F KetDBF=T FulRan=T
         wScrn=  0.000000 ICntrl=       500 IOpCl=  0 I1Cent=   200000004 NGrid=           0
         NMat0=    1 NMatS0=      1 NMatT0=    0 NMatD0=    1 NMtDS0=    0 NMtDT0=    0
 Symmetry not used in FoFCou.
 Harris En= -76.7916875350479    
 Leave Link  401 at Tue Dec  3 19:53:08 2024, MaxMem=   536870912 cpu:               1.6 elap:               0.2
 (Enter /home/szhao/Apps/g16/l502.exe)
 Keep R1 and R2 ints in memory in canonical form, NReq=9624198.
 FoFCou: FMM=F IPFlag=           0 FMFlag=           0 FMFlg1=           0
         NFxFlg=           0 DoJE=F BraDBF=F KetDBF=F FulRan=T
         wScrn=  0.000000 ICntrl=       600 IOpCl=  0 I1Cent=           0 NGrid=           0
         NMat0=    1 NMatS0=   1596 NMatT0=    0 NMatD0=    1 NMtDS0=    0 NMtDT0=    0
 Symmetry not used in FoFCou.
 Two-electron integral symmetry not used.
 UHF open shell SCF:
 Using DIIS extrapolation, IDIIS=  1040.
 NGot=   536870912 LenX=   534314338 LenY=   534310533
 Requested convergence on RMS density matrix=1.00D-08 within 128 cycles.
 Requested convergence on MAX density matrix=1.00D-06.
 Requested convergence on             energy=1.00D-06.
 No special actions if energy rises.

 Cycle   1  Pass 1  IDiag  1:
 E= -76.3612112704318    
 DIIS: error= 3.02D-02 at cycle   1 NSaved=   1.
 NSaved= 1 IEnMin= 1 EnMin= -76.3612112704318     IErMin= 1 ErrMin= 3.02D-02
 ErrMax= 3.02D-02  0.00D+00 EMaxC= 1.00D-01 BMatC= 1.01D-01 BMatP= 1.01D-01
 IDIUse=3 WtCom= 6.98D-01 WtEn= 3.02D-01
 Coeff-Com:  0.100D+01
 Coeff-En:   0.100D+01
 Coeff:      0.100D+01
 Recover alternate guess density for next cycle.
 RMSDP=4.52D-02 MaxDP=6.27D-01              OVMax= 0.00D+00

 Cycle   2  Pass 1  IDiag  1:
 E= -75.9322961602375     Delta-E=        0.428915110194 Rises=F Damp=F
 Switch densities from cycles 1 and 2 for lowest energy.
 DIIS: error= 1.39D-01 at cycle   2 NSaved=   2.
 NSaved= 2 IEnMin= 1 EnMin= -76.3612112704318     IErMin= 1 ErrMin= 3.02D-02
 ErrMax= 1.39D-01  0.00D+00 EMaxC= 1.00D+00 BMatC= 2.30D+00 BMatP= 1.01D-01
 IDIUse=1 WtCom= 1.00D+00 WtEn= 0.00D+00
 Coeff-Com:  0.942D+00 0.578D-01
 Coeff:      0.942D+00 0.578D-01
 Gap=     0.698 Goal=   None    Shift=    0.000
 Gap=     0.698 Goal=   None    Shift=    0.000
 RMSDP=3.27D-02 MaxDP=7.02D-01 DE= 4.29D-01 OVMax= 1.86D-01

 Cycle   3  Pass 1  IDiag  1:
 E= -76.3728359917372     Delta-E=       -0.440539831500 Rises=F Damp=F
 DIIS: error= 3.18D-03 at cycle   3 NSaved=   3.
 NSaved= 3 IEnMin= 3 EnMin= -76.3728359917372     IErMin= 3 ErrMin= 3.18D-03
 ErrMax= 3.18D-03  0.00D+00 EMaxC= 1.00D+00 BMatC= 1.67D-03 BMatP= 1.01D-01
 IDIUse=1 WtCom= 1.00D+00 WtEn= 0.00D+00
 Coeff-Com:  0.125D-01 0.223D-01 0.965D+00
 Coeff:      0.125D-01 0.223D-01 0.965D+00
 Gap=     0.497 Goal=   None    Shift=    0.000
 Gap=     0.497 Goal=   None    Shift=    0.000
 RMSDP=2.01D-03 MaxDP=3.55D-02 DE=-4.41D-01 OVMax= 4.59D-03

 Cycle   4  Pass 1  IDiag  1:
 E= -76.3731387801253     Delta-E=       -0.000302788388 Rises=F Damp=F
 DIIS: error= 1.96D-04 at cycle   4 NSaved=   4.
 NSaved= 4 IEnMin= 4 EnMin= -76.3731387801253     IErMin= 4 ErrMin= 1.96D-04
 ErrMax= 1.96D-04  0.00D+00 EMaxC= 1.00D+00 BMatC= 6.15D-06 BMatP= 1.67D-03
 IDIUse=1 WtCom= 1.00D+00 WtEn= 0.00D+00
 Coeff-Com: -0.280D-02 0.210D-03 0.299D-01 0.973D+00
 Coeff:     -0.280D-02 0.210D-03 0.299D-01 0.973D+00
 Gap=     0.497 Goal=   None    Shift=    0.000
 Gap=     0.497 Goal=   None    Shift=    0.000
 RMSDP=3.30D-04 MaxDP=5.85D-03 DE=-3.03D-04 OVMax= 5.36D-04

 Cycle   5  Pass 1  IDiag  1:
 E= -76.3731403297555     Delta-E=       -0.000001549630 Rises=F Damp=F
 DIIS: error= 2.13D-05 at cycle   5 NSaved=   5.
 NSaved= 5 IEnMin= 5 EnMin= -76.3731403297555     IErMin= 5 ErrMin= 2.13D-05
 ErrMax= 2.13D-05  0.00D+00 EMaxC= 1.00D+00 BMatC= 1.14D-07 BMatP= 6.15D-06
 IDIUse=1 WtCom= 1.00D+00 WtEn= 0.00D+00
 Coeff-Com:  0.814D-05-0.311D-03-0.104D-01 0.170D-01 0.994D+00
 Coeff:      0.814D-05-0.311D-03-0.104D-01 0.170D-01 0.994D+00
 Gap=     0.497 Goal=   None    Shift=    0.000
 Gap=     0.497 Goal=   None    Shift=    0.000
 RMSDP=7.12D-05 MaxDP=9.49D-04 DE=-1.55D-06 OVMax= 5.92D-05

 Cycle   6  Pass 1  IDiag  1:
 E= -76.3731403550069     Delta-E=       -0.000000025251 Rises=F Damp=F
 DIIS: error= 2.42D-06 at cycle   6 NSaved=   6.
 NSaved= 6 IEnMin= 6 EnMin= -76.3731403550069     IErMin= 6 ErrMin= 2.42D-06
 ErrMax= 2.42D-06  0.00D+00 EMaxC= 1.00D+00 BMatC= 1.37D-09 BMatP= 1.14D-07
 IDIUse=1 WtCom= 1.00D+00 WtEn= 0.00D+00
 Coeff-Com:  0.325D-05 0.118D-04 0.658D-03-0.687D-03-0.135D+00 0.113D+01
 Coeff:      0.325D-05 0.118D-04 0.658D-03-0.687D-03-0.135D+00 0.113D+01
 Gap=     0.497 Goal=   None    Shift=    0.000
 Gap=     0.497 Goal=   None    Shift=    0.000
 RMSDP=1.25D-05 MaxDP=1.74D-04 DE=-2.53D-08 OVMax= 1.14D-05

 Cycle   7  Pass 1  IDiag  1:
 E= -76.3731403554105     Delta-E=       -0.000000000404 Rises=F Damp=F
 DIIS: error= 1.32D-07 at cycle   7 NSaved=   7.
 NSaved= 7 IEnMin= 7 EnMin= -76.3731403554105     IErMin= 7 ErrMin= 1.32D-07
 ErrMax= 1.32D-07  0.00D+00 EMaxC= 1.00D+00 BMatC= 2.43D-12 BMatP= 1.37D-09
 IDIUse=1 WtCom= 1.00D+00 WtEn= 0.00D+00
 Coeff-Com: -0.135D-06 0.741D-07-0.863D-05-0.231D-04 0.206D-02-0.509D-01
 Coeff-Com:  0.105D+01
 Coeff:     -0.135D-06 0.741D-07-0.863D-05-0.231D-04 0.206D-02-0.509D-01
 Coeff:      0.105D+01
 Gap=     0.497 Goal=   None    Shift=    0.000
 Gap=     0.497 Goal=   None    Shift=    0.000
 RMSDP=5.33D-07 MaxDP=7.89D-06 DE=-4.04D-10 OVMax= 8.21D-07

 Cycle   8  Pass 1  IDiag  1:
 E= -76.3731403554119     Delta-E=       -0.000000000001 Rises=F Damp=F
 DIIS: error= 1.44D-08 at cycle   8 NSaved=   8.
 NSaved= 8 IEnMin= 8 EnMin= -76.3731403554119     IErMin= 8 ErrMin= 1.44D-08
 ErrMax= 1.44D-08  0.00D+00 EMaxC= 1.00D+00 BMatC= 4.09D-14 BMatP= 2.43D-12
 IDIUse=1 WtCom= 1.00D+00 WtEn= 0.00D+00
 Coeff-Com:  0.579D-07-0.280D-07 0.121D-05 0.152D-04 0.112D-04-0.127D-02
 Coeff-Com: -0.603D-01 0.106D+01
 Coeff:      0.579D-07-0.280D-07 0.121D-05 0.152D-04 0.112D-04-0.127D-02
 Coeff:     -0.603D-01 0.106D+01
 Gap=     0.497 Goal=   None    Shift=    0.000
 Gap=     0.497 Goal=   None    Shift=    0.000
 RMSDP=1.86D-08 MaxDP=3.37D-07 DE=-1.39D-12 OVMax= 6.91D-08

 Cycle   9  Pass 1  IDiag  1:
 E= -76.3731403554119     Delta-E=       -0.000000000000 Rises=F Damp=F
 DIIS: error= 7.65D-09 at cycle   9 NSaved=   9.
 NSaved= 9 IEnMin= 9 EnMin= -76.3731403554119     IErMin= 9 ErrMin= 7.65D-09
 ErrMax= 7.65D-09  0.00D+00 EMaxC= 1.00D+00 BMatC= 6.93D-15 BMatP= 4.09D-14
 IDIUse=1 WtCom= 1.00D+00 WtEn= 0.00D+00
 Coeff-Com:  0.243D-07-0.939D-08 0.622D-06 0.627D-05-0.152D-04 0.698D-04
 Coeff-Com: -0.367D-01 0.417D+00 0.620D+00
 Coeff:      0.243D-07-0.939D-08 0.622D-06 0.627D-05-0.152D-04 0.698D-04
 Coeff:     -0.367D-01 0.417D+00 0.620D+00
 Gap=     0.497 Goal=   None    Shift=    0.000
 Gap=     0.497 Goal=   None    Shift=    0.000
 DSYEVD-2 returned Info=         113 IAlg= 4 N=    56 NDim=    56 NE2=     9541258 trying  DSYEV.
 RMSDP=2.10D-09 MaxDP=2.72D-08 DE=-2.84D-14 OVMax= 1.32D-08

 SCF Done:  E(UM062X) =  -76.3731403554     A.U. after    9 cycles
            NFock=  9  Conv=0.21D-08     -V/T= 1.9340
 <Sx>= 0.0000 <Sy>= 0.0000 <Sz>= 0.0000 <S**2>=-0.0000 S=-0.0000
 <L.S>=  0.00000000000    
 KE= 8.177034846510D+01 PE=-2.538661789240D+02 EE= 5.963999522967D+01
 Annihilation of the first spin contaminant:
 S**2 before annihilation    -0.0000,   after    -0.0000
 Leave Link  502 at Tue Dec  3 19:53:11 2024, MaxMem=   536870912 cpu:              24.2 elap:               3.1
 (Enter /home/szhao/Apps/g16/l701.exe)
 ... and contract with generalized density number  0.
 Compute integral first derivatives.
 Leave Link  701 at Tue Dec  3 19:53:12 2024, MaxMem=   536870912 cpu:               0.8 elap:               0.1
 (Enter /home/szhao/Apps/g16/l702.exe)
 L702 exits ... SP integral derivatives will be done elsewhere.
 Leave Link  702 at Tue Dec  3 19:53:12 2024, MaxMem=   536870912 cpu:               0.3 elap:               0.0
 (Enter /home/szhao/Apps/g16/l703.exe)
 Integral derivatives from FoFJK, PRISM(SPDF).
 Compute integral first derivatives, UseDBF=F ICtDFT=           0.
 Calling FoFJK, ICntrl=      2127 FMM=F ISym2X=0 I1Cent= 0 IOpClX= 1 NMat=1 NMatS=1 NMatT=0.
 FoFJK:  IHMeth= 1 ICntrl=    2127 DoSepK=F KAlg= 0 I1Cent=           0 FoldK=F
 IRaf=         0 NMat=       1 IRICut=       1 DoRegI=T DoRafI=F ISym2E= 0 IDoP0=0 IntGTp=1.
 FoFCou: FMM=F IPFlag=           0 FMFlag=      100000 FMFlg1=         800
         NFxFlg=           0 DoJE=F BraDBF=F KetDBF=F FulRan=T
         wScrn=  0.000000 ICntrl=      2127 IOpCl=  1 I1Cent=           0 NGrid=           0
         NMat0=    1 NMatS0=      1 NMatT0=    0 NMatD0=    1 NMtDS0=    0 NMtDT0=    0
 Symmetry not used in FoFCou.
 Leave Link  703 at Tue Dec  3 19:53:12 2024, MaxMem=   536870912 cpu:               5.4 elap:               0.7
 (Enter /home/szhao/Apps/g16/l716.exe)
 Dipole        =-1.42320365D-06-5.67711883D-09-5.67713230D-09
 -------------------------------------------------------------------
 Center     Atomic                   Forces (Hartrees/Bohr)
 Number     Number              X              Y              Z
 -------------------------------------------------------------------
      1        6          -0.000000000   -0.000000000   -0.000000000
      2        6          -0.000000000   -0.000000000   -0.000000000
      3        1          -0.388702614   -0.000000005   -0.000000005
      4        1           0.388725984   -0.000000001   -0.000000001
 -------------------------------------------------------------------
 Cartesian Forces:  Max     0.388725984 RMS     0.158691948
 Leave Link  716 at Tue Dec  3 19:53:12 2024, MaxMem=   536870912 cpu:               0.2 elap:               0.0
 (Enter /home/szhao/Apps/g16/l103.exe)

 GradGradGradGradGradGradGradGradGradGradGradGradGradGradGradGradGradGrad
 Berny optimization.
 Using GEDIIS/GDIIS optimizer.
 FormGI is forming the generalized inverse of G from B-inverse, IUseBI=4.
 Internal  Forces:  Max     0.388725984 RMS     0.224424305
 Search for a local minimum.
 Step number   2 out of a maximum of   22
 All quantities printed in internal units (Hartrees-Bohrs-Radians)
 RMS Force = .22442D+00 SwitMx=.10000D-02 MixMth= 1
 Mixed Optimization -- RFO/linear search
 Update second derivatives using D2CorX and points    1    2
 DE= -2.52D-01 DEPred=-2.75D-01 R= 9.15D-01
 TightC=F SS=  1.41D+00  RLast= 3.00D-01 DXNew= 5.0454D-01 9.0000D-01
 Trust test= 9.15D-01 RLast= 3.00D-01 DXMaxT set to 5.05D-01
 The second derivative matrix:
                          X1        Y1        Z1        X2        Y2
           X1           1.57773
           Y1          -0.00000   0.50000
           Z1          -0.00000   0.00000   0.50000
           X2          -1.07781   0.00000   0.00000   1.57790
           Y2          -0.00000   0.00000   0.00000   0.00000   0.50000
           Z2          -0.00000   0.00000   0.00000   0.00000   0.00000
           R1          -1.07773   0.00000   0.00000   1.07781   0.00000
           R2          -1.07781   0.00000   0.00000   1.07790   0.00000
           A1          -0.00000   0.00000   0.00000   0.00000   0.00000
           A2           0.00000  -0.00000  -0.00000  -0.00000  -0.00000
           A3           0.00000  -0.00000  -0.00000  -0.00000  -0.00000
           A4          -0.00000   0.00000   0.00000   0.00000   0.00000
                          Z2        R1        R2        A1        A2
           Z2           0.50000
           R1           0.00000   2.01161
           R2           0.00000   0.14395   2.01174
           A1           0.00000   0.00000   0.00000   0.05361
           A2          -0.00000  -0.00000  -0.00000  -0.00000   0.05361
           A3          -0.00000  -0.00000  -0.00000  -0.00000   0.00000
           A4           0.00000   0.00000   0.00000   0.00000  -0.00000
                          A3        A4
           A3           0.05361
           A4          -0.00000   0.05361
 ITU=  1  0
 Use linear search instead of GDIIS.
 Linear search step of   0.600 exceeds DXMaxT=   0.505 but not scaled.
 Quartic linear search produced a step of  2.00000.
 Iteration  1 RMS(Cart)=  0.08164966 RMS(Int)=  0.09155542
 Iteration  2 RMS(Cart)=  0.08164966 RMS(Int)=  0.00990576
 Iteration  3 RMS(Cart)=  0.00990576 RMS(Int)=  0.00000000
 Iteration  4 RMS(Cart)=  0.00000000 RMS(Int)=  0.00000000
 ITry= 1 IFail=0 DXMaxC= 4.24D-01 DCOld= 1.00D+10 DXMaxT= 5.05D-01 DXLimC= 3.00D+00 Rises=F
 Variable       Old X    -DE/DX   Delta X   Delta X   Delta X     New X
                                 (Linear)    (Quad)   (Total)
    X1       -0.74648  -0.38870   0.00000   0.00000   0.00000  -0.74648
    Y1        0.00000  -0.00000   0.00000   0.00000   0.00000   0.00000
    Z1        0.00000  -0.00000   0.00000   0.00000   0.00000   0.00000
    X2        0.74648   0.38873   0.00000   0.00000   0.00000   0.74648
    Y2        0.00000  -0.00000   0.00000   0.00000   0.00000   0.00000
    Z2        0.00000  -0.00000   0.00000   0.00000   0.00000   0.00000
    R1        1.53968   0.38870   0.42426   0.00000   0.42426   1.96394
    R2        1.53967   0.38873   0.42427   0.00000   0.42427   1.96393
    A1        3.14159  -0.00000   0.00000   0.00000   0.00000   3.14159
    A2        3.14159   0.00000   0.00000   0.00000   0.00000   3.14159
    A3        3.14159   0.00000  -0.00000   0.00000  -0.00000   3.14159
    A4        3.14159  -0.00000   0.00000   0.00000   0.00000   3.14159
         Item               Value     Threshold  Converged?
 Maximum Force            0.388726     0.000450     NO 
 RMS     Force            0.224424     0.000300     NO 
 Maximum Displacement     0.424269     0.001800     NO 
 RMS     Displacement     0.173205     0.001200     NO 
 Predicted change in Energy=-5.817779D-02
 Lowest energy point so far.  Saving SCF results.
 GradGradGradGradGradGradGradGradGradGradGradGradGradGradGradGradGradGrad

 Leave Link  103 at Tue Dec  3 19:53:12 2024, MaxMem=   536870912 cpu:               0.0 elap:               0.0
 (Enter /home/szhao/Apps/g16/l202.exe)
                          Input orientation:                          
 ---------------------------------------------------------------------
 Center     Atomic      Atomic             Coordinates (Angstroms)
 Number     Number       Type             X           Y           Z
 ---------------------------------------------------------------------
      1          6           0       -0.395020    0.000000    0.000000
      2          6           0        0.395020    0.000000    0.000000
      3          1           0       -1.434293   -0.000000   -0.000000
      4          1           0        1.434290    0.000000    0.000000
 ---------------------------------------------------------------------
                    Distance matrix (angstroms):
                    1          2          3          4
     1  C    0.000000
     2  C    0.790040   0.000000
     3  H    1.039273   1.829313   0.000000
     4  H    1.829310   1.039269   2.868582   0.000000
 Symmetry turned off by external request.
 Stoichiometry    C2H2
 Framework group  C*V[C*(HCCH)]
 Deg. of freedom     3
 Full point group                 C*V     NOp   4
 Rotational constants (GHZ):           0.0000000          64.0404339          64.0404339
 Leave Link  202 at Tue Dec  3 19:53:12 2024, MaxMem=   536870912 cpu:               0.0 elap:               0.0
 (Enter /home/szhao/Apps/g16/l301.exe)
 Standard basis: 6-311+G(d,p) (5D, 7F)
 Ernie: Thresh=  0.10000D-02 Tol=  0.10000D-05 Strict=F.
    56 basis functions,    88 primitive gaussians,    58 cartesian basis functions
     7 alpha electrons        7 beta electrons
       nuclear repulsion energy        33.8791376836 Hartrees.
 IExCor= 4336 DFT=T Ex+Corr=M062X ExCW=0 ScaHFX=  0.540000
 ScaDFX=  1.000000  1.000000  1.000000  1.000000 ScalE2=  1.000000  1.000000
 IRadAn=      7 IRanWt=     -1 IRanGd=            0 ICorTp=0 IEmpDi=  4
 NAtoms=    4 NActive=    4 NUniq=    4 SFac= 1.00D+00 NAtFMM=   60 NAOKFM=F Big=F
 Integral buffers will be    131072 words long.
 Raffenetti 2 integral format.
 Two-electron integral symmetry is turned off.
 Leave Link  301 at Tue Dec  3 19:53:12 2024, MaxMem=   536870912 cpu:               0.3 elap:               0.0
 (Enter /home/szhao/Apps/g16/l302.exe)
 NPDir=0 NMtPBC=     1 NCelOv=     1 NCel=       1 NClECP=     1 NCelD=      1
         NCelK=      1 NCelE2=     1 NClLst=     1 CellRange=     0.0.
 One-electron integrals computed using PRISM.
 NBasis=    56 RedAO= T EigKep=  8.70D-06  NBF=    56
 NBsUse=    56 1.00D-06 EigRej= -1.00D+00 NBFU=    56
 Precomputing XC quadrature grid using
 IXCGrd= 4 IRadAn=           7 IRanWt=          -1 IRanGd=           0 AccXCQ= 0.00D+00.
 Generated NRdTot=       0 NPtTot=           0 NUsed=           0 NTot=          32
 NSgBfM=    58    58    58    58    58 MxSgAt=     4 MxSgA2=     4.
 Leave Link  302 at Tue Dec  3 19:53:12 2024, MaxMem=   536870912 cpu:               0.9 elap:               0.1
 (Enter /home/szhao/Apps/g16/l303.exe)
 DipDrv:  MaxL=1.
 Leave Link  303 at Tue Dec  3 19:53:13 2024, MaxMem=   536870912 cpu:               0.3 elap:               0.0
 (Enter /home/szhao/Apps/g16/l401.exe)
 Initial guess from the checkpoint file:  "opt.chk"
 B after Tr=     0.000001   -0.000000   -0.000000
         Rot=    0.979645    0.200740    0.000000   -0.000000 Ang=  23.16 deg.
 Guess basis will be translated and rotated to current coordinates.
 JPrj=2 DoOrth=T DoCkMO=T.
 Initial guess <Sx>= 0.0000 <Sy>= 0.0000 <Sz>= 0.0000 <S**2>=-0.0000 S=-0.0000
 Generating alternative initial guess.
 ExpMin= 4.38D-02 ExpMax= 4.56D+03 ExpMxC= 6.82D+02 IAcc=3 IRadAn=         5 AccDes= 0.00D+00
 Harris functional with IExCor= 1009 and IRadAn=       5 diagonalized for initial guess.
 HarFok:  IExCor= 1009 AccDes= 0.00D+00 IRadAn=         5 IDoV= 1 UseB2=F ITyADJ=14
 ICtDFT=  3500011 ScaDFX=  1.000000  1.000000  1.000000  1.000000
 FoFCou: FMM=F IPFlag=           0 FMFlag=      100000 FMFlg1=           0
         NFxFlg=           0 DoJE=T BraDBF=F KetDBF=T FulRan=T
         wScrn=  0.000000 ICntrl=       500 IOpCl=  0 I1Cent=   200000004 NGrid=           0
         NMat0=    1 NMatS0=      1 NMatT0=    0 NMatD0=    1 NMtDS0=    0 NMtDT0=    0
 Symmetry not used in FoFCou.
 Harris En= -76.8718933358375    
 Leave Link  401 at Tue Dec  3 19:53:13 2024, MaxMem=   536870912 cpu:               1.6 elap:               0.2
 (Enter /home/szhao/Apps/g16/l502.exe)
 Keep R1 and R2 ints in memory in canonical form, NReq=9624198.
 FoFCou: FMM=F IPFlag=           0 FMFlag=           0 FMFlg1=           0
         NFxFlg=           0 DoJE=F BraDBF=F KetDBF=F FulRan=T
         wScrn=  0.000000 ICntrl=       600 IOpCl=  0 I1Cent=           0 NGrid=           0
         NMat0=    1 NMatS0=   1596 NMatT0=    0 NMatD0=    1 NMtDS0=    0 NMtDT0=    0
 Symmetry not used in FoFCou.
 Two-electron integral symmetry not used.
 UHF open shell SCF:
 Using DIIS extrapolation, IDIIS=  1040.
 NGot=   536870912 LenX=   534314338 LenY=   534310533
 Requested convergence on RMS density matrix=1.00D-08 within 128 cycles.
 Requested convergence on MAX density matrix=1.00D-06.
 Requested convergence on             energy=1.00D-06.
 No special actions if energy rises.

 Cycle   1  Pass 1  IDiag  1:
 E= -76.4830706703245    
 DIIS: error= 3.72D-02 at cycle   1 NSaved=   1.
 NSaved= 1 IEnMin= 1 EnMin= -76.4830706703245     IErMin= 1 ErrMin= 3.72D-02
 ErrMax= 3.72D-02  0.00D+00 EMaxC= 1.00D-01 BMatC= 2.01D-01 BMatP= 2.01D-01
 IDIUse=3 WtCom= 6.28D-01 WtEn= 3.72D-01
 Coeff-Com:  0.100D+01
 Coeff-En:   0.100D+01
 Coeff:      0.100D+01
 Recover alternate guess density for next cycle.
 RMSDP=2.41D-02 MaxDP=2.66D-01              OVMax= 0.00D+00

 Cycle   2  Pass 1  IDiag  1:
 E= -76.0582960901000     Delta-E=        0.424774580224 Rises=F Damp=F
 Switch densities from cycles 1 and 2 for lowest energy.
 DIIS: error= 1.36D-01 at cycle   2 NSaved=   2.
 NSaved= 2 IEnMin= 1 EnMin= -76.4830706703245     IErMin= 1 ErrMin= 3.72D-02
 ErrMax= 1.36D-01  0.00D+00 EMaxC= 1.00D+00 BMatC= 2.26D+00 BMatP= 2.01D-01
 IDIUse=1 WtCom= 1.00D+00 WtEn= 0.00D+00
 Coeff-Com:  0.904D+00 0.961D-01
 Coeff:      0.904D+00 0.961D-01
 Gap=     0.788 Goal=   None    Shift=    0.000
 Gap=     0.788 Goal=   None    Shift=    0.000
 RMSDP=3.79D-02 MaxDP=7.45D-01 DE= 4.25D-01 OVMax= 2.09D-01

 Cycle   3  Pass 1  IDiag  1:
 E= -76.5110888069488     Delta-E=       -0.452792716849 Rises=F Damp=F
 DIIS: error= 5.72D-03 at cycle   3 NSaved=   3.
 NSaved= 3 IEnMin= 3 EnMin= -76.5110888069488     IErMin= 3 ErrMin= 5.72D-03
 ErrMax= 5.72D-03  0.00D+00 EMaxC= 1.00D+00 BMatC= 5.23D-03 BMatP= 2.01D-01
 IDIUse=1 WtCom= 1.00D+00 WtEn= 0.00D+00
 Coeff-Com:  0.628D-02 0.405D-01 0.953D+00
 Coeff:      0.628D-02 0.405D-01 0.953D+00
 Gap=     0.500 Goal=   None    Shift=    0.000
 Gap=     0.500 Goal=   None    Shift=    0.000
 RMSDP=2.13D-03 MaxDP=4.23D-02 DE=-4.53D-01 OVMax= 9.38D-03

 Cycle   4  Pass 1  IDiag  1:
 E= -76.5121127060619     Delta-E=       -0.001023899113 Rises=F Damp=F
 DIIS: error= 4.11D-04 at cycle   4 NSaved=   4.
 NSaved= 4 IEnMin= 4 EnMin= -76.5121127060619     IErMin= 4 ErrMin= 4.11D-04
 ErrMax= 4.11D-04  0.00D+00 EMaxC= 1.00D+00 BMatC= 2.54D-05 BMatP= 5.23D-03
 IDIUse=1 WtCom= 1.00D+00 WtEn= 0.00D+00
 Coeff-Com: -0.242D-02-0.248D-02 0.550D-02 0.999D+00
 Coeff:     -0.242D-02-0.248D-02 0.550D-02 0.999D+00
 Gap=     0.500 Goal=   None    Shift=    0.000
 Gap=     0.500 Goal=   None    Shift=    0.000
 RMSDP=4.14D-04 MaxDP=5.45D-03 DE=-1.02D-03 OVMax= 1.33D-03

 Cycle   5  Pass 1  IDiag  1:
 E= -76.5121198655679     Delta-E=       -0.000007159506 Rises=F Damp=F
 DIIS: error= 6.74D-05 at cycle   5 NSaved=   5.
 NSaved= 5 IEnMin= 5 EnMin= -76.5121198655679     IErMin= 5 ErrMin= 6.74D-05
 ErrMax= 6.74D-05  0.00D+00 EMaxC= 1.00D+00 BMatC= 5.34D-07 BMatP= 2.54D-05
 IDIUse=1 WtCom= 1.00D+00 WtEn= 0.00D+00
 Coeff-Com:  0.498D-04-0.763D-03-0.120D-01 0.214D-01 0.991D+00
 Coeff:      0.498D-04-0.763D-03-0.120D-01 0.214D-01 0.991D+00
 Gap=     0.500 Goal=   None    Shift=    0.000
 Gap=     0.500 Goal=   None    Shift=    0.000
 RMSDP=1.42D-04 MaxDP=3.25D-03 DE=-7.16D-06 OVMax= 1.57D-04

 Cycle   6  Pass 1  IDiag  1:
 E= -76.5121199909711     Delta-E=       -0.000000125403 Rises=F Damp=F
 DIIS: error= 1.33D-05 at cycle   6 NSaved=   6.
 NSaved= 6 IEnMin= 6 EnMin= -76.5121199909711     IErMin= 6 ErrMin= 1.33D-05
 ErrMax= 1.33D-05  0.00D+00 EMaxC= 1.00D+00 BMatC= 1.02D-08 BMatP= 5.34D-07
 IDIUse=1 WtCom= 1.00D+00 WtEn= 0.00D+00
 Coeff-Com:  0.192D-04 0.561D-05 0.419D-03-0.619D-02-0.108D+00 0.111D+01
 Coeff:      0.192D-04 0.561D-05 0.419D-03-0.619D-02-0.108D+00 0.111D+01
 Gap=     0.500 Goal=   None    Shift=    0.000
 Gap=     0.500 Goal=   None    Shift=    0.000
 RMSDP=3.29D-05 MaxDP=7.88D-04 DE=-1.25D-07 OVMax= 3.80D-05

 Cycle   7  Pass 1  IDiag  1:
 E= -76.5121199946897     Delta-E=       -0.000000003719 Rises=F Damp=F
 DIIS: error= 1.17D-06 at cycle   7 NSaved=   7.
 NSaved= 7 IEnMin= 7 EnMin= -76.5121199946897     IErMin= 7 ErrMin= 1.17D-06
 ErrMax= 1.17D-06  0.00D+00 EMaxC= 1.00D+00 BMatC= 1.07D-10 BMatP= 1.02D-08
 IDIUse=1 WtCom= 1.00D+00 WtEn= 0.00D+00
 Coeff-Com: -0.403D-05 0.561D-05-0.566D-04-0.137D-04 0.433D-02-0.756D-01
 Coeff-Com:  0.107D+01
 Coeff:     -0.403D-05 0.561D-05-0.566D-04-0.137D-04 0.433D-02-0.756D-01
 Coeff:      0.107D+01
 Gap=     0.500 Goal=   None    Shift=    0.000
 Gap=     0.500 Goal=   None    Shift=    0.000
 RMSDP=1.72D-06 MaxDP=3.65D-05 DE=-3.72D-09 OVMax= 2.95D-06

 Cycle   8  Pass 1  IDiag  1:
 E= -76.5121199947313     Delta-E=       -0.000000000042 Rises=F Damp=F
 DIIS: error= 1.96D-07 at cycle   8 NSaved=   8.
 NSaved= 8 IEnMin= 8 EnMin= -76.5121199947313     IErMin= 8 ErrMin= 1.96D-07
 ErrMax= 1.96D-07  0.00D+00 EMaxC= 1.00D+00 BMatC= 1.61D-12 BMatP= 1.07D-10
 IDIUse=1 WtCom= 1.00D+00 WtEn= 0.00D+00
 Coeff-Com:  0.217D-06-0.105D-05-0.368D-05 0.720D-04 0.160D-02-0.119D-01
 Coeff-Com: -0.817D-01 0.109D+01
 Coeff:      0.217D-06-0.105D-05-0.368D-05 0.720D-04 0.160D-02-0.119D-01
 Coeff:     -0.817D-01 0.109D+01
 Gap=     0.500 Goal=   None    Shift=    0.000
 Gap=     0.500 Goal=   None    Shift=    0.000
 RMSDP=1.82D-07 MaxDP=3.33D-06 DE=-4.16D-11 OVMax= 4.83D-07

 Cycle   9  Pass 1  IDiag  1:
 E= -76.5121199947322     Delta-E=       -0.000000000001 Rises=F Damp=F
 DIIS: error= 3.06D-08 at cycle   9 NSaved=   9.
 NSaved= 9 IEnMin= 9 EnMin= -76.5121199947322     IErMin= 9 ErrMin= 3.06D-08
 ErrMax= 3.06D-08  0.00D+00 EMaxC= 1.00D+00 BMatC= 1.38D-13 BMatP= 1.61D-12
 IDIUse=1 WtCom= 1.00D+00 WtEn= 0.00D+00
 Coeff-Com:  0.777D-07-0.299D-06-0.130D-06 0.199D-04 0.377D-03-0.222D-02
 Coeff-Com: -0.381D-01 0.301D+00 0.739D+00
 Coeff:      0.777D-07-0.299D-06-0.130D-06 0.199D-04 0.377D-03-0.222D-02
 Coeff:     -0.381D-01 0.301D+00 0.739D+00
 Gap=     0.500 Goal=   None    Shift=    0.000
 Gap=     0.500 Goal=   None    Shift=    0.000
 RMSDP=2.62D-08 MaxDP=6.48D-07 DE=-8.53D-13 OVMax= 6.74D-08

 Cycle  10  Pass 1  IDiag  1:
 E= -76.5121199947322     Delta-E=       -0.000000000000 Rises=F Damp=F
 DIIS: error= 1.06D-08 at cycle  10 NSaved=  10.
 NSaved=10 IEnMin=10 EnMin= -76.5121199947322     IErMin=10 ErrMin= 1.06D-08
 ErrMax= 1.06D-08  0.00D+00 EMaxC= 1.00D+00 BMatC= 1.62D-14 BMatP= 1.38D-13
 IDIUse=1 WtCom= 1.00D+00 WtEn= 0.00D+00
 Coeff-Com: -0.122D-07 0.328D-07 0.328D-06-0.847D-06-0.375D-04 0.481D-03
 Coeff-Com: -0.419D-02-0.131D-01 0.251D+00 0.766D+00
 Coeff:     -0.122D-07 0.328D-07 0.328D-06-0.847D-06-0.375D-04 0.481D-03
 Coeff:     -0.419D-02-0.131D-01 0.251D+00 0.766D+00
 Gap=     0.500 Goal=   None    Shift=    0.000
 Gap=     0.500 Goal=   None    Shift=    0.000
 RMSDP=1.16D-08 MaxDP=2.89D-07 DE=-2.84D-14 OVMax= 1.91D-08

 Cycle  11  Pass 1  IDiag  1:
 E= -76.5121199947322     Delta-E=       -0.000000000000 Rises=F Damp=F
 DIIS: error= 3.83D-10 at cycle  11 NSaved=  11.
 NSaved=11 IEnMin=11 EnMin= -76.5121199947322     IErMin=11 ErrMin= 3.83D-10
 ErrMax= 3.83D-10  0.00D+00 EMaxC= 1.00D+00 BMatC= 2.10D-17 BMatP= 1.62D-14
 IDIUse=1 WtCom= 1.00D+00 WtEn= 0.00D+00
 Coeff-Com: -0.897D-09-0.142D-08-0.397D-07-0.228D-06 0.137D-05-0.560D-06
 Coeff-Com:  0.622D-03-0.283D-02-0.285D-01-0.577D-01 0.109D+01
 Coeff:     -0.897D-09-0.142D-08-0.397D-07-0.228D-06 0.137D-05-0.560D-06
 Coeff:      0.622D-03-0.283D-02-0.285D-01-0.577D-01 0.109D+01
 Gap=     0.500 Goal=   None    Shift=    0.000
 Gap=     0.500 Goal=   None    Shift=    0.000
 RMSDP=2.45D-09 MaxDP=6.09D-08 DE=-5.68D-14 OVMax= 2.59D-09

 SCF Done:  E(UM062X) =  -76.5121199947     A.U. after   11 cycles
            NFock= 11  Conv=0.25D-08     -V/T= 1.9468
 <Sx>= 0.0000 <Sy>= 0.0000 <Sz>= 0.0000 <S**2>=-0.0000 S=-0.0000
 <L.S>=  0.00000000000    
 KE= 8.081081583643D+01 PE=-2.490490623230D+02 EE= 5.784698880824D+01
 Annihilation of the first spin contaminant:
 S**2 before annihilation    -0.0000,   after     0.0000
 Leave Link  502 at Tue Dec  3 19:53:16 2024, MaxMem=   536870912 cpu:              29.0 elap:               3.7
 (Enter /home/szhao/Apps/g16/l701.exe)
 ... and contract with generalized density number  0.
 Compute integral first derivatives.
 Leave Link  701 at Tue Dec  3 19:53:17 2024, MaxMem=   536870912 cpu:               0.7 elap:               0.1
 (Enter /home/szhao/Apps/g16/l702.exe)
 L702 exits ... SP integral derivatives will be done elsewhere.
 Leave Link  702 at Tue Dec  3 19:53:17 2024, MaxMem=   536870912 cpu:               0.2 elap:               0.0
 (Enter /home/szhao/Apps/g16/l703.exe)
 Integral derivatives from FoFJK, PRISM(SPDF).
 Compute integral first derivatives, UseDBF=F ICtDFT=           0.
 Calling FoFJK, ICntrl=      2127 FMM=F ISym2X=0 I1Cent= 0 IOpClX= 1 NMat=1 NMatS=1 NMatT=0.
 FoFJK:  IHMeth= 1 ICntrl=    2127 DoSepK=F KAlg= 0 I1Cent=           0 FoldK=F
 IRaf=         0 NMat=       1 IRICut=       1 DoRegI=T DoRafI=F ISym2E= 0 IDoP0=0 IntGTp=1.
 FoFCou: FMM=F IPFlag=           0 FMFlag=      100000 FMFlg1=         800
         NFxFlg=           0 DoJE=F BraDBF=F KetDBF=F FulRan=T
         wScrn=  0.000000 ICntrl=      2127 IOpCl=  1 I1Cent=           0 NGrid=           0
         NMat0=    1 NMatS0=      1 NMatT0=    0 NMatD0=    1 NMtDS0=    0 NMtDT0=    0
 Symmetry not used in FoFCou.
 Leave Link  703 at Tue Dec  3 19:53:17 2024, MaxMem=   536870912 cpu:               5.2 elap:               0.6
 (Enter /home/szhao/Apps/g16/l716.exe)
 Dipole        =-3.66032971D-07-1.84137667D-08-1.84138774D-08
 -------------------------------------------------------------------
 Center     Atomic                   Forces (Hartrees/Bohr)
 Number     Number              X              Y              Z
 -------------------------------------------------------------------
      1        6          -0.000000000   -0.000000000   -0.000000000
      2        6          -0.000000000   -0.000000000   -0.000000000
      3        1          -0.013566378    0.000000004    0.000000004
      4        1           0.013568971   -0.000000000   -0.000000000
 -------------------------------------------------------------------
 Cartesian Forces:  Max     0.013568971 RMS     0.005538980
 Leave Link  716 at Tue Dec  3 19:53:17 2024, MaxMem=   536870912 cpu:               0.3 elap:               0.0
 (Enter /home/szhao/Apps/g16/l103.exe)

 GradGradGradGradGradGradGradGradGradGradGradGradGradGradGradGradGradGrad
 Berny optimization.
 Using GEDIIS/GDIIS optimizer.
 FormGI is forming the generalized inverse of G from B-inverse, IUseBI=4.
 Internal  Forces:  Max     0.013568971 RMS     0.007833300
 Search for a local minimum.
 Step number   3 out of a maximum of   22
 All quantities printed in internal units (Hartrees-Bohrs-Radians)
 RMS Force = .78333D-02 SwitMx=.10000D-02 MixMth= 1
 Mixed Optimization -- RFO/linear search
 Update second derivatives using D2CorX and points    2    3
 The second derivative matrix:
                          X1        Y1        Z1        X2        Y2
           X1           0.94209
           Y1           0.00000   0.50000
           Z1           0.00000   0.00000   0.50000
           X2          -0.44211  -0.00000  -0.00000   0.94214
           Y2          -0.00000  -0.00000  -0.00000   0.00000   0.50000
           Z2          -0.00000  -0.00000  -0.00000   0.00000   0.00000
           R1          -0.44209  -0.00000  -0.00000   0.44211   0.00000
           R2          -0.44211  -0.00000  -0.00000   0.44214   0.00000
           A1          -0.00000  -0.00000  -0.00000   0.00000   0.00000
           A2          -0.00000  -0.00000  -0.00000   0.00000   0.00000
           A3           0.00000   0.00000   0.00000  -0.00000  -0.00000
           A4           0.00000   0.00000   0.00000  -0.00000  -0.00000
                          Z2        R1        R2        A1        A2
           Z2           0.50000
           R1           0.00000   1.37597
           R2           0.00000  -0.49175   1.37598
           A1           0.00000   0.00000   0.00000   0.05361
           A2           0.00000   0.00000   0.00000   0.00000   0.05361
           A3          -0.00000  -0.00000  -0.00000  -0.00000  -0.00000
           A4          -0.00000  -0.00000  -0.00000  -0.00000  -0.00000
                          A3        A4
           A3           0.05361
           A4           0.00000   0.05361
 ITU=  0  1  0
 Use linear search instead of GDIIS.
     Eigenvalues ---    0.05361   0.05361   0.05361   0.88423   1.86772
     Eigenvalues --- 1000.000001000.000001000.000001000.000001000.00000
     Eigenvalues --- 1000.000001000.00000
 RFO step:  Lambda=-1.99042693D-06 EMin= 5.36058075D-02
 Quartic linear search produced a step of  0.08409.
 Iteration  1 RMS(Cart)=  0.01456524 RMS(Int)=  0.00000001
 Iteration  2 RMS(Cart)=  0.00000002 RMS(Int)=  0.00000000
 ITry= 1 IFail=0 DXMaxC= 3.57D-02 DCOld= 1.00D+10 DXMaxT= 5.05D-01 DXLimC= 3.00D+00 Rises=F
 Variable       Old X    -DE/DX   Delta X   Delta X   Delta X     New X
                                 (Linear)    (Quad)   (Total)
    X1       -0.74648  -0.01357   0.00000   0.00000   0.00000  -0.74648
    Y1        0.00000   0.00000   0.00000   0.00000   0.00000   0.00000
    Z1        0.00000   0.00000   0.00000   0.00000   0.00000   0.00000
    X2        0.74648   0.01357   0.00000   0.00000   0.00000   0.74648
    Y2        0.00000  -0.00000   0.00000   0.00000   0.00000   0.00000
    Z2        0.00000  -0.00000   0.00000   0.00000   0.00000   0.00000
    R1        1.96394   0.01357   0.03568  -0.00000   0.03568   1.99962
    R2        1.96393   0.01357   0.03568   0.00000   0.03568   1.99961
    A1        3.14159  -0.00000   0.00000  -0.00000  -0.00000   3.14159
    A2        3.14159  -0.00000   0.00000  -0.00000  -0.00000   3.14159
    A3        3.14159   0.00000  -0.00000   0.00000   0.00000   3.14159
    A4        3.14159   0.00000   0.00000   0.00000   0.00000   3.14159
         Item               Value     Threshold  Converged?
 Maximum Force            0.013569     0.000450     NO 
 RMS     Force            0.007833     0.000300     NO 
 Maximum Displacement     0.035678     0.001800     NO 
 RMS     Displacement     0.014565     0.001200     NO 
 Predicted change in Energy=-1.573963D-04
 Lowest energy point so far.  Saving SCF results.
 GradGradGradGradGradGradGradGradGradGradGradGradGradGradGradGradGradGrad

 Leave Link  103 at Tue Dec  3 19:53:17 2024, MaxMem=   536870912 cpu:               0.0 elap:               0.0
 (Enter /home/szhao/Apps/g16/l202.exe)
                          Input orientation:                          
 ---------------------------------------------------------------------
 Center     Atomic      Atomic             Coordinates (Angstroms)
 Number     Number       Type             X           Y           Z
 ---------------------------------------------------------------------
      1          6           0       -0.395020    0.000000    0.000000
      2          6           0        0.395020    0.000000    0.000000
      3          1           0       -1.453172    0.000000    0.000000
      4          1           0        1.453170   -0.000000   -0.000000
 ---------------------------------------------------------------------
                    Distance matrix (angstroms):
                    1          2          3          4
     1  C    0.000000
     2  C    0.790040   0.000000
     3  H    1.058152   1.848192   0.000000
     4  H    1.848190   1.058150   2.906342   0.000000
 Symmetry turned off by external request.
 Stoichiometry    C2H2
 Framework group  C*V[C*(HCCH)]
 Deg. of freedom     3
 Full point group                 C*V     NOp   4
 Rotational constants (GHZ):           0.0000000          63.1609826          63.1609826
 Leave Link  202 at Tue Dec  3 19:53:17 2024, MaxMem=   536870912 cpu:               0.0 elap:               0.0
 (Enter /home/szhao/Apps/g16/l301.exe)
 Standard basis: 6-311+G(d,p) (5D, 7F)
 Ernie: Thresh=  0.10000D-02 Tol=  0.10000D-05 Strict=F.
    56 basis functions,    88 primitive gaussians,    58 cartesian basis functions
     7 alpha electrons        7 beta electrons
       nuclear repulsion energy        33.7322621323 Hartrees.
 IExCor= 4336 DFT=T Ex+Corr=M062X ExCW=0 ScaHFX=  0.540000
 ScaDFX=  1.000000  1.000000  1.000000  1.000000 ScalE2=  1.000000  1.000000
 IRadAn=      7 IRanWt=     -1 IRanGd=            0 ICorTp=0 IEmpDi=  4
 NAtoms=    4 NActive=    4 NUniq=    4 SFac= 1.00D+00 NAtFMM=   60 NAOKFM=F Big=F
 Integral buffers will be    131072 words long.
 Raffenetti 2 integral format.
 Two-electron integral symmetry is turned off.
 Leave Link  301 at Tue Dec  3 19:53:17 2024, MaxMem=   536870912 cpu:               0.3 elap:               0.0
 (Enter /home/szhao/Apps/g16/l302.exe)
 NPDir=0 NMtPBC=     1 NCelOv=     1 NCel=       1 NClECP=     1 NCelD=      1
         NCelK=      1 NCelE2=     1 NClLst=     1 CellRange=     0.0.
 One-electron integrals computed using PRISM.
 NBasis=    56 RedAO= T EigKep=  8.64D-06  NBF=    56
 NBsUse=    56 1.00D-06 EigRej= -1.00D+00 NBFU=    56
 Precomputing XC quadrature grid using
 IXCGrd= 4 IRadAn=           7 IRanWt=          -1 IRanGd=           0 AccXCQ= 0.00D+00.
 Generated NRdTot=       0 NPtTot=           0 NUsed=           0 NTot=          32
 NSgBfM=    58    58    58    58    58 MxSgAt=     4 MxSgA2=     4.
 Leave Link  302 at Tue Dec  3 19:53:17 2024, MaxMem=   536870912 cpu:               0.9 elap:               0.1
 (Enter /home/szhao/Apps/g16/l303.exe)
 DipDrv:  MaxL=1.
 Leave Link  303 at Tue Dec  3 19:53:18 2024, MaxMem=   536870912 cpu:               0.2 elap:               0.0
 (Enter /home/szhao/Apps/g16/l401.exe)
 Initial guess from the checkpoint file:  "opt.chk"
 B after Tr=     0.000000    0.000000    0.000000
         Rot=    0.999828   -0.018554   -0.000000    0.000000 Ang=  -2.13 deg.
 Guess basis will be translated and rotated to current coordinates.
 JPrj=2 DoOrth=T DoCkMO=T.
 Initial guess <Sx>= 0.0000 <Sy>= 0.0000 <Sz>= 0.0000 <S**2>=-0.0000 S=-0.0000
 Generating alternative initial guess.
 ExpMin= 4.38D-02 ExpMax= 4.56D+03 ExpMxC= 6.82D+02 IAcc=3 IRadAn=         5 AccDes= 0.00D+00
 Harris functional with IExCor= 1009 and IRadAn=       5 diagonalized for initial guess.
 HarFok:  IExCor= 1009 AccDes= 0.00D+00 IRadAn=         5 IDoV= 1 UseB2=F ITyADJ=14
 ICtDFT=  3500011 ScaDFX=  1.000000  1.000000  1.000000  1.000000
 FoFCou: FMM=F IPFlag=           0 FMFlag=      100000 FMFlg1=           0
         NFxFlg=           0 DoJE=T BraDBF=F KetDBF=T FulRan=T
         wScrn=  0.000000 ICntrl=       500 IOpCl=  0 I1Cent=   200000004 NGrid=           0
         NMat0=    1 NMatS0=      1 NMatT0=    0 NMatD0=    1 NMtDS0=    0 NMtDT0=    0
 Symmetry not used in FoFCou.
 Harris En= -76.8701068116285    
 Leave Link  401 at Tue Dec  3 19:53:18 2024, MaxMem=   536870912 cpu:               1.5 elap:               0.2
 (Enter /home/szhao/Apps/g16/l502.exe)
 Keep R1 and R2 ints in memory in canonical form, NReq=9624198.
 FoFCou: FMM=F IPFlag=           0 FMFlag=           0 FMFlg1=           0
         NFxFlg=           0 DoJE=F BraDBF=F KetDBF=F FulRan=T
         wScrn=  0.000000 ICntrl=       600 IOpCl=  0 I1Cent=           0 NGrid=           0
         NMat0=    1 NMatS0=   1596 NMatT0=    0 NMatD0=    1 NMtDS0=    0 NMtDT0=    0
 Symmetry not used in FoFCou.
 Two-electron integral symmetry not used.
 UHF open shell SCF:
 Using DIIS extrapolation, IDIIS=  1040.
 NGot=   536870912 LenX=   534314338 LenY=   534310533
 Requested convergence on RMS density matrix=1.00D-08 within 128 cycles.
 Requested convergence on MAX density matrix=1.00D-06.
 Requested convergence on             energy=1.00D-06.
 No special actions if energy rises.

 Cycle   1  Pass 1  IDiag  1:
 E= -76.5124107830341    
 DIIS: error= 2.07D-03 at cycle   1 NSaved=   1.
 NSaved= 1 IEnMin= 1 EnMin= -76.5124107830341     IErMin= 1 ErrMin= 2.07D-03
 ErrMax= 2.07D-03  0.00D+00 EMaxC= 1.00D-01 BMatC= 7.07D-04 BMatP= 7.07D-04
 IDIUse=3 WtCom= 9.79D-01 WtEn= 2.07D-02
 Coeff-Com:  0.100D+01
 Coeff-En:   0.100D+01
 Coeff:      0.100D+01
 Gap=     0.779 Goal=   None    Shift=    0.000
 Gap=     0.779 Goal=   None    Shift=    0.000
 GapD=    0.779 DampG=2.000 DampE=1.000 DampFc=2.0000 IDamp=-1.
 RMSDP=7.12D-04 MaxDP=6.69D-03              OVMax= 4.59D-03

 Cycle   2  Pass 1  IDiag  1:
 E= -76.5125319918681     Delta-E=       -0.000121208834 Rises=F Damp=F
 DIIS: error= 1.77D-04 at cycle   2 NSaved=   2.
 NSaved= 2 IEnMin= 2 EnMin= -76.5125319918681     IErMin= 2 ErrMin= 1.77D-04
 ErrMax= 1.77D-04  0.00D+00 EMaxC= 1.00D-01 BMatC= 7.83D-06 BMatP= 7.07D-04
 IDIUse=3 WtCom= 9.98D-01 WtEn= 1.77D-03
 Coeff-Com:  0.244D-01 0.976D+00
 Coeff-En:   0.000D+00 0.100D+01
 Coeff:      0.243D-01 0.976D+00
 Gap=     0.501 Goal=   None    Shift=    0.000
 Gap=     0.501 Goal=   None    Shift=    0.000
 RMSDP=7.10D-05 MaxDP=1.27D-03 DE=-1.21D-04 OVMax= 4.04D-04

 Cycle   3  Pass 1  IDiag  1:
 E= -76.5125334752218     Delta-E=       -0.000001483354 Rises=F Damp=F
 DIIS: error= 4.78D-05 at cycle   3 NSaved=   3.
 NSaved= 3 IEnMin= 3 EnMin= -76.5125334752218     IErMin= 3 ErrMin= 4.78D-05
 ErrMax= 4.78D-05  0.00D+00 EMaxC= 1.00D-01 BMatC= 2.91D-07 BMatP= 7.83D-06
 IDIUse=1 WtCom= 1.00D+00 WtEn= 0.00D+00
 Coeff-Com: -0.449D-02 0.436D-01 0.961D+00
 Coeff:     -0.449D-02 0.436D-01 0.961D+00
 Gap=     0.500 Goal=   None    Shift=    0.000
 Gap=     0.500 Goal=   None    Shift=    0.000
 RMSDP=3.58D-05 MaxDP=5.24D-04 DE=-1.48D-06 OVMax= 1.58D-04

 Cycle   4  Pass 1  IDiag  1:
 E= -76.5125335322277     Delta-E=       -0.000000057006 Rises=F Damp=F
 DIIS: error= 2.73D-05 at cycle   4 NSaved=   4.
 NSaved= 4 IEnMin= 4 EnMin= -76.5125335322277     IErMin= 4 ErrMin= 2.73D-05
 ErrMax= 2.73D-05  0.00D+00 EMaxC= 1.00D-01 BMatC= 8.94D-08 BMatP= 2.91D-07
 IDIUse=1 WtCom= 1.00D+00 WtEn= 0.00D+00
 Coeff-Com: -0.234D-02-0.132D-01 0.353D+00 0.663D+00
 Coeff:     -0.234D-02-0.132D-01 0.353D+00 0.663D+00
 Gap=     0.500 Goal=   None    Shift=    0.000
 Gap=     0.500 Goal=   None    Shift=    0.000
 RMSDP=5.26D-06 MaxDP=6.57D-05 DE=-5.70D-08 OVMax= 4.92D-05

 Cycle   5  Pass 1  IDiag  1:
 E= -76.5125335523304     Delta-E=       -0.000000020103 Rises=F Damp=F
 DIIS: error= 5.77D-06 at cycle   5 NSaved=   5.
 NSaved= 5 IEnMin= 5 EnMin= -76.5125335523304     IErMin= 5 ErrMin= 5.77D-06
 ErrMax= 5.77D-06  0.00D+00 EMaxC= 1.00D-01 BMatC= 2.29D-09 BMatP= 8.94D-08
 IDIUse=1 WtCom= 1.00D+00 WtEn= 0.00D+00
 Coeff-Com:  0.175D-03-0.784D-02-0.484D-01 0.699D-01 0.986D+00
 Coeff:      0.175D-03-0.784D-02-0.484D-01 0.699D-01 0.986D+00
 Gap=     0.500 Goal=   None    Shift=    0.000
 Gap=     0.500 Goal=   None    Shift=    0.000
 RMSDP=5.44D-06 MaxDP=9.92D-05 DE=-2.01D-08 OVMax= 1.14D-05

 Cycle   6  Pass 1  IDiag  1:
 E= -76.5125335528690     Delta-E=       -0.000000000539 Rises=F Damp=F
 DIIS: error= 1.85D-07 at cycle   6 NSaved=   6.
 NSaved= 6 IEnMin= 6 EnMin= -76.5125335528690     IErMin= 6 ErrMin= 1.85D-07
 ErrMax= 1.85D-07  0.00D+00 EMaxC= 1.00D-01 BMatC= 2.79D-12 BMatP= 2.29D-09
 IDIUse=1 WtCom= 1.00D+00 WtEn= 0.00D+00
 Coeff-Com:  0.908D-05 0.437D-03 0.886D-03-0.753D-02-0.504D-01 0.106D+01
 Coeff:      0.908D-05 0.437D-03 0.886D-03-0.753D-02-0.504D-01 0.106D+01
 Gap=     0.500 Goal=   None    Shift=    0.000
 Gap=     0.500 Goal=   None    Shift=    0.000
 RMSDP=4.42D-07 MaxDP=8.84D-06 DE=-5.39D-10 OVMax= 6.47D-07

 Cycle   7  Pass 1  IDiag  1:
 E= -76.5125335528707     Delta-E=       -0.000000000002 Rises=F Damp=F
 DIIS: error= 4.21D-08 at cycle   7 NSaved=   7.
 NSaved= 7 IEnMin= 7 EnMin= -76.5125335528707     IErMin= 7 ErrMin= 4.21D-08
 ErrMax= 4.21D-08  0.00D+00 EMaxC= 1.00D-01 BMatC= 1.56D-13 BMatP= 2.79D-12
[...]
 ErrMax= 2.17D-08  0.00D+00 EMaxC= 1.00D-01 BMatC= 3.87D-14 BMatP= 2.80D-11
 IDIUse=1 WtCom= 1.00D+00 WtEn= 0.00D+00
 Coeff-Com:  0.898D-05 0.465D-03 0.109D-02-0.597D-02-0.562D-01 0.106D+01
 Coeff:      0.898D-05 0.465D-03 0.109D-02-0.597D-02-0.562D-01 0.106D+01
 Gap=     0.500 Goal=   None    Shift=    0.000
 Gap=     0.500 Goal=   None    Shift=    0.000
 RMSDP=5.07D-08 MaxDP=1.00D-06 DE=-6.68D-12 OVMax= 7.60D-08

 Cycle   7  Pass 1  IDiag  1:
 E= -76.5125407249030     Delta-E=       -0.000000000000 Rises=F Damp=F
 DIIS: error= 5.05D-09 at cycle   7 NSaved=   7.
 NSaved= 7 IEnMin= 7 EnMin= -76.5125407249030     IErMin= 7 ErrMin= 5.05D-09
 ErrMax= 5.05D-09  0.00D+00 EMaxC= 1.00D-01 BMatC= 2.11D-15 BMatP= 3.87D-14
 IDIUse=1 WtCom= 1.00D+00 WtEn= 0.00D+00
 Coeff-Com: -0.343D-05 0.260D-04 0.164D-03-0.633D-03-0.507D-03-0.153D+00
 Coeff-Com:  0.115D+01
 Coeff:     -0.343D-05 0.260D-04 0.164D-03-0.633D-03-0.507D-03-0.153D+00
 Coeff:      0.115D+01
 Gap=     0.500 Goal=   None    Shift=    0.000
 Gap=     0.500 Goal=   None    Shift=    0.000
 RMSDP=2.99D-09 MaxDP=4.33D-08 DE=-1.14D-13 OVMax= 1.28D-08

 SCF Done:  E(UM062X) =  -76.5125407249     A.U. after    7 cycles
            NFock=  7  Conv=0.30D-08     -V/T= 1.9474
 <Sx>= 0.0000 <Sy>= 0.0000 <Sz>= 0.0000 <S**2>= 0.0000 S= 0.0000
 <L.S>=  0.00000000000    
 KE= 8.075937418701D+01 PE=-2.487540259961D+02 EE= 5.773286022913D+01
 Annihilation of the first spin contaminant:
 S**2 before annihilation     0.0000,   after    -0.0000
 Leave Link  502 at Tue Dec  3 19:53:24 2024, MaxMem=   536870912 cpu:              19.6 elap:               2.5
 (Enter /home/szhao/Apps/g16/l701.exe)
 ... and contract with generalized density number  0.
 Compute integral first derivatives.
 Leave Link  701 at Tue Dec  3 19:53:24 2024, MaxMem=   536870912 cpu:               0.7 elap:               0.1
 (Enter /home/szhao/Apps/g16/l702.exe)
 L702 exits ... SP integral derivatives will be done elsewhere.
 Leave Link  702 at Tue Dec  3 19:53:24 2024, MaxMem=   536870912 cpu:               0.3 elap:               0.0
 (Enter /home/szhao/Apps/g16/l703.exe)
 Integral derivatives from FoFJK, PRISM(SPDF).
 Compute integral first derivatives, UseDBF=F ICtDFT=           0.
 Calling FoFJK, ICntrl=      2127 FMM=F ISym2X=0 I1Cent= 0 IOpClX= 1 NMat=1 NMatS=1 NMatT=0.
 FoFJK:  IHMeth= 1 ICntrl=    2127 DoSepK=F KAlg= 0 I1Cent=           0 FoldK=F
 IRaf=         0 NMat=       1 IRICut=       1 DoRegI=T DoRafI=F ISym2E= 0 IDoP0=0 IntGTp=1.
 FoFCou: FMM=F IPFlag=           0 FMFlag=      100000 FMFlg1=         800
         NFxFlg=           0 DoJE=F BraDBF=F KetDBF=F FulRan=T
         wScrn=  0.000000 ICntrl=      2127 IOpCl=  1 I1Cent=           0 NGrid=           0
         NMat0=    1 NMatS0=      1 NMatT0=    0 NMatD0=    1 NMtDS0=    0 NMtDT0=    0
 Symmetry not used in FoFCou.
 Leave Link  703 at Tue Dec  3 19:53:25 2024, MaxMem=   536870912 cpu:               5.1 elap:               0.6
 (Enter /home/szhao/Apps/g16/l716.exe)
 Dipole        =-2.15455992D-07-3.35516277D-08-3.42273839D-08
 -------------------------------------------------------------------
 Center     Atomic                   Forces (Hartrees/Bohr)
 Number     Number              X              Y              Z
 -------------------------------------------------------------------
      1        6          -0.000000000   -0.000000000   -0.000000000
      2        6          -0.000000000   -0.000000000   -0.000000000
      3        1           0.000000247    0.000000007    0.000000007
      4        1           0.000001186    0.000000000    0.000000000
 -------------------------------------------------------------------
 Cartesian Forces:  Max     0.000001186 RMS     0.000000350
 Leave Link  716 at Tue Dec  3 19:53:25 2024, MaxMem=   536870912 cpu:               0.3 elap:               0.0
 (Enter /home/szhao/Apps/g16/l103.exe)

 GradGradGradGradGradGradGradGradGradGradGradGradGradGradGradGradGradGrad
 Berny optimization.
 Using GEDIIS/GDIIS optimizer.
 FormGI is forming the generalized inverse of G from B-inverse, IUseBI=4.
 Internal  Forces:  Max     0.000001186 RMS     0.000000495
 Search for a local minimum.
 Step number   5 out of a maximum of   22
 All quantities printed in internal units (Hartrees-Bohrs-Radians)
 RMS Force = .49466D-06 SwitMx=.10000D-02 MixMth= 2
 Mixed Optimization -- En-DIIS/RFO-DIIS
 Swapping is turned off.
 Update second derivatives using D2CorX and points    3    4    5
 DE= -7.17D-06 DEPred=-6.82D-06 R= 1.05D+00
 TightC=F SS=  1.41D+00  RLast= 5.92D-03 DXNew= 8.4853D-01 1.7758D-02
 Trust test= 1.05D+00 RLast= 5.92D-03 DXMaxT set to 5.05D-01
 The second derivative matrix:
                          X1        Y1        Z1        X2        Y2
           X1           0.70442
           Y1          -0.00000   0.50000
           Z1          -0.00000   0.00000   0.50000
           X2          -0.20438   0.00000   0.00000   0.70434
           Y2           0.00000  -0.00000  -0.00000  -0.00000   0.50000
           Z2           0.00000  -0.00000  -0.00000  -0.00000   0.00000
           R1          -0.20431   0.00000   0.00000   0.20428  -0.00000
           R2          -0.20448   0.00000   0.00000   0.20444  -0.00000
           A1           0.00000  -0.00000  -0.00000  -0.00000   0.00000
           A2           0.00000  -0.00000  -0.00000  -0.00000   0.00000
           A3          -0.00000   0.00000   0.00000   0.00000  -0.00000
           A4          -0.00000   0.00000   0.00000   0.00000  -0.00000
                          Z2        R1        R2        A1        A2
           Z2           0.50000
           R1          -0.00000   1.13809
           R2          -0.00000  -0.72948   1.13838
           A1           0.00000  -0.00000  -0.00000   0.05361
           A2           0.00000  -0.00000  -0.00000   0.00000   0.05361
           A3          -0.00000   0.00000   0.00000  -0.00000  -0.00000
           A4          -0.00000   0.00000   0.00000  -0.00000  -0.00000
                          A3        A4
           A3           0.05361
           A4           0.00000   0.05361
 ITU=  1  1  0  1  0
     Eigenvalues ---    0.05361   0.05361   0.05361   0.40876   1.86772
     Eigenvalues --- 1000.000001000.000001000.000001000.000001000.00000
     Eigenvalues --- 1000.000001000.00000
 En-DIIS/RFO-DIIS/Sim-DIIS IScMMF=       -3 using points:     5    4
 RFO step:  Lambda= 0.00000000D+00.
 NNeg= 0 NGDIIS= 2 SimSw=  2.50D-01 Rises=F DC= -7.17D-06 SmlDif=  1.00D-05
 NRisDI= 0 DoIntr=F SqrtH=F CThrHd= 10.0 CDAdj=  3.0
 RMS Error=  0.5070640919D-06 NUsed= 2 OKEnD=F EnDIS=F
 InvSVX:  RCond= 3.94D-05 Info=           0 Equed=N FErr=  8.88D-16 BErr=  4.03D-18
 DidBck=F Rises=F RFO-DIIS coefs:    0.99973    0.00027
 Iteration  1 RMS(Cart)=  0.00000054 RMS(Int)=  0.00000000
 ITry= 1 IFail=0 DXMaxC= 1.53D-06 DCOld= 1.00D+10 DXMaxT= 5.05D-01 DXLimC= 3.00D+00 Rises=F
 Variable       Old X    -DE/DX   Delta X   Delta X   Delta X     New X
                                 (Linear)    (Quad)   (Total)
    X1       -0.74648   0.00000  -0.00000   0.00000   0.00000  -0.74648
    Y1        0.00000   0.00000   0.00000   0.00000   0.00000   0.00000
    Z1        0.00000   0.00000   0.00000   0.00000   0.00000   0.00000
    X2        0.74648   0.00000   0.00000   0.00000   0.00000   0.74648
    Y2        0.00000  -0.00000   0.00000   0.00000   0.00000   0.00000
    Z2        0.00000  -0.00000   0.00000   0.00000   0.00000   0.00000
    R1        1.99543  -0.00000   0.00000  -0.00000   0.00000   1.99543
    R2        1.99543   0.00000   0.00000   0.00000   0.00000   1.99543
    A1        3.14159  -0.00000  -0.00000  -0.00000  -0.00000   3.14159
    A2        3.14159   0.00000  -0.00000   0.00000   0.00000   3.14159
    A3        3.14159   0.00000   0.00000   0.00000   0.00000   3.14159
    A4        3.14159  -0.00000   0.00000  -0.00000   0.00000   3.14159
         Item               Value     Threshold  Converged?
 Maximum Force            0.000001     0.000450     YES
 RMS     Force            0.000000     0.000300     YES
 Maximum Displacement     0.000002     0.001800     YES
 RMS     Displacement     0.000001     0.001200     YES
 Predicted change in Energy=-8.183282D-13
 Optimization completed.
    -- Stationary point found.
                           ----------------------------
                           !   Optimized Parameters   !
                           ! (Angstroms and Degrees)  !
 --------------------------                            --------------------------
 ! Name  Definition              Value          Derivative Info.                !
 --------------------------------------------------------------------------------
 ! X1    R(1,-1)                -0.395          -DE/DX =    0.0                 !
 ! Y1    R(1,-2)                 0.0            -DE/DX =    0.0                 !
 ! Z1    R(1,-3)                 0.0            -DE/DX =    0.0                 !
 ! X2    R(2,-1)                 0.395          -DE/DX =    0.0                 !
 ! Y2    R(2,-2)                 0.0            -DE/DX =    0.0                 !
 ! Z2    R(2,-3)                 0.0            -DE/DX =    0.0                 !
 ! R1    R(1,3)                  1.0559         -DE/DX =    0.0                 !
 ! R2    R(2,4)                  1.0559         -DE/DX =    0.0                 !
 ! A1    L(2,1,3,-2,-1)        180.0            -DE/DX =    0.0                 !
 ! A2    L(1,2,4,-2,-1)        180.0            -DE/DX =    0.0                 !
 ! A3    L(2,1,3,-3,-2)        180.0            -DE/DX =    0.0                 !
 ! A4    L(1,2,4,-3,-2)        180.0            -DE/DX =    0.0                 !
 --------------------------------------------------------------------------------
 Lowest energy point so far.  Saving SCF results.
 Largest change from initial coordinates is atom    4       0.353 Angstoms.
 GradGradGradGradGradGradGradGradGradGradGradGradGradGradGradGradGradGrad

 Leave Link  103 at Tue Dec  3 19:53:25 2024, MaxMem=   536870912 cpu:               0.0 elap:               0.0
 (Enter /home/szhao/Apps/g16/l202.exe)
                          Input orientation:                          
 ---------------------------------------------------------------------
 Center     Atomic      Atomic             Coordinates (Angstroms)
 Number     Number       Type             X           Y           Z
 ---------------------------------------------------------------------
      1          6           0       -0.395020    0.000000    0.000000
      2          6           0        0.395020    0.000000    0.000000
      3          1           0       -1.450957   -0.000000   -0.000000
      4          1           0        1.450955    0.000000    0.000000
 ---------------------------------------------------------------------
                    Distance matrix (angstroms):
                    1          2          3          4
     1  C    0.000000
     2  C    0.790040   0.000000
     3  H    1.055937   1.845977   0.000000
     4  H    1.845975   1.055935   2.901912   0.000000
 Symmetry turned off by external request.
 Stoichiometry    C2H2
 Framework group  C*V[C*(HCCH)]
 Deg. of freedom     3
 Full point group                 C*V     NOp   4
 Rotational constants (GHZ):           0.0000000          63.2634959          63.2634959
 Leave Link  202 at Tue Dec  3 19:53:25 2024, MaxMem=   536870912 cpu:               0.0 elap:               0.0
 (Enter /home/szhao/Apps/g16/l601.exe)
 Copying SCF densities to generalized density rwf, IOpCl= 1 IROHF=0.

 **********************************************************************

            Population analysis using the SCF density.

 **********************************************************************

 Alpha  occ. eigenvalues --  -10.51245 -10.42857  -0.87355  -0.57971  -0.54268
 Alpha  occ. eigenvalues --   -0.47064  -0.47064
 Alpha virt. eigenvalues --    0.02974   0.03802   0.06720   0.06720   0.08485
 Alpha virt. eigenvalues --    0.08485   0.10021   0.17148   0.23672   0.25252
 Alpha virt. eigenvalues --    0.26647   0.26647   0.44716   0.50341   0.50900
 Alpha virt. eigenvalues --    0.50900   0.71127   0.75751   0.81416   0.81416
 Alpha virt. eigenvalues --    0.88751   1.12200   1.19577   1.19577   1.26983
 Alpha virt. eigenvalues --    1.26983   1.67022   1.67022   1.71660   1.72171
 Alpha virt. eigenvalues --    1.84826   1.84826   2.17858   2.17858   2.47428
 Alpha virt. eigenvalues --    2.74401   2.81021   2.81021   2.95050   2.95204
 Alpha virt. eigenvalues --    2.97943   2.97943   3.19098   3.19098   3.44871
 Alpha virt. eigenvalues --    3.51011   5.31279  25.08843  25.60903
  Beta  occ. eigenvalues --  -10.51245 -10.42857  -0.87355  -0.57971  -0.54268
  Beta  occ. eigenvalues --   -0.47064  -0.47064
  Beta virt. eigenvalues --    0.02974   0.03802   0.06720   0.06720   0.08485
  Beta virt. eigenvalues --    0.08485   0.10021   0.17148   0.23672   0.25252
  Beta virt. eigenvalues --    0.26647   0.26647   0.44716   0.50341   0.50900
  Beta virt. eigenvalues --    0.50900   0.71127   0.75751   0.81416   0.81416
  Beta virt. eigenvalues --    0.88751   1.12200   1.19577   1.19577   1.26983
  Beta virt. eigenvalues --    1.26983   1.67022   1.67022   1.71660   1.72171
  Beta virt. eigenvalues --    1.84826   1.84826   2.17858   2.17858   2.47428
  Beta virt. eigenvalues --    2.74401   2.81021   2.81021   2.95050   2.95204
  Beta virt. eigenvalues --    2.97943   2.97943   3.19098   3.19098   3.44871
  Beta virt. eigenvalues --    3.51011   5.31279  25.08843  25.60903
          Condensed to atoms (all electrons):
               1          2          3          4
     1  C    5.060566   0.642095   0.294213   0.094681
     2  C    0.642095   5.060561   0.094683   0.294215
     3  H    0.294213   0.094683   0.521274  -0.001725
     4  H    0.094681   0.294215  -0.001725   0.521275
          Atomic-Atomic Spin Densities.
               1          2          3          4
     1  C   -0.000000   0.000000   0.000000   0.000000
     2  C    0.000000  -0.000000  -0.000000  -0.000000
     3  H    0.000000  -0.000000  -0.000000   0.000000
     4  H    0.000000  -0.000000   0.000000  -0.000000
 Mulliken charges and spin densities:
               1          2
     1  C   -0.091554   0.000000
     2  C   -0.091555  -0.000000
     3  H    0.091555  -0.000000
     4  H    0.091554  -0.000000
 Sum of Mulliken charges =   0.00000  -0.00000
 Mulliken charges and spin densities with hydrogens summed into heavy atoms:
               1          2
     1  C    0.000000   0.000000
     2  C   -0.000000  -0.000000
 Electronic spatial extent (au):  <R**2>=             44.8289
 Charge=              0.0000 electrons
 Dipole moment (field-independent basis, Debye):
    X=             -0.0000    Y=             -0.0000    Z=             -0.0000  Tot=              0.0000
 Quadrupole moment (field-independent basis, Debye-Ang):
   XX=             -8.0652   YY=            -11.5066   ZZ=            -11.5066
   XY=              0.0000   XZ=              0.0000   YZ=              0.0000
 Traceless Quadrupole moment (field-independent basis, Debye-Ang):
   XX=              2.2943   YY=             -1.1471   ZZ=             -1.1471
   XY=              0.0000   XZ=              0.0000   YZ=              0.0000
 Octapole moment (field-independent basis, Debye-Ang**2):
  XXX=             -0.0000  YYY=              0.0000  ZZZ=              0.0000  XYY=              0.0000
  XXY=             -0.0000  XXZ=             -0.0000  XZZ=              0.0000  YZZ=              0.0000
  YYZ=              0.0000  XYZ=             -0.0000
 Hexadecapole moment (field-independent basis, Debye-Ang**3):
 XXXX=            -29.2215 YYYY=            -11.0911 ZZZZ=            -11.0911 XXXY=              0.0000
 XXXZ=              0.0000 YYYX=             -0.0000 YYYZ=             -0.0000 ZZZX=             -0.0000
 ZZZY=             -0.0000 XXYY=             -8.3055 XXZZ=             -8.3055 YYZZ=             -3.6970
 XXYZ=              0.0000 YYXZ=             -0.0000 ZZXY=             -0.0000
 N-N= 3.374925085502D+01 E-N=-2.487540258618D+02  KE= 8.075937418701D+01
                          Isotropic Fermi Contact Couplings
        Atom                 a.u.       MegaHertz       Gauss      10(-4) cm-1
     1  C(13)             -0.00000      -0.00000      -0.00000      -0.00000
     2  C(13)              0.00000       0.00000       0.00000       0.00000
     3  H(1)               0.00000       0.00000       0.00000       0.00000
     4  H(1)               0.00000       0.00000       0.00000       0.00000
 --------------------------------------------------------
       Center         ----  Spin Dipole Couplings  ----
                      3XX-RR        3YY-RR        3ZZ-RR
 --------------------------------------------------------
     1   Atom       -0.000000      0.000000      0.000000
     2   Atom        0.000000     -0.000000     -0.000000
     3   Atom       -0.000000      0.000000      0.000000
     4   Atom       -0.000000      0.000000      0.000000
 --------------------------------------------------------
                        XY            XZ            YZ
 --------------------------------------------------------
     1   Atom       -0.000000      0.000000      0.000000
     2   Atom       -0.000000     -0.000000     -0.000000
     3   Atom        0.000000     -0.000000     -0.000000
     4   Atom        0.000000     -0.000000      0.000000
 --------------------------------------------------------


 ---------------------------------------------------------------------------------
              Anisotropic Spin Dipole Couplings in Principal Axis System
 ---------------------------------------------------------------------------------

       Atom             a.u.   MegaHertz   Gauss  10(-4) cm-1        Axes

              Baa    -0.0000    -0.000    -0.000    -0.000  0.9997  0.0140 -0.0213
     1 C(13)  Bbb     0.0000     0.000     0.000     0.000  0.0211  0.0122  0.9997
              Bcc     0.0000     0.000     0.000     0.000 -0.0143  0.9998 -0.0119
 
              Baa    -0.0000    -0.000    -0.000    -0.000  0.0069  0.0040  1.0000
     2 C(13)  Bbb    -0.0000    -0.000    -0.000    -0.000  0.0505  0.9987 -0.0043
              Bcc     0.0000     0.000     0.000     0.000  0.9987 -0.0505 -0.0067
 
              Baa    -0.0000    -0.000    -0.000    -0.000  0.9999 -0.0069  0.0074
     3 H(1)   Bbb     0.0000     0.000     0.000     0.000 -0.0057  0.2276  0.9737
              Bcc     0.0000     0.000     0.000     0.000  0.0084  0.9737 -0.2276
 
              Baa    -0.0000    -0.000    -0.000    -0.000  0.9998 -0.0180  0.0121
     4 H(1)   Bbb     0.0000     0.000     0.000     0.000  0.0178  0.9997  0.0178
              Bcc     0.0000     0.000     0.000     0.000 -0.0124 -0.0176  0.9998
 

 ---------------------------------------------------------------------------------

 No NMR shielding tensors so no spin-rotation constants.
 Leave Link  601 at Tue Dec  3 19:53:25 2024, MaxMem=   536870912 cpu:               1.2 elap:               0.1
 (Enter /home/szhao/Apps/g16/l9999.exe)
 1\1\GINC-NODE01\FOpt\UM062X\6-311+G(d,p)\C2H2\SZHAO\03-Dec-2024\0\\#p 
 opt UM062X/6-311+G** nosymm int=superfine\\Title Card Required\\0,1\C,
 -0.39502023,0.,0.\C,0.39502023,0.,0.\H,-1.4509568509,-0.0000001087,-0.
 0000001087\H,1.450954995,0.0000000032,0.000000001\\Version=ES64L-G16Re
 vA.03\HF=-76.5125407\S2=0.\S2-1=0.\S2A=0.\RMSD=2.994e-09\RMSF=3.497e-0
 7\Dipole=-0.0000002,0.,0.\Quadrupole=1.7057448,-0.8528724,-0.8528724,0
 .0000001,0.0000001,0.\PG=C*V [C*(H1C1C1H1)]\\@


 HOW IS IT THAT THE SKY FEEDS THE STARS?

                           -- LUCRETIUS
 Job cpu time:       0 days  0 hours  2 minutes 50.8 seconds.
 Elapsed time:       0 days  0 hours  0 minutes 21.7 seconds.
 File lengths (MBytes):  RWF=      6 Int=      0 D2E=      0 Chk=      1 Scr=      1
 Normal termination of Gaussian 16 at Tue Dec  3 19:53:25 2024.
