unknown system                          
           1
     2.461000    0.000000    0.000000
    -1.230000    2.131000    0.000000
     0.000000    0.000000    6.800000
   C 
     4
Direct configuration=     1
   0.00000000  0.00000000  0.00000000
   0.66631760  0.33317691  0.00000000
   0.00000000  0.00000000  0.50000000
   0.66631760  0.33317691  0.50000000
unknown system                          
           1
     2.477984   -0.000207    0.000000
    -1.238667    2.146086    0.000000
     0.000000    0.000000    6.836296
   C 
     4
Direct configuration=     2
  -0.00085944 -0.00038104  0.00000000
   0.66717703  0.33355796 -0.00000000
  -0.00085944 -0.00038104  0.50000000
   0.66717703  0.33355796  0.50000000
unknown system                          
           1
     2.467124   -0.000075    0.000000
    -1.233125    2.136440    0.000000
     0.000000    0.000000    6.813087
   C 
     4
Direct configuration=     3
  -0.00031363 -0.00013905  0.00000000
   0.66663123  0.33331597 -0.00000000
  -0.00031363 -0.00013905  0.50000000
   0.66663123  0.33331597  0.50000000
unknown system                          
           1
     2.467087   -0.000944    0.000000
    -1.233860    2.137618    0.000000
     0.000000    0.000000    6.852740
   C 
     4
Direct configuration=     4
   0.00016397  0.00006930  0.00000000
   0.66615362  0.33310761 -0.00000000
   0.00016397  0.00006930  0.50000000
   0.66615362  0.33310761  0.50000000
unknown system                          
           1
     2.467029   -0.002304    0.000000
    -1.235008    2.139461    0.000000
     0.000000    0.000000    6.914722
   C 
     4
Direct configuration=     5
   0.00091069  0.00039512  0.00000000
   0.66540691  0.33278180 -0.00000000
   0.00091069  0.00039512  0.50000000
   0.66540691  0.33278180  0.50000000
unknown system                          
           1
     2.466950   -0.002262    0.000000
    -1.234933    2.139338    0.000000
     0.000000    0.000000    6.922498
   C 
     4
Direct configuration=     6
   0.00084421  0.00036564  0.00000000
   0.66547339  0.33281127 -0.00000000
   0.00084421  0.00036564  0.50000000
   0.66547339  0.33281127  0.50000000
unknown system                          
           1
     2.466713   -0.002138    0.000000
    -1.234706    2.138971    0.000000
     0.000000    0.000000    6.945829
   C 
     4
Direct configuration=     7
   0.00064477  0.00027722  0.00000000
   0.66567283  0.33289970 -0.00000000
   0.00064477  0.00027722  0.50000000
   0.66567283  0.33289970  0.50000000
unknown system                          
           1
     2.466239   -0.001888    0.000000
    -1.234253    2.138235    0.000000
     0.000000    0.000000    6.992489
   C 
     4
Direct configuration=     8
   0.00024586  0.00010036  0.00000000
   0.66607174  0.33307655  0.00000000
   0.00024586  0.00010036  0.50000000
   0.66607174  0.33307655  0.50000000
unknown system                          
           1
     2.465292   -0.001389    0.000000
    -1.233348    2.136764    0.000000
     0.000000    0.000000    7.085811
   C 
     4
Direct configuration=     9
  -0.00055206 -0.00025338  0.00000000
   0.66686965  0.33343029  0.00000000
  -0.00055206 -0.00025338  0.50000000
   0.66686965  0.33343029  0.50000000
unknown system                          
           1
     2.465370   -0.001429    0.000000
    -1.233422    2.136884    0.000000
     0.000000    0.000000    7.078193
   C 
     4
Direct configuration=    10
  -0.00048690 -0.00022450  0.00000000
   0.66680450  0.33340141  0.00000000
  -0.00048690 -0.00022450  0.50000000
   0.66680450  0.33340141  0.50000000
unknown system                          
           1
     2.465542   -0.001153    0.000000
    -1.233269    2.136631    0.000000
     0.000000    0.000000    7.085883
   C 
     4
Direct configuration=    11
  -0.00038432 -0.00017556  0.00000000
   0.66670191  0.33335248  0.00000000
  -0.00038432 -0.00017556  0.50000000
   0.66670191  0.33335248  0.50000000
unknown system                          
           1
     2.465924   -0.000542    0.000000
    -1.232930    2.136071    0.000000
     0.000000    0.000000    7.102892
   C 
     4
Direct configuration=    12
  -0.00015743 -0.00006734  0.00000000
   0.66647502  0.33324425  0.00000000
  -0.00015743 -0.00006734  0.50000000
   0.66647502  0.33324425  0.50000000
unknown system                          
           1
     2.466153   -0.000397    0.000000
    -1.232919    2.136052    0.000000
     0.000000    0.000000    7.103618
   C 
     4
Direct configuration=    13
  -0.00017542 -0.00007862  0.00000000
   0.66649301  0.33325553  0.00000000
  -0.00017542 -0.00007862  0.50000000
   0.66649301  0.33325553  0.50000000
unknown system                          
           1
     2.466390   -0.000247    0.000000
    -1.232908    2.136033    0.000000
     0.000000    0.000000    7.104370
   C 
     4
Direct configuration=    14
  -0.00019407 -0.00009032  0.00000000
   0.66651167  0.33326723  0.00000000
  -0.00019407 -0.00009032  0.50000000
   0.66651167  0.33326723  0.50000000
unknown system                          
           1
     2.466271   -0.000322    0.000000
    -1.232914    2.136043    0.000000
     0.000000    0.000000    7.103993
   C 
     4
Direct configuration=    15
  -0.00018471 -0.00008445  0.00000000
   0.66650231  0.33326136  0.00000000
  -0.00018471 -0.00008445  0.50000000
   0.66650231  0.33326136  0.50000000
unknown system                          
           1
     2.466293   -0.000307    0.000000
    -1.232911    2.136043    0.000000
     0.000000    0.000000    7.103986
   C 
     4
Direct configuration=    16
  -0.00017649 -0.00007914  0.00000000
   0.66649409  0.33325605  0.00000000
  -0.00017649 -0.00007914  0.50000000
   0.66649409  0.33325605  0.50000000
unknown system                          
           1
     2.466299   -0.000303    0.000000
    -1.232911    2.136043    0.000000
     0.000000    0.000000    7.103984
   C 
     4
Direct configuration=    17
  -0.00017440 -0.00007779  0.00000000
   0.66649200  0.33325470  0.00000000
  -0.00017440 -0.00007779  0.50000000
   0.66649200  0.33325470  0.50000000
unknown system                          
           1
     2.466303   -0.000295    0.000000
    -1.232906    2.136034    0.000000
     0.000000    0.000000    7.103953
   C 
     4
Direct configuration=    18
  -0.00017454 -0.00007813  0.00000000
   0.66649214  0.33325505  0.00000000
  -0.00017454 -0.00007813  0.50000000
   0.66649214  0.33325505  0.50000000
unknown system                          
           1
     2.466310   -0.000282    0.000000
    -1.232898    2.136020    0.000000
     0.000000    0.000000    7.103904
   C 
     4
Direct configuration=    19
  -0.00017477 -0.00007868  0.00000000
   0.66649236  0.33325559  0.00000000
  -0.00017477 -0.00007868  0.50000000
   0.66649236  0.33325559  0.50000000
unknown system                          
           1
     2.466309   -0.000281    0.000000
    -1.232896    2.136018    0.000000
     0.000000    0.000000    7.103842
   C 
     4
Direct configuration=    20
  -0.00017398 -0.00007798  0.00000000
   0.66649157  0.33325489  0.00000000
  -0.00017398 -0.00007798  0.50000000
   0.66649157  0.33325489  0.50000000
unknown system                          
           1
     2.466304   -0.000278    0.000000
    -1.232891    2.136011    0.000000
     0.000000    0.000000    7.103658
   C 
     4
Direct configuration=    21
  -0.00017160 -0.00007587  0.00000000
   0.66648920  0.33325278  0.00000000
  -0.00017160 -0.00007587  0.50000000
   0.66648920  0.33325278  0.50000000
unknown system                          
           1
     2.466294   -0.000271    0.000000
    -1.232881    2.135999    0.000000
     0.000000    0.000000    7.103289
   C 
     4
Direct configuration=    22
  -0.00016685 -0.00007165  0.00000000
   0.66648444  0.33324856  0.00000000
  -0.00016685 -0.00007165  0.50000000
   0.66648444  0.33324856  0.50000000
unknown system                          
           1
     2.466300   -0.000275    0.000000
    -1.232887    2.136006    0.000000
     0.000000    0.000000    7.103507
   C 
     4
Direct configuration=    23
  -0.00016966 -0.00007414  0.00000000
   0.66648725  0.33325105  0.00000000
  -0.00016966 -0.00007414  0.50000000
   0.66648725  0.33325105  0.50000000
unknown system                          
           1
     2.466300   -0.000275    0.000000
    -1.232887    2.136006    0.000000
     0.000000    0.000000    7.103483
   C 
     4
Direct configuration=    24
  -0.00016977 -0.00007426  0.00000000
   0.66648737  0.33325117  0.00000000
  -0.00016977 -0.00007426  0.50000000
   0.66648737  0.33325117  0.50000000
unknown system                          
           1
     2.466300   -0.000275    0.000000
    -1.232887    2.136006    0.000000
     0.000000    0.000000    7.103412
   C 
     4
Direct configuration=    25
  -0.00017013 -0.00007459  0.00000000
   0.66648772  0.33325151  0.00000000
  -0.00017013 -0.00007459  0.50000000
   0.66648772  0.33325151  0.50000000
unknown system                          
           1
     2.466299   -0.000276    0.000000
    -1.232887    2.136006    0.000000
     0.000000    0.000000    7.103271
   C 
     4
Direct configuration=    26
  -0.00017083 -0.00007527  0.00000000
   0.66648843  0.33325218  0.00000000
  -0.00017083 -0.00007527  0.50000000
   0.66648843  0.33325218  0.50000000
unknown system                          
           1
     2.466299   -0.000277    0.000000
    -1.232888    2.136006    0.000000
     0.000000    0.000000    7.102988
   C 
     4
Direct configuration=    27
  -0.00017224 -0.00007662  0.00000000
   0.66648984  0.33325354  0.00000000
  -0.00017224 -0.00007662  0.50000000
   0.66648984  0.33325354  0.50000000
unknown system                          
           1
     2.466298   -0.000279    0.000000
    -1.232890    2.136005    0.000000
     0.000000    0.000000    7.102421
   C 
     4
Direct configuration=    28
  -0.00017507 -0.00007933  0.00000000
   0.66649266  0.33325624  0.00000000
  -0.00017507 -0.00007933  0.50000000
   0.66649266  0.33325624  0.50000000
unknown system                          
           1
     2.466298   -0.000278    0.000000
    -1.232889    2.136005    0.000000
     0.000000    0.000000    7.102634
   C 
     4
Direct configuration=    29
  -0.00017401 -0.00007831  0.00000000
   0.66649161  0.33325523  0.00000000
  -0.00017401 -0.00007831  0.50000000
   0.66649161  0.33325523  0.50000000
unknown system                          
           1
     2.466298   -0.000279    0.000000
    -1.232890    2.136005    0.000000
     0.000000    0.000000    7.102505
   C 
     4
Direct configuration=    30
  -0.00017465 -0.00007893  0.00000000
   0.66649225  0.33325584  0.00000000
  -0.00017465 -0.00007893  0.50000000
   0.66649225  0.33325584  0.50000000
unknown system                          
           1
     2.466298   -0.000279    0.000000
    -1.232889    2.136005    0.000000
     0.000000    0.000000    7.102569
   C 
     4
Direct configuration=    31
  -0.00017433 -0.00007862  0.00000000
   0.66649193  0.33325553  0.00000000
  -0.00017433 -0.00007862  0.50000000
   0.66649193  0.33325553  0.50000000
unknown system                          
           1
     2.466298   -0.000279    0.000000
    -1.232889    2.136005    0.000000
     0.000000    0.000000    7.102555
   C 
     4
Direct configuration=    32
  -0.00017440 -0.00007869  0.00000000
   0.66649200  0.33325560  0.00000000
  -0.00017440 -0.00007869  0.50000000
   0.66649200  0.33325560  0.50000000
unknown system                          
           1
     2.466301   -0.000283    0.000000
    -1.232894    2.136015    0.000000
     0.000000    0.000000    7.102520
   C 
     4
Direct configuration=    33
  -0.00017424 -0.00007823  0.00000000
   0.66649183  0.33325514  0.00000000
  -0.00017424 -0.00007823  0.50000000
   0.66649183  0.33325514  0.50000000
unknown system                          
           1
     2.466303   -0.000287    0.000000
    -1.232899    2.136023    0.000000
     0.000000    0.000000    7.102489
   C 
     4
Direct configuration=    34
  -0.00017409 -0.00007782  0.00000000
   0.66649169  0.33325473  0.00000000
  -0.00017409 -0.00007782  0.50000000
   0.66649169  0.33325473  0.50000000
