 Entering Gaussian System, Link 0=g16
 Initial command:
 /home/szhao/Apps/g16/l1.exe "/home/szhao/tmp/Gau-76793.inp" -scrdir="/home/szhao/tmp/"
 Default is to use a total of  16 processors:
                               16 via shared-memory
                                1 via Linda
 Entering Link 1 = /home/szhao/Apps/g16/l1.exe PID=     76795.
  
 Copyright (c) 1988,1990,1992,1993,1995,1998,2003,2009,2016,
            Gaussian, Inc.  All Rights Reserved.
  
 This is part of the Gaussian(R) 16 program.  It is based on
 the Gaussian(R) 09 system (copyright 2009, Gaussian, Inc.),
 the Gaussian(R) 03 system (copyright 2003, Gaussian, Inc.),
 the Gaussian(R) 98 system (copyright 1998, Gaussian, Inc.),
 the Gaussian(R) 94 system (copyright 1995, Gaussian, Inc.),
 the Gaussian 92(TM) system (copyright 1992, Gaussian, Inc.),
 the Gaussian 90(TM) system (copyright 1990, Gaussian, Inc.),
 the Gaussian 88(TM) system (copyright 1988, Gaussian, Inc.),
 the Gaussian 86(TM) system (copyright 1986, Carnegie Mellon
 University), and the Gaussian 82(TM) system (copyright 1983,
 Carnegie Mellon University). Gaussian is a federally registered
 trademark of Gaussian, Inc.
  
 This software contains proprietary and confidential information,
 including trade secrets, belonging to Gaussian, Inc.
  
 This software is provided under written license and may be
 used, copied, transmitted, or stored only in accord with that
 written license.
  
 The following legend is applicable only to US Government
 contracts under FAR:
  
                    RESTRICTED RIGHTS LEGEND
  
 Use, reproduction and disclosure by the US Government is
 subject to restrictions as set forth in subparagraphs (a)
 and (c) of the Commercial Computer Software - Restricted
 Rights clause in FAR 52.227-19.
  
 Gaussian, Inc.
 340 Quinnipiac St., Bldg. 40, Wallingford CT 06492
  
  
 ---------------------------------------------------------------
 Warning -- This program may not be used in any manner that
 competes with the business of Gaussian, Inc. or will provide
 assistance to any competitor of Gaussian, Inc.  The licensee
 of this program is prohibited from giving any competitor of
 Gaussian, Inc. access to this program.  By using this program,
 the user acknowledges that Gaussian, Inc. is engaged in the
 business of creating and licensing software in the field of
 computational chemistry and represents and warrants to the
 licensee that it is not a competitor of Gaussian, Inc. and that
 it will not use this program in any manner prohibited above.
 ---------------------------------------------------------------
  

 Cite this work as:
 Gaussian 16, Revision A.03,
 M. J. Frisch, G. W. Trucks, H. B. Schlegel, G. E. Scuseria, 
 M. A. Robb, J. R. Cheeseman, G. Scalmani, V. Barone, 
 G. A. Petersson, H. Nakatsuji, X. Li, M. Caricato, A. V. Marenich, 
 J. Bloino, B. G. Janesko, R. Gomperts, B. Mennucci, H. P. Hratchian, 
 J. V. Ortiz, A. F. Izmaylov, J. L. Sonnenberg, D. Williams-Young, 
 F. Ding, F. Lipparini, F. Egidi, J. Goings, B. Peng, A. Petrone, 
 T. Henderson, D. Ranasinghe, V. G. Zakrzewski, J. Gao, N. Rega, 
 G. Zheng, W. Liang, M. Hada, M. Ehara, K. Toyota, R. Fukuda, 
 J. Hasegawa, M. Ishida, T. Nakajima, Y. Honda, O. Kitao, H. Nakai, 
 T. Vreven, K. Throssell, J. A. Montgomery, Jr., J. E. Peralta, 
 F. Ogliaro, M. J. Bearpark, J. J. Heyd, E. N. Brothers, K. N. Kudin, 
 V. N. Staroverov, T. A. Keith, R. Kobayashi, J. Normand, 
 K. Raghavachari, A. P. Rendell, J. C. Burant, S. S. Iyengar, 
 J. Tomasi, M. Cossi, J. M. Millam, M. Klene, C. Adamo, R. Cammi, 
 J. W. Ochterski, R. L. Martin, K. Morokuma, O. Farkas, 
 J. B. Foresman, and D. J. Fox, Gaussian, Inc., Wallingford CT, 2016.
 
 ******************************************
 Gaussian 16:  ES64L-G16RevA.03 25-Dec-2016
                19-Nov-2024 
 ******************************************
 %chk=opt.chk
 %mem=4GB
 %nprocshared=8
 Will use up to    8 processors via shared memory.
 ---------------------------------------
 #p UM062X/6-311+G** force int=superfine
 ---------------------------------------
 1/10=7,30=1,38=1/1,3;
 2/12=2,17=6,18=5,40=1/2;
 3/5=4,6=6,7=111,11=2,25=1,30=1,71=1,74=-55,75=-7,116=2/1,2,3;
 4//1;
 5/5=2,38=5/2;
 6/7=2,8=2,9=2,10=2,28=1/1;
 7/29=1/1,2,3,16;
 1/10=7,30=1/3;
 99//99;
 Leave Link    1 at Tue Nov 19 11:56:02 2024, MaxMem=   536870912 cpu:               0.3 elap:               0.0
 (Enter /home/szhao/Apps/g16/l101.exe)
 -------------------
 Title Card Required
 -------------------
 Symbolic Z-matrix:
 Charge =  1 Multiplicity = 2
 C                    -0.96137   0.        0. 
 C                     0.96137   0.        0. 
 H                    -1.43627  -0.97502   0. 
 H                    -1.43631   0.97492   0. 
 H                     1.43627   0.97502   0. 
 H                     1.43631  -0.97492   0. 
 
 ITRead=  0  0  0  0  0  0
 MicOpt= -1 -1 -1 -1 -1 -1
 NAtoms=      6 NQM=        6 NQMF=       0 NMMI=      0 NMMIF=      0
                NMic=       0 NMicF=      0.
                    Isotopes and Nuclear Properties:
 (Nuclear quadrupole moments (NQMom) in fm**2, nuclear magnetic moments (NMagM)
  in nuclear magnetons)

  Atom         1           2           3           4           5           6
 IAtWgt=          12          12           1           1           1           1
 AtmWgt=  12.0000000  12.0000000   1.0078250   1.0078250   1.0078250   1.0078250
 NucSpn=           0           0           1           1           1           1
 AtZEff=  -0.0000000  -0.0000000  -0.0000000  -0.0000000  -0.0000000  -0.0000000
 NQMom=    0.0000000   0.0000000   0.0000000   0.0000000   0.0000000   0.0000000
 NMagM=    0.0000000   0.0000000   2.7928460   2.7928460   2.7928460   2.7928460
 AtZNuc=   6.0000000   6.0000000   1.0000000   1.0000000   1.0000000   1.0000000
 Leave Link  101 at Tue Nov 19 11:56:03 2024, MaxMem=   536870912 cpu:               1.3 elap:               0.2
 (Enter /home/szhao/Apps/g16/l103.exe)

 GradGradGradGradGradGradGradGradGradGradGradGradGradGradGradGradGradGrad
 Berny optimization.
 Initialization pass.
 Trust Radius=3.00D-01 FncErr=1.00D-07 GrdErr=1.00D-07 EigMax=2.50D+02 EigMin=1.00D-04
 Number of steps in this run=      2 maximum allowed number of steps=      2.
 GradGradGradGradGradGradGradGradGradGradGradGradGradGradGradGradGradGrad

 Leave Link  103 at Tue Nov 19 11:56:03 2024, MaxMem=   536870912 cpu:               0.1 elap:               0.0
 (Enter /home/szhao/Apps/g16/l202.exe)
                          Input orientation:                          
 ---------------------------------------------------------------------
 Center     Atomic      Atomic             Coordinates (Angstroms)
 Number     Number       Type             X           Y           Z
 ---------------------------------------------------------------------
      1          6           0       -0.961373    0.000000    0.000000
      2          6           0        0.961373    0.000000    0.000000
      3          1           0       -1.436271   -0.975020    0.000000
      4          1           0       -1.436313    0.974920    0.000000
      5          1           0        1.436271    0.975020    0.000000
      6          1           0        1.436313   -0.974920    0.000000
 ---------------------------------------------------------------------
                    Distance matrix (angstroms):
                    1          2          3          4          5
     1  C    0.000000
     2  C    1.922746   0.000000
     3  H    1.084524   2.588312   0.000000
     4  H    1.084452   2.588314   1.949940   0.000000
     5  H    2.588312   1.084524   3.471909   2.872584   0.000000
     6  H    2.588314   1.084452   2.872584   3.471866   1.949940
                    6
     6  H    0.000000
 Stoichiometry    C2H4(1+,2)
 Framework group  C2H[SGH(C2H4)]
 Deg. of freedom     5
 Full point group                 C2H     NOp   4
 Largest Abelian subgroup         C2H     NOp   4
 Largest concise Abelian subgroup C2      NOp   2
                         Standard orientation:                         
 ---------------------------------------------------------------------
 Center     Atomic      Atomic             Coordinates (Angstroms)
 Number     Number       Type             X           Y           Z
 ---------------------------------------------------------------------
      1          6           0        0.000000    0.961373    0.000000
      2          6           0       -0.000000   -0.961373    0.000000
      3          1           0        0.975020    1.436271    0.000000
      4          1           0       -0.974920    1.436313   -0.000000
      5          1           0       -0.975020   -1.436271    0.000000
      6          1           0        0.974920   -1.436313   -0.000000
 ---------------------------------------------------------------------
 Rotational constants (GHZ):         131.8832251          16.5708782          14.7211886
 Leave Link  202 at Tue Nov 19 11:56:03 2024, MaxMem=   536870912 cpu:               0.0 elap:               0.0
 (Enter /home/szhao/Apps/g16/l301.exe)
 Standard basis: 6-311+G(d,p) (5D, 7F)
 Ernie: Thresh=  0.10000D-02 Tol=  0.10000D-05 Strict=F.
 There are    27 symmetry adapted cartesian basis functions of AG  symmetry.
 There are     8 symmetry adapted cartesian basis functions of BG  symmetry.
 There are     8 symmetry adapted cartesian basis functions of AU  symmetry.
 There are    27 symmetry adapted cartesian basis functions of BU  symmetry.
 There are    26 symmetry adapted basis functions of AG  symmetry.
 There are     8 symmetry adapted basis functions of BG  symmetry.
 There are     8 symmetry adapted basis functions of AU  symmetry.
 There are    26 symmetry adapted basis functions of BU  symmetry.
    68 basis functions,   104 primitive gaussians,    70 cartesian basis functions
     8 alpha electrons        7 beta electrons
       nuclear repulsion energy        27.7415288581 Hartrees.
 IExCor= 4336 DFT=T Ex+Corr=M062X ExCW=0 ScaHFX=  0.540000
 ScaDFX=  1.000000  1.000000  1.000000  1.000000 ScalE2=  1.000000  1.000000
 IRadAn=      7 IRanWt=     -1 IRanGd=            0 ICorTp=0 IEmpDi=  4
 NAtoms=    6 NActive=    6 NUniq=    3 SFac= 4.00D+00 NAtFMM=   60 NAOKFM=F Big=F
 Integral buffers will be    131072 words long.
 Raffenetti 2 integral format.
 Two-electron integral symmetry is turned on.
 Leave Link  301 at Tue Nov 19 11:56:03 2024, MaxMem=   536870912 cpu:               0.3 elap:               0.0
 (Enter /home/szhao/Apps/g16/l302.exe)
 NPDir=0 NMtPBC=     1 NCelOv=     1 NCel=       1 NClECP=     1 NCelD=      1
         NCelK=      1 NCelE2=     1 NClLst=     1 CellRange=     0.0.
 One-electron integrals computed using PRISM.
 One-electron integral symmetry used in STVInt
 NBasis=    68 RedAO= T EigKep=  1.08D-03  NBF=    26     8     8    26
 NBsUse=    68 1.00D-06 EigRej= -1.00D+00 NBFU=    26     8     8    26
 Precomputing XC quadrature grid using
 IXCGrd= 4 IRadAn=           7 IRanWt=          -1 IRanGd=           0 AccXCQ= 0.00D+00.
 Generated NRdTot=       0 NPtTot=           0 NUsed=           0 NTot=          32
 NSgBfM=    70    70    70    70    70 MxSgAt=     6 MxSgA2=     6.
 Leave Link  302 at Tue Nov 19 11:56:03 2024, MaxMem=   536870912 cpu:               1.0 elap:               0.1
 (Enter /home/szhao/Apps/g16/l303.exe)
 DipDrv:  MaxL=1.
 Leave Link  303 at Tue Nov 19 11:56:03 2024, MaxMem=   536870912 cpu:               0.3 elap:               0.0
 (Enter /home/szhao/Apps/g16/l401.exe)
 ExpMin= 4.38D-02 ExpMax= 4.56D+03 ExpMxC= 6.82D+02 IAcc=3 IRadAn=         7 AccDes= 0.00D+00
 Harris functional with IExCor= 1009 and IRadAn=       7 diagonalized for initial guess.
 HarFok:  IExCor= 1009 AccDes= 0.00D+00 IRadAn=         7 IDoV= 1 UseB2=F ITyADJ=14
 ICtDFT=  3500011 ScaDFX=  1.000000  1.000000  1.000000  1.000000
 FoFCou: FMM=F IPFlag=           0 FMFlag=      100000 FMFlg1=           0
         NFxFlg=           0 DoJE=T BraDBF=F KetDBF=T FulRan=T
         wScrn=  0.000000 ICntrl=       500 IOpCl=  0 I1Cent=   200000004 NGrid=           0
         NMat0=    1 NMatS0=      1 NMatT0=    0 NMatD0=    1 NMtDS0=    0 NMtDT0=    0
 Petite list used in FoFCou.
 Harris En= -78.1043305664194    
 JPrj=0 DoOrth=F DoCkMO=F.
 Initial guess orbital symmetries:
 Alpha Orbitals:
       Occupied  (AG) (BU) (AG) (BU) (BU) (AG) (AG) (AU)
       Virtual   (BG) (BU) (AG) (BU) (BU) (AG) (AU) (AG) (BG) (AG)
                 (BU) (BU) (BU) (AG) (BU) (AG) (BU) (AU) (AG) (BG)
                 (BU) (AG) (BU) (AG) (AG) (BU) (BG) (AU) (AU) (AG)
                 (AG) (BU) (BG) (AG) (BU) (BU) (AU) (BG) (BU) (AG)
                 (AG) (BG) (BU) (AU) (BU) (BU) (AG) (AG) (AG) (BU)
                 (AU) (AG) (BU) (BG) (AG) (BU) (BU) (AG) (BU) (AG)
 Beta  Orbitals:
       Occupied  (AG) (BU) (AG) (BU) (BU) (AG) (AG)
       Virtual   (AU) (BG) (BU) (AG) (BU) (BU) (AG) (AU) (AG) (BG)
                 (AG) (BU) (BU) (BU) (AG) (BU) (AG) (BU) (AU) (AG)
                 (BG) (BU) (AG) (BU) (AG) (AG) (BU) (BG) (AU) (AU)
                 (AG) (AG) (BU) (BG) (AG) (BU) (BU) (AU) (BG) (BU)
                 (AG) (AG) (BG) (BU) (AU) (BU) (BU) (AG) (AG) (AG)
                 (BU) (AU) (AG) (BU) (BG) (AG) (BU) (BU) (AG) (BU)
                 (AG)
 The electronic state of the initial guess is 2-AU.
 Initial guess <Sx>= 0.0000 <Sy>= 0.0000 <Sz>= 0.5000 <S**2>= 0.7500 S= 0.5000
 Leave Link  401 at Tue Nov 19 11:56:03 2024, MaxMem=   536870912 cpu:               1.3 elap:               0.2
 (Enter /home/szhao/Apps/g16/l502.exe)
 Keep R1 and R2 ints in memory in symmetry-blocked form, NReq=9935219.
 FoFCou: FMM=F IPFlag=           0 FMFlag=           0 FMFlg1=           0
         NFxFlg=           0 DoJE=F BraDBF=F KetDBF=F FulRan=T
         wScrn=  0.000000 ICntrl=       600 IOpCl=  0 I1Cent=           0 NGrid=           0
         NMat0=    1 NMatS0=   2346 NMatT0=    0 NMatD0=    1 NMtDS0=    0 NMtDT0=    0
 Petite list used in FoFCou.
 UHF open shell SCF:
 Using DIIS extrapolation, IDIIS=  1040.
 NGot=   536870912 LenX=   535358074 LenY=   535352733
 Requested convergence on RMS density matrix=1.00D-08 within 128 cycles.
 Requested convergence on MAX density matrix=1.00D-06.
 Requested convergence on             energy=1.00D-06.
 No special actions if energy rises.

 Cycle   1  Pass 1  IDiag  1:
 E= -78.0792374248722    
 DIIS: error= 1.86D-02 at cycle   1 NSaved=   1.
 NSaved= 1 IEnMin= 1 EnMin= -78.0792374248722     IErMin= 1 ErrMin= 1.86D-02
 ErrMax= 1.86D-02  0.00D+00 EMaxC= 1.00D-01 BMatC= 5.79D-02 BMatP= 5.79D-02
 IDIUse=3 WtCom= 8.14D-01 WtEn= 1.86D-01
 Coeff-Com:  0.100D+01
 Coeff-En:   0.100D+01
 Coeff:      0.100D+01
 Gap=     0.219 Goal=   None    Shift=    0.000
 Gap=     0.324 Goal=   None    Shift=    0.000
 GapD=    0.219 DampG=1.000 DampE=0.500 DampFc=0.5000 IDamp=-1.
 Damping current iteration by 5.00D-01
 RMSDP=1.41D-03 MaxDP=1.74D-02              OVMax= 3.79D-02

 Cycle   2  Pass 1  IDiag  1:
 E= -78.0832435241817     Delta-E=       -0.004006099310 Rises=F Damp=T
 DIIS: error= 9.36D-03 at cycle   2 NSaved=   2.
 NSaved= 2 IEnMin= 2 EnMin= -78.0832435241817     IErMin= 2 ErrMin= 9.36D-03
 ErrMax= 9.36D-03  0.00D+00 EMaxC= 1.00D-01 BMatC= 1.35D-02 BMatP= 5.79D-02
 IDIUse=3 WtCom= 9.06D-01 WtEn= 9.36D-02
 Coeff-Com: -0.870D+00 0.187D+01
 Coeff-En:   0.000D+00 0.100D+01
 Coeff:     -0.788D+00 0.179D+01
 Gap=     0.219 Goal=   None    Shift=    0.000
 Gap=     0.314 Goal=   None    Shift=    0.000
 RMSDP=6.67D-04 MaxDP=9.86D-03 DE=-4.01D-03 OVMax= 9.84D-03

 Cycle   3  Pass 1  IDiag  1:
 E= -78.0871502104928     Delta-E=       -0.003906686311 Rises=F Damp=F
 DIIS: error= 1.43D-03 at cycle   3 NSaved=   3.
 NSaved= 3 IEnMin= 3 EnMin= -78.0871502104928     IErMin= 3 ErrMin= 1.43D-03
 ErrMax= 1.43D-03  0.00D+00 EMaxC= 1.00D-01 BMatC= 1.42D-04 BMatP= 1.35D-02
 IDIUse=3 WtCom= 9.86D-01 WtEn= 1.43D-02
 Coeff-Com: -0.190D+00 0.374D+00 0.816D+00
 Coeff-En:   0.000D+00 0.000D+00 0.100D+01
 Coeff:     -0.188D+00 0.369D+00 0.819D+00
 Gap=     0.219 Goal=   None    Shift=    0.000
 Gap=     0.315 Goal=   None    Shift=    0.000
 RMSDP=7.07D-05 MaxDP=2.02D-03 DE=-3.91D-03 OVMax= 2.56D-03

 Cycle   4  Pass 1  IDiag  1:
 E= -78.0871921809241     Delta-E=       -0.000041970431 Rises=F Damp=F
 DIIS: error= 3.91D-04 at cycle   4 NSaved=   4.
 NSaved= 4 IEnMin= 4 EnMin= -78.0871921809241     IErMin= 4 ErrMin= 3.91D-04
 ErrMax= 3.91D-04  0.00D+00 EMaxC= 1.00D-01 BMatC= 1.05D-05 BMatP= 1.42D-04
 IDIUse=3 WtCom= 9.96D-01 WtEn= 3.91D-03
 Coeff-Com:  0.196D-01-0.474D-01 0.615D-01 0.966D+00
 Coeff-En:   0.000D+00 0.000D+00 0.000D+00 0.100D+01
 Coeff:      0.195D-01-0.472D-01 0.612D-01 0.966D+00
 Gap=     0.219 Goal=   None    Shift=    0.000
 Gap=     0.315 Goal=   None    Shift=    0.000
 RMSDP=2.68D-05 MaxDP=9.70D-04 DE=-4.20D-05 OVMax= 1.03D-03

 Cycle   5  Pass 1  IDiag  1:
 E= -78.0871967980149     Delta-E=       -0.000004617091 Rises=F Damp=F
 DIIS: error= 1.53D-04 at cycle   5 NSaved=   5.
 NSaved= 5 IEnMin= 5 EnMin= -78.0871967980149     IErMin= 5 ErrMin= 1.53D-04
 ErrMax= 1.53D-04  0.00D+00 EMaxC= 1.00D-01 BMatC= 1.39D-06 BMatP= 1.05D-05
 IDIUse=3 WtCom= 9.98D-01 WtEn= 1.53D-03
 Coeff-Com:  0.261D-01-0.509D-01-0.116D+00 0.238D-01 0.112D+01
 Coeff-En:   0.000D+00 0.000D+00 0.000D+00 0.000D+00 0.100D+01
 Coeff:      0.260D-01-0.508D-01-0.116D+00 0.238D-01 0.112D+01
 Gap=     0.219 Goal=   None    Shift=    0.000
 Gap=     0.315 Goal=   None    Shift=    0.000
 RMSDP=1.28D-05 MaxDP=3.06D-04 DE=-4.62D-06 OVMax= 3.92D-04

 Cycle   6  Pass 1  IDiag  1:
 E= -78.0871975848644     Delta-E=       -0.000000786849 Rises=F Damp=F
 DIIS: error= 2.93D-05 at cycle   6 NSaved=   6.
 NSaved= 6 IEnMin= 6 EnMin= -78.0871975848644     IErMin= 6 ErrMin= 2.93D-05
 ErrMax= 2.93D-05  0.00D+00 EMaxC= 1.00D-01 BMatC= 4.41D-08 BMatP= 1.39D-06
 IDIUse=1 WtCom= 1.00D+00 WtEn= 0.00D+00
 Coeff-Com: -0.663D-02 0.135D-01 0.256D-01-0.547D-01-0.269D+00 0.129D+01
 Coeff:     -0.663D-02 0.135D-01 0.256D-01-0.547D-01-0.269D+00 0.129D+01
 Gap=     0.219 Goal=   None    Shift=    0.000
 Gap=     0.315 Goal=   None    Shift=    0.000
 RMSDP=2.63D-06 MaxDP=4.80D-05 DE=-7.87D-07 OVMax= 8.87D-05

 Cycle   7  Pass 1  IDiag  1:
 E= -78.0871976124447     Delta-E=       -0.000000027580 Rises=F Damp=F
 DIIS: error= 2.61D-06 at cycle   7 NSaved=   7.
 NSaved= 7 IEnMin= 7 EnMin= -78.0871976124447     IErMin= 7 ErrMin= 2.61D-06
 ErrMax= 2.61D-06  0.00D+00 EMaxC= 1.00D-01 BMatC= 3.84D-10 BMatP= 4.41D-08
 IDIUse=1 WtCom= 1.00D+00 WtEn= 0.00D+00
 Coeff-Com:  0.473D-03-0.990D-03-0.128D-02 0.513D-02 0.193D-01-0.168D+00
 Coeff-Com:  0.115D+01
 Coeff:      0.473D-03-0.990D-03-0.128D-02 0.513D-02 0.193D-01-0.168D+00
 Coeff:      0.115D+01
 Gap=     0.219 Goal=   None    Shift=    0.000
 Gap=     0.315 Goal=   None    Shift=    0.000
 RMSDP=1.83D-07 MaxDP=3.07D-06 DE=-2.76D-08 OVMax= 7.50D-06

 Cycle   8  Pass 1  IDiag  1:
 E= -78.0871976126794     Delta-E=       -0.000000000235 Rises=F Damp=F
 DIIS: error= 3.09D-07 at cycle   8 NSaved=   8.
 NSaved= 8 IEnMin= 8 EnMin= -78.0871976126794     IErMin= 8 ErrMin= 3.09D-07
 ErrMax= 3.09D-07  0.00D+00 EMaxC= 1.00D-01 BMatC= 7.02D-12 BMatP= 3.84D-10
 IDIUse=1 WtCom= 1.00D+00 WtEn= 0.00D+00
 Coeff-Com: -0.131D-04 0.317D-04 0.969D-05-0.165D-03-0.122D-02 0.150D-01
 Coeff-Com: -0.226D+00 0.121D+01
 Coeff:     -0.131D-04 0.317D-04 0.969D-05-0.165D-03-0.122D-02 0.150D-01
 Coeff:     -0.226D+00 0.121D+01
 Gap=     0.219 Goal=   None    Shift=    0.000
 Gap=     0.315 Goal=   None    Shift=    0.000
 RMSDP=2.97D-08 MaxDP=4.65D-07 DE=-2.35D-10 OVMax= 1.59D-06

 Cycle   9  Pass 1  IDiag  1:
 E= -78.0871976126843     Delta-E=       -0.000000000005 Rises=F Damp=F
 DIIS: error= 4.39D-08 at cycle   9 NSaved=   9.
 NSaved= 9 IEnMin= 9 EnMin= -78.0871976126843     IErMin= 9 ErrMin= 4.39D-08
 ErrMax= 4.39D-08  0.00D+00 EMaxC= 1.00D-01 BMatC= 8.47D-14 BMatP= 7.02D-12
 IDIUse=1 WtCom= 1.00D+00 WtEn= 0.00D+00
 Coeff-Com: -0.379D-05 0.690D-05 0.767D-05-0.315D-04 0.346D-04-0.964D-03
 Coeff-Com:  0.315D-01-0.250D+00 0.122D+01
 Coeff:     -0.379D-05 0.690D-05 0.767D-05-0.315D-04 0.346D-04-0.964D-03
 Coeff:      0.315D-01-0.250D+00 0.122D+01
 Gap=     0.219 Goal=   None    Shift=    0.000
 Gap=     0.315 Goal=   None    Shift=    0.000
 RMSDP=3.61D-09 MaxDP=5.06D-08 DE=-4.95D-12 OVMax= 1.75D-07

 SCF Done:  E(UM062X) =  -78.0871976127     A.U. after    9 cycles
            NFock=  9  Conv=0.36D-08     -V/T= 2.0101
 <Sx>= 0.0000 <Sy>= 0.0000 <Sz>= 0.5000 <S**2>= 0.7522 S= 0.5011
 <L.S>=  0.00000000000    
 KE= 7.730761905310D+01 PE=-2.314467220261D+02 EE= 4.831037650213D+01
 Annihilation of the first spin contaminant:
 S**2 before annihilation     0.7522,   after     0.7500
 Leave Link  502 at Tue Nov 19 11:56:05 2024, MaxMem=   536870912 cpu:              14.1 elap:               1.8
 (Enter /home/szhao/Apps/g16/l601.exe)
 Copying SCF densities to generalized density rwf, IOpCl= 1 IROHF=0.

 **********************************************************************

            Population analysis using the SCF density.

 **********************************************************************

 Orbital symmetries:
 Alpha Orbitals:
       Occupied  (AG) (BU) (AG) (BU) (BU) (AG) (AG) (AU)
       Virtual   (BG) (BU) (AG) (BU) (BU) (AU) (AG) (AG) (BG) (AG)
                 (BU) (BU) (BU) (AG) (BU) (AG) (BU) (AU) (AG) (BG)
                 (BU) (BU) (AG) (AG) (AG) (BU) (BG) (AU) (AU) (AG)
                 (AG) (BU) (BG) (AG) (BU) (BU) (AU) (BG) (BU) (AG)
                 (BG) (AG) (AU) (BU) (BU) (BU) (AG) (AG) (AG) (BU)
                 (AG) (AU) (BU) (BG) (AG) (BU) (BU) (AG) (BU) (AG)
 Beta  Orbitals:
       Occupied  (AG) (BU) (AG) (BU) (BU) (AG) (AG)
       Virtual   (AU) (BG) (BU) (AG) (BU) (BU) (AU) (AG) (AG) (AG)
                 (BG) (BU) (BU) (BU) (AG) (BU) (AG) (BU) (AU) (BG)
                 (AG) (BU) (AG) (BU) (AG) (AG) (BU) (BG) (AU) (AU)
                 (AG) (AG) (BU) (BG) (AG) (BU) (BU) (AU) (BG) (BU)
                 (AG) (AG) (BG) (AU) (BU) (BU) (BU) (AG) (AG) (BU)
                 (AG) (AG) (BU) (AU) (AG) (BG) (BU) (BU) (AG) (BU)
                 (AG)
 The electronic state is 2-AU.
 Alpha  occ. eigenvalues --  -10.91997 -10.91979  -1.07999  -0.99779  -0.81106
 Alpha  occ. eigenvalues --   -0.77019  -0.69228  -0.57584
 Alpha virt. eigenvalues --   -0.35688  -0.21287  -0.14245  -0.11126  -0.09724
 Alpha virt. eigenvalues --   -0.08557  -0.07406  -0.07273  -0.04741  -0.04286
 Alpha virt. eigenvalues --   -0.02332  -0.00903   0.02300   0.09491   0.18135
 Alpha virt. eigenvalues --    0.23089   0.24623   0.32664   0.37191   0.37546
 Alpha virt. eigenvalues --    0.41194   0.44835   0.45640   0.47713   0.53479
 Alpha virt. eigenvalues --    0.56193   0.79336   0.82150   0.82884   0.96127
 Alpha virt. eigenvalues --    1.14684   1.17339   1.21831   1.22680   1.26567
 Alpha virt. eigenvalues --    1.37057   1.46859   1.53636   1.59260   1.64190
 Alpha virt. eigenvalues --    1.69731   1.69955   1.78096   1.79168   2.11611
 Alpha virt. eigenvalues --    2.25974   2.31147   2.31583   2.36616   2.37871
 Alpha virt. eigenvalues --    2.43531   2.43575   2.44969   2.48449   2.49185
 Alpha virt. eigenvalues --    3.24579   3.42882   3.47282  23.48460  23.52558
  Beta  occ. eigenvalues --  -10.91765 -10.91753  -1.04811  -0.97594  -0.80505
  Beta  occ. eigenvalues --   -0.76667  -0.67795
  Beta virt. eigenvalues --   -0.36271  -0.27206  -0.18886  -0.15666  -0.11488
  Beta virt. eigenvalues --   -0.09584  -0.08168  -0.07778  -0.07358  -0.04324
  Beta virt. eigenvalues --   -0.03972  -0.01902  -0.00298   0.01564   0.10146
  Beta virt. eigenvalues --    0.18049   0.23078   0.25111   0.33723   0.36089
  Beta virt. eigenvalues --    0.38635   0.42222   0.45015   0.46325   0.49073
  Beta virt. eigenvalues --    0.52821   0.56047   0.82532   0.84964   0.86257
  Beta virt. eigenvalues --    0.99489   1.15656   1.18931   1.23757   1.26429
  Beta virt. eigenvalues --    1.29256   1.38831   1.48327   1.55553   1.62792
  Beta virt. eigenvalues --    1.65490   1.71155   1.71592   1.79871   1.81206
  Beta virt. eigenvalues --    2.15354   2.27480   2.32838   2.33768   2.41007
  Beta virt. eigenvalues --    2.41591   2.46642   2.46817   2.47630   2.49965
  Beta virt. eigenvalues --    2.52692   3.30176   3.47644   3.52050  23.49700
  Beta virt. eigenvalues --   23.53830
          Condensed to atoms (all electrons):
               1          2          3          4          5          6
     1  C    4.988987   0.363126   0.371914   0.371924  -0.015011  -0.015008
     2  C    0.363126   4.988987  -0.015011  -0.015008   0.371914   0.371924
     3  H    0.371914  -0.015011   0.365050  -0.005989   0.000528   0.000540
     4  H    0.371924  -0.015008  -0.005989   0.365042   0.000540   0.000528
     5  H   -0.015011   0.371914   0.000528   0.000540   0.365050  -0.005989
     6  H   -0.015008   0.371924   0.000540   0.000528  -0.005989   0.365042
          Atomic-Atomic Spin Densities.
               1          2          3          4          5          6
     1  C    0.477704   0.072991  -0.005798  -0.005798   0.000850   0.000849
     2  C    0.072991   0.477704   0.000850   0.000849  -0.005798  -0.005798
     3  H   -0.005798   0.000850  -0.015305   0.000000  -0.000015  -0.000132
     4  H   -0.005798   0.000849   0.000000  -0.015304  -0.000132  -0.000015
     5  H    0.000850  -0.005798  -0.000015  -0.000132  -0.015305   0.000000
     6  H    0.000849  -0.005798  -0.000132  -0.000015   0.000000  -0.015304
 Mulliken charges and spin densities:
               1          2
     1  C   -0.065932   0.540798
     2  C   -0.065932   0.540798
     3  H    0.282969  -0.020400
     4  H    0.282963  -0.020398
     5  H    0.282969  -0.020400
     6  H    0.282963  -0.020398
 Sum of Mulliken charges =   1.00000   1.00000
 Mulliken charges and spin densities with hydrogens summed into heavy atoms:
               1          2
     1  C    0.500000   0.500000
     2  C    0.500000   0.500000
 Electronic spatial extent (au):  <R**2>=             99.9951
 Charge=              1.0000 electrons
 Dipole moment (field-independent basis, Debye):
    X=              0.0000    Y=              0.0000    Z=              0.0000  Tot=              0.0000
 Quadrupole moment (field-independent basis, Debye-Ang):
   XX=             -8.2060   YY=             -2.7426   ZZ=            -12.3788
   XY=              0.0001   XZ=             -0.0000   YZ=             -0.0000
 Traceless Quadrupole moment (field-independent basis, Debye-Ang):
   XX=             -0.4302   YY=              5.0332   ZZ=             -4.6030
   XY=              0.0001   XZ=             -0.0000   YZ=             -0.0000
 Octapole moment (field-independent basis, Debye-Ang**2):
  XXX=              0.0000  YYY=              0.0000  ZZZ=             -0.0000  XYY=              0.0000
  XXY=             -0.0000  XXZ=              0.0000  XZZ=              0.0000  YZZ=             -0.0000
  YYZ=              0.0000  XYZ=              0.0000
 Hexadecapole moment (field-independent basis, Debye-Ang**3):
 XXXX=            -17.7909 YYYY=            -76.8667 ZZZZ=            -12.4320 XXXY=              0.0006
 XXXZ=             -0.0000 YYYX=             -0.0010 YYYZ=             -0.0000 ZZZX=             -0.0000
 ZZZY=             -0.0000 XXYY=             -8.5117 XXZZ=             -6.3843 YYZZ=            -17.4930
 XXYZ=             -0.0000 YYXZ=             -0.0000 ZZXY=             -0.0003
 N-N= 2.774152885815D+01 E-N=-2.314467221391D+02  KE= 7.730761905310D+01
 Symmetry AG   KE= 3.928261299283D+01
 Symmetry BG   KE= 6.191632918267D-32
 Symmetry AU   KE= 1.084661098777D+00
 Symmetry BU   KE= 3.694034496149D+01
 Symmetry AG   SP=-7.796160337162D-15
 Symmetry BG   SP= 3.035993216278D-33
 Symmetry AU   SP= 1.000000000000D+00
 Symmetry BU   SP=-8.041396514254D-15
                          Isotropic Fermi Contact Couplings
        Atom                 a.u.       MegaHertz       Gauss      10(-4) cm-1
     1  C(13)              0.09283     104.35893      37.23786      34.81039
     2  C(13)              0.09283     104.35893      37.23786      34.81039
     3  H(1)              -0.00820     -36.66640     -13.08348     -12.23060
     4  H(1)              -0.00820     -36.66402     -13.08263     -12.22980
     5  H(1)              -0.00820     -36.66640     -13.08348     -12.23060
     6  H(1)              -0.00820     -36.66402     -13.08263     -12.22980
 --------------------------------------------------------
       Center         ----  Spin Dipole Couplings  ----
                      3XX-RR        3YY-RR        3ZZ-RR
 --------------------------------------------------------
     1   Atom       -0.283157     -0.278558      0.561715
     2   Atom       -0.283157     -0.278558      0.561715
     3   Atom        0.018991     -0.012665     -0.006327
     4   Atom        0.018987     -0.012663     -0.006325
     5   Atom        0.018991     -0.012665     -0.006327
     6   Atom        0.018987     -0.012663     -0.006325
 --------------------------------------------------------
                        XY            XZ            YZ
 --------------------------------------------------------
     1   Atom        0.000002      0.000000     -0.000000
     2   Atom        0.000002     -0.000000      0.000000
     3   Atom        0.035023     -0.000000     -0.000000
     4   Atom       -0.035029     -0.000000      0.000000
     5   Atom        0.035023      0.000000      0.000000
     6   Atom       -0.035029      0.000000     -0.000000
 --------------------------------------------------------


 ---------------------------------------------------------------------------------
              Anisotropic Spin Dipole Couplings in Principal Axis System
 ---------------------------------------------------------------------------------

       Atom             a.u.   MegaHertz   Gauss  10(-4) cm-1        Axes

              Baa    -0.2832   -37.997   -13.558   -12.674  1.0000 -0.0004  0.0000
     1 C(13)  Bbb    -0.2786   -37.380   -13.338   -12.469  0.0004  1.0000  0.0000
              Bcc     0.5617    75.377    26.896    25.143  0.0000  0.0000  1.0000
 
              Baa    -0.2832   -37.997   -13.558   -12.674  1.0000 -0.0004  0.0000
     2 C(13)  Bbb    -0.2786   -37.380   -13.338   -12.469  0.0004  1.0000  0.0000
              Bcc     0.5617    75.377    26.896    25.143  0.0000  0.0000  1.0000
 
              Baa    -0.0353   -18.819    -6.715    -6.277 -0.5423  0.8402  0.0000
     3 H(1)   Bbb    -0.0063    -3.376    -1.205    -1.126  0.0000  0.0000  1.0000
              Bcc     0.0416    22.194     7.920     7.403  0.8402  0.5423 -0.0000
 
              Baa    -0.0353   -18.821    -6.716    -6.278  0.5424  0.8401  0.0000
     4 H(1)   Bbb    -0.0063    -3.375    -1.204    -1.126  0.0000  0.0000  1.0000
              Bcc     0.0416    22.196     7.920     7.404  0.8401 -0.5424  0.0000
 
              Baa    -0.0353   -18.819    -6.715    -6.277 -0.5423  0.8402  0.0000
     5 H(1)   Bbb    -0.0063    -3.376    -1.205    -1.126  0.0000  0.0000  1.0000
              Bcc     0.0416    22.194     7.920     7.403  0.8402  0.5423 -0.0000
 
              Baa    -0.0353   -18.821    -6.716    -6.278  0.5424  0.8401  0.0000
     6 H(1)   Bbb    -0.0063    -3.375    -1.204    -1.126  0.0000  0.0000  1.0000
              Bcc     0.0416    22.196     7.920     7.404  0.8401 -0.5424  0.0000
 

 ---------------------------------------------------------------------------------

 No NMR shielding tensors so no spin-rotation constants.
 Leave Link  601 at Tue Nov 19 11:56:05 2024, MaxMem=   536870912 cpu:               1.4 elap:               0.2
 (Enter /home/szhao/Apps/g16/l701.exe)
 ... and contract with generalized density number  0.
 Compute integral first derivatives.
 Leave Link  701 at Tue Nov 19 11:56:05 2024, MaxMem=   536870912 cpu:               0.7 elap:               0.1
 (Enter /home/szhao/Apps/g16/l702.exe)
 L702 exits ... SP integral derivatives will be done elsewhere.
 Leave Link  702 at Tue Nov 19 11:56:05 2024, MaxMem=   536870912 cpu:               0.3 elap:               0.0
 (Enter /home/szhao/Apps/g16/l703.exe)
 Integral derivatives from FoFJK, PRISM(SPDF).
 Compute integral first derivatives, UseDBF=F ICtDFT=           0.
 Calling FoFJK, ICntrl=      2127 FMM=F ISym2X=1 I1Cent= 0 IOpClX= 1 NMat=1 NMatS=1 NMatT=0.
 FoFJK:  IHMeth= 1 ICntrl=    2127 DoSepK=F KAlg= 0 I1Cent=           0 FoldK=F
 IRaf=         0 NMat=       1 IRICut=       1 DoRegI=T DoRafI=F ISym2E= 1 IDoP0=0 IntGTp=1.
 FoFCou: FMM=F IPFlag=           0 FMFlag=      100000 FMFlg1=         800
         NFxFlg=           0 DoJE=F BraDBF=F KetDBF=F FulRan=T
         wScrn=  0.000000 ICntrl=      2127 IOpCl=  1 I1Cent=           0 NGrid=           0
         NMat0=    1 NMatS0=      1 NMatT0=    0 NMatD0=    1 NMtDS0=    0 NMtDT0=    0
 Petite list used in FoFCou.
 Leave Link  703 at Tue Nov 19 11:56:06 2024, MaxMem=   536870912 cpu:               3.4 elap:               0.4
 (Enter /home/szhao/Apps/g16/l716.exe)
 Dipole        = 2.22044605D-16-4.44089210D-16 1.06585346D-41
 ***** Axes restored to original set *****
 -------------------------------------------------------------------
 Center     Atomic                   Forces (Hartrees/Bohr)
 Number     Number              X              Y              Z
 -------------------------------------------------------------------
      1        6           0.131542957   -0.000052559    0.000000000
      2        6          -0.131542957    0.000052559   -0.000000000
      3        1          -0.000089674   -0.000121465   -0.000000000
      4        1          -0.000108049    0.000169101   -0.000000000
      5        1           0.000089674    0.000121465    0.000000000
      6        1           0.000108049   -0.000169101    0.000000000
 -------------------------------------------------------------------
 Cartesian Forces:  Max     0.131542957 RMS     0.043847736
 Z-matrix is all fixed cartesians, so copy forces.
 Force constants in Cartesian coordinates: 
                1             2             3             4             5 
      1  0.425499D+00
      2 -0.388582D-04  0.673880D+00
      3  0.000000D+00  0.000000D+00  0.782271D-01
      4 -0.104764D+00  0.000000D+00  0.000000D+00  0.425499D+00
      5  0.000000D+00 -0.861156D-01  0.000000D+00 -0.388582D-04  0.673880D+00
      6  0.000000D+00  0.000000D+00 -0.326595D-01  0.000000D+00  0.000000D+00
      7 -0.160347D+00 -0.105260D+00  0.000000D+00  0.000000D+00 -0.193168D-01
      8 -0.945809D-01 -0.303264D+00  0.000000D+00  0.000000D+00  0.940854D-02
      9  0.000000D+00  0.000000D+00 -0.291607D-01  0.000000D+00  0.000000D+00
     10 -0.160388D+00  0.105299D+00  0.000000D+00  0.000000D+00  0.193174D-01
     11  0.946203D-01 -0.303320D+00  0.000000D+00  0.000000D+00  0.941062D-02
     12  0.000000D+00  0.000000D+00 -0.291628D-01  0.000000D+00  0.000000D+00
     13  0.000000D+00 -0.193168D-01  0.000000D+00 -0.160347D+00 -0.105260D+00
     14  0.000000D+00  0.940854D-02  0.000000D+00 -0.945809D-01 -0.303264D+00
     15  0.000000D+00  0.000000D+00  0.637778D-02  0.000000D+00  0.000000D+00
     16  0.000000D+00  0.193174D-01  0.000000D+00 -0.160388D+00  0.105299D+00
     17  0.000000D+00  0.941062D-02  0.000000D+00  0.946203D-01 -0.303320D+00
     18  0.000000D+00  0.000000D+00  0.637808D-02  0.000000D+00  0.000000D+00
                6             7             8             9            10 
      6  0.782271D-01
      7  0.000000D+00  0.129557D+00
      8  0.000000D+00  0.109577D+00  0.301161D+00
      9  0.637778D-02  0.000000D+00  0.000000D+00  0.120686D-01
     10  0.000000D+00  0.307897D-01 -0.149966D-01  0.000000D+00  0.129598D+00
     11  0.000000D+00  0.149994D-01 -0.730570D-02  0.000000D+00 -0.109620D+00
     12  0.637808D-02  0.000000D+00  0.000000D+00  0.107143D-01  0.000000D+00
     13  0.000000D+00  0.000000D+00  0.000000D+00  0.000000D+00  0.000000D+00
     14  0.000000D+00  0.000000D+00  0.000000D+00  0.000000D+00  0.000000D+00
     15 -0.291607D-01  0.000000D+00  0.000000D+00  0.677490D-03  0.000000D+00
     16  0.000000D+00  0.000000D+00  0.000000D+00  0.000000D+00  0.000000D+00
     17  0.000000D+00  0.000000D+00  0.000000D+00  0.000000D+00  0.000000D+00
     18 -0.291628D-01  0.000000D+00  0.000000D+00 -0.677560D-03  0.000000D+00
               11            12            13            14            15 
     11  0.301215D+00
     12  0.000000D+00  0.120703D-01
     13  0.000000D+00  0.000000D+00  0.129557D+00
     14  0.000000D+00  0.000000D+00  0.109577D+00  0.301161D+00
     15  0.000000D+00 -0.677560D-03  0.000000D+00  0.000000D+00  0.120686D-01
     16  0.000000D+00  0.000000D+00  0.307897D-01 -0.149966D-01  0.000000D+00
     17  0.000000D+00  0.000000D+00  0.149994D-01 -0.730570D-02  0.000000D+00
     18  0.000000D+00  0.677629D-03  0.000000D+00  0.000000D+00  0.107143D-01
               16            17            18 
     16  0.129598D+00
     17 -0.109620D+00  0.301215D+00
     18  0.000000D+00  0.000000D+00  0.120703D-01
 Leave Link  716 at Tue Nov 19 11:56:06 2024, MaxMem=   536870912 cpu:               0.2 elap:               0.0
 (Enter /home/szhao/Apps/g16/l103.exe)

 GradGradGradGradGradGradGradGradGradGradGradGradGradGradGradGradGradGrad
 Berny optimization.
 Search for a local minimum.
 Step number   1 out of a maximum of    2
 All quantities printed in internal units (Hartrees-Bohrs-Radians)
 Second derivative matrix not updated -- first step.
 The second derivative matrix:
                          X1        Y1        Z1        X2        Y2
           X1           0.42550
           Y1          -0.00004   0.67388
           Z1           0.00000  -0.00000   0.07823
           X2          -0.10476  -0.00000  -0.00000   0.42550
           Y2          -0.00000  -0.08612  -0.00000  -0.00004   0.67388
           Z2          -0.00000  -0.00000  -0.03266   0.00000  -0.00000
           X3          -0.16035  -0.10526  -0.00000   0.00000  -0.01932
           Y3          -0.09458  -0.30326  -0.00000  -0.00000   0.00941
           Z3          -0.00000  -0.00000  -0.02916  -0.00000  -0.00000
           X4          -0.16039   0.10530  -0.00000  -0.00000   0.01932
           Y4           0.09462  -0.30332   0.00000  -0.00000   0.00941
           Z4          -0.00000   0.00000  -0.02916  -0.00000   0.00000
           X5           0.00000  -0.01932  -0.00000  -0.16035  -0.10526
           Y5          -0.00000   0.00941   0.00000  -0.09458  -0.30326
           Z5          -0.00000  -0.00000   0.00638  -0.00000  -0.00000
           X6          -0.00000   0.01932  -0.00000  -0.16039   0.10530
           Y6          -0.00000   0.00941   0.00000   0.09462  -0.30332
           Z6          -0.00000   0.00000   0.00638  -0.00000   0.00000
                          Z2        X3        Y3        Z3        X4
           Z2           0.07823
           X3          -0.00000   0.12956
           Y3           0.00000   0.10958   0.30116
           Z3           0.00638   0.00000   0.00000   0.01207
           X4          -0.00000   0.03079  -0.01500   0.00000   0.12960
           Y4           0.00000   0.01500  -0.00731   0.00000  -0.10962
           Z4           0.00638   0.00000  -0.00000   0.01071   0.00000
           X5          -0.00000   0.00000   0.00000  -0.00000  -0.00000
           Y5          -0.00000   0.00000   0.00000  -0.00000  -0.00000
           Z5          -0.02916  -0.00000  -0.00000   0.00068   0.00000
           X6          -0.00000  -0.00000  -0.00000   0.00000   0.00000
           Y6           0.00000  -0.00000  -0.00000   0.00000   0.00000
           Z6          -0.02916   0.00000   0.00000  -0.00068  -0.00000
                          Y4        Z4        X5        Y5        Z5
           Y4           0.30121
           Z4          -0.00000   0.01207
           X5          -0.00000   0.00000   0.12956
           Y5          -0.00000   0.00000   0.10958   0.30116
           Z5           0.00000  -0.00068   0.00000   0.00000   0.01207
           X6           0.00000  -0.00000   0.03079  -0.01500   0.00000
           Y6           0.00000  -0.00000   0.01500  -0.00731   0.00000
           Z6          -0.00000   0.00068   0.00000  -0.00000   0.01071
                          X6        Y6        Z6
           X6           0.12960
           Y6          -0.10962   0.30121
           Z6           0.00000  -0.00000   0.01207
 ITU=  0
     Eigenvalues ---    0.00271   0.04267   0.04901   0.05638   0.09315
     Eigenvalues ---    0.11009   0.19744   0.24607   0.50792   0.70405
     Eigenvalues ---    0.78340   0.93199
 Quadratic step=1.535D+00 exceeds max=3.000D-01 adjusted using Lamda=-2.883D-01.
 Angle between NR and scaled steps=  30.30 degrees.
 Angle between quadratic step and forces=  26.43 degrees.
 ClnCor:  largest displacement from symmetrization is 1.23D-14 for atom     6.
 Linear search not attempted -- first point.
 ClnCor:  largest displacement from symmetrization is 1.02D-20 for atom     1.
 B after Tr=     0.000000   -0.000000    0.000000
         Rot=    1.000000   -0.000000   -0.000000   -0.000002 Ang=  -0.00 deg.
 Variable       Old X    -DE/DX   Delta X   Delta X   Delta X     New X
                                 (Linear)    (Quad)   (Total)
    X1       -1.81673   0.13154   0.00000   0.19020   0.19020  -1.62653
    Y1        0.00000  -0.00005   0.00000  -0.00003  -0.00003  -0.00003
    Z1       -0.00000   0.00000   0.00000   0.00000   0.00000   0.00000
    X2        1.81673  -0.13154   0.00000  -0.19020  -0.19020   1.62653
    Y2        0.00000   0.00005   0.00000   0.00003   0.00003   0.00003
    Z2        0.00000  -0.00000   0.00000  -0.00000  -0.00000  -0.00000
    X3       -2.71416  -0.00009   0.00000   0.06359   0.06359  -2.65057
    Y3       -1.84252  -0.00012   0.00000   0.01985   0.01985  -1.82268
    Z3       -0.00000  -0.00000   0.00000   0.00000   0.00000   0.00000
    X4       -2.71424  -0.00011   0.00000   0.06359   0.06358  -2.65066
    Y4        1.84233   0.00017   0.00000  -0.01980  -0.01981   1.82252
    Z4       -0.00000  -0.00000   0.00000   0.00000   0.00000   0.00000
    X5        2.71416   0.00009   0.00000  -0.06359  -0.06359   2.65057
    Y5        1.84252   0.00012   0.00000  -0.01985  -0.01985   1.82268
    Z5        0.00000   0.00000   0.00000  -0.00000  -0.00000  -0.00000
    X6        2.71424   0.00011   0.00000  -0.06359  -0.06358   2.65066
    Y6       -1.84233  -0.00017   0.00000   0.01980   0.01981  -1.82252
    Z6        0.00000   0.00000   0.00000  -0.00000  -0.00000  -0.00000
         Item               Value     Threshold  Converged?
 Maximum Force            0.131543     0.000450     NO 
 RMS     Force            0.043848     0.000300     NO 
 Maximum Displacement     0.190203     0.001800     NO 
 RMS     Displacement     0.070750     0.001200     NO 
 Predicted change in Energy=-3.798834D-02
 GradGradGradGradGradGradGradGradGradGradGradGradGradGradGradGradGradGrad

 Leave Link  103 at Tue Nov 19 11:56:06 2024, MaxMem=   536870912 cpu:               0.1 elap:               0.0
 (Enter /home/szhao/Apps/g16/l9999.exe)
 1\1\GINC-NODE01\Force\UM062X\6-311+G(d,p)\C2H4(1+,2)\SZHAO\19-Nov-2024
 \0\\#p UM062X/6-311+G** force int=superfine\\Title Card Required\\1,2\
 C,-0.961373,0.,0.\C,0.961373,0.,0.\H,-1.436271,-0.97502,0.\H,-1.436313
 ,0.97492,0.\H,1.436271,0.97502,0.\H,1.436313,-0.97492,0.\\Version=ES64
 L-G16RevA.03\State=2-AU\HF=-78.0871976\S2=0.752236\S2-1=0.\S2A=0.75000
 4\RMSD=3.610e-09\RMSF=4.385e-02\Dipole=0.,0.,0.\Quadrupole=3.7420778,-
 0.3198367,-3.4222411,0.0001062,0.,0.\PG=C02H [SGH(C2H4)]\\@


 THERE'S SMALL CHOICE IN A BOWL OF ROTTEN APPLES.
                     SHAKESPEARE
 Job cpu time:       0 days  0 hours  0 minutes 25.4 seconds.
 Elapsed time:       0 days  0 hours  0 minutes  3.2 seconds.
 File lengths (MBytes):  RWF=      6 Int=      0 D2E=      0 Chk=      1 Scr=      1
 Normal termination of Gaussian 16 at Tue Nov 19 11:56:06 2024.
