Title Card Required                                                     
FOpt      UM062X                                                      6-311+G(d,p)        
Number of atoms                            I                4
Info1-9                                    I   N=           9
          13          13           0           0           0         110
           2          18        -502
Full Title                                 C   N=           2
Title Card Required     
Route                                      C   N=           4
#p opt UM062X/6-311+G** nosymm int=superfine    
Charge                                     I                0
Multiplicity                               I                1
Number of electrons                        I               26
Number of alpha electrons                  I               13
Number of beta electrons                   I               13
Number of basis functions                  I               64
Number of independent functions            I               64
Number of point charges in /Mol/           I                0
Number of translation vectors              I                0
Atomic numbers                             I   N=           4
           8          16           1           1
Nuclear charges                            R   N=           4
  8.00000000E+00  1.60000000E+01  1.00000000E+00  1.00000000E+00
Current cartesian coordinates              R   N=          12
 -2.19398337E+00 -3.77945225E-06  2.45664396E-05  2.19398337E+00  3.77945225E-06
 -2.45664396E-05 -2.33392927E+00  1.81065482E+00  2.18385531E-01  2.08498427E+00
 -6.45121067E-01 -2.45437615E+00
Number of symbols in /Mol/                 I                0
Force Field                                I                0
Atom Types                                 C   N=           4
                                                
Int Atom Types                             I   N=           4
           0           0           0           0
MM charges                                 R   N=           4
  0.00000000E+00  0.00000000E+00  0.00000000E+00  0.00000000E+00
Integer atomic weights                     I   N=           4
          16          32           1           1
Real atomic weights                        R   N=           4
  1.59949146E+01  3.19720718E+01  1.00782504E+00  1.00782504E+00
Atom fragment info                         I   N=           4
           0           0           0           0
Atom residue num                           I   N=           4
           0           0           0           0
Nuclear spins                              I   N=           4
           0           0           1           1
Nuclear ZEff                               R   N=           4
 -5.60000000E+00 -1.36000000E+01 -1.00000000E+00 -1.00000000E+00
Nuclear ZNuc                               R   N=           4
  8.00000000E+00  1.60000000E+01  1.00000000E+00  1.00000000E+00
Nuclear QMom                               R   N=           4
  0.00000000E+00  0.00000000E+00  0.00000000E+00  0.00000000E+00
Nuclear GFac                               R   N=           4
  0.00000000E+00  0.00000000E+00  2.79284600E+00  2.79284600E+00
MicOpt                                     I   N=           4
          -2          -2          -1          -1
Number of residues                         I                0
Number of secondary structures             I                0
Redundant internal dimensions              I   N=           4
          11           8           2           1
Redundant internal coordinate indices      I   N=          44
           1          -1           0           0           1          -2
           0           0           1          -3           0           0
           2          -1           0           0           2          -2
           0           0           2          -3           0           0
           1           3           0           0           2           4
           0           0           2           1           3           0
           1           2           4           0           3           1
           2           4
Redundant internal coordinates             R   N=          11
 -2.19398337E+00 -3.77945225E-06  2.45664396E-05  2.19398337E+00  3.77945225E-06
 -2.45664396E-05  1.82913940E+00  2.54006074E+00  1.64737995E+00  1.52788153E+00
 -1.94784838E+00
ZRed-IntVec                                I   N=          11
          -1          -1          -1          -1          -1          -1
           0           0           0           0           0
ZRed-FPVec                                 R   N=          11
  0.00000000E+00  0.00000000E+00  0.00000000E+00  0.00000000E+00  0.00000000E+00
  0.00000000E+00  0.00000000E+00  0.00000000E+00  0.00000000E+00  0.00000000E+00
  0.00000000E+00
ZRed-Constraint1                           R   N=          11
 -2.19398337E+00 -3.77945225E-06  2.45664396E-05  2.19398337E+00  3.77945225E-06
 -2.45664396E-05  1.84234278E+00  2.54607009E+00  1.57856836E+00  1.56751325E+00
 -1.68121917E+00
ZRed-Constraint2                           R   N=          11
 -2.19398337E+00 -3.77945225E-06  2.45664396E-05  2.19398337E+00  3.77945225E-06
 -2.45664396E-05  0.00000000E+00  0.00000000E+00  0.00000000E+00  0.00000000E+00
  0.00000000E+00
Number of contracted shells                I               27
Number of primitive shells                 I               49
Pure/Cartesian d shells                    I                0
Pure/Cartesian f shells                    I                0
Highest angular momentum                   I                2
Largest degree of contraction              I                6
Shell types                                I   N=          27
           0          -1          -1          -1          -1          -2
           0           0           0           0           0           0
          -1           1           1           1           1           1
          -2           0           0           0           1           0
           0           0           1
Number of primitives per shell             I   N=          27
           6           3           1           1           1           1
           6           3           1           1           1           1
           1           4           2           1           1           1
           1           3           1           1           1           3
           1           1           1
Shell to atom map                          I   N=          27
           1           1           1           1           1           1
           2           2           2           2           2           2
           2           2           2           2           2           2
           2           3           3           3           3           4
           4           4           4
Primitive exponents                        R   N=          49
  8.58850000E+03  1.29723000E+03  2.99296000E+02  8.73771000E+01  2.56789000E+01
  3.74004000E+00  4.21175000E+01  9.62837000E+00  2.85332000E+00  9.05661000E-01
  2.55611000E-01  8.45000000E-02  1.29200000E+00  9.34134000E+04  1.39617000E+04
  3.16991000E+03  9.02456000E+02  2.97158000E+02  1.08702000E+02  1.08702000E+02
  4.31553000E+01  1.81079000E+01  5.56009000E+00  2.13183000E+00  4.20403000E-01
  1.36045000E-01  4.05000000E-02  4.95040000E+02  1.17221000E+02  3.77749000E+01
  1.40584000E+01  5.56574000E+00  2.26297000E+00  8.07994000E-01  2.77460000E-01
  7.71410000E-02  6.50000000E-01  3.38650000E+01  5.09479000E+00  1.15879000E+00
  3.25840000E-01  1.02741000E-01  7.50000000E-01  3.38650000E+01  5.09479000E+00
  1.15879000E+00  3.25840000E-01  1.02741000E-01  7.50000000E-01
Contraction coefficients                   R   N=          49
  1.89515008E-03  1.43859006E-02  7.07320031E-02  2.40001011E-01  5.94797026E-01
  2.80802012E-01  1.13889012E-01  9.20811101E-01 -3.27447036E-03  1.00000000E+00
  1.00000000E+00  1.00000000E+00  1.00000000E+00  7.42999957E-04  5.79299966E-03
  2.99539983E-02  1.19027993E-01  3.68431979E-01  5.77298966E-01  1.43186060E-01
  6.24465262E-01  2.83366119E-01  1.00000000E+00  1.00000000E+00  1.00000000E+00
  1.00000000E+00  1.00000000E+00  8.30900251E-03  6.40240194E-02  2.77614084E-01
  7.45076225E-01  6.13711672E-01  4.43817763E-01  1.00000000E+00  1.00000000E+00
  1.00000000E+00  1.00000000E+00  2.54938145E-02  1.90373109E-01  8.52161486E-01
  1.00000000E+00  1.00000000E+00  1.00000000E+00  2.54938145E-02  1.90373109E-01
  8.52161486E-01  1.00000000E+00  1.00000000E+00  1.00000000E+00
P(S=P) Contraction coefficients            R   N=          49
  0.00000000E+00  0.00000000E+00  0.00000000E+00  0.00000000E+00  0.00000000E+00
  0.00000000E+00  3.65113974E-02  2.37152983E-01  8.19701941E-01  1.00000000E+00
  1.00000000E+00  1.00000000E+00  0.00000000E+00  0.00000000E+00  0.00000000E+00
  0.00000000E+00  0.00000000E+00  0.00000000E+00  0.00000000E+00  0.00000000E+00
  0.00000000E+00  0.00000000E+00  0.00000000E+00  0.00000000E+00  0.00000000E+00
  0.00000000E+00  1.00000000E+00  0.00000000E+00  0.00000000E+00  0.00000000E+00
  0.00000000E+00  0.00000000E+00  0.00000000E+00  0.00000000E+00  0.00000000E+00
  0.00000000E+00  0.00000000E+00  0.00000000E+00  0.00000000E+00  0.00000000E+00
  0.00000000E+00  0.00000000E+00  0.00000000E+00  0.00000000E+00  0.00000000E+00
  0.00000000E+00  0.00000000E+00  0.00000000E+00  0.00000000E+00
Coordinates of each shell                  R   N=          81
 -2.19398337E+00 -3.77945225E-06  2.45664396E-05 -2.19398337E+00 -3.77945225E-06
  2.45664396E-05 -2.19398337E+00 -3.77945225E-06  2.45664396E-05 -2.19398337E+00
 -3.77945225E-06  2.45664396E-05 -2.19398337E+00 -3.77945225E-06  2.45664396E-05
 -2.19398337E+00 -3.77945225E-06  2.45664396E-05  2.19398337E+00  3.77945225E-06
 -2.45664396E-05  2.19398337E+00  3.77945225E-06 -2.45664396E-05  2.19398337E+00
  3.77945225E-06 -2.45664396E-05  2.19398337E+00  3.77945225E-06 -2.45664396E-05
  2.19398337E+00  3.77945225E-06 -2.45664396E-05  2.19398337E+00  3.77945225E-06
 -2.45664396E-05  2.19398337E+00  3.77945225E-06 -2.45664396E-05  2.19398337E+00
  3.77945225E-06 -2.45664396E-05  2.19398337E+00  3.77945225E-06 -2.45664396E-05
  2.19398337E+00  3.77945225E-06 -2.45664396E-05  2.19398337E+00  3.77945225E-06
 -2.45664396E-05  2.19398337E+00  3.77945225E-06 -2.45664396E-05  2.19398337E+00
  3.77945225E-06 -2.45664396E-05 -2.33392927E+00  1.81065482E+00  2.18385531E-01
 -2.33392927E+00  1.81065482E+00  2.18385531E-01 -2.33392927E+00  1.81065482E+00
  2.18385531E-01 -2.33392927E+00  1.81065482E+00  2.18385531E-01  2.08498427E+00
 -6.45121067E-01 -2.45437615E+00  2.08498427E+00 -6.45121067E-01 -2.45437615E+00
  2.08498427E+00 -6.45121067E-01 -2.45437615E+00  2.08498427E+00 -6.45121067E-01
 -2.45437615E+00
Num ILSW                                   I              100
ILSW                                       I   N=         100
           1           0           0           1           2           0
           0           0           0           0        4336          -1
           7           0           0           0           2           0
           0           0           0           0           1           0
           1           1           0           0           0           0
           0           0      100000           0          -1           0
           0           0           0           0           0           0
           0           0           0           1           0           0
           0 -2000000000           1           0           0           0
           0           0           4          52           0           0
           0           0          55           0           0           0
           0           0           0           4           0           1
           0           0           0           0           0           0
           0           0           0           0           0           0
           0           0           0           0           0           0
           0           0           0           0           0           0
           0           0           0           0
Num RLSW                                   I               52
RLSW                                       R   N=          52
  1.00000000E+00  1.00000000E+00  1.00000000E+00  1.00000000E+00  5.40000000E-01
  0.00000000E+00  0.00000000E+00  1.00000000E+00  0.00000000E+00  0.00000000E+00
  0.00000000E+00  0.00000000E+00  1.00000000E+00  0.00000000E+00  0.00000000E+00
  0.00000000E+00  0.00000000E+00  1.00000000E+00  0.00000000E+00  0.00000000E+00
  0.00000000E+00  0.00000000E+00  1.00000000E+00  0.00000000E+00  0.00000000E+00
  0.00000000E+00  0.00000000E+00  1.00000000E+00  0.00000000E+00  0.00000000E+00
  0.00000000E+00  0.00000000E+00  1.00000000E+00  0.00000000E+00  0.00000000E+00
  0.00000000E+00  0.00000000E+00  0.00000000E+00  1.00000000E+00  1.00000000E+00
  0.00000000E+00  1.00000000E+00  0.00000000E+00  0.00000000E+00  0.00000000E+00
  0.00000000E+00  0.00000000E+00  0.00000000E+00  0.00000000E+00  0.00000000E+00
  0.00000000E+00  0.00000000E+00
MxBond                                     I                2
NBond                                      I   N=           4
           2           2           1           1
IBond                                      I   N=           8
           2           3           1           4           1           0
           2           0
RBond                                      R   N=           8
  1.00000000E-01  1.00000000E+00  1.00000000E-01  1.00000000E+00  1.00000000E+00
  0.00000000E+00  1.00000000E+00  0.00000000E+00
Virial Ratio                               R      2.002077518873994E+00
SCF Energy                                 R     -4.744891444782736E+02
Total Energy                               R     -4.744891444782736E+02
S**2                                       R     -2.486899575160351E-14
S**2 after annihilation                    R     -4.600764214046563E-13
RMS Force                                  R      2.588395924207330E-05
RMS Density                                R      4.101944454582231E-09
Job Status                                 I                1
Nuclear derivative order                   I                1
External E-field                           R   N=          35
  0.00000000E+00  0.00000000E+00  0.00000000E+00  0.00000000E+00  0.00000000E+00
  0.00000000E+00  0.00000000E+00  0.00000000E+00  0.00000000E+00  0.00000000E+00
  0.00000000E+00  0.00000000E+00  0.00000000E+00  0.00000000E+00  0.00000000E+00
  0.00000000E+00  0.00000000E+00  0.00000000E+00  0.00000000E+00  0.00000000E+00
  0.00000000E+00  0.00000000E+00  0.00000000E+00  0.00000000E+00  0.00000000E+00
  0.00000000E+00  0.00000000E+00  0.00000000E+00  0.00000000E+00  0.00000000E+00
  0.00000000E+00  0.00000000E+00  0.00000000E+00  0.00000000E+00  0.00000000E+00
IOpCl                                      I                1
IROHF                                      I                0
Alpha Orbital Energies                     R   N=          64
 -8.99700570E+01 -1.96727723E+01 -8.33032368E+00 -6.25250280E+00 -6.24884611E+00
 -6.24343832E+00 -1.09420840E+00 -8.28692639E-01 -5.32613923E-01 -4.92119926E-01
 -4.11029305E-01 -3.98156552E-01 -3.44892903E-01 -1.32120467E-01  1.53112707E-02
  4.14055001E-02  4.85281509E-02  5.78131409E-02  7.64836952E-02  1.53980249E-01
  1.94857960E-01  1.99988004E-01  2.17438974E-01  2.72610627E-01  3.15678171E-01
  3.39218267E-01  3.51556403E-01  4.05854048E-01  5.51187061E-01  6.16655754E-01
  7.18352497E-01  7.29006836E-01  7.97884855E-01  8.00127110E-01  9.77362553E-01
  1.05188558E+00  1.09319387E+00  1.16072306E+00  1.38048467E+00  1.39743606E+00
  1.42057718E+00  1.47477648E+00  1.50661655E+00  1.65418723E+00  1.66960868E+00
  1.79690520E+00  2.07354806E+00  2.10383744E+00  2.48489091E+00  2.56955264E+00
  2.89333094E+00  2.94443498E+00  3.17512820E+00  3.18851146E+00  3.85689956E+00
  5.05648292E+00  5.08520825E+00  5.53560350E+00  7.86133731E+00  1.74159048E+01
  1.74624620E+01  1.74712429E+01  4.98929089E+01  1.89125809E+02
Beta Orbital Energies                      R   N=          64
 -8.99700570E+01 -1.96727723E+01 -8.33032368E+00 -6.25250280E+00 -6.24884611E+00
 -6.24343832E+00 -1.09420840E+00 -8.28692639E-01 -5.32613923E-01 -4.92119926E-01
 -4.11029305E-01 -3.98156552E-01 -3.44892903E-01 -1.32120467E-01  1.53112707E-02
  4.14055001E-02  4.85281509E-02  5.78131409E-02  7.64836952E-02  1.53980249E-01
  1.94857960E-01  1.99988004E-01  2.17438974E-01  2.72610627E-01  3.15678171E-01
  3.39218267E-01  3.51556403E-01  4.05854048E-01  5.51187061E-01  6.16655754E-01
  7.18352497E-01  7.29006836E-01  7.97884855E-01  8.00127110E-01  9.77362553E-01
  1.05188558E+00  1.09319387E+00  1.16072306E+00  1.38048467E+00  1.39743606E+00
  1.42057718E+00  1.47477648E+00  1.50661655E+00  1.65418723E+00  1.66960868E+00
  1.79690520E+00  2.07354806E+00  2.10383744E+00  2.48489091E+00  2.56955264E+00
  2.89333094E+00  2.94443498E+00  3.17512820E+00  3.18851146E+00  3.85689956E+00
  5.05648292E+00  5.08520825E+00  5.53560350E+00  7.86133731E+00  1.74159048E+01
  1.74624620E+01  1.74712429E+01  4.98929089E+01  1.89125809E+02
Alpha MO coefficients                      R   N=        4096
 -1.58709429E-07  7.43291286E-08 -8.49868197E-06  2.15848524E-06  1.70164715E-07
 -3.15507554E-06  2.09213576E-05 -1.06504973E-05 -1.32083874E-06 -2.68334106E-05
 -1.82170256E-06 -7.49662790E-06 -7.46547169E-07  2.57549701E-04  1.51691036E-04
  4.83566358E-05  1.50278147E-06 -4.42210671E-06  2.90464770E-07 -4.42813844E-07
  1.26743451E-05 -1.47599433E-06  4.10787587E-01  6.54410315E-01  1.53554485E-02
 -4.36215722E-03  1.66043926E-03 -1.02794373E-03  6.63202508E-05 -6.93824196E-05
 -4.91566446E-06 -2.35064605E-05 -5.63480600E-05 -1.56549753E-05 -7.36873323E-05
  1.42977372E-05  5.59372921E-06  2.51140865E-05 -3.05669379E-06  1.25581662E-06
  2.71324752E-06 -2.46233680E-05 -4.15660009E-05 -1.58382431E-04  2.16001994E-04
  4.38096323E-05  1.84136314E-04  7.73108754E-05  4.04292229E-06  3.53864261E-05
 -9.68605040E-06  1.45067465E-06 -7.01552703E-06  2.77583878E-05 -1.03041998E-04
  9.06702415E-06 -1.66378671E-05 -4.33214472E-06  1.96439419E-05 -1.81385797E-04
  2.60920521E-04 -8.95782159E-06 -4.30885555E-05 -1.62550969E-04  5.52862920E-01
  4.69672100E-01  6.08332507E-04  1.24734862E-03  1.36172402E-04  8.12104830E-03
 -1.84214217E-04 -1.43300877E-04 -1.69613664E-05 -3.35218746E-03 -1.35973003E-04
  2.25154185E-04  3.73009495E-05  3.06663941E-03  5.20939835E-04  2.80031568E-04
  2.31260828E-05 -5.38171489E-05 -2.75005449E-06  2.72571418E-05 -1.29887185E-04
 -2.08178886E-05  1.25772383E-07 -2.04872398E-07  2.81665733E-06 -4.63446206E-06
 -6.84270013E-05 -1.58255335E-05 -8.28498136E-04  4.35302281E-04  4.64867076E-05
  2.86709824E-05  8.66099476E-06 -1.96288136E-07 -1.55421712E-08 -1.56521777E-05
  1.18693815E-06 -1.86947634E-06  9.11803338E-05 -1.72950502E-06  1.48444832E-05
 -1.41451799E-04 -1.01379759E-05 -7.36969383E-05  1.92084653E-04 -2.93341098E-05
  2.03725841E-05 -8.66189397E-06  1.69924596E-05  1.65151780E-05  6.30156758E-05
  5.83456190E-06  8.34773047E-05 -8.82847928E-05 -8.77747787E-04 -1.87899765E-05
  4.31629895E-04  5.05616624E-05  3.70922743E-05 -1.79932444E-04  1.39882435E-04
  6.44918864E-05 -1.32822464E-05 -3.82794413E-05 -8.09463120E-06 -2.10221885E-05
 -8.74854233E-05  2.98428841E-05  3.74684816E-06  9.73406414E-05  4.76211248E-04
 -1.69233559E-04 -1.95565500E-05 -6.30665392E-04 -2.84957163E-04 -3.02787147E-04
 -3.80648229E-05  3.51518968E-03  2.12656851E-03  7.74412653E-04  3.57979281E-05
 -2.03559482E-05  2.91637882E-07 -1.71305137E-05  1.87402313E-04 -2.48982918E-05
 -1.19760605E-01 -3.20484370E-01  5.16070806E-01  5.98817883E-01  4.34537395E-02
 -1.64171720E-02  1.45674177E-03 -9.47676951E-04 -4.33146196E-05 -2.60645876E-04
 -1.46431338E-03 -3.69681901E-04 -1.82067950E-03 -3.37849749E-03 -8.34410506E-04
 -4.10738027E-03 -3.79972492E-04 -6.79926949E-05 -4.12898719E-04 -3.28584840E-04
 -4.29587584E-04 -1.68762427E-03  2.80401096E-03  5.22416639E-04  2.29139006E-03
  8.09579754E-04 -4.93369475E-05  5.27028773E-04  4.37635447E-04 -1.67733998E-05
 -1.19628214E-04  7.48621819E-04 -1.67502580E-03  2.05986606E-04 -3.11267517E-04
 -6.31229025E-05  9.30503953E-05 -1.65682061E-03  3.31594842E-03 -9.00790961E-05
 -4.05982037E-04 -1.52576554E-03  8.13622540E-07 -1.96795350E-05 -3.22915198E-05
  1.14966873E-05  1.38740363E-06  3.30660801E-04  1.59036059E-04 -5.81556342E-05
 -4.48549178E-06 -9.50191764E-04 -9.13733253E-04 -5.06719402E-04 -3.91155563E-05
  1.32916175E-03  1.00713440E-03  3.00567701E-04 -1.92504373E-06  1.44322152E-04
 -4.97638098E-06 -2.47760443E-05 -6.57839109E-05 -2.32637166E-05 -3.77196206E-04
 -1.03352699E-03  1.93030375E-03  1.51737108E-03  5.78342981E-06  1.66584470E-04
 -5.61521044E-04 -2.37991393E-03  1.53422215E-04  5.23587924E-04  3.67496519E-01
 -2.34427818E-02 -8.89574852E-02  6.87729663E-01 -4.38347986E-02 -1.66406686E-01
  5.35104814E-02 -3.40690373E-03 -1.28536497E-02 -7.79284181E-03  4.35238694E-04
  1.52100690E-03  4.99637024E-03 -3.14304263E-04 -1.04488356E-03  3.28736384E-04
 -3.99376892E-04  1.02536885E-04 -1.66854184E-04 -7.44599830E-05 -2.14281479E-05
  9.31862590E-04 -7.44732309E-04  1.76792402E-04 -1.76963406E-04 -1.07365622E-05
  1.50274277E-04 -2.79195104E-04 -1.13103637E-04  1.30773627E-04 -6.98364246E-05
 -2.49561877E-04  1.96335107E-07 -4.84939296E-06 -1.66318003E-05  6.75185286E-06
  6.82327356E-06  7.83305713E-05  6.39909565E-05 -3.15708837E-05 -1.40233897E-05
 -1.85828627E-04 -2.61774719E-04 -8.73047959E-05 -1.32058991E-05 -4.50925412E-05
  1.69756443E-04 -1.58656392E-04 -5.76363249E-05  3.69478809E-05  1.17678126E-05
  5.27719533E-07 -1.80881749E-05 -2.63087874E-06 -8.43328263E-04 -2.28375604E-03
  4.05508957E-03  4.05321411E-03 -7.41747580E-04 -2.03942690E-04 -6.35738406E-04
 -4.37578499E-04 -4.90241150E-04 -1.82201652E-03  9.20911381E-02  9.56953486E-02
  3.55518559E-01  1.72095400E-01  1.78753539E-01  6.64082412E-01  1.31030634E-02
  1.35450787E-02  5.03442058E-02 -1.86308758E-03 -1.75438845E-03 -6.53912100E-03
  1.09898011E-03  1.11121161E-03  4.12411367E-03 -5.93443332E-04 -4.30339335E-04
 -2.67670711E-04 -3.75462968E-05 -1.08489417E-04  1.15958585E-06  1.34035392E-04
  3.02203718E-04  4.62139494E-05 -5.50412020E-05 -3.93372155E-05 -5.33578043E-04
 -1.87529177E-04  1.18834727E-03 -2.56826750E-06  1.62136907E-04  5.92768198E-04
  5.20966761E-07  2.67774727E-06  9.94162888E-07  6.42720009E-06 -1.17701607E-06
 -3.03494061E-05 -3.15549462E-06 -1.82968463E-05  3.71992661E-08  1.32312534E-04
  1.52558811E-05  1.13772319E-04  2.03006031E-05 -1.89404477E-04  3.37794932E-05
 -1.77500046E-04 -8.58720172E-06 -1.05585810E-05 -2.36629542E-06  1.72183445E-06
 -1.60127197E-05  1.62587364E-05  4.65125898E-05  1.26164835E-04 -2.24794138E-04
 -2.22982916E-04  6.27341172E-05 -5.53067959E-05 -3.63206381E-05  3.26359586E-05
 -2.03942778E-03  5.42662130E-04 -4.80042248E-04  3.67258609E-01 -9.87297038E-02
 -8.78697512E-04  6.84863256E-01 -1.84113578E-01 -8.40635709E-05  5.01276867E-02
 -1.34795422E-02  3.97386214E-05 -6.75285835E-03  1.82623979E-03 -3.59490992E-06
  3.91997469E-03 -1.02999963E-03  1.63001395E-04  7.78045713E-05 -3.82596991E-04
  7.36180942E-05 -2.89656985E-04  1.55876495E-05 -2.69471027E-04  3.54692749E-04
 -3.70673167E-05  1.01601626E-06  1.00005714E-05  2.24861483E-06  2.27538992E-05
  1.82326531E-05 -1.32675075E-06  9.51891786E-05 -1.87013514E-05 -1.17068789E-01
 -1.92623660E-01  3.29691364E-03  4.55628013E-02  5.01510274E-03  5.59863432E-01
  3.55544475E-03  7.43313725E-02  8.21594750E-03  4.34671398E-01  2.06319957E-02
  3.32472903E-02  2.78393870E-03 -4.03495121E-02 -1.48875834E-02 -9.47394688E-03
 -1.22590154E-03 -9.67784186E-03 -4.97805616E-05  2.78013226E-03 -5.63509195E-03
 -4.73514744E-04  2.99553346E-03  8.48551876E-03 -1.75642557E-02 -3.25110818E-02
  5.54649226E-02  4.03710513E-02  1.10901863E-02 -7.49747851E-03 -1.85660762E-04
  1.07277170E-04  4.78782791E-03 -1.28688874E-04  5.50817879E-04  9.23856849E-03
 -2.30851528E-04  1.11706397E-03 -1.08195264E-02  2.20543557E-04 -1.37473856E-03
 -2.57526262E-02  1.08501921E-03 -1.71122277E-03 -4.32302161E-03  7.62309302E-04
 -1.80154308E-03 -2.57643914E-03  3.89671531E-04  6.60152791E-04  6.62896048E-03
 -7.32322691E-04  1.08459691E-01  7.85440672E-02  2.36177917E-02  1.28254008E-03
 -2.23938918E-02 -2.62121846E-03  5.55858271E-03  5.93166955E-03 -2.66467957E-03
 -7.81925090E-04  4.09147715E-04  1.43286965E-03  1.35366727E-02  2.25479020E-02
  2.32275204E-02 -1.25168100E-02 -2.82912843E-03 -7.02696154E-02  3.46394823E-02
 -1.83945953E-02 -4.03954857E-03 -4.25113436E-02  2.90992790E-02 -3.92760783E-03
 -2.44767961E-03 -2.66913876E-02 -1.25450419E-02 -5.57694173E-03 -2.60271217E-04
 -4.84425455E-04 -1.31367170E-04 -3.68346832E-04  3.54217447E-03  1.35932215E-03
  3.30128701E-02  9.38370770E-02 -1.97194605E-01 -3.63356526E-01  6.55797931E-01
  4.13908336E-01 -4.80228361E-03  4.58134630E-03 -2.17325074E-03 -9.40246777E-04
 -1.68495009E-04  3.89511807E-03  1.64482208E-02 -2.66463129E-04  7.79285901E-03
  3.27963270E-02  3.94121852E-04 -1.10657380E-02 -4.53647854E-02  4.97395640E-03
 -1.35309509E-02 -6.24547695E-02 -1.21052468E-02  1.68688470E-03 -9.83548127E-03
  1.92638169E-02 -4.49667879E-04  1.20103314E-02  8.78511914E-03 -8.42013699E-04
 -1.97716913E-02 -2.86443434E-02  1.16109172E-02  1.07759147E-03  6.43730859E-03
  7.36829885E-04  1.00870532E-01  1.30055631E-01  3.91691020E-03  2.41761800E-03
  5.82635618E-03  2.18789696E-02  3.70753637E-02  6.19350378E-02 -2.83297557E-02
  2.44647667E-01  3.09725755E-02 -1.85753132E-01 -4.00633685E-02  3.49769867E-01
  4.42583299E-02 -2.84762771E-01 -4.43491346E-02  2.39324704E-01  3.15162675E-02
 -5.22240576E-02  5.21840676E-03  2.61988909E-02  4.87555909E-03 -7.02990866E-03
  2.01374040E-04  3.45371625E-03 -1.78058748E-02  1.04519505E-03  2.11943286E-03
  6.05325915E-03 -1.29877722E-02 -2.36738613E-02  4.58851813E-02  2.92464659E-02
  6.14534244E-03 -3.48165575E-03 -4.88476404E-03 -1.25518350E-03 -1.04811902E-02
 -7.95619903E-03  4.75236519E-04 -2.01741065E-02 -1.51750840E-02  1.02145560E-03
  2.65467468E-02  2.03809595E-02 -2.06000749E-03  6.23407692E-02  4.69849782E-02
 -6.87345950E-05  1.60756889E-02  1.96193212E-02 -2.30298357E-03  4.48685420E-03
 -3.11905069E-03 -4.87535679E-04 -6.98073529E-03 -9.34776866E-03  1.64426882E-01
  2.57242097E-01  7.57471950E-02  5.28799668E-03 -3.00385400E-02 -3.76777448E-03
  3.15241790E-03  7.90322085E-03 -6.30744629E-03  3.06030961E-03  1.43244129E-03
  9.49998657E-04  3.40510960E-03  5.85127081E-03  4.16650973E-02 -1.06519948E-02
  4.52939473E-02 -2.15932361E-02  6.13653540E-02 -1.54151590E-02  6.54877341E-02
 -1.88095546E-03  6.17287045E-02 -3.35707544E-03  6.33794411E-02 -1.42614633E-02
  7.63078885E-03 -1.07322940E-02  5.68351023E-03 -9.58116933E-04  2.75709542E-03
  2.12194384E-03  2.71670710E-03  2.70861128E-03  1.11843501E-02  3.19545804E-02
 -6.87003476E-02 -1.25344960E-01  2.28812935E-01  2.82126771E-01  1.83905385E-02
  9.47270691E-04 -7.77640218E-03 -2.11923208E-02  9.40674258E-04 -2.07634468E-02
 -7.77016930E-02  1.76413974E-03 -4.04125369E-02 -1.51279830E-01 -5.40812795E-04
  5.85851907E-02  2.19942183E-01 -9.20310740E-03  1.03140876E-01  3.84130070E-01
  2.11353664E-03  3.24104052E-02  1.02421127E-01 -4.85263779E-02 -6.51919232E-03
 -1.92267141E-02  1.03161083E-02 -1.80833029E-03 -8.78023417E-03 -2.15408566E-02
  1.73733877E-02  5.13173173E-03  3.59395551E-03  5.56670603E-03 -1.54899980E-01
 -2.77960727E-01 -1.29983507E-01 -3.70077410E-03 -7.00761353E-03 -2.46532659E-02
 -1.38819881E-02 -2.37255573E-02 -1.96147716E-01 -4.79809772E-02  1.00921516E-01
  8.35331149E-02 -2.89351777E-01 -7.02784044E-02  1.46812328E-01  4.62620112E-02
 -2.95431054E-01 -8.07264740E-02  1.33199429E-01  1.60146049E-02 -4.32386992E-02
 -3.89229456E-03  3.53360802E-02  6.34517116E-03  3.99757159E-04  4.30602001E-03
 -3.16634546E-03 -1.15156277E-02  4.13773228E-03  1.18224485E-02 -2.54343205E-02
 -4.73139004E-02  9.72206112E-02  5.97022242E-02  1.53884903E-02 -3.12635094E-02
  1.13040518E-02 -7.56021434E-03 -5.71304907E-02  1.05082042E-02 -7.26968164E-03
 -1.10142712E-01  2.02400977E-02 -1.37920668E-02  1.50253766E-01 -2.93497967E-02
  1.92819737E-02  3.40077615E-01 -5.83901900E-02  4.54897898E-02  1.35054036E-01
 -4.18039533E-02  2.63955885E-02  1.17078728E-02 -1.47993415E-02  2.18391791E-03
 -2.00410149E-02  1.63976816E-03 -4.79268894E-03  1.70579523E-02 -2.34653538E-02
 -2.20003809E-02 -9.02299608E-03  1.10176798E-02  2.59437915E-03  8.61796295E-03
  5.99055986E-03  1.10885883E-02 -1.62726413E-03  2.26368155E-03  4.97940071E-03
  8.50878437E-03  6.92752200E-02 -1.49348952E-02  2.77047860E-01 -2.95982735E-02
  1.02426642E-01 -2.16586674E-02  4.03665220E-01 -1.82220143E-02  1.05646463E-01
 -1.73554751E-02  3.74703049E-01 -2.22933895E-02  1.10006880E-02 -1.16177891E-02
  8.30396304E-02  3.70796691E-04  3.34069092E-03  1.32850089E-02  2.48539833E-03
  3.24902752E-03 -3.60028094E-03 -1.02949624E-02  2.22217973E-02  4.07883082E-02
 -7.70150653E-02 -8.89379936E-02 -1.74961386E-02  1.45181933E-02  4.69514010E-03
  3.22170676E-03  2.37791497E-02  1.44449966E-02  1.47792106E-02  4.57841018E-02
  2.79178856E-02  2.89348550E-02 -6.26462560E-02 -4.10462951E-02 -4.46988047E-02
 -1.42607516E-01 -7.99069363E-02 -6.93103404E-02 -5.95274382E-02 -3.07798784E-02
 -1.32173973E-02  6.56912563E-03 -7.43959793E-03  6.38419584E-03  5.44074827E-03
  1.35218390E-03  5.93166413E-03  1.75615301E-03  1.95456581E-02  7.40092165E-03
 -2.34244674E-03  3.19150617E-02  3.60603069E-02  7.00044169E-02  4.63246137E-02
  6.67906310E-04 -1.80155754E-04  7.20300013E-03 -4.36044665E-03 -7.36808627E-03
 -1.83189557E-02 -4.02985815E-02  4.21351527E-02  2.35935855E-02 -2.68345030E-02
 -5.89142959E-02  6.13594961E-02  3.09134610E-02 -3.15486036E-02 -4.46031026E-02
  5.88239400E-02  1.73904483E-02 -2.59004183E-03 -1.07761988E-02  1.96228629E-02