 Entering Gaussian System, Link 0=g16
 Initial command:
 /home/szhao/Apps/g16/l1.exe "/home/szhao/tmp/Gau-110790.inp" -scrdir="/home/szhao/tmp/"
 Default is to use a total of  16 processors:
                               16 via shared-memory
                                1 via Linda
 Entering Link 1 = /home/szhao/Apps/g16/l1.exe PID=    110798.
  
 Copyright (c) 1988,1990,1992,1993,1995,1998,2003,2009,2016,
            Gaussian, Inc.  All Rights Reserved.
  
 This is part of the Gaussian(R) 16 program.  It is based on
 the Gaussian(R) 09 system (copyright 2009, Gaussian, Inc.),
 the Gaussian(R) 03 system (copyright 2003, Gaussian, Inc.),
 the Gaussian(R) 98 system (copyright 1998, Gaussian, Inc.),
 the Gaussian(R) 94 system (copyright 1995, Gaussian, Inc.),
 the Gaussian 92(TM) system (copyright 1992, Gaussian, Inc.),
 the Gaussian 90(TM) system (copyright 1990, Gaussian, Inc.),
 the Gaussian 88(TM) system (copyright 1988, Gaussian, Inc.),
 the Gaussian 86(TM) system (copyright 1986, Carnegie Mellon
 University), and the Gaussian 82(TM) system (copyright 1983,
 Carnegie Mellon University). Gaussian is a federally registered
 trademark of Gaussian, Inc.
  
 This software contains proprietary and confidential information,
 including trade secrets, belonging to Gaussian, Inc.
  
 This software is provided under written license and may be
 used, copied, transmitted, or stored only in accord with that
 written license.
  
 The following legend is applicable only to US Government
 contracts under FAR:
  
                    RESTRICTED RIGHTS LEGEND
  
 Use, reproduction and disclosure by the US Government is
 subject to restrictions as set forth in subparagraphs (a)
 and (c) of the Commercial Computer Software - Restricted
 Rights clause in FAR 52.227-19.
  
 Gaussian, Inc.
 340 Quinnipiac St., Bldg. 40, Wallingford CT 06492
  
  
 ---------------------------------------------------------------
 Warning -- This program may not be used in any manner that
 competes with the business of Gaussian, Inc. or will provide
 assistance to any competitor of Gaussian, Inc.  The licensee
 of this program is prohibited from giving any competitor of
 Gaussian, Inc. access to this program.  By using this program,
 the user acknowledges that Gaussian, Inc. is engaged in the
 business of creating and licensing software in the field of
 computational chemistry and represents and warrants to the
 licensee that it is not a competitor of Gaussian, Inc. and that
 it will not use this program in any manner prohibited above.
 ---------------------------------------------------------------
  

 Cite this work as:
 Gaussian 16, Revision A.03,
 M. J. Frisch, G. W. Trucks, H. B. Schlegel, G. E. Scuseria, 
 M. A. Robb, J. R. Cheeseman, G. Scalmani, V. Barone, 
 G. A. Petersson, H. Nakatsuji, X. Li, M. Caricato, A. V. Marenich, 
 J. Bloino, B. G. Janesko, R. Gomperts, B. Mennucci, H. P. Hratchian, 
 J. V. Ortiz, A. F. Izmaylov, J. L. Sonnenberg, D. Williams-Young, 
 F. Ding, F. Lipparini, F. Egidi, J. Goings, B. Peng, A. Petrone, 
 T. Henderson, D. Ranasinghe, V. G. Zakrzewski, J. Gao, N. Rega, 
 G. Zheng, W. Liang, M. Hada, M. Ehara, K. Toyota, R. Fukuda, 
 J. Hasegawa, M. Ishida, T. Nakajima, Y. Honda, O. Kitao, H. Nakai, 
 T. Vreven, K. Throssell, J. A. Montgomery, Jr., J. E. Peralta, 
 F. Ogliaro, M. J. Bearpark, J. J. Heyd, E. N. Brothers, K. N. Kudin, 
 V. N. Staroverov, T. A. Keith, R. Kobayashi, J. Normand, 
 K. Raghavachari, A. P. Rendell, J. C. Burant, S. S. Iyengar, 
 J. Tomasi, M. Cossi, J. M. Millam, M. Klene, C. Adamo, R. Cammi, 
 J. W. Ochterski, R. L. Martin, K. Morokuma, O. Farkas, 
 J. B. Foresman, and D. J. Fox, Gaussian, Inc., Wallingford CT, 2016.
 
 ******************************************
 Gaussian 16:  ES64L-G16RevA.03 25-Dec-2016
                21-Apr-2025 
 ******************************************
 %chk=opt.chk
 %mem=4GB
 %nprocshared=8
 Will use up to    8 processors via shared memory.
 --------------------------------------------
 #p opt UM062X/6-311+G** nosymm int=superfine
 --------------------------------------------
 1/18=20,19=15,26=5,38=1/1,3;
 2/9=110,12=2,15=1,17=6,18=5,40=1/2;
 3/5=4,6=6,7=111,11=2,25=1,30=1,71=1,74=-55,75=-7,116=2/1,2,3;
 4//1;
 5/5=2,38=5/2;
 6/7=2,8=2,9=2,10=2,28=1/1;
 7/30=1/1,2,3,16;
 1/18=20,19=15,26=5/3(2);
 2/9=110,15=1/2;
 99//99;
 2/9=110,15=1/2;
 3/5=4,6=6,7=111,11=2,25=1,30=1,71=1,74=-55,75=-7,116=2/1,2,3;
 4/5=5,16=3,69=1/1;
 5/5=2,38=5/2;
 7/30=1/1,2,3,16;
 1/18=20,19=15,26=5/3(-5);
 2/9=110,15=1/2;
 6/7=2,8=2,9=2,10=2,19=2,28=1/1;
 99/9=1/99;
 Leave Link    1 at Mon Apr 21 19:45:19 2025, MaxMem=   536870912 cpu:               2.1 elap:               0.3
 (Enter /home/szhao/Apps/g16/l101.exe)
 -------------------
 Title Card Required
 -------------------
 Symbolic Z-matrix:
 Charge =  0 Multiplicity = 1
 C                    -1   -2.12714   0.        0. 
 S                    -1    2.12714   0.        0. 
 H                    0    -2.70278  -0.92504   0. 
 H                    0    -2.7039    0.92434  -0.00015 
 
 Add virtual bond connecting atoms S2         and C1         Dist= 8.04D+00.
 ITRead=  2  2  0  0
 MicOpt= -2 -2 -1 -1
 NAtoms=      4 NQM=        2 NQMF=       2 NMMI=      0 NMMIF=      0
                NMic=       0 NMicF=      0.
                    Isotopes and Nuclear Properties:
 (Nuclear quadrupole moments (NQMom) in fm**2, nuclear magnetic moments (NMagM)
  in nuclear magnetons)

  Atom         1           2           3           4
 IAtWgt=          12          32           1           1
 AtmWgt=  12.0000000  31.9720718   1.0078250   1.0078250
 NucSpn=           0           0           1           1
 AtZEff=  -0.0000000  -0.0000000  -0.0000000  -0.0000000
 NQMom=    0.0000000   0.0000000   0.0000000   0.0000000
 NMagM=    0.0000000   0.0000000   2.7928460   2.7928460
 AtZNuc=   6.0000000  16.0000000   1.0000000   1.0000000
 Leave Link  101 at Mon Apr 21 19:45:20 2025, MaxMem=   536870912 cpu:               2.5 elap:               0.4
 (Enter /home/szhao/Apps/g16/l103.exe)

 GradGradGradGradGradGradGradGradGradGradGradGradGradGradGradGradGradGrad
 Berny optimization.
 Initialization pass.
                           ----------------------------
                           !    Initial Parameters    !
                           ! (Angstroms and Degrees)  !
 --------------------------                            --------------------------
 ! Name  Definition              Value          Derivative Info.                !
 --------------------------------------------------------------------------------
 ! X1    R(1,-1)                -2.1271         Frozen                          !
 ! Y1    R(1,-2)                 0.0            Frozen                          !
 ! Z1    R(1,-3)                 0.0            Frozen                          !
 ! X2    R(2,-1)                 2.1271         Frozen                          !
 ! Y2    R(2,-2)                 0.0            Frozen                          !
 ! Z2    R(2,-3)                 0.0            Frozen                          !
 ! R1    R(1,3)                  1.0895         estimate D2E/DX2                !
 ! R2    R(1,4)                  1.0895         estimate D2E/DX2                !
 ! A1    A(2,1,3)              121.8936         estimate D2E/DX2                !
 ! A2    A(2,1,4)              121.9628         estimate D2E/DX2                !
 ! A3    A(3,1,4)              116.1436         estimate D2E/DX2                !
 ! D1    D(2,1,4,3)            179.9911         estimate D2E/DX2                !
 --------------------------------------------------------------------------------
 Trust Radius=3.00D-01 FncErr=1.00D-07 GrdErr=1.00D-07 EigMax=2.50D+02 EigMin=1.00D-04
 Number of steps in this run=     22 maximum allowed number of steps=    100.
 GradGradGradGradGradGradGradGradGradGradGradGradGradGradGradGradGradGrad

 Leave Link  103 at Mon Apr 21 19:45:20 2025, MaxMem=   536870912 cpu:               0.2 elap:               0.1
 (Enter /home/szhao/Apps/g16/l202.exe)
                          Input orientation:                          
 ---------------------------------------------------------------------
 Center     Atomic      Atomic             Coordinates (Angstroms)
 Number     Number       Type             X           Y           Z
 ---------------------------------------------------------------------
      1          6           0       -2.127140    0.000000    0.000000
      2         16           0        2.127140    0.000000    0.000000
      3          1           0       -2.702782   -0.925037    0.000000
      4          1           0       -2.703896    0.924339   -0.000152
 ---------------------------------------------------------------------
                    Distance matrix (angstroms):
                    1          2          3          4
     1  C    0.000000
     2  S    4.254279   0.000000
     3  H    1.089522   4.917706   0.000000
     4  H    1.089518   4.918669   1.849376   0.000000
 Symmetry turned off by external request.
 Stoichiometry    CH2S
 Framework group  C1[X(CH2S)]
 Deg. of freedom     6
 Full point group                 C1      NOp   1
 Rotational constants (GHZ):         293.2322161           2.7486014           2.7230768
 Leave Link  202 at Mon Apr 21 19:45:21 2025, MaxMem=   536870912 cpu:               0.1 elap:               0.1
 (Enter /home/szhao/Apps/g16/l301.exe)
 Standard basis: 6-311+G(d,p) (5D, 7F)
 Ernie: Thresh=  0.10000D-02 Tol=  0.10000D-05 Strict=F.
    64 basis functions,   102 primitive gaussians,    66 cartesian basis functions
    12 alpha electrons       12 beta electrons
       nuclear repulsion energy        21.4987365929 Hartrees.
 IExCor= 4336 DFT=T Ex+Corr=M062X ExCW=0 ScaHFX=  0.540000
 ScaDFX=  1.000000  1.000000  1.000000  1.000000 ScalE2=  1.000000  1.000000
 IRadAn=      7 IRanWt=     -1 IRanGd=            0 ICorTp=0 IEmpDi=  4
 NAtoms=    4 NActive=    4 NUniq=    4 SFac= 1.00D+00 NAtFMM=   60 NAOKFM=F Big=F
 Integral buffers will be    131072 words long.
 Raffenetti 2 integral format.
 Two-electron integral symmetry is turned off.
 Leave Link  301 at Mon Apr 21 19:45:21 2025, MaxMem=   536870912 cpu:               0.7 elap:               0.2
 (Enter /home/szhao/Apps/g16/l302.exe)
 NPDir=0 NMtPBC=     1 NCelOv=     1 NCel=       1 NClECP=     1 NCelD=      1
         NCelK=      1 NCelE2=     1 NClLst=     1 CellRange=     0.0.
 One-electron integrals computed using PRISM.
 NBasis=    64 RedAO= T EigKep=  1.69D-02  NBF=    64
 NBsUse=    64 1.00D-06 EigRej= -1.00D+00 NBFU=    64
 Precomputing XC quadrature grid using
 IXCGrd= 4 IRadAn=           7 IRanWt=          -1 IRanGd=           0 AccXCQ= 0.00D+00.
 Generated NRdTot=       0 NPtTot=           0 NUsed=           0 NTot=          32
 NSgBfM=    61    61    61    61    61 MxSgAt=     4 MxSgA2=     4.
 Leave Link  302 at Mon Apr 21 19:45:22 2025, MaxMem=   536870912 cpu:               2.0 elap:               0.3
 (Enter /home/szhao/Apps/g16/l303.exe)
 DipDrv:  MaxL=1.
 Leave Link  303 at Mon Apr 21 19:45:22 2025, MaxMem=   536870912 cpu:               0.5 elap:               0.1
 (Enter /home/szhao/Apps/g16/l401.exe)
 ExpMin= 4.05D-02 ExpMax= 9.34D+04 ExpMxC= 3.17D+03 IAcc=3 IRadAn=         7 AccDes= 0.00D+00
 Harris functional with IExCor= 1009 and IRadAn=       7 diagonalized for initial guess.
 HarFok:  IExCor= 1009 AccDes= 0.00D+00 IRadAn=         7 IDoV= 1 UseB2=F ITyADJ=14
 ICtDFT=  3500011 ScaDFX=  1.000000  1.000000  1.000000  1.000000
 FoFCou: FMM=F IPFlag=           0 FMFlag=      100000 FMFlg1=           0
         NFxFlg=           0 DoJE=T BraDBF=F KetDBF=T FulRan=T
         wScrn=  0.000000 ICntrl=       500 IOpCl=  0 I1Cent=   200000004 NGrid=           0
         NMat0=    1 NMatS0=      1 NMatT0=    0 NMatD0=    1 NMtDS0=    0 NMtDT0=    0
 Symmetry not used in FoFCou.
 Harris En= -436.957517429148    
 JPrj=0 DoOrth=F DoCkMO=F.
 Initial guess <Sx>= 0.0000 <Sy>= 0.0000 <Sz>= 0.0000 <S**2>= 0.0000 S= 0.0000
 Leave Link  401 at Mon Apr 21 19:45:22 2025, MaxMem=   536870912 cpu:               3.2 elap:               0.5
 (Enter /home/szhao/Apps/g16/l502.exe)
 Keep R1 and R2 ints in memory in canonical form, NReq=11470680.
 FoFCou: FMM=F IPFlag=           0 FMFlag=           0 FMFlg1=           0
         NFxFlg=           0 DoJE=F BraDBF=F KetDBF=F FulRan=T
         wScrn=  0.000000 ICntrl=       600 IOpCl=  0 I1Cent=           0 NGrid=           0
         NMat0=    1 NMatS0=   2080 NMatT0=    0 NMatD0=    1 NMtDS0=    0 NMtDT0=    0
 Symmetry not used in FoFCou.
 Two-electron integral symmetry not used.
 UHF open shell SCF:
 Using DIIS extrapolation, IDIIS=  1040.
 NGot=   536870912 LenX=   532532574 LenY=   532527777
 Requested convergence on RMS density matrix=1.00D-08 within 128 cycles.
 Requested convergence on MAX density matrix=1.00D-06.
 Requested convergence on             energy=1.00D-06.
 No special actions if energy rises.

 Cycle   1  Pass 1  IDiag  1:
 E= -437.124411290938    
 DIIS: error= 2.51D-02 at cycle   1 NSaved=   1.
 NSaved= 1 IEnMin= 1 EnMin= -437.124411290938     IErMin= 1 ErrMin= 2.51D-02
 ErrMax= 2.51D-02  0.00D+00 EMaxC= 1.00D-01 BMatC= 2.19D-01 BMatP= 2.19D-01
 IDIUse=3 WtCom= 7.49D-01 WtEn= 2.51D-01
 Coeff-Com:  0.100D+01
 Coeff-En:   0.100D+01
 Coeff:      0.100D+01
 Gap=     0.150 Goal=   None    Shift=    0.000
 Gap=     0.150 Goal=   None    Shift=    0.000
 GapD=    0.150 DampG=1.000 DampE=0.500 DampFc=0.5000 IDamp=-1.
 Damping current iteration by 5.00D-01
 RMSDP=4.16D-03 MaxDP=6.88D-02              OVMax= 1.97D-01

 Cycle   2  Pass 1  IDiag  1:
 E= -437.137555544071     Delta-E=       -0.013144253132 Rises=F Damp=T
 DIIS: error= 8.84D-03 at cycle   2 NSaved=   2.
 NSaved= 2 IEnMin= 2 EnMin= -437.137555544071     IErMin= 2 ErrMin= 8.84D-03
 ErrMax= 8.84D-03  0.00D+00 EMaxC= 1.00D-01 BMatC= 2.62D-02 BMatP= 2.19D-01
 IDIUse=3 WtCom= 9.12D-01 WtEn= 8.84D-02
 Coeff-Com: -0.268D+00 0.127D+01
 Coeff-En:   0.000D+00 0.100D+01
 Coeff:     -0.245D+00 0.124D+01
 Gap=     0.174 Goal=   None    Shift=    0.000
 Gap=     0.174 Goal=   None    Shift=    0.000
 RMSDP=1.65D-03 MaxDP=2.10D-02 DE=-1.31D-02 OVMax= 1.85D-01

 Cycle   3  Pass 1  IDiag  1:
 E= -437.154841388614     Delta-E=       -0.017285844543 Rises=F Damp=F
 DIIS: error= 7.12D-03 at cycle   3 NSaved=   3.
 NSaved= 3 IEnMin= 3 EnMin= -437.154841388614     IErMin= 3 ErrMin= 7.12D-03
 ErrMax= 7.12D-03  0.00D+00 EMaxC= 1.00D-01 BMatC= 6.07D-03 BMatP= 2.62D-02
 IDIUse=3 WtCom= 9.29D-01 WtEn= 7.12D-02
 Coeff-Com: -0.187D+00 0.454D+00 0.734D+00
 Coeff-En:   0.000D+00 0.000D+00 0.100D+01
 Coeff:     -0.174D+00 0.421D+00 0.753D+00
 Gap=     0.146 Goal=   None    Shift=    0.000
 Gap=     0.146 Goal=   None    Shift=    0.000
 RMSDP=6.36D-04 MaxDP=1.32D-02 DE=-1.73D-02 OVMax= 2.45D-02

 Cycle   4  Pass 1  IDiag  1:
 E= -437.157027497502     Delta-E=       -0.002186108888 Rises=F Damp=F
 DIIS: error= 8.22D-04 at cycle   4 NSaved=   4.
 NSaved= 4 IEnMin= 4 EnMin= -437.157027497502     IErMin= 4 ErrMin= 8.22D-04
 ErrMax= 8.22D-04  0.00D+00 EMaxC= 1.00D-01 BMatC= 8.47D-05 BMatP= 6.07D-03
 IDIUse=3 WtCom= 9.92D-01 WtEn= 8.22D-03
 Coeff-Com: -0.106D-02-0.152D-01-0.423D-01 0.106D+01
 Coeff-En:   0.000D+00 0.000D+00 0.000D+00 0.100D+01
 Coeff:     -0.106D-02-0.151D-01-0.420D-01 0.106D+01
 Gap=     0.149 Goal=   None    Shift=    0.000
 Gap=     0.149 Goal=   None    Shift=    0.000
 RMSDP=2.52D-04 MaxDP=3.14D-03 DE=-2.19D-03 OVMax= 1.53D-02

 Cycle   5  Pass 1  IDiag  1:
 E= -437.157193733827     Delta-E=       -0.000166236325 Rises=F Damp=F
 DIIS: error= 3.05D-04 at cycle   5 NSaved=   5.
 NSaved= 5 IEnMin= 5 EnMin= -437.157193733827     IErMin= 5 ErrMin= 3.05D-04
 ErrMax= 3.05D-04  0.00D+00 EMaxC= 1.00D-01 BMatC= 1.36D-05 BMatP= 8.47D-05
 IDIUse=3 WtCom= 9.97D-01 WtEn= 3.05D-03
 Coeff-Com:  0.994D-02-0.210D-01-0.635D-01-0.427D-01 0.112D+01
 Coeff-En:   0.000D+00 0.000D+00 0.000D+00 0.000D+00 0.100D+01
 Coeff:      0.991D-02-0.209D-01-0.633D-01-0.426D-01 0.112D+01
 Gap=     0.146 Goal=   None    Shift=    0.000
 Gap=     0.146 Goal=   None    Shift=    0.000
 RMSDP=1.19D-04 MaxDP=1.60D-03 DE=-1.66D-04 OVMax= 7.86D-03

 Cycle   6  Pass 1  IDiag  1:
 E= -437.157219649800     Delta-E=       -0.000025915973 Rises=F Damp=F
 DIIS: error= 7.12D-05 at cycle   6 NSaved=   6.
 NSaved= 6 IEnMin= 6 EnMin= -437.157219649800     IErMin= 6 ErrMin= 7.12D-05
 ErrMax= 7.12D-05  0.00D+00 EMaxC= 1.00D-01 BMatC= 1.37D-06 BMatP= 1.36D-05
 IDIUse=1 WtCom= 1.00D+00 WtEn= 0.00D+00
 Coeff-Com:  0.309D-03-0.107D-03-0.544D-02-0.116D+00 0.234D+00 0.887D+00
 Coeff:      0.309D-03-0.107D-03-0.544D-02-0.116D+00 0.234D+00 0.887D+00
 Gap=     0.145 Goal=   None    Shift=    0.000
 Gap=     0.145 Goal=   None    Shift=    0.000
 RMSDP=3.36D-05 MaxDP=4.73D-04 DE=-2.59D-05 OVMax= 2.34D-03

 Cycle   7  Pass 1  IDiag  1:
 E= -437.157221671982     Delta-E=       -0.000002022182 Rises=F Damp=F
 DIIS: error= 2.94D-05 at cycle   7 NSaved=   7.
 NSaved= 7 IEnMin= 7 EnMin= -437.157221671982     IErMin= 7 ErrMin= 2.94D-05
 ErrMax= 2.94D-05  0.00D+00 EMaxC= 1.00D-01 BMatC= 1.08D-07 BMatP= 1.37D-06
 IDIUse=1 WtCom= 1.00D+00 WtEn= 0.00D+00
 Coeff-Com:  0.421D-03-0.798D-03-0.307D-02 0.193D-01-0.804D-01-0.144D+00
 Coeff-Com:  0.121D+01
 Coeff:      0.421D-03-0.798D-03-0.307D-02 0.193D-01-0.804D-01-0.144D+00
 Coeff:      0.121D+01
 Gap=     0.145 Goal=   None    Shift=    0.000
 Gap=     0.145 Goal=   None    Shift=    0.000
 RMSDP=1.30D-05 MaxDP=1.80D-04 DE=-2.02D-06 OVMax= 9.04D-04

 Cycle   8  Pass 1  IDiag  1:
 E= -437.157221872394     Delta-E=       -0.000000200413 Rises=F Damp=F
 DIIS: error= 7.02D-06 at cycle   8 NSaved=   8.
 NSaved= 8 IEnMin= 8 EnMin= -437.157221872394     IErMin= 8 ErrMin= 7.02D-06
 ErrMax= 7.02D-06  0.00D+00 EMaxC= 1.00D-01 BMatC= 1.78D-09 BMatP= 1.08D-07
 IDIUse=1 WtCom= 1.00D+00 WtEn= 0.00D+00
 Coeff-Com: -0.667D-04 0.112D-03 0.907D-03 0.140D-02 0.794D-02-0.881D-02
 Coeff-Com: -0.231D+00 0.123D+01
 Coeff:     -0.667D-04 0.112D-03 0.907D-03 0.140D-02 0.794D-02-0.881D-02
 Coeff:     -0.231D+00 0.123D+01
 Gap=     0.145 Goal=   None    Shift=    0.000
 Gap=     0.145 Goal=   None    Shift=    0.000
 RMSDP=1.62D-06 MaxDP=2.94D-05 DE=-2.00D-07 OVMax= 1.04D-04

 Cycle   9  Pass 1  IDiag  1:
 E= -437.157221877490     Delta-E=       -0.000000005096 Rises=F Damp=F
 DIIS: error= 3.51D-07 at cycle   9 NSaved=   9.
 NSaved= 9 IEnMin= 9 EnMin= -437.157221877490     IErMin= 9 ErrMin= 3.51D-07
 ErrMax= 3.51D-07  0.00D+00 EMaxC= 1.00D-01 BMatC= 2.22D-11 BMatP= 1.78D-09
 IDIUse=1 WtCom= 1.00D+00 WtEn= 0.00D+00
 Coeff-Com: -0.708D-05 0.140D-04 0.964D-05-0.574D-03 0.199D-02 0.415D-02
 Coeff-Com: -0.229D-01-0.269D-02 0.102D+01
 Coeff:     -0.708D-05 0.140D-04 0.964D-05-0.574D-03 0.199D-02 0.415D-02
 Coeff:     -0.229D-01-0.269D-02 0.102D+01
 Gap=     0.145 Goal=   None    Shift=    0.000
 Gap=     0.145 Goal=   None    Shift=    0.000
 RMSDP=9.17D-08 MaxDP=1.41D-06 DE=-5.10D-09 OVMax= 5.51D-06

 Cycle  10  Pass 1  IDiag  1:
 E= -437.157221877511     Delta-E=       -0.000000000021 Rises=F Damp=F
 DIIS: error= 6.86D-08 at cycle  10 NSaved=  10.
 NSaved=10 IEnMin=10 EnMin= -437.157221877511     IErMin=10 ErrMin= 6.86D-08
 ErrMax= 6.86D-08  0.00D+00 EMaxC= 1.00D-01 BMatC= 1.23D-12 BMatP= 2.22D-11
 IDIUse=1 WtCom= 1.00D+00 WtEn= 0.00D+00
 Coeff-Com: -0.354D-07 0.511D-06-0.121D-04-0.821D-04 0.156D-03 0.677D-03
 Coeff-Com:  0.371D-04-0.164D-01 0.136D+00 0.880D+00
 Coeff:     -0.354D-07 0.511D-06-0.121D-04-0.821D-04 0.156D-03 0.677D-03
 Coeff:      0.371D-04-0.164D-01 0.136D+00 0.880D+00
 Gap=     0.145 Goal=   None    Shift=    0.000
 Gap=     0.145 Goal=   None    Shift=    0.000
 RMSDP=3.26D-08 MaxDP=6.56D-07 DE=-2.11D-11 OVMax= 1.84D-06

 Cycle  11  Pass 1  IDiag  1:
 E= -437.157221877515     Delta-E=       -0.000000000004 Rises=F Damp=F
 DIIS: error= 6.72D-08 at cycle  11 NSaved=  11.
 NSaved=11 IEnMin=11 EnMin= -437.157221877515     IErMin=11 ErrMin= 6.72D-08
 ErrMax= 6.72D-08  0.00D+00 EMaxC= 1.00D-01 BMatC= 7.98D-13 BMatP= 1.23D-12
 IDIUse=1 WtCom= 1.00D+00 WtEn= 0.00D+00
 Coeff-Com:  0.347D-06-0.548D-06-0.252D-05 0.109D-04-0.701D-04-0.443D-04
 Coeff-Com:  0.119D-02-0.318D-02-0.166D-01 0.193D+00 0.826D+00
 Coeff:      0.347D-06-0.548D-06-0.252D-05 0.109D-04-0.701D-04-0.443D-04
 Coeff:      0.119D-02-0.318D-02-0.166D-01 0.193D+00 0.826D+00
 Gap=     0.145 Goal=   None    Shift=    0.000
 Gap=     0.145 Goal=   None    Shift=    0.000
 RMSDP=2.91D-08 MaxDP=6.23D-07 DE=-3.64D-12 OVMax= 1.74D-06

 Cycle  12  Pass 1  IDiag  1:
 E= -437.157221877518     Delta-E=       -0.000000000003 Rises=F Damp=F
 DIIS: error= 6.59D-08 at cycle  12 NSaved=  12.
 NSaved=12 IEnMin=12 EnMin= -437.157221877518     IErMin=12 ErrMin= 6.59D-08
 ErrMax= 6.59D-08  0.00D+00 EMaxC= 1.00D-01 BMatC= 7.07D-13 BMatP= 7.98D-13
 IDIUse=1 WtCom= 1.00D+00 WtEn= 0.00D+00
 Coeff-Com: -0.241D-06 0.288D-06 0.505D-05 0.120D-04 0.435D-06-0.120D-03
 Coeff-Com: -0.708D-03 0.541D-02-0.203D-01-0.322D+00-0.490D+00 0.183D+01
 Coeff:     -0.241D-06 0.288D-06 0.505D-05 0.120D-04 0.435D-06-0.120D-03
 Coeff:     -0.708D-03 0.541D-02-0.203D-01-0.322D+00-0.490D+00 0.183D+01
 Gap=     0.145 Goal=   None    Shift=    0.000
 Gap=     0.145 Goal=   None    Shift=    0.000
 RMSDP=6.66D-08 MaxDP=1.43D-06 DE=-3.13D-12 OVMax= 3.99D-06

 Cycle  13  Pass 1  IDiag  1:
 E= -437.157221877525     Delta-E=       -0.000000000007 Rises=F Damp=F
 DIIS: error= 6.29D-08 at cycle  13 NSaved=  13.
 NSaved=13 IEnMin=13 EnMin= -437.157221877525     IErMin=13 ErrMin= 6.29D-08
 ErrMax= 6.29D-08  0.00D+00 EMaxC= 1.00D-01 BMatC= 6.44D-13 BMatP= 7.07D-13
 IDIUse=1 WtCom= 1.00D+00 WtEn= 0.00D+00
 Large coefficients: NSaved= 13 BigCof=   10.49 CofMax=   10.00 Det=-2.09D-15
 Inversion failed.  Reducing to 12 matrices.
 Large coefficients: NSaved= 12 BigCof=   10.49 CofMax=   10.00 Det=-2.11D-15
 Inversion failed.  Reducing to 11 matrices.
 Large coefficients: NSaved= 11 BigCof=   10.38 CofMax=   10.00 Det=-2.19D-15
 Inversion failed.  Reducing to 10 matrices.
 Coeff-Com: -0.124D-04 0.160D-03 0.379D-05-0.255D-02 0.782D-02 0.230D-01
 Coeff-Com:  0.913D-01-0.737D+00-0.481D+01 0.643D+01
 Coeff:     -0.124D-04 0.160D-03 0.379D-05-0.255D-02 0.782D-02 0.230D-01
 Coeff:      0.913D-01-0.737D+00-0.481D+01 0.643D+01
 Gap=     0.145 Goal=   None    Shift=    0.000
 Gap=     0.145 Goal=   None    Shift=    0.000
 RMSDP=3.97D-07 MaxDP=8.56D-06 DE=-6.88D-12 OVMax= 2.38D-05

 Cycle  14  Pass 1  IDiag  1:
 E= -437.157221877560     Delta-E=       -0.000000000035 Rises=F Damp=F
 DIIS: error= 4.51D-08 at cycle  14 NSaved=  11.
 NSaved=11 IEnMin=11 EnMin= -437.157221877560     IErMin=11 ErrMin= 4.51D-08
 ErrMax= 4.51D-08  0.00D+00 EMaxC= 1.00D-01 BMatC= 3.52D-13 BMatP= 6.44D-13
 IDIUse=1 WtCom= 1.00D+00 WtEn= 0.00D+00
 Coeff-Com: -0.331D-04 0.977D-04 0.324D-03-0.950D-04-0.301D-02 0.221D-01
 Coeff-Com:  0.426D+00 0.122D+01-0.258D+01-0.120D+01 0.312D+01
 Coeff:     -0.331D-04 0.977D-04 0.324D-03-0.950D-04-0.301D-02 0.221D-01
 Coeff:      0.426D+00 0.122D+01-0.258D+01-0.120D+01 0.312D+01
 Gap=     0.145 Goal=   None    Shift=    0.000
 Gap=     0.145 Goal=   None    Shift=    0.000
 RMSDP=8.44D-07 MaxDP=1.82D-05 DE=-3.49D-11 OVMax= 5.06D-05

 Cycle  15  Pass 1  IDiag  1:
 E= -437.157221877595     Delta-E=       -0.000000000035 Rises=F Damp=F
 DIIS: error= 7.25D-09 at cycle  15 NSaved=  12.
 NSaved=12 IEnMin=12 EnMin= -437.157221877595     IErMin=12 ErrMin= 7.25D-09
 ErrMax= 7.25D-09  0.00D+00 EMaxC= 1.00D-01 BMatC= 1.55D-14 BMatP= 3.52D-13
 IDIUse=1 WtCom= 1.00D+00 WtEn= 0.00D+00
 Coeff-Com:  0.946D-05-0.598D-04-0.310D-04 0.557D-03-0.106D-02-0.103D-01
 Coeff-Com:  0.171D-02 0.134D+00 0.327D+00-0.436D+00-0.240D+00 0.122D+01
 Coeff:      0.946D-05-0.598D-04-0.310D-04 0.557D-03-0.106D-02-0.103D-01
 Coeff:      0.171D-02 0.134D+00 0.327D+00-0.436D+00-0.240D+00 0.122D+01
 Gap=     0.145 Goal=   None    Shift=    0.000
 Gap=     0.145 Goal=   None    Shift=    0.000
 RMSDP=1.49D-07 MaxDP=3.21D-06 DE=-3.50D-11 OVMax= 8.95D-06

 Cycle  16  Pass 1  IDiag  1:
 E= -437.157221877595     Delta-E=       -0.000000000001 Rises=F Damp=F
 DIIS: error= 3.75D-09 at cycle  16 NSaved=  13.
 NSaved=13 IEnMin=13 EnMin= -437.157221877595     IErMin=13 ErrMin= 3.75D-09
 ErrMax= 3.75D-09  0.00D+00 EMaxC= 1.00D-01 BMatC= 1.62D-15 BMatP= 1.55D-14
 IDIUse=1 WtCom= 1.00D+00 WtEn= 0.00D+00
 Coeff-Com: -0.281D-05 0.218D-04-0.386D-05-0.226D-03 0.515D-03 0.398D-02
 Coeff-Com: -0.175D-01-0.107D+00-0.545D-01 0.270D+00-0.492D-01-0.508D+00
 Coeff-Com:  0.146D+01
 Coeff:     -0.281D-05 0.218D-04-0.386D-05-0.226D-03 0.515D-03 0.398D-02
 Coeff:     -0.175D-01-0.107D+00-0.545D-01 0.270D+00-0.492D-01-0.508D+00
 Coeff:      0.146D+01
 Gap=     0.145 Goal=   None    Shift=    0.000
 Gap=     0.145 Goal=   None    Shift=    0.000
 RMSDP=7.74D-09 MaxDP=1.66D-07 DE=-5.68D-13 OVMax= 4.62D-07

 SCF Done:  E(UM062X) =  -437.157221878     A.U. after   16 cycles
            NFock= 16  Conv=0.77D-08     -V/T= 2.0013
 <Sx>= 0.0000 <Sy>= 0.0000 <Sz>= 0.0000 <S**2>=-0.0000 S=-0.0000
 <L.S>=  0.00000000000    
 KE= 4.365716672738D+02 PE=-1.080705798555D+03 EE= 1.854781728110D+02
 Annihilation of the first spin contaminant:
 S**2 before annihilation    -0.0000,   after     0.0000
 Leave Link  502 at Mon Apr 21 19:45:30 2025, MaxMem=   536870912 cpu:              53.5 elap:               7.2
 (Enter /home/szhao/Apps/g16/l601.exe)
 Copying SCF densities to generalized density rwf, IOpCl= 1 IROHF=0.

 **********************************************************************

            Population analysis using the SCF density.

 **********************************************************************

 Alpha  occ. eigenvalues --  -89.94267 -10.62070  -8.30314  -6.23100  -6.21521
 Alpha  occ. eigenvalues --   -6.21520  -0.76890  -0.74435  -0.51877  -0.31764
 Alpha  occ. eigenvalues --   -0.31759  -0.31279
 Alpha virt. eigenvalues --   -0.16775  -0.09593   0.01799   0.04679   0.05165
 Alpha virt. eigenvalues --    0.06440   0.07848   0.08707   0.08851   0.13585
 Alpha virt. eigenvalues --    0.17779   0.18888   0.35288   0.36703   0.36737
 Alpha virt. eigenvalues --    0.44602   0.44760   0.57863   0.61375   0.63695
 Alpha virt. eigenvalues --    0.64322   0.72655   0.80356   0.80448   0.81424
 Alpha virt. eigenvalues --    0.84184   0.84184   1.06819   1.17002   1.21649
 Alpha virt. eigenvalues --    1.45178   1.53004   1.67561   1.68373   1.68423
 Alpha virt. eigenvalues --    1.69449   1.80309   1.92693   2.07087   2.37465
 Alpha virt. eigenvalues --    2.49016   2.49831   2.60915   2.73919   2.98747
 Alpha virt. eigenvalues --    3.69189   7.72936  17.44166  17.44181  17.44818
 Alpha virt. eigenvalues --   23.78446 188.97744
  Beta  occ. eigenvalues --  -89.94267 -10.62070  -8.30314  -6.23100  -6.21521
  Beta  occ. eigenvalues --   -6.21520  -0.76890  -0.74435  -0.51877  -0.31764
  Beta  occ. eigenvalues --   -0.31759  -0.31279
  Beta virt. eigenvalues --   -0.16775  -0.09593   0.01799   0.04679   0.05165
  Beta virt. eigenvalues --    0.06440   0.07848   0.08707   0.08851   0.13585
  Beta virt. eigenvalues --    0.17779   0.18888   0.35288   0.36703   0.36737
  Beta virt. eigenvalues --    0.44602   0.44760   0.57863   0.61375   0.63695
  Beta virt. eigenvalues --    0.64322   0.72655   0.80356   0.80448   0.81424
  Beta virt. eigenvalues --    0.84184   0.84184   1.06819   1.17002   1.21649
  Beta virt. eigenvalues --    1.45178   1.53004   1.67561   1.68373   1.68423
  Beta virt. eigenvalues --    1.69449   1.80309   1.92693   2.07087   2.37465
  Beta virt. eigenvalues --    2.49016   2.49831   2.60915   2.73919   2.98747
  Beta virt. eigenvalues --    3.69189   7.72936  17.44166  17.44181  17.44818
  Beta virt. eigenvalues --   23.78446 188.97744
          Condensed to atoms (all electrons):
               1          2          3          4
     1  C    5.653360  -0.003976   0.325181   0.325210
     2  S   -0.003976  16.009611   0.001082   0.001081
     3  H    0.325181   0.001082   0.548203  -0.028249
     4  H    0.325210   0.001081  -0.028249   0.548169
          Atomic-Atomic Spin Densities.
               1          2          3          4
     1  C    0.000000   0.000000  -0.000000  -0.000000
     2  S    0.000000   0.000000   0.000000  -0.000000
     3  H   -0.000000   0.000000   0.000000  -0.000000
     4  H   -0.000000  -0.000000  -0.000000   0.000000
 Mulliken charges and spin densities:
               1          2
     1  C   -0.299775   0.000000
     2  S   -0.007797   0.000000
     3  H    0.153783  -0.000000
     4  H    0.153789   0.000000
 Sum of Mulliken charges =  -0.00000   0.00000
 Mulliken charges and spin densities with hydrogens summed into heavy atoms:
               1          2
     1  C    0.007797  -0.000000
     2  S   -0.007797   0.000000
 Electronic spatial extent (au):  <R**2>=            454.0528
 Charge=             -0.0000 electrons
 Dipole moment (field-independent basis, Debye):
    X=             -2.6238    Y=             -0.0012    Z=             -0.0003  Tot=              2.6238
 Quadrupole moment (field-independent basis, Debye-Ang):
   XX=            -10.5864   YY=            -21.8719   ZZ=            -21.7106
   XY=             -0.0003   XZ=             -0.0001   YZ=              0.0000
 Traceless Quadrupole moment (field-independent basis, Debye-Ang):
   XX=              7.4699   YY=             -3.8156   ZZ=             -3.6543
   XY=             -0.0003   XZ=             -0.0001   YZ=              0.0000
 Octapole moment (field-independent basis, Debye-Ang**2):
  XXX=            -32.9696  YYY=             -0.0012  ZZZ=              0.0000  XYY=            -19.3167
  XXY=             -0.0017  XXZ=             -0.0007  XZZ=            -18.9396  YZZ=              0.0000
  YYZ=             -0.0001  XYZ=              0.0000
 Hexadecapole moment (field-independent basis, Debye-Ang**3):
 XXXX=           -478.6239 YYYY=            -38.4768 ZZZZ=            -30.6927 XXXY=             -0.0382
 XXXZ=             -0.0080 YYYX=              0.0006 YYYZ=              0.0002 ZZZX=             -0.0011
 ZZZY=              0.0004 XXYY=           -106.7802 XXZZ=           -108.1519 YYZZ=            -11.8891
 XXYZ=             -0.0001 YYXZ=             -0.0001 ZZXY=             -0.0007
 N-N= 2.149873659292D+01 E-N=-1.080705798581D+03  KE= 4.365716672738D+02
                          Isotropic Fermi Contact Couplings
        Atom                 a.u.       MegaHertz       Gauss      10(-4) cm-1
     1  C(13)             -0.00000      -0.00000      -0.00000      -0.00000
     2  S(33)             -0.00000      -0.00000      -0.00000      -0.00000
     3  H(1)               0.00000       0.00000       0.00000       0.00000
     4  H(1)               0.00000       0.00000       0.00000       0.00000
 --------------------------------------------------------
       Center         ----  Spin Dipole Couplings  ----
                      3XX-RR        3YY-RR        3ZZ-RR
 --------------------------------------------------------
     1   Atom        0.000000      0.000000      0.000000
     2   Atom        0.000000      0.000000      0.000000
     3   Atom        0.000000      0.000000      0.000000
     4   Atom        0.000000      0.000000      0.000000
 --------------------------------------------------------
                        XY            XZ            YZ
 --------------------------------------------------------
     1   Atom        0.000000      0.000000      0.000000
     2   Atom        0.000000      0.000000      0.000000
     3   Atom        0.000000      0.000000      0.000000
     4   Atom        0.000000      0.000000      0.000000
 --------------------------------------------------------


 ---------------------------------------------------------------------------------
              Anisotropic Spin Dipole Couplings in Principal Axis System
 ---------------------------------------------------------------------------------

       Atom             a.u.   MegaHertz   Gauss  10(-4) cm-1        Axes

              Baa     0.0000     0.000     0.000     0.000  1.0000  0.0000  0.0000
     1 C(13)  Bbb     0.0000     0.000     0.000     0.000 -0.0000  1.0000  0.0000
              Bcc     0.0000     0.000     0.000     0.000  0.0000  0.0000  1.0000
 
              Baa     0.0000     0.000     0.000     0.000  1.0000  0.0000  0.0000
     2 S(33)  Bbb     0.0000     0.000     0.000     0.000 -0.0000  1.0000  0.0000
              Bcc     0.0000     0.000     0.000     0.000  0.0000  0.0000  1.0000
 
              Baa     0.0000     0.000     0.000     0.000  1.0000  0.0000  0.0000
     3 H(1)   Bbb     0.0000     0.000     0.000     0.000 -0.0000  1.0000  0.0000
              Bcc     0.0000     0.000     0.000     0.000  0.0000  0.0000  1.0000
 
              Baa     0.0000     0.000     0.000     0.000  1.0000  0.0000  0.0000
     4 H(1)   Bbb     0.0000     0.000     0.000     0.000 -0.0000  1.0000  0.0000
              Bcc     0.0000     0.000     0.000     0.000  0.0000  0.0000  1.0000
 

 ---------------------------------------------------------------------------------

 No NMR shielding tensors so no spin-rotation constants.
 Leave Link  601 at Mon Apr 21 19:45:31 2025, MaxMem=   536870912 cpu:               1.8 elap:               0.4
 (Enter /home/szhao/Apps/g16/l701.exe)
 ... and contract with generalized density number  0.
 Compute integral first derivatives.
 Leave Link  701 at Mon Apr 21 19:45:31 2025, MaxMem=   536870912 cpu:               1.2 elap:               0.4
 (Enter /home/szhao/Apps/g16/l702.exe)
 L702 exits ... SP integral derivatives will be done elsewhere.
 Leave Link  702 at Mon Apr 21 19:45:32 2025, MaxMem=   536870912 cpu:               0.8 elap:               0.3
 (Enter /home/szhao/Apps/g16/l703.exe)
 Integral derivatives from FoFJK, PRISM(SPDF).
 Compute integral first derivatives, UseDBF=F ICtDFT=           0.
 Calling FoFJK, ICntrl=      2127 FMM=F ISym2X=0 I1Cent= 0 IOpClX= 1 NMat=1 NMatS=1 NMatT=0.
 FoFJK:  IHMeth= 1 ICntrl=    2127 DoSepK=F KAlg= 0 I1Cent=           0 FoldK=F
 IRaf=         0 NMat=       1 IRICut=       1 DoRegI=T DoRafI=F ISym2E= 0 IDoP0=0 IntGTp=1.
 FoFCou: FMM=F IPFlag=           0 FMFlag=      100000 FMFlg1=         800
         NFxFlg=           0 DoJE=F BraDBF=F KetDBF=F FulRan=T
         wScrn=  0.000000 ICntrl=      2127 IOpCl=  1 I1Cent=           0 NGrid=           0
         NMat0=    1 NMatS0=      1 NMatT0=    0 NMatD0=    1 NMtDS0=    0 NMtDT0=    0
 Symmetry not used in FoFCou.
 Leave Link  703 at Mon Apr 21 19:45:33 2025, MaxMem=   536870912 cpu:               5.9 elap:               0.9
 (Enter /home/szhao/Apps/g16/l716.exe)
 Dipole        =-1.03226895D+00-4.69187490D-04-1.02312817D-04
 -------------------------------------------------------------------
 Center     Atomic                   Forces (Hartrees/Bohr)
 Number     Number              X              Y              Z
 -------------------------------------------------------------------
      1        6          -0.000000000   -0.000000000   -0.000000000
      2       16          -0.000000000   -0.000000000   -0.000000000
      3        1          -0.014846145    0.002773608   -0.000001808
      4        1          -0.014842833   -0.002789344   -0.000001353
 -------------------------------------------------------------------
 Cartesian Forces:  Max     0.014846145 RMS     0.006165705
 Leave Link  716 at Mon Apr 21 19:45:33 2025, MaxMem=   536870912 cpu:               0.7 elap:               0.2
 (Enter /home/szhao/Apps/g16/l103.exe)

 GradGradGradGradGradGradGradGradGradGradGradGradGradGradGradGradGradGrad
 Berny optimization.
 FormGI is forming the generalized inverse of G from B-inverse, IUseBI=4.
 Internal  Forces:  Max     0.029688978 RMS     0.011184605
 Search for a local minimum.
 Step number   1 out of a maximum of   22
 All quantities printed in internal units (Hartrees-Bohrs-Radians)
 RMS Force = .10163D-01 SwitMx=.10000D-02 MixMth= 1
 Mixed Optimization -- RFO/linear search
 Second derivative matrix not updated -- first step.
 The second derivative matrix:
                          X1        Y1        Z1        X2        Y2
           X1           0.50000
           Y1           0.00000   0.50000
           Z1           0.00000   0.00000   0.50000
           X2           0.00000   0.00000   0.00000   0.50000
           Y2           0.00000   0.00000   0.00000   0.00000   0.50000
           Z2           0.00000   0.00000   0.00000   0.00000   0.00000
           R1           0.00000   0.00000   0.00000   0.00000   0.00000
           R2           0.00000   0.00000   0.00000   0.00000   0.00000
           A1           0.00000   0.00000   0.00000   0.00000   0.00000
           A2           0.00000   0.00000   0.00000   0.00000   0.00000
           A3           0.00000   0.00000   0.00000   0.00000   0.00000
           D1           0.00000   0.00000   0.00000   0.00000   0.00000
                          Z2        R1        R2        A1        A2
           Z2           0.50000
           R1           0.00000   0.34868
           R2           0.00000   0.00000   0.34868
           A1           0.00000   0.00000   0.00000   0.16000
           A2           0.00000   0.00000   0.00000   0.00000   0.16000
           A3           0.00000   0.00000   0.00000   0.00000   0.00000
           D1           0.00000   0.00000   0.00000   0.00000   0.00000
                          A3        D1
           A3           0.16000
           D1           0.00000   0.00241
 ITU=  0
     Eigenvalues ---    0.00241   0.16000   0.16000   0.34868   0.34868
     Eigenvalues --- 1000.000001000.000001000.000001000.000001000.00000
     Eigenvalues --- 1000.000001000.00000
 RFO step:  Lambda=-3.59080578D-03 EMin= 2.41201275D-03
 Linear search not attempted -- first point.
 Iteration  1 RMS(Cart)=  0.05001946 RMS(Int)=  0.00149614
 Iteration  2 RMS(Cart)=  0.00151510 RMS(Int)=  0.00000063
 Iteration  3 RMS(Cart)=  0.00000074 RMS(Int)=  0.00000000
 ITry= 1 IFail=0 DXMaxC= 1.10D-01 DCOld= 1.00D+10 DXMaxT= 3.00D-01 DXLimC= 3.00D+00 Rises=F
 Variable       Old X    -DE/DX   Delta X   Delta X   Delta X     New X
                                 (Linear)    (Quad)   (Total)
    X1       -4.01971  -0.02969   0.00000   0.00000   0.00000  -4.01971
    Y1        0.00000  -0.00002   0.00000   0.00000   0.00000   0.00000
    Z1        0.00000  -0.00000   0.00000   0.00000   0.00000   0.00000
    X2        4.01971   0.00000   0.00000   0.00000   0.00000   4.01971
    Y2        0.00000  -0.00000   0.00000   0.00000   0.00000   0.00000
    Z2        0.00000  -0.00000   0.00000   0.00000   0.00000   0.00000
    R1        2.05890   0.00549   0.00000   0.01558   0.01558   2.07448
    R2        2.05889   0.00549   0.00000   0.01559   0.01559   2.07448
    A1        2.12745   0.00966   0.00000   0.05903   0.05903   2.18648
    A2        2.12865   0.00965   0.00000   0.05902   0.05902   2.18767
    A3        2.02709  -0.01931   0.00000  -0.11805  -0.11805   1.90904
    D1        3.14144  -0.00000   0.00000  -0.00011  -0.00011   3.14133
         Item               Value     Threshold  Converged?
 Maximum Force            0.019312     0.000450     NO 
 RMS     Force            0.010163     0.000300     NO 
 Maximum Displacement     0.110237     0.001800     NO 
 RMS     Displacement     0.050198     0.001200     NO 
 Predicted change in Energy=-1.833806D-03
 Lowest energy point so far.  Saving SCF results.
 GradGradGradGradGradGradGradGradGradGradGradGradGradGradGradGradGradGrad

 Leave Link  103 at Mon Apr 21 19:45:34 2025, MaxMem=   536870912 cpu:               1.8 elap:               0.3
 (Enter /home/szhao/Apps/g16/l202.exe)
                          Input orientation:                          
 ---------------------------------------------------------------------
 Center     Atomic      Atomic             Coordinates (Angstroms)
 Number     Number       Type             X           Y           Z
 ---------------------------------------------------------------------
      1          6           0       -2.127140    0.000000    0.000000
      2         16           0        2.127140    0.000000    0.000000
      3          1           0       -2.761117   -0.896195   -0.000067
      4          1           0       -2.762185    0.895438   -0.000205
 ---------------------------------------------------------------------
                    Distance matrix (angstroms):
                    1          2          3          4
     1  C    0.000000
     2  S    4.254279   0.000000
     3  H    1.097767   4.969730   0.000000
     4  H    1.097767   4.970644   1.791634   0.000000
 Symmetry turned off by external request.
 Stoichiometry    CH2S
 Framework group  C1[X(CH2S)]
 Deg. of freedom     6
 Full point group                 C1      NOp   1
 Rotational constants (GHZ):         312.4379034           2.7362299           2.7124749
 Leave Link  202 at Mon Apr 21 19:45:34 2025, MaxMem=   536870912 cpu:               0.6 elap:               0.4
 (Enter /home/szhao/Apps/g16/l301.exe)
 Standard basis: 6-311+G(d,p) (5D, 7F)
 Ernie: Thresh=  0.10000D-02 Tol=  0.10000D-05 Strict=F.
    64 basis functions,   102 primitive gaussians,    66 cartesian basis functions
    12 alpha electrons       12 beta electrons
       nuclear repulsion energy        21.4281513552 Hartrees.
 IExCor= 4336 DFT=T Ex+Corr=M062X ExCW=0 ScaHFX=  0.540000
 ScaDFX=  1.000000  1.000000  1.000000  1.000000 ScalE2=  1.000000  1.000000
 IRadAn=      7 IRanWt=     -1 IRanGd=            0 ICorTp=0 IEmpDi=  4
 NAtoms=    4 NActive=    4 NUniq=    4 SFac= 1.00D+00 NAtFMM=   60 NAOKFM=F Big=F
 Integral buffers will be    131072 words long.
 Raffenetti 2 integral format.
 Two-electron integral symmetry is turned off.
 Leave Link  301 at Mon Apr 21 19:45:35 2025, MaxMem=   536870912 cpu:               0.9 elap:               0.2
 (Enter /home/szhao/Apps/g16/l302.exe)
 NPDir=0 NMtPBC=     1 NCelOv=     1 NCel=       1 NClECP=     1 NCelD=      1
         NCelK=      1 NCelE2=     1 NClLst=     1 CellRange=     0.0.
 One-electron integrals computed using PRISM.
 NBasis=    64 RedAO= T EigKep=  1.77D-02  NBF=    64
 NBsUse=    64 1.00D-06 EigRej= -1.00D+00 NBFU=    64
 Precomputing XC quadrature grid using
 IXCGrd= 4 IRadAn=           7 IRanWt=          -1 IRanGd=           0 AccXCQ= 0.00D+00.
 Generated NRdTot=       0 NPtTot=           0 NUsed=           0 NTot=          32
 NSgBfM=    61    61    61    61    61 MxSgAt=     4 MxSgA2=     4.
 Leave Link  302 at Mon Apr 21 19:45:35 2025, MaxMem=   536870912 cpu:               1.8 elap:               0.3
 (Enter /home/szhao/Apps/g16/l303.exe)
 DipDrv:  MaxL=1.
 Leave Link  303 at Mon Apr 21 19:45:36 2025, MaxMem=   536870912 cpu:               0.5 elap:               0.1
 (Enter /home/szhao/Apps/g16/l401.exe)
 Initial guess from the checkpoint file:  "opt.chk"
 B after Tr=    -0.009183   -0.000006   -0.000014
         Rot=    1.000000   -0.000003    0.000002   -0.000001 Ang=  -0.00 deg.
 Guess basis will be translated and rotated to current coordinates.
 JPrj=2 DoOrth=T DoCkMO=T.
 Initial guess <Sx>= 0.0000 <Sy>= 0.0000 <Sz>= 0.0000 <S**2>=-0.0000 S=-0.0000
 Generating alternative initial guess.
 ExpMin= 4.05D-02 ExpMax= 9.34D+04 ExpMxC= 3.17D+03 IAcc=3 IRadAn=         5 AccDes= 0.00D+00
 Harris functional with IExCor= 1009 and IRadAn=       5 diagonalized for initial guess.
 HarFok:  IExCor= 1009 AccDes= 0.00D+00 IRadAn=         5 IDoV= 1 UseB2=F ITyADJ=14
 ICtDFT=  3500011 ScaDFX=  1.000000  1.000000  1.000000  1.000000
 FoFCou: FMM=F IPFlag=           0 FMFlag=      100000 FMFlg1=           0
         NFxFlg=           0 DoJE=T BraDBF=F KetDBF=T FulRan=T
         wScrn=  0.000000 ICntrl=       500 IOpCl=  0 I1Cent=   200000004 NGrid=           0
         NMat0=    1 NMatS0=      1 NMatT0=    0 NMatD0=    1 NMtDS0=    0 NMtDT0=    0
 Symmetry not used in FoFCou.
 Harris En= -436.959244601743    
 Leave Link  401 at Mon Apr 21 19:45:36 2025, MaxMem=   536870912 cpu:               2.2 elap:               0.3
 (Enter /home/szhao/Apps/g16/l502.exe)
 Keep R1 and R2 ints in memory in canonical form, NReq=11470680.
 FoFCou: FMM=F IPFlag=           0 FMFlag=           0 FMFlg1=           0
         NFxFlg=           0 DoJE=F BraDBF=F KetDBF=F FulRan=T
         wScrn=  0.000000 ICntrl=       600 IOpCl=  0 I1Cent=           0 NGrid=           0
         NMat0=    1 NMatS0=   2080 NMatT0=    0 NMatD0=    1 NMtDS0=    0 NMtDT0=    0
 Symmetry not used in FoFCou.
 Two-electron integral symmetry not used.
 UHF open shell SCF:
 Using DIIS extrapolation, IDIIS=  1040.
 NGot=   536870912 LenX=   532532574 LenY=   532527777
 Requested convergence on RMS density matrix=1.00D-08 within 128 cycles.
 Requested convergence on MAX density matrix=1.00D-06.
 Requested convergence on             energy=1.00D-06.
 No special actions if energy rises.

 Cycle   1  Pass 1  IDiag  1:
 E= -437.159463950824    
 DIIS: error= 3.20D-03 at cycle   1 NSaved=   1.
 NSaved= 1 IEnMin= 1 EnMin= -437.159463950824     IErMin= 1 ErrMin= 3.20D-03
 ErrMax= 3.20D-03  0.00D+00 EMaxC= 1.00D-01 BMatC= 1.31D-03 BMatP= 1.31D-03
 IDIUse=3 WtCom= 9.68D-01 WtEn= 3.20D-02
 Coeff-Com:  0.100D+01
 Coeff-En:   0.100D+01
 Coeff:      0.100D+01
 Gap=     0.506 Goal=   None    Shift=    0.000
 Gap=     0.506 Goal=   None    Shift=    0.000
 GapD=    0.506 DampG=2.000 DampE=1.000 DampFc=2.0000 IDamp=-1.
 RMSDP=4.09D-04 MaxDP=1.02D-02              OVMax= 1.32D-02

 Cycle   2  Pass 1  IDiag  1:
 E= -437.159958109358     Delta-E=       -0.000494158534 Rises=F Damp=F
 DIIS: error= 3.07D-04 at cycle   2 NSaved=   2.
 NSaved= 2 IEnMin= 2 EnMin= -437.159958109358     IErMin= 2 ErrMin= 3.07D-04
 ErrMax= 3.07D-04  0.00D+00 EMaxC= 1.00D-01 BMatC= 3.02D-05 BMatP= 1.31D-03
 IDIUse=3 WtCom= 9.97D-01 WtEn= 3.07D-03
 Coeff-Com: -0.129D+00 0.113D+01
 Coeff-En:   0.000D+00 0.100D+01
 Coeff:     -0.129D+00 0.113D+01
 Gap=     0.150 Goal=   None    Shift=    0.000
 Gap=     0.150 Goal=   None    Shift=    0.000
 RMSDP=1.40D-04 MaxDP=3.32D-03 DE=-4.94D-04 OVMax= 4.91D-03

 Cycle   3  Pass 1  IDiag  1:
 E= -437.159983104643     Delta-E=       -0.000024995285 Rises=F Damp=F
 DIIS: error= 1.66D-04 at cycle   3 NSaved=   3.
 NSaved= 3 IEnMin= 3 EnMin= -437.159983104643     IErMin= 3 ErrMin= 1.66D-04
 ErrMax= 1.66D-04  0.00D+00 EMaxC= 1.00D-01 BMatC= 1.86D-06 BMatP= 3.02D-05
 IDIUse=3 WtCom= 9.98D-01 WtEn= 1.66D-03
 Coeff-Com: -0.180D-01 0.596D-01 0.958D+00
 Coeff-En:   0.000D+00 0.000D+00 0.100D+01
 Coeff:     -0.180D-01 0.595D-01 0.958D+00
 Gap=     0.150 Goal=   None    Shift=    0.000
 Gap=     0.150 Goal=   None    Shift=    0.000
 RMSDP=3.35D-05 MaxDP=9.86D-04 DE=-2.50D-05 OVMax= 1.08D-03

 Cycle   4  Pass 1  IDiag  1:
 E= -437.159984318044     Delta-E=       -0.000001213401 Rises=F Damp=F
 DIIS: error= 4.65D-05 at cycle   4 NSaved=   4.
 NSaved= 4 IEnMin= 4 EnMin= -437.159984318044     IErMin= 4 ErrMin= 4.65D-05
 ErrMax= 4.65D-05  0.00D+00 EMaxC= 1.00D-01 BMatC= 3.73D-07 BMatP= 1.86D-06
 IDIUse=1 WtCom= 1.00D+00 WtEn= 0.00D+00
 Coeff-Com:  0.821D-02-0.105D+00 0.299D+00 0.798D+00
 Coeff:      0.821D-02-0.105D+00 0.299D+00 0.798D+00
 Gap=     0.150 Goal=   None    Shift=    0.000
 Gap=     0.150 Goal=   None    Shift=    0.000
 RMSDP=1.12D-05 MaxDP=1.56D-04 DE=-1.21D-06 OVMax= 6.41D-04

 Cycle   5  Pass 1  IDiag  1:
 E= -437.159984568050     Delta-E=       -0.000000250006 Rises=F Damp=F
 DIIS: error= 8.47D-06 at cycle   5 NSaved=   5.
 NSaved= 5 IEnMin= 5 EnMin= -437.159984568050     IErMin= 5 ErrMin= 8.47D-06
 ErrMax= 8.47D-06  0.00D+00 EMaxC= 1.00D-01 BMatC= 1.31D-08 BMatP= 3.73D-07
 IDIUse=1 WtCom= 1.00D+00 WtEn= 0.00D+00
 Coeff-Com: -0.565D-03 0.116D-01-0.858D-01-0.606D-01 0.114D+01
 Coeff:     -0.565D-03 0.116D-01-0.858D-01-0.606D-01 0.114D+01
 Gap=     0.150 Goal=   None    Shift=    0.000
 Gap=     0.150 Goal=   None    Shift=    0.000
 RMSDP=4.01D-06 MaxDP=5.70D-05 DE=-2.50D-07 OVMax= 2.59D-04

 Cycle   6  Pass 1  IDiag  1:
 E= -437.159984594853     Delta-E=       -0.000000026804 Rises=F Damp=F
 DIIS: error= 3.38D-06 at cycle   6 NSaved=   6.
 NSaved= 6 IEnMin= 6 EnMin= -437.159984594853     IErMin= 6 ErrMin= 3.38D-06
 ErrMax= 3.38D-06  0.00D+00 EMaxC= 1.00D-01 BMatC= 1.69D-09 BMatP= 1.31D-08
 IDIUse=1 WtCom= 1.00D+00 WtEn= 0.00D+00
 Coeff-Com: -0.109D-02 0.152D-01-0.593D-01-0.933D-01 0.263D+00 0.876D+00
 Coeff:     -0.109D-02 0.152D-01-0.593D-01-0.933D-01 0.263D+00 0.876D+00
 Gap=     0.150 Goal=   None    Shift=    0.000
 Gap=     0.150 Goal=   None    Shift=    0.000
 RMSDP=1.28D-06 MaxDP=2.00D-05 DE=-2.68D-08 OVMax= 9.19D-05

 Cycle   7  Pass 1  IDiag  1:
 E= -437.159984597520     Delta-E=       -0.000000002667 Rises=F Damp=F
 DIIS: error= 6.40D-07 at cycle   7 NSaved=   7.
 NSaved= 7 IEnMin= 7 EnMin= -437.159984597520     IErMin= 7 ErrMin= 6.40D-07
 ErrMax= 6.40D-07  0.00D+00 EMaxC= 1.00D-01 BMatC= 9.74D-11 BMatP= 1.69D-09
 IDIUse=1 WtCom= 1.00D+00 WtEn= 0.00D+00
 Coeff-Com: -0.858D-04 0.708D-03 0.543D-03 0.112D-03-0.844D-01 0.297D-01
 Coeff-Com:  0.105D+01
 Coeff:     -0.858D-04 0.708D-03 0.543D-03 0.112D-03-0.844D-01 0.297D-01
 Coeff:      0.105D+01
 Gap=     0.150 Goal=   None    Shift=    0.000
 Gap=     0.150 Goal=   None    Shift=    0.000
 RMSDP=4.02D-07 MaxDP=6.26D-06 DE=-2.67D-09 OVMax= 2.75D-05

 Cycle   8  Pass 1  IDiag  1:
 E= -437.159984597713     Delta-E=       -0.000000000193 Rises=F Damp=F
 DIIS: error= 9.54D-08 at cycle   8 NSaved=   8.
 NSaved= 8 IEnMin= 8 EnMin= -437.159984597713     IErMin= 8 ErrMin= 9.54D-08
 ErrMax= 9.54D-08  0.00D+00 EMaxC= 1.00D-01 BMatC= 2.76D-12 BMatP= 9.74D-11
 IDIUse=1 WtCom= 1.00D+00 WtEn= 0.00D+00
 Coeff-Com:  0.324D-04-0.478D-03 0.195D-02 0.319D-02-0.175D-01-0.785D-02
 Coeff-Com: -0.144D-01 0.104D+01
 Coeff:      0.324D-04-0.478D-03 0.195D-02 0.319D-02-0.175D-01-0.785D-02
 Coeff:     -0.144D-01 0.104D+01
 Gap=     0.150 Goal=   None    Shift=    0.000
 Gap=     0.150 Goal=   None    Shift=    0.000
 RMSDP=6.11D-08 MaxDP=8.42D-07 DE=-1.93D-10 OVMax= 3.45D-06

 Cycle   9  Pass 1  IDiag  1:
 E= -437.159984597718     Delta-E=       -0.000000000004 Rises=F Damp=F
 DIIS: error= 4.51D-08 at cycle   9 NSaved=   9.
 NSaved= 9 IEnMin= 9 EnMin= -437.159984597718     IErMin= 9 ErrMin= 4.51D-08
 ErrMax= 4.51D-08  0.00D+00 EMaxC= 1.00D-01 BMatC= 3.34D-13 BMatP= 2.76D-12
 IDIUse=1 WtCom= 1.00D+00 WtEn= 0.00D+00
 Coeff-Com: -0.124D-05 0.372D-04-0.272D-03-0.295D-03 0.581D-02-0.860D-03
 Coeff-Com: -0.331D-01-0.149D+00 0.118D+01
 Coeff:     -0.124D-05 0.372D-04-0.272D-03-0.295D-03 0.581D-02-0.860D-03
 Coeff:     -0.331D-01-0.149D+00 0.118D+01
 Gap=     0.150 Goal=   None    Shift=    0.000
 Gap=     0.150 Goal=   None    Shift=    0.000
 RMSDP=1.75D-08 MaxDP=3.00D-07 DE=-4.32D-12 OVMax= 9.43D-07

 Cycle  10  Pass 1  IDiag  1:
 E= -437.159984597719     Delta-E=       -0.000000000001 Rises=F Damp=F
 DIIS: error= 3.24D-08 at cycle  10 NSaved=  10.
 NSaved=10 IEnMin=10 EnMin= -437.159984597719     IErMin=10 ErrMin= 3.24D-08
 ErrMax= 3.24D-08  0.00D+00 EMaxC= 1.00D-01 BMatC= 1.56D-13 BMatP= 3.34D-13
 IDIUse=1 WtCom= 1.00D+00 WtEn= 0.00D+00
 Coeff-Com: -0.620D-05 0.940D-04-0.400D-03-0.639D-03 0.392D-02 0.123D-02
 Coeff-Com: -0.234D-02-0.195D+00 0.130D+00 0.106D+01
 Coeff:     -0.620D-05 0.940D-04-0.400D-03-0.639D-03 0.392D-02 0.123D-02
 Coeff:     -0.234D-02-0.195D+00 0.130D+00 0.106D+01
 Gap=     0.150 Goal=   None    Shift=    0.000
 Gap=     0.150 Goal=   None    Shift=    0.000
 RMSDP=1.43D-08 MaxDP=3.13D-07 DE=-1.19D-12 OVMax= 8.72D-07

 Cycle  11  Pass 1  IDiag  1:
 E= -437.159984597720     Delta-E=       -0.000000000001 Rises=F Damp=F
 DIIS: error= 2.32D-08 at cycle  11 NSaved=  11.
 NSaved=11 IEnMin=11 EnMin= -437.159984597720     IErMin=11 ErrMin= 2.32D-08
 ErrMax= 2.32D-08  0.00D+00 EMaxC= 1.00D-01 BMatC= 8.68D-14 BMatP= 1.56D-13
 IDIUse=1 WtCom= 1.00D+00 WtEn= 0.00D+00
 Coeff-Com:  0.218D-05-0.402D-04 0.214D-03 0.259D-03-0.337D-02 0.159D-03
 Coeff-Com:  0.131D-01 0.110D+00-0.529D+00-0.330D+00 0.174D+01
 Coeff:      0.218D-05-0.402D-04 0.214D-03 0.259D-03-0.337D-02 0.159D-03
 Coeff:      0.131D-01 0.110D+00-0.529D+00-0.330D+00 0.174D+01
 Gap=     0.150 Goal=   None    Shift=    0.000
 Gap=     0.150 Goal=   None    Shift=    0.000
 RMSDP=2.35D-08 MaxDP=5.57D-07 DE=-6.82D-13 OVMax= 1.55D-06

 Cycle  12  Pass 1  IDiag  1:
 E= -437.159984597720     Delta-E=       -0.000000000001 Rises=F Damp=F
 DIIS: error= 1.78D-08 at cycle  12 NSaved=  12.
 NSaved=12 IEnMin=12 EnMin= -437.159984597720     IErMin=12 ErrMin= 1.78D-08
 ErrMax= 1.78D-08  0.00D+00 EMaxC= 1.00D-01 BMatC= 5.60D-14 BMatP= 8.68D-14
 IDIUse=1 WtCom= 1.00D+00 WtEn= 0.00D+00
 Coeff-Com: -0.199D-06 0.732D-05-0.534D-04-0.474D-04 0.132D-02-0.438D-03
 Coeff-Com: -0.625D-02-0.347D-01 0.288D+00-0.108D-01-0.950D+00 0.171D+01
 Coeff:     -0.199D-06 0.732D-05-0.534D-04-0.474D-04 0.132D-02-0.438D-03
 Coeff:     -0.625D-02-0.347D-01 0.288D+00-0.108D-01-0.950D+00 0.171D+01
 Gap=     0.150 Goal=   None    Shift=    0.000
 Gap=     0.150 Goal=   None    Shift=    0.000
 RMSDP=1.94D-08 MaxDP=4.89D-07 DE=-5.12D-13 OVMax= 1.36D-06

 Cycle  13  Pass 1  IDiag  1:
 E= -437.159984597720     Delta-E=       -0.000000000000 Rises=F Damp=F
 DIIS: error= 1.83D-08 at cycle  13 NSaved=  13.
 NSaved=13 IEnMin=13 EnMin= -437.159984597720     IErMin=12 ErrMin= 1.78D-08
 ErrMax= 1.83D-08  0.00D+00 EMaxC= 1.00D-01 BMatC= 5.05D-14 BMatP= 5.60D-14
 IDIUse=1 WtCom= 1.00D+00 WtEn= 0.00D+00
 Coeff-Com: -0.110D-05 0.572D-06 0.721D-04 0.409D-05-0.377D-02 0.257D-02
 Coeff-Com:  0.190D-01 0.780D-01-0.102D+01 0.462D+00 0.332D+01-0.949D+01
 Coeff-Com:  0.764D+01
 Coeff:     -0.110D-05 0.572D-06 0.721D-04 0.409D-05-0.377D-02 0.257D-02
 Coeff:      0.190D-01 0.780D-01-0.102D+01 0.462D+00 0.332D+01-0.949D+01
 Coeff:      0.764D+01
 Gap=     0.150 Goal=   None    Shift=    0.000
 Gap=     0.150 Goal=   None    Shift=    0.000
 RMSDP=8.75D-08 MaxDP=2.23D-06 DE=-2.27D-13 OVMax= 6.18D-06

 Cycle  14  Pass 1  IDiag  1:
 E= -437.159984597723     Delta-E=       -0.000000000003 Rises=F Damp=F
 DIIS: error= 1.44D-08 at cycle  14 NSaved=  14.
 NSaved=14 IEnMin=14 EnMin= -437.159984597723     IErMin=14 ErrMin= 1.44D-08
 ErrMax= 1.44D-08  0.00D+00 EMaxC= 1.00D-01 BMatC= 3.16D-14 BMatP= 5.05D-14
 IDIUse=1 WtCom= 1.00D+00 WtEn= 0.00D+00
 Coeff-Com: -0.704D-06 0.538D-06 0.397D-04 0.825D-05-0.226D-02 0.361D-03
 Coeff-Com:  0.162D-01 0.577D-01-0.610D+00 0.501D-01 0.193D+01-0.380D+01
 Coeff-Com: -0.584D+00 0.394D+01
 Coeff:     -0.704D-06 0.538D-06 0.397D-04 0.825D-05-0.226D-02 0.361D-03
 Coeff:      0.162D-01 0.577D-01-0.610D+00 0.501D-01 0.193D+01-0.380D+01
 Coeff:     -0.584D+00 0.394D+01
 Gap=     0.150 Goal=   None    Shift=    0.000
 Gap=     0.150 Goal=   None    Shift=    0.000
 RMSDP=2.83D-07 MaxDP=7.20D-06 DE=-2.96D-12 OVMax= 2.00D-05

 Cycle  15  Pass 1  IDiag  1:
 E= -437.159984597726     Delta-E=       -0.000000000003 Rises=F Damp=F
 DIIS: error= 1.88D-09 at cycle  15 NSaved=  15.
 NSaved=15 IEnMin=15 EnMin= -437.159984597726     IErMin=15 ErrMin= 1.88D-09
 ErrMax= 1.88D-09  0.00D+00 EMaxC= 1.00D-01 BMatC= 7.13D-16 BMatP= 3.16D-14
 IDIUse=1 WtCom= 1.00D+00 WtEn= 0.00D+00
 Coeff-Com:  0.155D-06-0.117D-05 0.160D-05 0.958D-05 0.281D-03-0.190D-03
 Coeff-Com: -0.189D-02-0.382D-02 0.993D-01-0.709D-01-0.269D+00 0.106D+01
 Coeff-Com: -0.102D+01 0.987D-01 0.111D+01
 Coeff:      0.155D-06-0.117D-05 0.160D-05 0.958D-05 0.281D-03-0.190D-03
 Coeff:     -0.189D-02-0.382D-02 0.993D-01-0.709D-01-0.269D+00 0.106D+01
 Coeff:     -0.102D+01 0.987D-01 0.111D+01
 Gap=     0.150 Goal=   None    Shift=    0.000
 Gap=     0.150 Goal=   None    Shift=    0.000
 RMSDP=3.71D-08 MaxDP=9.43D-07 DE=-3.18D-12 OVMax= 2.62D-06

 Cycle  16  Pass 1  IDiag  1:
 E= -437.159984597727     Delta-E=       -0.000000000000 Rises=F Damp=F
 DIIS: error= 2.51D-10 at cycle  16 NSaved=  16.
 NSaved=16 IEnMin=16 EnMin= -437.159984597727     IErMin=16 ErrMin= 2.51D-10
 ErrMax= 2.51D-10  0.00D+00 EMaxC= 1.00D-01 BMatC= 9.75D-18 BMatP= 7.13D-16
 IDIUse=1 WtCom= 1.00D+00 WtEn= 0.00D+00
 Large coefficients: NSaved= 16 BigCof=    0.00 CofMax=   10.00 Det=-2.81D-17
 Inversion failed.  Reducing to 15 matrices.
 Coeff-Com:  0.140D-06-0.111D-05-0.295D-06 0.565D-04-0.212D-04-0.363D-03
 Coeff-Com: -0.118D-02 0.163D-01-0.130D-01-0.493D-01 0.143D+00-0.957D-01
 Coeff-Com: -0.161D-01 0.106D+00 0.910D+00
 Coeff:      0.140D-06-0.111D-05-0.295D-06 0.565D-04-0.212D-04-0.363D-03
 Coeff:     -0.118D-02 0.163D-01-0.130D-01-0.493D-01 0.143D+00-0.957D-01
 Coeff:     -0.161D-01 0.106D+00 0.910D+00
 Gap=     0.150 Goal=   None    Shift=    0.000
 Gap=     0.150 Goal=   None    Shift=    0.000
 RMSDP=3.82D-10 MaxDP=9.26D-09 DE=-4.55D-13 OVMax= 2.58D-08

 SCF Done:  E(UM062X) =  -437.159984598     A.U. after   16 cycles
            NFock= 16  Conv=0.38D-09     -V/T= 2.0014
 <Sx>= 0.0000 <Sy>= 0.0000 <Sz>= 0.0000 <S**2>= 0.0000 S= 0.0000
 <L.S>=  0.00000000000    
 KE= 4.365682481469D+02 PE=-1.080557657612D+03 EE= 1.854012735125D+02
 Annihilation of the first spin contaminant:
 S**2 before annihilation     0.0000,   after     0.0000
 Leave Link  502 at Mon Apr 21 19:45:44 2025, MaxMem=   536870912 cpu:              55.3 elap:               7.3
 (Enter /home/szhao/Apps/g16/l701.exe)
 ... and contract with generalized density number  0.
 Compute integral first derivatives.
 Leave Link  701 at Mon Apr 21 19:45:44 2025, MaxMem=   536870912 cpu:               1.0 elap:               0.2
 (Enter /home/szhao/Apps/g16/l702.exe)
 L702 exits ... SP integral derivatives will be done elsewhere.
 Leave Link  702 at Mon Apr 21 19:45:45 2025, MaxMem=   536870912 cpu:               0.8 elap:               0.2
 (Enter /home/szhao/Apps/g16/l703.exe)
 Integral derivatives from FoFJK, PRISM(SPDF).
 Compute integral first derivatives, UseDBF=F ICtDFT=           0.
 Calling FoFJK, ICntrl=      2127 FMM=F ISym2X=0 I1Cent= 0 IOpClX= 1 NMat=1 NMatS=1 NMatT=0.
 FoFJK:  IHMeth= 1 ICntrl=    2127 DoSepK=F KAlg= 0 I1Cent=           0 FoldK=F
 IRaf=         0 NMat=       1 IRICut=       1 DoRegI=T DoRafI=F ISym2E= 0 IDoP0=0 IntGTp=1.
 FoFCou: FMM=F IPFlag=           0 FMFlag=      100000 FMFlg1=         800
         NFxFlg=           0 DoJE=F BraDBF=F KetDBF=F FulRan=T
         wScrn=  0.000000 ICntrl=      2127 IOpCl=  1 I1Cent=           0 NGrid=           0
         NMat0=    1 NMatS0=      1 NMatT0=    0 NMatD0=    1 NMtDS0=    0 NMtDT0=    0
 Symmetry not used in FoFCou.
 Leave Link  703 at Mon Apr 21 19:45:46 2025, MaxMem=   536870912 cpu:               6.4 elap:               0.8
 (Enter /home/szhao/Apps/g16/l716.exe)
 Dipole        =-1.00597071D+00-4.72050308D-04-1.69858105D-04
 -------------------------------------------------------------------
 Center     Atomic                   Forces (Hartrees/Bohr)
 Number     Number              X              Y              Z
 -------------------------------------------------------------------
      1        6          -0.000000000   -0.000000000   -0.000000000
      2       16          -0.000000000   -0.000000000   -0.000000000
      3        1          -0.007700645    0.001775568   -0.000001275
      4        1          -0.007697345   -0.001783371   -0.000000997
 -------------------------------------------------------------------
 Cartesian Forces:  Max     0.007700645 RMS     0.003225964
 Leave Link  716 at Mon Apr 21 19:45:46 2025, MaxMem=   536870912 cpu:               0.6 elap:               0.2
 (Enter /home/szhao/Apps/g16/l103.exe)

 GradGradGradGradGradGradGradGradGradGradGradGradGradGradGradGradGradGrad
 Berny optimization.
 Using GEDIIS/GDIIS optimizer.
 FormGI is forming the generalized inverse of G from B-inverse, IUseBI=4.
 Internal  Forces:  Max     0.015397990 RMS     0.005834024
 Search for a local minimum.
 Step number   2 out of a maximum of   22
 All quantities printed in internal units (Hartrees-Bohrs-Radians)
 RMS Force = .53437D-02 SwitMx=.10000D-02 MixMth= 1
 Mixed Optimization -- RFO/linear search
 Update second derivatives using D2CorX and points    1    2
 DE= -2.76D-03 DEPred=-1.83D-03 R= 1.51D+00
 TightC=F SS=  1.41D+00  RLast= 1.46D-01 DXNew= 5.0454D-01 4.3876D-01
 Trust test= 1.51D+00 RLast= 1.46D-01 DXMaxT set to 4.39D-01
 The second derivative matrix:
                          X1        Y1        Z1        X2        Y2
           X1           0.61965
           Y1           0.00007   0.50000
           Z1           0.00001   0.00000   0.50000
           X2           0.00000   0.00000   0.00000   0.50000
           Y2          -0.00000  -0.00000  -0.00000  -0.00000   0.50000
           Z2          -0.00000  -0.00000  -0.00000  -0.00000   0.00000
           R1          -0.02086  -0.00001  -0.00000  -0.00000   0.00000
           R2          -0.02087  -0.00001  -0.00000  -0.00000   0.00000
           A1          -0.03851  -0.00002  -0.00000  -0.00000   0.00000
           A2          -0.03852  -0.00002  -0.00000  -0.00000   0.00000
           A3           0.07703   0.00004   0.00001   0.00000  -0.00000
           D1           0.00000   0.00000   0.00000   0.00000  -0.00000
                          Z2        R1        R2        A1        A2
           Z2           0.50000
           R1           0.00000   0.34392
           R2           0.00000  -0.00476   0.34392
           A1           0.00000  -0.00789  -0.00789   0.14701
           A2           0.00000  -0.00788  -0.00789  -0.01298   0.14703
           A3          -0.00000   0.01577   0.01578   0.02598   0.02596
           D1          -0.00000  -0.00000  -0.00000  -0.00000  -0.00000
                          A3        D1
           A3           0.10807
           D1           0.00000   0.00241
 ITU=  1  0
 Use linear search instead of GDIIS.
     Eigenvalues ---    0.00241   0.07923   0.16000   0.34202   0.34868
     Eigenvalues --- 1000.000001000.000001000.000001000.000001000.00000
     Eigenvalues --- 1000.000001000.00000
 RFO step:  Lambda=-1.44166837D-06 EMin= 2.41201502D-03
 Quartic linear search produced a step of  0.93540.
 Iteration  1 RMS(Cart)=  0.04700860 RMS(Int)=  0.00131228
 Iteration  2 RMS(Cart)=  0.00133168 RMS(Int)=  0.00000050
 Iteration  3 RMS(Cart)=  0.00000060 RMS(Int)=  0.00000002
 ITry= 1 IFail=0 DXMaxC= 1.01D-01 DCOld= 1.00D+10 DXMaxT= 4.39D-01 DXLimC= 3.00D+00 Rises=F
 Variable       Old X    -DE/DX   Delta X   Delta X   Delta X     New X
                                 (Linear)    (Quad)   (Total)
    X1       -4.01971  -0.01540   0.00000   0.00000   0.00000  -4.01971
    Y1        0.00000  -0.00001   0.00000   0.00000   0.00000   0.00000
    Z1        0.00000  -0.00000   0.00000   0.00000   0.00000   0.00000
    X2        4.01971   0.00000   0.00000   0.00000   0.00000   4.01971
    Y2        0.00000  -0.00000   0.00000   0.00000   0.00000   0.00000
    Z2        0.00000  -0.00000   0.00000   0.00000   0.00000   0.00000
    R1        2.07448   0.00300   0.01458   0.00132   0.01589   2.09037
    R2        2.07448   0.00300   0.01458   0.00131   0.01589   2.09037
    A1        2.18648   0.00506   0.05522  -0.00022   0.05500   2.24147
    A2        2.18767   0.00505   0.05521  -0.00025   0.05495   2.24262
    A3        1.90904  -0.01011  -0.11042   0.00048  -0.10995   1.79909
    D1        3.14133  -0.00000  -0.00010   0.00065   0.00055  -3.14130
         Item               Value     Threshold  Converged?
 Maximum Force            0.010111     0.000450     NO 
 RMS     Force            0.005344     0.000300     NO 
 Maximum Displacement     0.101158     0.001800     NO 
 RMS     Displacement     0.047179     0.001200     NO 
 Predicted change in Energy=-1.015509D-03
 Lowest energy point so far.  Saving SCF results.
 GradGradGradGradGradGradGradGradGradGradGradGradGradGradGradGradGradGrad

 Leave Link  103 at Mon Apr 21 19:45:47 2025, MaxMem=   536870912 cpu:               1.1 elap:               0.3
 (Enter /home/szhao/Apps/g16/l202.exe)
                          Input orientation:                          
 ---------------------------------------------------------------------
 Center     Atomic      Atomic             Coordinates (Angstroms)
 Number     Number       Type             X           Y           Z
 ---------------------------------------------------------------------
      1          6           0       -2.127140    0.000000    0.000000
      2         16           0        2.127140    0.000000    0.000000
      3          1           0       -2.814647   -0.866580    0.000218
      4          1           0       -2.815644    0.865789    0.000093
 ---------------------------------------------------------------------
                    Distance matrix (angstroms):
                    1          2          3          4
     1  C    0.000000
     2  S    4.254279   0.000000
     3  H    1.106177   5.017192   0.000000
     4  H    1.106178   5.018037   1.732370   0.000000
 Symmetry turned off by external request.
 Stoichiometry    CH2S
 Framework group  C1[X(CH2S)]
 Deg. of freedom     6
 Full point group                 C1      NOp   1
 Rotational constants (GHZ):         334.1803502           2.7248085           2.7027709
 Leave Link  202 at Mon Apr 21 19:45:48 2025, MaxMem=   536870912 cpu:               0.1 elap:               0.3
 (Enter /home/szhao/Apps/g16/l301.exe)
 Standard basis: 6-311+G(d,p) (5D, 7F)
 Ernie: Thresh=  0.10000D-02 Tol=  0.10000D-05 Strict=F.
    64 basis functions,   102 primitive gaussians,    66 cartesian basis functions
    12 alpha electrons       12 beta electrons
       nuclear repulsion energy        21.3620694607 Hartrees.
 IExCor= 4336 DFT=T Ex+Corr=M062X ExCW=0 ScaHFX=  0.540000
 ScaDFX=  1.000000  1.000000  1.000000  1.000000 ScalE2=  1.000000  1.000000
 IRadAn=      7 IRanWt=     -1 IRanGd=            0 ICorTp=0 IEmpDi=  4
 NAtoms=    4 NActive=    4 NUniq=    4 SFac= 1.00D+00 NAtFMM=   60 NAOKFM=F Big=F
 Integral buffers will be    131072 words long.
 Raffenetti 2 integral format.
 Two-electron integral symmetry is turned off.
 Leave Link  301 at Mon Apr 21 19:45:48 2025, MaxMem=   536870912 cpu:               0.8 elap:               0.1
 (Enter /home/szhao/Apps/g16/l302.exe)
 NPDir=0 NMtPBC=     1 NCelOv=     1 NCel=       1 NClECP=     1 NCelD=      1
         NCelK=      1 NCelE2=     1 NClLst=     1 CellRange=     0.0.
 One-electron integrals computed using PRISM.
 NBasis=    64 RedAO= T EigKep=  1.76D-02  NBF=    64
 NBsUse=    64 1.00D-06 EigRej= -1.00D+00 NBFU=    64
 Precomputing XC quadrature grid using
 IXCGrd= 4 IRadAn=           7 IRanWt=          -1 IRanGd=           0 AccXCQ= 0.00D+00.
 Generated NRdTot=       0 NPtTot=           0 NUsed=           0 NTot=          32
 NSgBfM=    61    61    61    61    61 MxSgAt=     4 MxSgA2=     4.
 Leave Link  302 at Mon Apr 21 19:45:48 2025, MaxMem=   536870912 cpu:               1.5 elap:               0.3
 (Enter /home/szhao/Apps/g16/l303.exe)
 DipDrv:  MaxL=1.
 Leave Link  303 at Mon Apr 21 19:45:49 2025, MaxMem=   536870912 cpu:               0.5 elap:               0.1
 (Enter /home/szhao/Apps/g16/l401.exe)
 Initial guess from the checkpoint file:  "opt.chk"
 B after Tr=    -0.008424   -0.000003    0.000070
         Rot=    1.000000   -0.000003   -0.000010   -0.000000 Ang=  -0.00 deg.
 Guess basis will be translated and rotated to current coordinates.
 JPrj=2 DoOrth=T DoCkMO=T.
 Initial guess <Sx>= 0.0000 <Sy>= 0.0000 <Sz>= 0.0000 <S**2>= 0.0000 S= 0.0000
 Generating alternative initial guess.
 ExpMin= 4.05D-02 ExpMax= 9.34D+04 ExpMxC= 3.17D+03 IAcc=3 IRadAn=         5 AccDes= 0.00D+00
 Harris functional with IExCor= 1009 and IRadAn=       5 diagonalized for initial guess.
 HarFok:  IExCor= 1009 AccDes= 0.00D+00 IRadAn=         5 IDoV= 1 UseB2=F ITyADJ=14
 ICtDFT=  3500011 ScaDFX=  1.000000  1.000000  1.000000  1.000000
 FoFCou: FMM=F IPFlag=           0 FMFlag=      100000 FMFlg1=           0
         NFxFlg=           0 DoJE=T BraDBF=F KetDBF=T FulRan=T
         wScrn=  0.000000 ICntrl=       500 IOpCl=  0 I1Cent=   200000004 NGrid=           0
         NMat0=    1 NMatS0=      1 NMatT0=    0 NMatD0=    1 NMtDS0=    0 NMtDT0=    0
 Symmetry not used in FoFCou.
 Harris En= -436.959328223774    
 Leave Link  401 at Mon Apr 21 19:45:50 2025, MaxMem=   536870912 cpu:               5.2 elap:               0.8
 (Enter /home/szhao/Apps/g16/l502.exe)
 Keep R1 and R2 ints in memory in canonical form, NReq=11470680.
 FoFCou: FMM=F IPFlag=           0 FMFlag=           0 FMFlg1=           0
         NFxFlg=           0 DoJE=F BraDBF=F KetDBF=F FulRan=T
         wScrn=  0.000000 ICntrl=       600 IOpCl=  0 I1Cent=           0 NGrid=           0
         NMat0=    1 NMatS0=   2080 NMatT0=    0 NMatD0=    1 NMtDS0=    0 NMtDT0=    0
 Symmetry not used in FoFCou.
 Two-electron integral symmetry not used.
 UHF open shell SCF:
 Using DIIS extrapolation, IDIIS=  1040.
 NGot=   536870912 LenX=   532532574 LenY=   532527777
 Requested convergence on RMS density matrix=1.00D-08 within 128 cycles.
 Requested convergence on MAX density matrix=1.00D-06.
 Requested convergence on             energy=1.00D-06.
 No special actions if energy rises.

 Cycle   1  Pass 1  IDiag  1:
 E= -437.160464614667    
 DIIS: error= 3.11D-03 at cycle   1 NSaved=   1.
 NSaved= 1 IEnMin= 1 EnMin= -437.160464614667     IErMin= 1 ErrMin= 3.11D-03
 ErrMax= 3.11D-03  0.00D+00 EMaxC= 1.00D-01 BMatC= 1.10D-03 BMatP= 1.10D-03
 IDIUse=3 WtCom= 9.69D-01 WtEn= 3.11D-02
 Coeff-Com:  0.100D+01
 Coeff-En:   0.100D+01
 Coeff:      0.100D+01
 Gap=     0.508 Goal=   None    Shift=    0.000
 Gap=     0.508 Goal=   None    Shift=    0.000
 GapD=    0.508 DampG=2.000 DampE=1.000 DampFc=2.0000 IDamp=-1.
 RMSDP=4.06D-04 MaxDP=1.06D-02              OVMax= 1.13D-02

 Cycle   2  Pass 1  IDiag  1:
 E= -437.160882123971     Delta-E=       -0.000417509304 Rises=F Damp=F
 DIIS: error= 2.96D-04 at cycle   2 NSaved=   2.
 NSaved= 2 IEnMin= 2 EnMin= -437.160882123971     IErMin= 2 ErrMin= 2.96D-04
 ErrMax= 2.96D-04  0.00D+00 EMaxC= 1.00D-01 BMatC= 2.64D-05 BMatP= 1.10D-03
 IDIUse=3 WtCom= 9.97D-01 WtEn= 2.96D-03
 Coeff-Com: -0.121D+00 0.112D+01
 Coeff-En:   0.000D+00 0.100D+01
 Coeff:     -0.121D+00 0.112D+01
 Gap=     0.150 Goal=   None    Shift=    0.000
 Gap=     0.150 Goal=   None    Shift=    0.000
 RMSDP=1.23D-04 MaxDP=2.64D-03 DE=-4.18D-04 OVMax= 4.46D-03

 Cycle   3  Pass 1  IDiag  1:
 E= -437.160901935483     Delta-E=       -0.000019811512 Rises=F Damp=F
 DIIS: error= 2.44D-04 at cycle   3 NSaved=   3.
 NSaved= 3 IEnMin= 3 EnMin= -437.160901935483     IErMin= 3 ErrMin= 2.44D-04
 ErrMax= 2.44D-04  0.00D+00 EMaxC= 1.00D-01 BMatC= 3.52D-06 BMatP= 2.64D-05
 IDIUse=3 WtCom= 9.98D-01 WtEn= 2.44D-03
 Coeff-Com: -0.432D-01 0.282D+00 0.762D+00
 Coeff-En:   0.000D+00 0.000D+00 0.100D+01
 Coeff:     -0.431D-01 0.281D+00 0.762D+00
 Gap=     0.150 Goal=   None    Shift=    0.000
 Gap=     0.150 Goal=   None    Shift=    0.000
 RMSDP=2.69D-05 MaxDP=8.60D-04 DE=-1.98D-05 OVMax= 7.29D-04

 Cycle   4  Pass 1  IDiag  1:
 E= -437.160903315008     Delta-E=       -0.000001379525 Rises=F Damp=F
 DIIS: error= 2.87D-05 at cycle   4 NSaved=   4.
 NSaved= 4 IEnMin= 4 EnMin= -437.160903315008     IErMin= 4 ErrMin= 2.87D-05
 ErrMax= 2.87D-05  0.00D+00 EMaxC= 1.00D-01 BMatC= 2.63D-07 BMatP= 3.52D-06
 IDIUse=1 WtCom= 1.00D+00 WtEn= 0.00D+00
 Coeff-Com:  0.732D-02-0.967D-01 0.129D+00 0.960D+00
 Coeff:      0.732D-02-0.967D-01 0.129D+00 0.960D+00
 Gap=     0.150 Goal=   None    Shift=    0.000
 Gap=     0.150 Goal=   None    Shift=    0.000
 RMSDP=1.30D-05 MaxDP=2.25D-04 DE=-1.38D-06 OVMax= 7.06D-04

 Cycle   5  Pass 1  IDiag  1:
 E= -437.160903570769     Delta-E=       -0.000000255761 Rises=F Damp=F
 DIIS: error= 6.66D-06 at cycle   5 NSaved=   5.
 NSaved= 5 IEnMin= 5 EnMin= -437.160903570769     IErMin= 5 ErrMin= 6.66D-06
 ErrMax= 6.66D-06  0.00D+00 EMaxC= 1.00D-01 BMatC= 9.16D-09 BMatP= 2.63D-07
 IDIUse=1 WtCom= 1.00D+00 WtEn= 0.00D+00
 Coeff-Com: -0.241D-04 0.538D-02-0.456D-01-0.864D-01 0.113D+01
 Coeff:     -0.241D-04 0.538D-02-0.456D-01-0.864D-01 0.113D+01
 Gap=     0.150 Goal=   None    Shift=    0.000
 Gap=     0.150 Goal=   None    Shift=    0.000
 RMSDP=3.36D-06 MaxDP=4.85D-05 DE=-2.56D-07 OVMax= 2.23D-04

 Cycle   6  Pass 1  IDiag  1:
 E= -437.160903591210     Delta-E=       -0.000000020441 Rises=F Damp=F
 DIIS: error= 2.84D-06 at cycle   6 NSaved=   6.
 NSaved= 6 IEnMin= 6 EnMin= -437.160903591210     IErMin= 6 ErrMin= 2.84D-06
 ErrMax= 2.84D-06  0.00D+00 EMaxC= 1.00D-01 BMatC= 1.26D-09 BMatP= 9.16D-09
 IDIUse=1 WtCom= 1.00D+00 WtEn= 0.00D+00
 Coeff-Com: -0.864D-03 0.125D-01-0.275D-01-0.118D+00 0.204D+00 0.930D+00
 Coeff:     -0.864D-03 0.125D-01-0.275D-01-0.118D+00 0.204D+00 0.930D+00
 Gap=     0.150 Goal=   None    Shift=    0.000
 Gap=     0.150 Goal=   None    Shift=    0.000
 RMSDP=1.16D-06 MaxDP=1.89D-05 DE=-2.04D-08 OVMax= 8.33D-05

 Cycle   7  Pass 1  IDiag  1:
 E= -437.160903593460     Delta-E=       -0.000000002250 Rises=F Damp=F
 DIIS: error= 4.27D-07 at cycle   7 NSaved=   7.
 NSaved= 7 IEnMin= 7 EnMin= -437.160903593460     IErMin= 7 ErrMin= 4.27D-07
 ErrMax= 4.27D-07  0.00D+00 EMaxC= 1.00D-01 BMatC= 8.72D-11 BMatP= 1.26D-09
 IDIUse=1 WtCom= 1.00D+00 WtEn= 0.00D+00
 Coeff-Com: -0.135D-03 0.134D-02-0.408D-03-0.546D-02-0.743D-01 0.567D-01
 Coeff-Com:  0.102D+01
 Coeff:     -0.135D-03 0.134D-02-0.408D-03-0.546D-02-0.743D-01 0.567D-01
 Coeff:      0.102D+01
 Gap=     0.150 Goal=   None    Shift=    0.000
 Gap=     0.150 Goal=   None    Shift=    0.000
 RMSDP=3.29D-07 MaxDP=5.10D-06 DE=-2.25D-09 OVMax= 2.31D-05

 Cycle   8  Pass 1  IDiag  1:
 E= -437.160903593639     Delta-E=       -0.000000000180 Rises=F Damp=F
 DIIS: error= 2.73D-07 at cycle   8 NSaved=   8.
 NSaved= 8 IEnMin= 8 EnMin= -437.160903593639     IErMin= 8 ErrMin= 2.73D-07
 ErrMax= 2.73D-07  0.00D+00 EMaxC= 1.00D-01 BMatC= 1.07D-11 BMatP= 8.72D-11
 IDIUse=1 WtCom= 1.00D+00 WtEn= 0.00D+00
 Coeff-Com:  0.703D-04-0.910D-03 0.148D-02 0.755D-02-0.396D-02-0.489D-01
 Coeff-Com: -0.205D+00 0.125D+01
 Coeff:      0.703D-04-0.910D-03 0.148D-02 0.755D-02-0.396D-02-0.489D-01
 Coeff:     -0.205D+00 0.125D+01
 Gap=     0.150 Goal=   None    Shift=    0.000
 Gap=     0.150 Goal=   None    Shift=    0.000
 RMSDP=1.07D-07 MaxDP=1.68D-06 DE=-1.80D-10 OVMax= 6.90D-06

 Cycle   9  Pass 1  IDiag  1:
 E= -437.160903593673     Delta-E=       -0.000000000034 Rises=F Damp=F
 DIIS: error= 1.73D-07 at cycle   9 NSaved=   9.
 NSaved= 9 IEnMin= 9 EnMin= -437.160903593673     IErMin= 9 ErrMin= 1.73D-07
 ErrMax= 1.73D-07  0.00D+00 EMaxC= 1.00D-01 BMatC= 4.15D-12 BMatP= 1.07D-11
 IDIUse=1 WtCom= 1.00D+00 WtEn= 0.00D+00
 Coeff-Com: -0.258D-04 0.435D-03-0.103D-02-0.514D-02 0.246D-01 0.203D-01
 Coeff-Com: -0.607D-01-0.105D+01 0.207D+01
 Coeff:     -0.258D-04 0.435D-03-0.103D-02-0.514D-02 0.246D-01 0.203D-01
 Coeff:     -0.607D-01-0.105D+01 0.207D+01
 Gap=     0.150 Goal=   None    Shift=    0.000
 Gap=     0.150 Goal=   None    Shift=    0.000
 RMSDP=1.37D-07 MaxDP=3.02D-06 DE=-3.40D-11 OVMax= 8.40D-06

 Cycle  10  Pass 1  IDiag  1:
 E= -437.160903593701     Delta-E=       -0.000000000028 Rises=F Damp=F
 DIIS: error= 9.21D-08 at cycle  10 NSaved=  10.
 NSaved=10 IEnMin=10 EnMin= -437.160903593701     IErMin=10 ErrMin= 9.21D-08
 ErrMax= 9.21D-08  0.00D+00 EMaxC= 1.00D-01 BMatC= 1.53D-12 BMatP= 4.15D-12
 IDIUse=1 WtCom= 1.00D+00 WtEn= 0.00D+00
 Coeff-Com:  0.113D-05-0.380D-04 0.133D-03 0.592D-03-0.574D-02-0.159D-02
 Coeff-Com:  0.265D-01 0.190D+00-0.545D+00 0.133D+01
 Coeff:      0.113D-05-0.380D-04 0.133D-03 0.592D-03-0.574D-02-0.159D-02
 Coeff:      0.265D-01 0.190D+00-0.545D+00 0.133D+01
 Gap=     0.150 Goal=   None    Shift=    0.000
 Gap=     0.150 Goal=   None    Shift=    0.000
 RMSDP=7.26D-08 MaxDP=1.88D-06 DE=-2.75D-11 OVMax= 5.21D-06

 Cycle  11  Pass 1  IDiag  1:
 E= -437.160903593712     Delta-E=       -0.000000000011 Rises=F Damp=F
 DIIS: error= 9.70D-08 at cycle  11 NSaved=  11.
 NSaved=11 IEnMin=11 EnMin= -437.160903593712     IErMin=10 ErrMin= 9.21D-08
 ErrMax= 9.70D-08  0.00D+00 EMaxC= 1.00D-01 BMatC= 1.40D-12 BMatP= 1.53D-12
 IDIUse=1 WtCom= 1.00D+00 WtEn= 0.00D+00
 Coeff-Com:  0.382D-05-0.292D-04-0.147D-06 0.855D-04 0.505D-02-0.173D-02
 Coeff-Com: -0.320D-01-0.140D+00 0.535D+00-0.254D+01 0.317D+01
 Coeff:      0.382D-05-0.292D-04-0.147D-06 0.855D-04 0.505D-02-0.173D-02
 Coeff:     -0.320D-01-0.140D+00 0.535D+00-0.254D+01 0.317D+01
 Gap=     0.150 Goal=   None    Shift=    0.000
 Gap=     0.150 Goal=   None    Shift=    0.000
 RMSDP=1.69D-07 MaxDP=4.45D-06 DE=-1.09D-11 OVMax= 1.23D-05

 Cycle  12  Pass 1  IDiag  1:
 E= -437.160903593736     Delta-E=       -0.000000000024 Rises=F Damp=F
 DIIS: error= 9.42D-08 at cycle  12 NSaved=  12.
 NSaved=12 IEnMin=12 EnMin= -437.160903593736     IErMin=10 ErrMin= 9.21D-08
 ErrMax= 9.42D-08  0.00D+00 EMaxC= 1.00D-01 BMatC= 1.22D-12 BMatP= 1.40D-12
 IDIUse=1 WtCom= 1.00D+00 WtEn= 0.00D+00
 Coeff-Com: -0.339D-05 0.103D-03-0.362D-03-0.151D-02 0.142D-01 0.562D-02
 Coeff-Com: -0.711D-01-0.441D+00 0.148D+01-0.333D+01-0.760D+00 0.410D+01
 Coeff:     -0.339D-05 0.103D-03-0.362D-03-0.151D-02 0.142D-01 0.562D-02
 Coeff:     -0.711D-01-0.441D+00 0.148D+01-0.333D+01-0.760D+00 0.410D+01
 Gap=     0.150 Goal=   None    Shift=    0.000
 Gap=     0.150 Goal=   None    Shift=    0.000
 RMSDP=6.40D-07 MaxDP=1.70D-05 DE=-2.42D-11 OVMax= 4.71D-05

 Cycle  13  Pass 1  IDiag  1:
 E= -437.160903593811     Delta-E=       -0.000000000075 Rises=F Damp=F
 DIIS: error= 7.71D-08 at cycle  13 NSaved=  13.
 NSaved=13 IEnMin=13 EnMin= -437.160903593811     IErMin=13 ErrMin= 7.71D-08
 ErrMax= 7.71D-08  0.00D+00 EMaxC= 1.00D-01 BMatC= 6.55D-13 BMatP= 1.22D-12
 IDIUse=1 WtCom= 1.00D+00 WtEn= 0.00D+00
 Coeff-Com: -0.865D-05 0.894D-04-0.143D-03-0.583D-03-0.475D-02 0.465D-02
 Coeff-Com:  0.324D-01 0.130D+00-0.623D+00 0.360D+01-0.545D+01 0.104D+01
 Coeff-Com:  0.227D+01
 Coeff:     -0.865D-05 0.894D-04-0.143D-03-0.583D-03-0.475D-02 0.465D-02
 Coeff:      0.324D-01 0.130D+00-0.623D+00 0.360D+01-0.545D+01 0.104D+01
 Coeff:      0.227D+01
 Gap=     0.150 Goal=   None    Shift=    0.000
 Gap=     0.150 Goal=   None    Shift=    0.000
 RMSDP=1.03D-06 MaxDP=2.77D-05 DE=-7.51D-11 OVMax= 7.68D-05

 Cycle  14  Pass 1  IDiag  1:
 E= -437.160903593876     Delta-E=       -0.000000000065 Rises=F Damp=F
 DIIS: error= 6.65D-08 at cycle  14 NSaved=  14.
 NSaved=14 IEnMin=14 EnMin= -437.160903593876     IErMin=14 ErrMin= 6.65D-08
 ErrMax= 6.65D-08  0.00D+00 EMaxC= 1.00D-01 BMatC= 3.66D-13 BMatP= 6.55D-13
 IDIUse=1 WtCom= 1.00D+00 WtEn= 0.00D+00
 Coeff-Com: -0.782D-05 0.812D-04-0.131D-03-0.532D-03-0.421D-02 0.413D-02
 Coeff-Com:  0.291D-01 0.115D+00-0.558D+00 0.322D+01-0.488D+01 0.935D+00
 Coeff-Com:  0.204D+01 0.103D+00
 Coeff:     -0.782D-05 0.812D-04-0.131D-03-0.532D-03-0.421D-02 0.413D-02
 Coeff:      0.291D-01 0.115D+00-0.558D+00 0.322D+01-0.488D+01 0.935D+00
 Coeff:      0.204D+01 0.103D+00
 Gap=     0.150 Goal=   None    Shift=    0.000
 Gap=     0.150 Goal=   None    Shift=    0.000
 RMSDP=3.88D-09 MaxDP=1.42D-07 DE=-6.51D-11 OVMax= 3.89D-07

 SCF Done:  E(UM062X) =  -437.160903594     A.U. after   14 cycles
            NFock= 14  Conv=0.39D-08     -V/T= 2.0014
 <Sx>= 0.0000 <Sy>= 0.0000 <Sz>= 0.0000 <S**2>= 0.0000 S= 0.0000
 <L.S>=  0.00000000000    
 KE= 4.365625460176D+02 PE=-1.080413934926D+03 EE= 1.853284158534D+02
 Annihilation of the first spin contaminant:
 S**2 before annihilation     0.0000,   after     0.0000
 Leave Link  502 at Mon Apr 21 19:45:56 2025, MaxMem=   536870912 cpu:              45.3 elap:               6.0
 (Enter /home/szhao/Apps/g16/l701.exe)
 ... and contract with generalized density number  0.
 Compute integral first derivatives.
 Leave Link  701 at Mon Apr 21 19:45:57 2025, MaxMem=   536870912 cpu:               1.6 elap:               0.4
 (Enter /home/szhao/Apps/g16/l702.exe)
 L702 exits ... SP integral derivatives will be done elsewhere.
 Leave Link  702 at Mon Apr 21 19:45:57 2025, MaxMem=   536870912 cpu:               0.4 elap:               0.2
 (Enter /home/szhao/Apps/g16/l703.exe)
 Integral derivatives from FoFJK, PRISM(SPDF).
 Compute integral first derivatives, UseDBF=F ICtDFT=           0.
 Calling FoFJK, ICntrl=      2127 FMM=F ISym2X=0 I1Cent= 0 IOpClX= 1 NMat=1 NMatS=1 NMatT=0.
[...]
 IDIUse=1 WtCom= 1.00D+00 WtEn= 0.00D+00
 Large coefficients: NSaved= 16 BigCof=    0.00 CofMax=   10.00 Det=-3.57D-16
 Inversion failed.  Reducing to 15 matrices.
 Coeff-Com:  0.554D-06 0.492D-04-0.230D-03-0.658D-04 0.122D-02-0.207D-02
 Coeff-Com:  0.769D-02-0.313D-02-0.544D-01 0.569D-01 0.416D-02-0.278D-01
 Coeff-Com:  0.288D-01-0.634D-01 0.105D+01
 Coeff:      0.554D-06 0.492D-04-0.230D-03-0.658D-04 0.122D-02-0.207D-02
 Coeff:      0.769D-02-0.313D-02-0.544D-01 0.569D-01 0.416D-02-0.278D-01
 Coeff:      0.288D-01-0.634D-01 0.105D+01
 Gap=     0.150 Goal=   None    Shift=    0.000
 Gap=     0.150 Goal=   None    Shift=    0.000
 RMSDP=4.09D-09 MaxDP=1.07D-07 DE=-1.02D-12 OVMax= 2.98D-07

 SCF Done:  E(UM062X) =  -437.160904787     A.U. after   17 cycles
            NFock= 17  Conv=0.41D-08     -V/T= 2.0014
 <Sx>= 0.0000 <Sy>= 0.0000 <Sz>= 0.0000 <S**2>=-0.0000 S=-0.0000
 <L.S>=  0.00000000000    
 KE= 4.365606991823D+02 PE=-1.080401262374D+03 EE= 1.853231984037D+02
 Annihilation of the first spin contaminant:
 S**2 before annihilation    -0.0000,   after     0.0000
 Leave Link  502 at Mon Apr 21 19:46:11 2025, MaxMem=   536870912 cpu:              57.1 elap:               7.6
 (Enter /home/szhao/Apps/g16/l701.exe)
 ... and contract with generalized density number  0.
 Compute integral first derivatives.
 Leave Link  701 at Mon Apr 21 19:46:11 2025, MaxMem=   536870912 cpu:               1.0 elap:               0.3
 (Enter /home/szhao/Apps/g16/l702.exe)
 L702 exits ... SP integral derivatives will be done elsewhere.
 Leave Link  702 at Mon Apr 21 19:46:12 2025, MaxMem=   536870912 cpu:               0.4 elap:               0.2
 (Enter /home/szhao/Apps/g16/l703.exe)
 Integral derivatives from FoFJK, PRISM(SPDF).
 Compute integral first derivatives, UseDBF=F ICtDFT=           0.
 Calling FoFJK, ICntrl=      2127 FMM=F ISym2X=0 I1Cent= 0 IOpClX= 1 NMat=1 NMatS=1 NMatT=0.
 FoFJK:  IHMeth= 1 ICntrl=    2127 DoSepK=F KAlg= 0 I1Cent=           0 FoldK=F
 IRaf=         0 NMat=       1 IRICut=       1 DoRegI=T DoRafI=F ISym2E= 0 IDoP0=0 IntGTp=1.
 FoFCou: FMM=F IPFlag=           0 FMFlag=      100000 FMFlg1=         800
         NFxFlg=           0 DoJE=F BraDBF=F KetDBF=F FulRan=T
         wScrn=  0.000000 ICntrl=      2127 IOpCl=  1 I1Cent=           0 NGrid=           0
         NMat0=    1 NMatS0=      1 NMatT0=    0 NMatD0=    1 NMtDS0=    0 NMtDT0=    0
 Symmetry not used in FoFCou.
 Leave Link  703 at Mon Apr 21 19:46:13 2025, MaxMem=   536870912 cpu:               5.6 elap:               0.8
 (Enter /home/szhao/Apps/g16/l716.exe)
 Dipole        =-9.80071993D-01-4.52423590D-04-1.19022845D-04
 -------------------------------------------------------------------
 Center     Atomic                   Forces (Hartrees/Bohr)
 Number     Number              X              Y              Z
 -------------------------------------------------------------------
      1        6          -0.000000000   -0.000000000   -0.000000000
      2       16          -0.000000000   -0.000000000   -0.000000000
      3        1          -0.000017576   -0.000020701    0.000000310
      4        1          -0.000016860    0.000021225    0.000000313
 -------------------------------------------------------------------
 Cartesian Forces:  Max     0.000021225 RMS     0.000011077
 Leave Link  716 at Mon Apr 21 19:46:13 2025, MaxMem=   536870912 cpu:               0.7 elap:               0.3
 (Enter /home/szhao/Apps/g16/l103.exe)

 GradGradGradGradGradGradGradGradGradGradGradGradGradGradGradGradGradGrad
 Berny optimization.
 Using GEDIIS/GDIIS optimizer.
 FormGI is forming the generalized inverse of G from B-inverse, IUseBI=4.
 Internal  Forces:  Max     0.000034436 RMS     0.000014892
 Search for a local minimum.
 Step number   4 out of a maximum of   22
 All quantities printed in internal units (Hartrees-Bohrs-Radians)
 RMS Force = .15675D-04 SwitMx=.10000D-02 MixMth= 2
 Mixed Optimization -- En-DIIS/RFO-DIIS
 Swapping is turned off.
 Update second derivatives using D2CorX and points    1    2    3    4
 DE= -1.19D-06 DEPred=-1.17D-06 R= 1.02D+00
 TightC=F SS=  1.41D+00  RLast= 3.67D-03 DXNew= 7.3790D-01 1.0997D-02
 Trust test= 1.02D+00 RLast= 3.67D-03 DXMaxT set to 4.39D-01
 The second derivative matrix:
                          X1        Y1        Z1        X2        Y2
           X1           0.86002
           Y1           0.00039   0.50000
           Z1           0.00067   0.00000   0.50000
           X2          -0.00000  -0.00000  -0.00000   0.50000
           Y2           0.00000   0.00000   0.00000  -0.00000   0.50000
           Z2          -0.00010  -0.00000  -0.00000   0.00000  -0.00000
           R1          -0.11146  -0.00018  -0.00039   0.00000  -0.00000
           R2          -0.11135  -0.00018  -0.00039   0.00000  -0.00000
           A1          -0.06168  -0.00005  -0.00008   0.00000  -0.00000
           A2          -0.06201  -0.00005  -0.00008   0.00000  -0.00000
           A3           0.12369   0.00011   0.00015  -0.00000   0.00000
           D1           0.00045   0.00000   0.00000  -0.00000   0.00000
                          Z2        R1        R2        A1        A2
           Z2           0.50000
           R1           0.00006   0.33324
           R2           0.00006  -0.01542   0.33327
           A1           0.00001  -0.00802  -0.00802   0.14971
           A2           0.00001  -0.00759  -0.00759  -0.01021   0.14988
           A3          -0.00002   0.01561   0.01561   0.02050   0.02033
           D1          -0.00000  -0.00012  -0.00012  -0.00003  -0.00003
                          A3        D1
           A3           0.11917
           D1           0.00006   0.00241
 ITU=  1  1  1  0
     Eigenvalues ---    0.00241   0.09547   0.16000   0.32113   0.34868
     Eigenvalues --- 1000.000001000.000001000.000001000.000001000.00000
     Eigenvalues --- 1000.000001000.00000
 En-DIIS/RFO-DIIS/Sim-DIIS IScMMF=       -3 using points:     4    3
 RFO step:  Lambda=-4.13315332D-09.
 NNeg= 0 NGDIIS= 2 SimSw=  2.50D-01 Rises=F DC= -1.19D-06 SmlDif=  1.00D-05
 NRisDI= 0 DoIntr=F SqrtH=F CThrHd= 10.0 CDAdj=  3.0
 RMS Error=  0.8790472843D-04 NUsed= 2 OKEnD=F EnDIS=F
 InvSVX:  RCond= 3.36D-06 Info=           0 Equed=N FErr=  1.05D-15 BErr=  5.61D-17
 DidBck=F Rises=F RFO-DIIS coefs:    1.02075   -0.02075
 Iteration  1 RMS(Cart)=  0.00012077 RMS(Int)=  0.00000001
 Iteration  2 RMS(Cart)=  0.00000001 RMS(Int)=  0.00000001
 ITry= 1 IFail=0 DXMaxC= 2.80D-04 DCOld= 1.00D+10 DXMaxT= 4.39D-01 DXLimC= 3.00D+00 Rises=F
 Variable       Old X    -DE/DX   Delta X   Delta X   Delta X     New X
                                 (Linear)    (Quad)   (Total)
    X1       -4.01971  -0.00003   0.00000   0.00000   0.00000  -4.01971
    Y1        0.00000   0.00000   0.00000   0.00000   0.00000   0.00000
    Z1        0.00000   0.00000   0.00000   0.00000   0.00000   0.00000
    X2        4.01971  -0.00000  -0.00000   0.00000   0.00000   4.01971
    Y2        0.00000  -0.00000   0.00000   0.00000   0.00000   0.00000
    Z2        0.00000  -0.00000   0.00000   0.00000   0.00000   0.00000
    R1        2.09206   0.00003   0.00004   0.00005   0.00009   2.09215
    R2        2.09206   0.00003   0.00004   0.00005   0.00009   2.09215
    A1        2.24260   0.00000   0.00002  -0.00000   0.00002   2.24262
    A2        2.24374  -0.00000   0.00002  -0.00001   0.00001   2.24375
    A3        1.79685  -0.00000  -0.00005   0.00001  -0.00003   1.79682
    D1        3.14140   0.00000  -0.00001   0.00028   0.00027  -3.14151
         Item               Value     Threshold  Converged?
 Maximum Force            0.000027     0.000450     YES
 RMS     Force            0.000016     0.000300     YES
 Maximum Displacement     0.000280     0.001800     YES
 RMS     Displacement     0.000121     0.001200     YES
 Predicted change in Energy=-2.493799D-09
 Optimization completed.
    -- Stationary point found.
                           ----------------------------
                           !   Optimized Parameters   !
                           ! (Angstroms and Degrees)  !
 --------------------------                            --------------------------
 ! Name  Definition              Value          Derivative Info.                !
 --------------------------------------------------------------------------------
 ! X1    R(1,-1)                -2.1271         -DE/DX =    0.0                 !
 ! Y1    R(1,-2)                 0.0            -DE/DX =    0.0                 !
 ! Z1    R(1,-3)                 0.0            -DE/DX =    0.0                 !
 ! X2    R(2,-1)                 2.1271         -DE/DX =    0.0                 !
 ! Y2    R(2,-2)                 0.0            -DE/DX =    0.0                 !
 ! Z2    R(2,-3)                 0.0            -DE/DX =    0.0                 !
 ! R1    R(1,3)                  1.1071         -DE/DX =    0.0                 !
 ! R2    R(1,4)                  1.1071         -DE/DX =    0.0                 !
 ! A1    A(2,1,3)              128.4914         -DE/DX =    0.0                 !
 ! A2    A(2,1,4)              128.5566         -DE/DX =    0.0                 !
 ! A3    A(3,1,4)              102.952          -DE/DX =    0.0                 !
 ! D1    D(2,1,4,3)           -180.0109         -DE/DX =    0.0                 !
 --------------------------------------------------------------------------------
 Lowest energy point so far.  Saving SCF results.
 Largest change from initial coordinates is atom    3       0.128 Angstoms.
 GradGradGradGradGradGradGradGradGradGradGradGradGradGradGradGradGradGrad

 Leave Link  103 at Mon Apr 21 19:46:14 2025, MaxMem=   536870912 cpu:               1.7 elap:               0.3
 (Enter /home/szhao/Apps/g16/l202.exe)
                          Input orientation:                          
 ---------------------------------------------------------------------
 Center     Atomic      Atomic             Coordinates (Angstroms)
 Number     Number       Type             X           Y           Z
 ---------------------------------------------------------------------
      1          6           0       -2.127140    0.000000    0.000000
      2         16           0        2.127140    0.000000    0.000000
      3          1           0       -2.816178   -0.866506   -0.000041
      4          1           0       -2.817162    0.865722   -0.000165
 ---------------------------------------------------------------------
                    Distance matrix (angstroms):
                    1          2          3          4
     1  C    0.000000
     2  S    4.254279   0.000000
     3  H    1.107071   5.018687   0.000000
     4  H    1.107071   5.019521   1.732228   0.000000
 Symmetry turned off by external request.
 Stoichiometry    CH2S
 Framework group  C1[X(CH2S)]
 Deg. of freedom     6
 Full point group                 C1      NOp   1
 Rotational constants (GHZ):         334.2351669           2.7244819           2.7024532
 Leave Link  202 at Mon Apr 21 19:46:14 2025, MaxMem=   536870912 cpu:               0.1 elap:               0.0
 (Enter /home/szhao/Apps/g16/l601.exe)
 Copying SCF densities to generalized density rwf, IOpCl= 1 IROHF=0.

 **********************************************************************

            Population analysis using the SCF density.

 **********************************************************************

 Alpha  occ. eigenvalues --  -89.94516 -10.62312  -8.30565  -6.23355  -6.21768
 Alpha  occ. eigenvalues --   -6.21768  -0.76936  -0.74669  -0.49055  -0.32821
 Alpha  occ. eigenvalues --   -0.31985  -0.31978
 Alpha virt. eigenvalues --   -0.16976  -0.09450   0.01528   0.04575   0.05412
 Alpha virt. eigenvalues --    0.06399   0.07961   0.08614   0.08882   0.13883
 Alpha virt. eigenvalues --    0.17394   0.18724   0.35150   0.36609   0.36621
 Alpha virt. eigenvalues --    0.43913   0.47698   0.57961   0.61418   0.61540
 Alpha virt. eigenvalues --    0.64883   0.73593   0.80099   0.80171   0.81272
 Alpha virt. eigenvalues --    0.83952   0.83952   1.09043   1.09329   1.18272
 Alpha virt. eigenvalues --    1.54060   1.54886   1.62560   1.67415   1.68215
 Alpha virt. eigenvalues --    1.68283   1.85941   1.86362   2.12630   2.36240
 Alpha virt. eigenvalues --    2.44376   2.48898   2.55694   2.73977   3.07130
 Alpha virt. eigenvalues --    3.59230   7.72689  17.43920  17.43935  17.44642
 Alpha virt. eigenvalues --   23.75965 188.97484
  Beta  occ. eigenvalues --  -89.94516 -10.62312  -8.30565  -6.23355  -6.21768
  Beta  occ. eigenvalues --   -6.21768  -0.76936  -0.74669  -0.49055  -0.32821
  Beta  occ. eigenvalues --   -0.31985  -0.31978
  Beta virt. eigenvalues --   -0.16976  -0.09450   0.01528   0.04575   0.05412
  Beta virt. eigenvalues --    0.06399   0.07961   0.08614   0.08882   0.13883
  Beta virt. eigenvalues --    0.17394   0.18724   0.35150   0.36609   0.36621
  Beta virt. eigenvalues --    0.43913   0.47698   0.57961   0.61418   0.61540
  Beta virt. eigenvalues --    0.64883   0.73593   0.80099   0.80171   0.81272
  Beta virt. eigenvalues --    0.83952   0.83952   1.09043   1.09329   1.18272
  Beta virt. eigenvalues --    1.54060   1.54886   1.62560   1.67415   1.68215
  Beta virt. eigenvalues --    1.68283   1.85941   1.86362   2.12630   2.36240
  Beta virt. eigenvalues --    2.44376   2.48898   2.55694   2.73977   3.07130
  Beta virt. eigenvalues --    3.59230   7.72689  17.43920  17.43935  17.44642
  Beta virt. eigenvalues --   23.75965 188.97484
          Condensed to atoms (all electrons):
               1          2          3          4
     1  C    5.673955  -0.006325   0.305076   0.305103
     2  S   -0.006325  16.003939   0.001167   0.001166
     3  H    0.305076   0.001167   0.589686  -0.034802
     4  H    0.305103   0.001166  -0.034802   0.589651
          Atomic-Atomic Spin Densities.
               1          2          3          4
     1  C    0.000000  -0.000000  -0.000000   0.000000
     2  S   -0.000000  -0.000000   0.000000  -0.000000
     3  H   -0.000000   0.000000   0.000000   0.000000
     4  H    0.000000  -0.000000   0.000000  -0.000000
 Mulliken charges and spin densities:
               1          2
     1  C   -0.277809   0.000000
     2  S    0.000054  -0.000000
     3  H    0.138874  -0.000000
     4  H    0.138882  -0.000000
 Sum of Mulliken charges =  -0.00000  -0.00000
 Mulliken charges and spin densities with hydrogens summed into heavy atoms:
               1          2
     1  C   -0.000054   0.000000
     2  S    0.000054  -0.000000
 Electronic spatial extent (au):  <R**2>=            457.6273
 Charge=              0.0000 electrons
 Dipole moment (field-independent basis, Debye):
    X=             -2.4911    Y=             -0.0011    Z=             -0.0003  Tot=              2.4911
 Quadrupole moment (field-independent basis, Debye-Ang):
   XX=             -9.8908   YY=            -22.3778   ZZ=            -21.7061
   XY=              0.0004   XZ=             -0.0000   YZ=              0.0000
 Traceless Quadrupole moment (field-independent basis, Debye-Ang):
   XX=              8.1007   YY=             -4.3862   ZZ=             -3.7145
   XY=              0.0004   XZ=             -0.0000   YZ=              0.0000
 Octapole moment (field-independent basis, Debye-Ang**2):
  XXX=            -35.2287  YYY=             -0.0006  ZZZ=              0.0001  XYY=            -17.7666
  XXY=             -0.0040  XXZ=             -0.0012  XZZ=            -18.5740  YZZ=              0.0002
  YYZ=             -0.0001  XYZ=             -0.0001
 Hexadecapole moment (field-independent basis, Debye-Ang**3):
 XXXX=           -465.7617 YYYY=            -38.9612 ZZZZ=            -30.5380 XXXY=             -0.0261
 XXXZ=             -0.0080 YYYX=              0.0000 YYYZ=              0.0003 ZZZX=             -0.0015
 ZZZY=              0.0004 XXYY=           -110.2509 XXZZ=           -109.0265 YYZZ=            -11.8168
 XXYZ=              0.0001 YYXZ=             -0.0002 ZZXY=             -0.0009
 N-N= 2.135646000156D+01 E-N=-1.080401262423D+03  KE= 4.365606991823D+02
                          Isotropic Fermi Contact Couplings
        Atom                 a.u.       MegaHertz       Gauss      10(-4) cm-1
     1  C(13)              0.00000       0.00000       0.00000       0.00000
     2  S(33)              0.00000       0.00000       0.00000       0.00000
     3  H(1)              -0.00000      -0.00000      -0.00000      -0.00000
     4  H(1)              -0.00000      -0.00000      -0.00000      -0.00000
 --------------------------------------------------------
       Center         ----  Spin Dipole Couplings  ----
                      3XX-RR        3YY-RR        3ZZ-RR
 --------------------------------------------------------
     1   Atom        0.000000     -0.000000     -0.000000
     2   Atom       -0.000000      0.000000     -0.000000
     3   Atom        0.000000      0.000000     -0.000000
     4   Atom        0.000000      0.000000     -0.000000
 --------------------------------------------------------
                        XY            XZ            YZ
 --------------------------------------------------------
     1   Atom       -0.000000     -0.000000     -0.000000
     2   Atom       -0.000000     -0.000000     -0.000000
     3   Atom        0.000000     -0.000000      0.000000
     4   Atom       -0.000000     -0.000000     -0.000000
 --------------------------------------------------------


 ---------------------------------------------------------------------------------
              Anisotropic Spin Dipole Couplings in Principal Axis System
 ---------------------------------------------------------------------------------

       Atom             a.u.   MegaHertz   Gauss  10(-4) cm-1        Axes

              Baa    -0.0000    -0.000    -0.000    -0.000  0.7064  0.0004  0.7078
     1 C(13)  Bbb    -0.0000    -0.000    -0.000    -0.000 -0.0006  1.0000 -0.0000
              Bcc     0.0000     0.000     0.000     0.000  0.7078  0.0004 -0.7064
 
              Baa    -0.0000    -0.000    -0.000    -0.000  0.7088  0.7054  0.0062
     2 S(33)  Bbb    -0.0000    -0.000    -0.000    -0.000 -0.0037 -0.0051  1.0000
              Bcc     0.0000     0.000     0.000     0.000 -0.7054  0.7088  0.0009
 
              Baa    -0.0000    -0.000    -0.000    -0.000  0.6588 -0.2559  0.7074
     3 H(1)   Bbb     0.0000     0.000     0.000     0.000  0.3596  0.9331  0.0026
              Bcc     0.0000     0.000     0.000     0.000 -0.6608  0.2527  0.7068
 
              Baa    -0.0000    -0.000    -0.000    -0.000  0.6584  0.2565  0.7076
     4 H(1)   Bbb     0.0000     0.000     0.000     0.000 -0.3605  0.9327 -0.0027
              Bcc     0.0000     0.000     0.000     0.000 -0.6607 -0.2533  0.7066
 

 ---------------------------------------------------------------------------------

 No NMR shielding tensors so no spin-rotation constants.
 Leave Link  601 at Mon Apr 21 19:46:15 2025, MaxMem=   536870912 cpu:               2.2 elap:               0.3
 (Enter /home/szhao/Apps/g16/l9999.exe)
 1\1\GINC-NODE05\FOpt\UM062X\6-311+G(d,p)\C1H2S1\SZHAO\21-Apr-2025\0\\#
 p opt UM062X/6-311+G** nosymm int=superfine\\Title Card Required\\0,1\
 C,-2.12713956,0.,0.\S,2.12713956,0.,0.\H,-2.8161781277,-0.8665058779,-
 0.0000407853\H,-2.8171623446,0.8657215532,-0.0001648961\\Version=ES64L
 -G16RevA.03\HF=-437.1609048\S2=0.\S2-1=0.\S2A=0.\RMSD=4.087e-09\RMSF=1
 .108e-05\Dipole=-0.980072,-0.0004524,-0.000119\Quadrupole=6.0227008,-3
 .2610444,-2.7616564,0.0003229,-0.0000233,0.0000357\PG=C01 [X(C1H2S1)]\
 \@


 IT IS DOUBTED WHETHER A MAN EVER BRINGS HIS FACULTIES TO BEAR WITH THEIR FULL FORCE
 ON A SUBJECT UNTIL HE WRITES UPON IT.

                          -- CICERO
 Job cpu time:       0 days  0 hours  4 minutes 47.6 seconds.
 Elapsed time:       0 days  0 hours  0 minutes 43.0 seconds.
 File lengths (MBytes):  RWF=     22 Int=      0 D2E=      0 Chk=      2 Scr=      2
 Normal termination of Gaussian 16 at Mon Apr 21 19:46:16 2025.
