 Entering Gaussian System, Link 0=g16
 Initial command:
 /home/szhao/Apps/g16/l1.exe "/home/szhao/tmp/Gau-102003.inp" -scrdir="/home/szhao/tmp/"
 Default is to use a total of  16 processors:
                               16 via shared-memory
                                1 via Linda
 Entering Link 1 = /home/szhao/Apps/g16/l1.exe PID=    102004.
  
 Copyright (c) 1988,1990,1992,1993,1995,1998,2003,2009,2016,
            Gaussian, Inc.  All Rights Reserved.
  
 This is part of the Gaussian(R) 16 program.  It is based on
 the Gaussian(R) 09 system (copyright 2009, Gaussian, Inc.),
 the Gaussian(R) 03 system (copyright 2003, Gaussian, Inc.),
 the Gaussian(R) 98 system (copyright 1998, Gaussian, Inc.),
 the Gaussian(R) 94 system (copyright 1995, Gaussian, Inc.),
 the Gaussian 92(TM) system (copyright 1992, Gaussian, Inc.),
 the Gaussian 90(TM) system (copyright 1990, Gaussian, Inc.),
 the Gaussian 88(TM) system (copyright 1988, Gaussian, Inc.),
 the Gaussian 86(TM) system (copyright 1986, Carnegie Mellon
 University), and the Gaussian 82(TM) system (copyright 1983,
 Carnegie Mellon University). Gaussian is a federally registered
 trademark of Gaussian, Inc.
  
 This software contains proprietary and confidential information,
 including trade secrets, belonging to Gaussian, Inc.
  
 This software is provided under written license and may be
 used, copied, transmitted, or stored only in accord with that
 written license.
  
 The following legend is applicable only to US Government
 contracts under FAR:
  
                    RESTRICTED RIGHTS LEGEND
  
 Use, reproduction and disclosure by the US Government is
 subject to restrictions as set forth in subparagraphs (a)
 and (c) of the Commercial Computer Software - Restricted
 Rights clause in FAR 52.227-19.
  
 Gaussian, Inc.
 340 Quinnipiac St., Bldg. 40, Wallingford CT 06492
  
  
 ---------------------------------------------------------------
 Warning -- This program may not be used in any manner that
 competes with the business of Gaussian, Inc. or will provide
 assistance to any competitor of Gaussian, Inc.  The licensee
 of this program is prohibited from giving any competitor of
 Gaussian, Inc. access to this program.  By using this program,
 the user acknowledges that Gaussian, Inc. is engaged in the
 business of creating and licensing software in the field of
 computational chemistry and represents and warrants to the
 licensee that it is not a competitor of Gaussian, Inc. and that
 it will not use this program in any manner prohibited above.
 ---------------------------------------------------------------
  

 Cite this work as:
 Gaussian 16, Revision A.03,
 M. J. Frisch, G. W. Trucks, H. B. Schlegel, G. E. Scuseria, 
 M. A. Robb, J. R. Cheeseman, G. Scalmani, V. Barone, 
 G. A. Petersson, H. Nakatsuji, X. Li, M. Caricato, A. V. Marenich, 
 J. Bloino, B. G. Janesko, R. Gomperts, B. Mennucci, H. P. Hratchian, 
 J. V. Ortiz, A. F. Izmaylov, J. L. Sonnenberg, D. Williams-Young, 
 F. Ding, F. Lipparini, F. Egidi, J. Goings, B. Peng, A. Petrone, 
 T. Henderson, D. Ranasinghe, V. G. Zakrzewski, J. Gao, N. Rega, 
 G. Zheng, W. Liang, M. Hada, M. Ehara, K. Toyota, R. Fukuda, 
 J. Hasegawa, M. Ishida, T. Nakajima, Y. Honda, O. Kitao, H. Nakai, 
 T. Vreven, K. Throssell, J. A. Montgomery, Jr., J. E. Peralta, 
 F. Ogliaro, M. J. Bearpark, J. J. Heyd, E. N. Brothers, K. N. Kudin, 
 V. N. Staroverov, T. A. Keith, R. Kobayashi, J. Normand, 
 K. Raghavachari, A. P. Rendell, J. C. Burant, S. S. Iyengar, 
 J. Tomasi, M. Cossi, J. M. Millam, M. Klene, C. Adamo, R. Cammi, 
 J. W. Ochterski, R. L. Martin, K. Morokuma, O. Farkas, 
 J. B. Foresman, and D. J. Fox, Gaussian, Inc., Wallingford CT, 2016.
 
 ******************************************
 Gaussian 16:  ES64L-G16RevA.03 25-Dec-2016
                 3-Dec-2024 
 ******************************************
 %chk=opt.chk
 %mem=8GB
 %nprocshared=8
 Will use up to    8 processors via shared memory.
 ---------------------------------------------------------
 #p opt UM062X/6-311+G** nosymm int=superfine SCF=NoVarAcc
 ---------------------------------------------------------
 1/18=20,19=15,26=5,38=1/1,3;
 2/9=110,12=2,15=1,17=6,18=5,40=1/2;
 3/5=4,6=6,7=111,11=2,25=1,30=1,71=1,74=-55,75=-7,116=2/1,2,3;
 4//1;
 5/5=2,38=1/2;
 6/7=2,8=2,9=2,10=2,28=1/1;
 7/30=1/1,2,3,16;
 1/18=20,19=15,26=5/3(2);
 2/9=110,15=1/2;
 99//99;
 2/9=110,15=1/2;
 3/5=4,6=6,7=111,11=2,25=1,30=1,71=1,74=-55,75=-7,116=2/1,2,3;
 4/5=5,16=3,69=1/1;
 5/5=2,38=1/2;
 7/30=1/1,2,3,16;
 1/18=20,19=15,26=5/3(-5);
 2/9=110,15=1/2;
 6/7=2,8=2,9=2,10=2,19=2,28=1/1;
 99/9=1/99;
 Leave Link    1 at Tue Dec  3 20:21:33 2024, MaxMem=  1073741824 cpu:               0.5 elap:               0.1
 (Enter /home/szhao/Apps/g16/l101.exe)
 -------------------
 Title Card Required
 -------------------
 Symbolic Z-matrix:
 Charge =  0 Multiplicity = 1
 C                    -1   -6.43262   0.        0. 
 C                    -1    6.43262   0.        0. 
 H                    0    -7.55549  -0.00001   0.00001 
 H                    0     7.55549   0.       0. 
 
 Add virtual bond connecting atoms C2         and C1         Dist= 2.43D+01.
 ITRead=  2  2  0  0
 MicOpt= -2 -2 -1 -1
 NAtoms=      4 NQM=        2 NQMF=       2 NMMI=      0 NMMIF=      0
                NMic=       0 NMicF=      0.
                    Isotopes and Nuclear Properties:
 (Nuclear quadrupole moments (NQMom) in fm**2, nuclear magnetic moments (NMagM)
  in nuclear magnetons)

  Atom         1           2           3           4
 IAtWgt=          12          12           1           1
 AtmWgt=  12.0000000  12.0000000   1.0078250   1.0078250
 NucSpn=           0           0           1           1
 AtZEff=  -0.0000000  -0.0000000  -0.0000000  -0.0000000
 NQMom=    0.0000000   0.0000000   0.0000000   0.0000000
 NMagM=    0.0000000   0.0000000   2.7928460   2.7928460
 AtZNuc=   6.0000000   6.0000000   1.0000000   1.0000000
 Leave Link  101 at Tue Dec  3 20:21:34 2024, MaxMem=  1073741824 cpu:               4.9 elap:               0.6
 (Enter /home/szhao/Apps/g16/l103.exe)

 GradGradGradGradGradGradGradGradGradGradGradGradGradGradGradGradGradGrad
 Berny optimization.
 Initialization pass.
                           ----------------------------
                           !    Initial Parameters    !
                           ! (Angstroms and Degrees)  !
 --------------------------                            --------------------------
 ! Name  Definition              Value          Derivative Info.                !
 --------------------------------------------------------------------------------
 ! X1    R(1,-1)                -6.4326         Frozen                          !
 ! Y1    R(1,-2)                 0.0            Frozen                          !
 ! Z1    R(1,-3)                 0.0            Frozen                          !
 ! X2    R(2,-1)                 6.4326         Frozen                          !
 ! Y2    R(2,-2)                 0.0            Frozen                          !
 ! Z2    R(2,-3)                 0.0            Frozen                          !
 ! R1    R(1,3)                  1.1229         estimate D2E/DX2                !
 ! R2    R(2,4)                  1.1229         estimate D2E/DX2                !
 ! A1    L(2,1,3,-2,-1)        179.9997         estimate D2E/DX2                !
 ! A2    L(1,2,4,-2,-1)        179.9998         estimate D2E/DX2                !
 ! A3    L(2,1,3,-3,-2)        179.9997         estimate D2E/DX2                !
 ! A4    L(1,2,4,-3,-2)        179.9998         estimate D2E/DX2                !
 --------------------------------------------------------------------------------
 Trust Radius=3.00D-01 FncErr=1.00D-07 GrdErr=1.00D-07 EigMax=2.50D+02 EigMin=1.00D-04
 Number of steps in this run=     22 maximum allowed number of steps=    100.
 GradGradGradGradGradGradGradGradGradGradGradGradGradGradGradGradGradGrad

 Leave Link  103 at Tue Dec  3 20:21:34 2024, MaxMem=  1073741824 cpu:               0.1 elap:               0.0
 (Enter /home/szhao/Apps/g16/l202.exe)
                          Input orientation:                          
 ---------------------------------------------------------------------
 Center     Atomic      Atomic             Coordinates (Angstroms)
 Number     Number       Type             X           Y           Z
 ---------------------------------------------------------------------
      1          6           0       -6.432625    0.000000    0.000000
      2          6           0        6.432625    0.000000    0.000000
      3          1           0       -7.555487   -0.000006    0.000006
      4          1           0        7.555486    0.000004   -0.000004
 ---------------------------------------------------------------------
                    Distance matrix (angstroms):
                    1          2          3          4
     1  C    0.000000
     2  C   12.865250   0.000000
     3  H    1.122862  13.988112   0.000000
     4  H   13.988111   1.122861  15.110973   0.000000
 Symmetry turned off by external request.
 Stoichiometry    C2H2
 Framework group  C*V[C*(HCCH)]
 Deg. of freedom     3
 Full point group                 C*V     NOp   4
 Rotational constants (GHZ):           0.0000000           0.4560556           0.4560556
 Leave Link  202 at Tue Dec  3 20:21:34 2024, MaxMem=  1073741824 cpu:               0.0 elap:               0.0
 (Enter /home/szhao/Apps/g16/l301.exe)
 Standard basis: 6-311+G(d,p) (5D, 7F)
 Ernie: Thresh=  0.10000D-02 Tol=  0.10000D-05 Strict=F.
    56 basis functions,    88 primitive gaussians,    58 cartesian basis functions
     7 alpha electrons        7 beta electrons
       nuclear repulsion energy         7.6250548791 Hartrees.
 IExCor= 4336 DFT=T Ex+Corr=M062X ExCW=0 ScaHFX=  0.540000
 ScaDFX=  1.000000  1.000000  1.000000  1.000000 ScalE2=  1.000000  1.000000
 IRadAn=      7 IRanWt=     -1 IRanGd=            0 ICorTp=0 IEmpDi=  4
 NAtoms=    4 NActive=    4 NUniq=    4 SFac= 1.00D+00 NAtFMM=   60 NAOKFM=F Big=F
 Integral buffers will be    131072 words long.
 Raffenetti 2 integral format.
 Two-electron integral symmetry is turned off.
 Leave Link  301 at Tue Dec  3 20:21:34 2024, MaxMem=  1073741824 cpu:               0.3 elap:               0.0
 (Enter /home/szhao/Apps/g16/l302.exe)
 NPDir=0 NMtPBC=     1 NCelOv=     1 NCel=       1 NClECP=     1 NCelD=      1
         NCelK=      1 NCelE2=     1 NClLst=     1 CellRange=     0.0.
 One-electron integrals computed using PRISM.
 NBasis=    56 RedAO= T EigKep=  2.13D-02  NBF=    56
 NBsUse=    56 1.00D-06 EigRej= -1.00D+00 NBFU=    56
 Precomputing XC quadrature grid using
 IXCGrd= 4 IRadAn=           7 IRanWt=          -1 IRanGd=           0 AccXCQ= 0.00D+00.
 Generated NRdTot=       0 NPtTot=           0 NUsed=           0 NTot=          32
 NSgBfM=    33    33    33    33    33 MxSgAt=     4 MxSgA2=     4.
 Leave Link  302 at Tue Dec  3 20:21:34 2024, MaxMem=  1073741824 cpu:               1.2 elap:               0.2
 (Enter /home/szhao/Apps/g16/l303.exe)
 DipDrv:  MaxL=1.
 Leave Link  303 at Tue Dec  3 20:21:34 2024, MaxMem=  1073741824 cpu:               0.3 elap:               0.0
 (Enter /home/szhao/Apps/g16/l401.exe)
 ExpMin= 4.38D-02 ExpMax= 4.56D+03 ExpMxC= 6.82D+02 IAcc=3 IRadAn=         7 AccDes= 0.00D+00
 Harris functional with IExCor= 1009 and IRadAn=       7 diagonalized for initial guess.
 HarFok:  IExCor= 1009 AccDes= 0.00D+00 IRadAn=         7 IDoV= 1 UseB2=F ITyADJ=14
 ICtDFT=  3500011 ScaDFX=  1.000000  1.000000  1.000000  1.000000
 FoFCou: FMM=F IPFlag=           0 FMFlag=      100000 FMFlg1=           0
         NFxFlg=           0 DoJE=T BraDBF=F KetDBF=T FulRan=T
         wScrn=  0.000000 ICntrl=       500 IOpCl=  0 I1Cent=   200000004 NGrid=           0
         NMat0=    1 NMatS0=      1 NMatT0=    0 NMatD0=    1 NMtDS0=    0 NMtDT0=    0
 Symmetry not used in FoFCou.
 Harris En= -76.8215254372123    
 JPrj=0 DoOrth=F DoCkMO=F.
 Initial guess <Sx>= 0.0000 <Sy>= 0.0000 <Sz>= 0.0000 <S**2>= 0.0000 S= 0.0000
 Leave Link  401 at Tue Dec  3 20:21:35 2024, MaxMem=  1073741824 cpu:               1.7 elap:               0.2
 (Enter /home/szhao/Apps/g16/l502.exe)
 Keep R1 and R2 ints in memory in canonical form, NReq=9624198.
 FoFCou: FMM=F IPFlag=           0 FMFlag=           0 FMFlg1=           0
         NFxFlg=           0 DoJE=F BraDBF=F KetDBF=F FulRan=T
         wScrn=  0.000000 ICntrl=       600 IOpCl=  0 I1Cent=           0 NGrid=           0
         NMat0=    1 NMatS0=   1596 NMatT0=    0 NMatD0=    1 NMtDS0=    0 NMtDT0=    0
 Symmetry not used in FoFCou.
 Two-electron integral symmetry not used.
 UHF open shell SCF:
 Using DIIS extrapolation, IDIIS=  1040.
 NGot=  1073741824 LenX=  1071185250 LenY=  1071181445
 Requested convergence on RMS density matrix=1.00D-08 within 128 cycles.
 Requested convergence on MAX density matrix=1.00D-06.
 Requested convergence on             energy=1.00D-06.
 No special actions if energy rises.

 Cycle   1  Pass 1  IDiag  1:
 E= -76.4521416174373    
 DIIS: error= 4.61D-02 at cycle   1 NSaved=   1.
 NSaved= 1 IEnMin= 1 EnMin= -76.4521416174373     IErMin= 1 ErrMin= 4.61D-02
 ErrMax= 4.61D-02  0.00D+00 EMaxC= 1.00D-01 BMatC= 3.57D-01 BMatP= 3.57D-01
 IDIUse=3 WtCom= 5.39D-01 WtEn= 4.61D-01
 Coeff-Com:  0.100D+01
 Coeff-En:   0.100D+01
 Coeff:      0.100D+01
 Gap=     0.179 Goal=   None    Shift=    0.000
 Gap=     0.179 Goal=   None    Shift=    0.000
 GapD=    0.179 DampG=1.000 DampE=0.500 DampFc=0.5000 IDamp=-1.
 Damping current iteration by 5.00D-01
 RMSDP=1.92D-02 MaxDP=2.59D-01              OVMax= 1.00D+00

 Cycle   2  Pass 1  IDiag  1:
 E= -75.9201180899010     Delta-E=        0.532023527536 Rises=F Damp=T
 DIIS: error= 4.88D-02 at cycle   2 NSaved=   2.
 NSaved= 2 IEnMin= 1 EnMin= -76.4521416174373     IErMin= 1 ErrMin= 4.61D-02
 ErrMax= 4.88D-02  0.00D+00 EMaxC= 1.00D-01 BMatC= 7.33D-01 BMatP= 3.57D-01
 IDIUse=2 WtCom= 0.00D+00 WtEn= 1.00D+00
 Coeff-En:   0.644D+00 0.356D+00
 Coeff:      0.644D+00 0.356D+00
 Gap=     0.583 Goal=   None    Shift=    0.000
 Gap=     0.583 Goal=   None    Shift=    0.000
 RMSDP=9.90D-03 MaxDP=1.41D-01 DE= 5.32D-01 OVMax= 9.98D-01

 Cycle   3  Pass 1  IDiag  1:
 E= -76.4135906785183     Delta-E=       -0.493472588617 Rises=F Damp=F
 DIIS: error= 4.09D-02 at cycle   3 NSaved=   3.
 NSaved= 3 IEnMin= 1 EnMin= -76.4521416174373     IErMin= 3 ErrMin= 4.09D-02
 ErrMax= 4.09D-02  0.00D+00 EMaxC= 1.00D-01 BMatC= 4.08D-01 BMatP= 3.57D-01
 IDIUse=2 WtCom= 0.00D+00 WtEn= 1.00D+00
 Coeff-En:   0.513D+00 0.000D+00 0.487D+00
 Coeff:      0.513D+00 0.000D+00 0.487D+00
 Gap=     0.082 Goal=   None    Shift=    0.000
 Gap=     0.082 Goal=   None    Shift=    0.000
 RMSDP=5.48D-03 MaxDP=5.89D-02 DE=-4.93D-01 OVMax= 4.40D-01

 Cycle   4  Pass 1  IDiag  1:
 E= -76.6953227060585     Delta-E=       -0.281732027540 Rises=F Damp=F
 DIIS: error= 7.46D-02 at cycle   4 NSaved=   4.
 NSaved= 4 IEnMin= 4 EnMin= -76.6953227060585     IErMin= 3 ErrMin= 4.09D-02
 ErrMax= 7.46D-02  0.00D+00 EMaxC= 1.00D-01 BMatC= 1.95D-01 BMatP= 3.57D-01
 IDIUse=3 WtCom= 2.54D-01 WtEn= 7.46D-01
 Coeff-Com:  0.439D+00 0.161D-01 0.226D+00 0.319D+00
 Coeff-En:   0.356D+00 0.000D+00 0.000D+00 0.644D+00
 Coeff:      0.377D+00 0.408D-02 0.574D-01 0.561D+00
 Gap=     0.001 Goal=   None    Shift=    0.000
 Gap=     0.001 Goal=   None    Shift=    0.000
 RMSDP=7.76D-03 MaxDP=6.73D-02 DE=-2.82D-01 OVMax= 6.75D-01

 Cycle   5  Pass 1  IDiag  1:
 E= -76.6245816863726     Delta-E=        0.070741019686 Rises=F Damp=F
 DIIS: error= 7.68D-02 at cycle   5 NSaved=   5.
 NSaved= 5 IEnMin= 4 EnMin= -76.6953227060585     IErMin= 3 ErrMin= 4.09D-02
 ErrMax= 7.68D-02  0.00D+00 EMaxC= 1.00D-01 BMatC= 2.49D-01 BMatP= 1.95D-01
 IDIUse=2 WtCom= 0.00D+00 WtEn= 1.00D+00
 Coeff-En:   0.000D+00 0.000D+00 0.000D+00 0.560D+00 0.440D+00
 Coeff:      0.000D+00 0.000D+00 0.000D+00 0.560D+00 0.440D+00
 Gap=     0.013 Goal=   None    Shift=    0.000
 Gap=     0.013 Goal=   None    Shift=    0.000
 RMSDP=3.93D-03 MaxDP=3.00D-02 DE= 7.07D-02 OVMax= 3.40D-01

 Cycle   6  Pass 1  IDiag  1:
 E= -76.8066577807670     Delta-E=       -0.182076094394 Rises=F Damp=F
 DIIS: error= 2.39D-02 at cycle   6 NSaved=   6.
 NSaved= 6 IEnMin= 6 EnMin= -76.8066577807670     IErMin= 6 ErrMin= 2.39D-02
 ErrMax= 2.39D-02  0.00D+00 EMaxC= 1.00D-01 BMatC= 1.68D-02 BMatP= 1.95D-01
 IDIUse=3 WtCom= 7.61D-01 WtEn= 2.39D-01
 Coeff-Com:  0.239D-02-0.118D-01-0.253D-01 0.187D+00-0.122D+00 0.969D+00
 Coeff-En:   0.000D+00 0.000D+00 0.000D+00 0.195D+00 0.000D+00 0.805D+00
 Coeff:      0.182D-02-0.895D-02-0.193D-01 0.189D+00-0.929D-01 0.930D+00
 Gap=     0.022 Goal=   None    Shift=    0.000
 Gap=     0.022 Goal=   None    Shift=    0.000
 RMSDP=5.70D-04 MaxDP=5.33D-03 DE=-1.82D-01 OVMax= 4.84D-02

 Cycle   7  Pass 1  IDiag  1:
 E= -76.8135918819898     Delta-E=       -0.006934101223 Rises=F Damp=F
 DIIS: error= 9.24D-03 at cycle   7 NSaved=   7.
 NSaved= 7 IEnMin= 7 EnMin= -76.8135918819898     IErMin= 7 ErrMin= 9.24D-03
 ErrMax= 9.24D-03  0.00D+00 EMaxC= 1.00D-01 BMatC= 2.55D-03 BMatP= 1.68D-02
 IDIUse=3 WtCom= 9.08D-01 WtEn= 9.24D-02
 Coeff-Com:  0.548D-02-0.981D-03-0.117D-01 0.846D-01-0.499D-01 0.661D-01
 Coeff-Com:  0.906D+00
 Coeff-En:   0.000D+00 0.000D+00 0.000D+00 0.747D-01 0.000D+00 0.000D+00
 Coeff-En:   0.925D+00
 Coeff:      0.498D-02-0.890D-03-0.106D-01 0.836D-01-0.453D-01 0.600D-01
 Coeff:      0.908D+00
 Gap=     0.022 Goal=   None    Shift=    0.000
 Gap=     0.022 Goal=   None    Shift=    0.000
 RMSDP=9.72D-05 MaxDP=7.97D-04 DE=-6.93D-03 OVMax= 7.61D-03

 Cycle   8  Pass 1  IDiag  1:
 E= -76.8129267052486     Delta-E=        0.000665176741 Rises=F Damp=F
 DIIS: error= 1.15D-02 at cycle   8 NSaved=   8.
 NSaved= 8 IEnMin= 7 EnMin= -76.8135918819898     IErMin= 7 ErrMin= 9.24D-03
 ErrMax= 1.15D-02  0.00D+00 EMaxC= 1.00D-01 BMatC= 3.92D-03 BMatP= 2.55D-03
 IDIUse=2 WtCom= 0.00D+00 WtEn= 1.00D+00
 Rare condition: small coef for last iteration:  0.000D+00
 Coeff-En:   0.000D+00 0.000D+00 0.000D+00 0.957D-01 0.000D+00 0.000D+00
 Coeff-En:   0.000D+00 0.904D+00
 Coeff:      0.000D+00 0.000D+00 0.000D+00 0.957D-01 0.000D+00 0.000D+00
 Coeff:      0.000D+00 0.904D+00
 Gap=     0.021 Goal=   None    Shift=    0.000
 Gap=     0.021 Goal=   None    Shift=    0.000
 RMSDP=2.17D-03 MaxDP=1.87D-02 DE= 6.65D-04 OVMax= 1.88D-01

 Cycle   9  Pass 1  IDiag  1:
 E= -76.7836202247430     Delta-E=        0.029306480506 Rises=F Damp=F
 DIIS: error= 4.52D-02 at cycle   9 NSaved=   9.
 NSaved= 9 IEnMin= 7 EnMin= -76.8135918819898     IErMin= 7 ErrMin= 9.24D-03
 ErrMax= 4.52D-02  0.00D+00 EMaxC= 1.00D-01 BMatC= 6.23D-02 BMatP= 2.55D-03
 IDIUse=2 WtCom= 0.00D+00 WtEn= 1.00D+00
 EnCoef did    29 forward-backward iterations
 Coeff-En:   0.000D+00 0.000D+00 0.000D+00 0.000D+00 0.000D+00 0.000D+00
 Coeff-En:   0.844D+00 0.337D-02 0.153D+00
 Coeff:      0.000D+00 0.000D+00 0.000D+00 0.000D+00 0.000D+00 0.000D+00
 Coeff:      0.844D+00 0.337D-02 0.153D+00
 Gap=     0.022 Goal=   None    Shift=    0.000
 Gap=     0.022 Goal=   None    Shift=    0.000
 RMSDP=1.05D-03 MaxDP=8.94D-03 DE= 2.93D-02 OVMax= 9.13D-02

 Cycle  10  Pass 1  IDiag  1:
 E= -76.8096666024812     Delta-E=       -0.026046377738 Rises=F Damp=F
 DIIS: error= 1.91D-02 at cycle  10 NSaved=  10.
 NSaved=10 IEnMin= 7 EnMin= -76.8135918819898     IErMin= 7 ErrMin= 9.24D-03
 ErrMax= 1.91D-02  0.00D+00 EMaxC= 1.00D-01 BMatC= 1.07D-02 BMatP= 2.55D-03
 IDIUse=2 WtCom= 0.00D+00 WtEn= 1.00D+00
 EnCoef did    53 forward-backward iterations
 Coeff-En:   0.000D+00 0.000D+00 0.000D+00 0.000D+00 0.000D+00 0.000D+00
 Coeff-En:   0.680D+00 0.200D-03 0.000D+00 0.320D+00
 Coeff:      0.000D+00 0.000D+00 0.000D+00 0.000D+00 0.000D+00 0.000D+00
 Coeff:      0.680D+00 0.200D-03 0.000D+00 0.320D+00
 Gap=     0.022 Goal=   None    Shift=    0.000
 Gap=     0.022 Goal=   None    Shift=    0.000
 RMSDP=5.29D-04 MaxDP=4.60D-03 DE=-2.60D-02 OVMax= 4.59D-02

 Cycle  11  Pass 1  IDiag  1:
 E= -76.8144759388800     Delta-E=       -0.004809336399 Rises=F Damp=F
 DIIS: error= 4.78D-03 at cycle  11 NSaved=  11.
 NSaved=11 IEnMin=11 EnMin= -76.8144759388800     IErMin=11 ErrMin= 4.78D-03
 ErrMax= 4.78D-03  0.00D+00 EMaxC= 1.00D-01 BMatC= 6.71D-04 BMatP= 2.55D-03
 IDIUse=3 WtCom= 9.52D-01 WtEn= 4.78D-02
 EnCoef did    58 forward-backward iterations
 Coeff-Com: -0.546D-04 0.463D-04-0.757D-03 0.187D-02 0.159D-02-0.200D-01
 Coeff-Com:  0.649D-01-0.181D+00 0.133D+00-0.894D+00 0.189D+01
 Coeff-En:   0.000D+00 0.000D+00 0.000D+00 0.000D+00 0.000D+00 0.000D+00
 Coeff-En:   0.330D+00 0.309D-02 0.000D+00 0.000D+00 0.667D+00
 Coeff:     -0.520D-04 0.441D-04-0.721D-03 0.178D-02 0.152D-02-0.190D-01
 Coeff:      0.775D-01-0.172D+00 0.127D+00-0.852D+00 0.184D+01
 Gap=     0.022 Goal=   None    Shift=    0.000
 Gap=     0.022 Goal=   None    Shift=    0.000
 RMSDP=2.28D-04 MaxDP=2.00D-03 DE=-4.81D-03 OVMax= 1.98D-02

 Cycle  12  Pass 1  IDiag  1:
 E= -76.8147640789326     Delta-E=       -0.000288140053 Rises=F Damp=F
 DIIS: error= 1.45D-03 at cycle  12 NSaved=  12.
 NSaved=12 IEnMin=12 EnMin= -76.8147640789326     IErMin=12 ErrMin= 1.45D-03
 ErrMax= 1.45D-03  0.00D+00 EMaxC= 1.00D-01 BMatC= 6.18D-05 BMatP= 6.71D-04
 IDIUse=3 WtCom= 9.85D-01 WtEn= 1.45D-02
 Coeff-Com:  0.236D-04 0.506D-05-0.122D-03-0.732D-03 0.108D-03-0.139D-02
 Coeff-Com:  0.132D-01-0.104D+00 0.247D-01-0.119D+00 0.295D+00 0.893D+00
 Coeff-En:   0.000D+00 0.000D+00 0.000D+00 0.000D+00 0.000D+00 0.000D+00
 Coeff-En:   0.000D+00 0.000D+00 0.000D+00 0.000D+00 0.224D+00 0.776D+00
 Coeff:      0.233D-04 0.499D-05-0.120D-03-0.721D-03 0.107D-03-0.137D-02
 Coeff:      0.130D-01-0.103D+00 0.243D-01-0.118D+00 0.294D+00 0.891D+00
 Gap=     0.022 Goal=   None    Shift=    0.000
 Gap=     0.022 Goal=   None    Shift=    0.000
 RMSDP=5.23D-05 MaxDP=4.56D-04 DE=-2.88D-04 OVMax= 4.54D-03

 Cycle  13  Pass 1  IDiag  1:
 E= -76.8147934469103     Delta-E=       -0.000029367978 Rises=F Damp=F
 DIIS: error= 2.81D-05 at cycle  13 NSaved=  13.
 NSaved=13 IEnMin=13 EnMin= -76.8147934469103     IErMin=13 ErrMin= 2.81D-05
 ErrMax= 2.81D-05  0.00D+00 EMaxC= 1.00D-01 BMatC= 2.25D-08 BMatP= 6.18D-05
 IDIUse=1 WtCom= 1.00D+00 WtEn= 0.00D+00
 Coeff-Com:  0.339D-05 0.219D-05-0.306D-04-0.243D-04-0.810D-04 0.200D-03
 Coeff-Com: -0.232D-02 0.450D-02 0.223D-02-0.101D-01 0.962D-02-0.726D-01
 Coeff-Com:  0.107D+01
 Coeff:      0.339D-05 0.219D-05-0.306D-04-0.243D-04-0.810D-04 0.200D-03
 Coeff:     -0.232D-02 0.450D-02 0.223D-02-0.101D-01 0.962D-02-0.726D-01
 Coeff:      0.107D+01
 Gap=     0.022 Goal=   None    Shift=    0.000
 Gap=     0.022 Goal=   None    Shift=    0.000
 RMSDP=8.32D-07 MaxDP=9.67D-06 DE=-2.94D-05 OVMax= 9.49D-05

 Cycle  14  Pass 1  IDiag  1:
 E= -76.8147934404658     Delta-E=        0.000000006444 Rises=F Damp=F
 DIIS: error= 4.47D-05 at cycle  14 NSaved=  14.
 NSaved=14 IEnMin=13 EnMin= -76.8147934469103     IErMin=13 ErrMin= 2.81D-05
 ErrMax= 4.47D-05  0.00D+00 EMaxC= 1.00D-01 BMatC= 4.18D-08 BMatP= 2.25D-08
 IDIUse=1 WtCom= 1.00D+00 WtEn= 0.00D+00
 Coeff-Com:  0.344D-05 0.229D-05-0.312D-04-0.231D-04-0.855D-04 0.220D-03
 Coeff-Com: -0.253D-02 0.540D-02 0.220D-02-0.990D-02 0.839D-02-0.812D-01
 Coeff-Com:  0.113D+01-0.546D-01
 Coeff:      0.344D-05 0.229D-05-0.312D-04-0.231D-04-0.855D-04 0.220D-03
 Coeff:     -0.253D-02 0.540D-02 0.220D-02-0.990D-02 0.839D-02-0.812D-01
 Coeff:      0.113D+01-0.546D-01
 Gap=     0.022 Goal=   None    Shift=    0.000
 Gap=     0.022 Goal=   None    Shift=    0.000
 RMSDP=4.56D-07 MaxDP=4.44D-06 DE= 6.44D-09 OVMax= 4.41D-05

 Cycle  15  Pass 1  IDiag  1:
 E= -76.8147934370409     Delta-E=        0.000000003425 Rises=F Damp=F
 DIIS: error= 4.20D-05 at cycle  15 NSaved=  15.
 NSaved=15 IEnMin=13 EnMin= -76.8147934469103     IErMin=13 ErrMin= 2.81D-05
 ErrMax= 4.20D-05  0.00D+00 EMaxC= 1.00D-01 BMatC= 4.42D-08 BMatP= 2.25D-08
 IDIUse=1 WtCom= 1.00D+00 WtEn= 0.00D+00
 Coeff-Com:  0.311D-06 0.904D-07-0.106D-04 0.277D-04-0.236D-04 0.351D-04
 Coeff-Com: -0.266D-03 0.223D-05 0.322D-03-0.895D-03 0.322D-03-0.245D-01
 Coeff-Com:  0.696D-01-0.738D+00 0.169D+01
 Coeff:      0.311D-06 0.904D-07-0.106D-04 0.277D-04-0.236D-04 0.351D-04
 Coeff:     -0.266D-03 0.223D-05 0.322D-03-0.895D-03 0.322D-03-0.245D-01
 Coeff:      0.696D-01-0.738D+00 0.169D+01
 Gap=     0.022 Goal=   None    Shift=    0.000
 Gap=     0.022 Goal=   None    Shift=    0.000
 RMSDP=1.18D-06 MaxDP=1.28D-05 DE= 3.42D-09 OVMax= 1.27D-04

 Cycle  16  Pass 1  IDiag  1:
 E= -76.8147934566218     Delta-E=       -0.000000019581 Rises=F Damp=F
 DIIS: error= 8.10D-06 at cycle  16 NSaved=  16.
 NSaved=16 IEnMin=16 EnMin= -76.8147934566218     IErMin=16 ErrMin= 8.10D-06
 ErrMax= 8.10D-06  0.00D+00 EMaxC= 1.00D-01 BMatC= 1.92D-09 BMatP= 2.25D-08
 IDIUse=1 WtCom= 1.00D+00 WtEn= 0.00D+00
 Coeff-Com:  0.538D-07 0.236D-07-0.250D-06 0.468D-05 0.122D-05-0.630D-05
 Coeff-Com:  0.126D-03-0.886D-03-0.126D-05 0.987D-04 0.335D-03 0.866D-02
 Coeff-Com: -0.320D-01 0.171D+00-0.394D+00 0.125D+01
 Coeff:      0.538D-07 0.236D-07-0.250D-06 0.468D-05 0.122D-05-0.630D-05
 Coeff:      0.126D-03-0.886D-03-0.126D-05 0.987D-04 0.335D-03 0.866D-02
 Coeff:     -0.320D-01 0.171D+00-0.394D+00 0.125D+01
 Gap=     0.022 Goal=   None    Shift=    0.000
 Gap=     0.022 Goal=   None    Shift=    0.000
 RMSDP=2.66D-07 MaxDP=2.31D-06 DE=-1.96D-08 OVMax= 2.31D-05

 Cycle  17  Pass 1  IDiag  1:
 E= -76.8147934575238     Delta-E=       -0.000000000902 Rises=F Damp=F
 DIIS: error= 8.45D-07 at cycle  17 NSaved=  17.
 NSaved=17 IEnMin=17 EnMin= -76.8147934575238     IErMin=17 ErrMin= 8.45D-07
 ErrMax= 8.45D-07  0.00D+00 EMaxC= 1.00D-01 BMatC= 2.09D-11 BMatP= 1.92D-09
 IDIUse=1 WtCom= 1.00D+00 WtEn= 0.00D+00
 Coeff-Com: -0.263D-08 0.116D-07 0.285D-07-0.241D-06 0.207D-06-0.965D-06
 Coeff-Com: -0.431D-05 0.804D-04 0.101D-04-0.942D-04 0.161D-03-0.162D-02
 Coeff-Com:  0.412D-02-0.154D-01 0.353D-01-0.118D+00 0.110D+01
 Coeff:     -0.263D-08 0.116D-07 0.285D-07-0.241D-06 0.207D-06-0.965D-06
 Coeff:     -0.431D-05 0.804D-04 0.101D-04-0.942D-04 0.161D-03-0.162D-02
 Coeff:      0.412D-02-0.154D-01 0.353D-01-0.118D+00 0.110D+01
 Gap=     0.022 Goal=   None    Shift=    0.000
 Gap=     0.022 Goal=   None    Shift=    0.000
 RMSDP=2.82D-08 MaxDP=2.46D-07 DE=-9.02D-10 OVMax= 2.45D-06

 Cycle  18  Pass 1  IDiag  1:
 E= -76.8147934575336     Delta-E=       -0.000000000010 Rises=F Damp=F
 DIIS: error= 7.33D-08 at cycle  18 NSaved=  18.
 NSaved=18 IEnMin=18 EnMin= -76.8147934575336     IErMin=18 ErrMin= 7.33D-08
 ErrMax= 7.33D-08  0.00D+00 EMaxC= 1.00D-01 BMatC= 1.57D-13 BMatP= 2.09D-11
 IDIUse=1 WtCom= 1.00D+00 WtEn= 0.00D+00
 Large coefficients: NSaved= 18 BigCof=    0.00 CofMax=   10.00 Det=-3.29D-16
 Inversion failed.  Reducing to 17 matrices.
 Large coefficients: NSaved= 17 BigCof=    0.00 CofMax=   10.00 Det=-3.40D-16
 Inversion failed.  Reducing to 16 matrices.
 Large coefficients: NSaved= 16 BigCof=    0.00 CofMax=   10.00 Det=-3.43D-16
 Inversion failed.  Reducing to 15 matrices.
 Coeff-Com:  0.120D-07-0.562D-07 0.192D-06-0.383D-07 0.632D-05-0.245D-05
 Coeff-Com:  0.164D-04-0.331D-04 0.232D-05-0.219D-03-0.115D-02 0.271D-02
 Coeff-Com: -0.452D-02-0.162D+00 0.117D+01
 Coeff:      0.120D-07-0.562D-07 0.192D-06-0.383D-07 0.632D-05-0.245D-05
 Coeff:      0.164D-04-0.331D-04 0.232D-05-0.219D-03-0.115D-02 0.271D-02
 Coeff:     -0.452D-02-0.162D+00 0.117D+01
 Gap=     0.022 Goal=   None    Shift=    0.000
 Gap=     0.022 Goal=   None    Shift=    0.000
 RMSDP=3.72D-09 MaxDP=3.24D-08 DE=-9.88D-12 OVMax= 3.22D-07

 SCF Done:  E(UM062X) =  -76.8147934575     A.U. after   18 cycles
            NFock= 18  Conv=0.37D-08     -V/T= 2.0032
 <Sx>= 0.0000 <Sy>= 0.0000 <Sz>= 0.0000 <S**2>=-0.0000 S=-0.0000
 <L.S>=  0.00000000000    
 KE= 7.657069379773D+01 PE=-1.935546994506D+02 EE= 3.254415731625D+01
 Annihilation of the first spin contaminant:
 S**2 before annihilation    -0.0000,   after     0.0000
 Leave Link  502 at Tue Dec  3 20:21:40 2024, MaxMem=  1073741824 cpu:              40.4 elap:               5.2
 (Enter /home/szhao/Apps/g16/l601.exe)
 Copying SCF densities to generalized density rwf, IOpCl= 1 IROHF=0.

 **********************************************************************

            Population analysis using the SCF density.

 **********************************************************************

 Alpha  occ. eigenvalues --  -10.66766 -10.66766  -0.72455  -0.72452  -0.38697
 Alpha  occ. eigenvalues --   -0.38696  -0.19268
 Alpha virt. eigenvalues --   -0.17064  -0.09727  -0.09727   0.03302   0.03304
 Alpha virt. eigenvalues --    0.08100   0.08100   0.08209   0.08220   0.08925
 Alpha virt. eigenvalues --    0.08926   0.17278   0.17280   0.45413   0.45418
 Alpha virt. eigenvalues --    0.57178   0.57178   0.57726   0.57727   0.61145
 Alpha virt. eigenvalues --    0.61145   0.68398   0.68402   1.12562   1.12562
 Alpha virt. eigenvalues --    1.13586   1.13589   1.33331   1.33332   1.34567
 Alpha virt. eigenvalues --    1.34568   1.57889   1.57891   1.84617   1.84617
 Alpha virt. eigenvalues --    1.85708   1.85708   2.38153   2.38153   2.48763
 Alpha virt. eigenvalues --    2.48765   2.70370   2.70370   2.70768   2.70768
 Alpha virt. eigenvalues --    3.16846   3.16847  23.50544  23.50545
  Beta  occ. eigenvalues --  -10.66766 -10.66766  -0.72455  -0.72452  -0.38697
  Beta  occ. eigenvalues --   -0.38696  -0.19268
  Beta virt. eigenvalues --   -0.17064  -0.09727  -0.09727   0.03302   0.03304
  Beta virt. eigenvalues --    0.08100   0.08100   0.08209   0.08220   0.08925
  Beta virt. eigenvalues --    0.08926   0.17278   0.17280   0.45413   0.45418
  Beta virt. eigenvalues --    0.57178   0.57178   0.57726   0.57727   0.61145
  Beta virt. eigenvalues --    0.61145   0.68398   0.68402   1.12562   1.12562
  Beta virt. eigenvalues --    1.13586   1.13589   1.33331   1.33332   1.34567
  Beta virt. eigenvalues --    1.34568   1.57889   1.57891   1.84617   1.84617
  Beta virt. eigenvalues --    1.85708   1.85708   2.38153   2.38153   2.48763
  Beta virt. eigenvalues --    2.48765   2.70370   2.70370   2.70768   2.70768
  Beta virt. eigenvalues --    3.16846   3.16847  23.50544  23.50545
          Condensed to atoms (all electrons):
               1          2          3          4
     1  C    5.933362   0.000000   0.195640  -0.000000
     2  C    0.000000   5.933362  -0.000000   0.195639
     3  H    0.195640  -0.000000   0.675359   0.000000
     4  H   -0.000000   0.195639   0.000000   0.675359
          Atomic-Atomic Spin Densities.
               1          2          3          4
     1  C    0.000000  -0.000000   0.000000  -0.000000
     2  C   -0.000000  -0.000000   0.000000   0.000000
     3  H    0.000000   0.000000  -0.000000  -0.000000
     4  H   -0.000000   0.000000  -0.000000  -0.000000
 Mulliken charges and spin densities:
               1          2
     1  C   -0.129002   0.000000
     2  C   -0.129002  -0.000000
     3  H    0.129002  -0.000000
     4  H    0.129002  -0.000000
 Sum of Mulliken charges =  -0.00000  -0.00000
 Mulliken charges and spin densities with hydrogens summed into heavy atoms:
               1          2
     1  C   -0.000000   0.000000
     2  C    0.000000  -0.000000
 Electronic spatial extent (au):  <R**2>=           2182.0127
 Charge=             -0.0000 electrons
 Dipole moment (field-independent basis, Debye):
    X=              0.0000    Y=             -0.0000    Z=              0.0000  Tot=              0.0000
 Quadrupole moment (field-independent basis, Debye-Ang):
   XX=             27.6945   YY=            -14.5942   ZZ=            -14.5944
   XY=              0.0001   XZ=             -0.0001   YZ=             -2.7033
 Traceless Quadrupole moment (field-independent basis, Debye-Ang):
   XX=             28.1926   YY=            -14.0962   ZZ=            -14.0964
   XY=              0.0001   XZ=             -0.0001   YZ=             -2.7033
 Octapole moment (field-independent basis, Debye-Ang**2):
  XXX=              0.0007  YYY=              0.0000  ZZZ=             -0.0000  XYY=             -0.0000
  XXY=             -0.0001  XXZ=              0.0001  XZZ=              0.0000  YZZ=              0.0000
  YYZ=             -0.0000  XYZ=              0.0000
 Hexadecapole moment (field-independent basis, Debye-Ang**3):
 XXXX=           -195.3127 YYYY=            -22.1441 ZZZZ=            -22.1449 XXXY=              0.0023
 XXXZ=             -0.0023 YYYX=             -0.0001 YYYZ=             -4.4400 ZZZX=              0.0001
 ZZZY=             -4.4400 XXYY=           -620.9807 XXZZ=           -620.9909 YYZZ=             -7.3815
 XXYZ=           -113.8602 YYXZ=              0.0000 ZZXY=             -0.0000
 N-N= 7.625054879092D+00 E-N=-1.935546994580D+02  KE= 7.657069379773D+01
                          Isotropic Fermi Contact Couplings
        Atom                 a.u.       MegaHertz       Gauss      10(-4) cm-1
     1  C(13)             -0.00000      -0.00000      -0.00000      -0.00000
     2  C(13)              0.00000       0.00000       0.00000       0.00000
     3  H(1)              -0.00000      -0.00000      -0.00000      -0.00000
     4  H(1)              -0.00000      -0.00000      -0.00000      -0.00000
 --------------------------------------------------------
       Center         ----  Spin Dipole Couplings  ----
                      3XX-RR        3YY-RR        3ZZ-RR
 --------------------------------------------------------
     1   Atom       -0.000000      0.000000      0.000000
     2   Atom        0.000000     -0.000000     -0.000000
     3   Atom        0.000000     -0.000000     -0.000000
     4   Atom       -0.000000      0.000000      0.000000
 --------------------------------------------------------
                        XY            XZ            YZ
 --------------------------------------------------------
     1   Atom       -0.000000      0.000000      0.000000
     2   Atom       -0.000000      0.000000     -0.000000
     3   Atom        0.000000     -0.000000      0.000000
     4   Atom       -0.000000      0.000000     -0.000000
 --------------------------------------------------------


 ---------------------------------------------------------------------------------
              Anisotropic Spin Dipole Couplings in Principal Axis System
 ---------------------------------------------------------------------------------

       Atom             a.u.   MegaHertz   Gauss  10(-4) cm-1        Axes

              Baa    -0.0000    -0.000    -0.000    -0.000 -0.0000 -0.6188  0.7855
     1 C(13)  Bbb    -0.0000    -0.000    -0.000    -0.000  1.0000 -0.0000  0.0000
              Bcc     0.0000     0.000     0.000     0.000 -0.0000  0.7855  0.6188
 
              Baa    -0.0000    -0.000    -0.000    -0.000 -0.0000  0.7077  0.7065
     2 C(13)  Bbb     0.0000     0.000     0.000     0.000 -0.0000 -0.7065  0.7077
              Bcc     0.0000     0.000     0.000     0.000  1.0000 -0.0000  0.0000
 
              Baa    -0.0000    -0.000    -0.000    -0.000  0.0000 -0.6182  0.7860
     3 H(1)   Bbb    -0.0000    -0.000    -0.000    -0.000  0.0000  0.7860  0.6182
              Bcc     0.0000     0.000     0.000     0.000  1.0000  0.0000 -0.0000
 
              Baa    -0.0000    -0.000    -0.000    -0.000  1.0000  0.0000 -0.0000
     4 H(1)   Bbb    -0.0000    -0.000    -0.000    -0.000  0.0000  0.7077  0.7066
              Bcc     0.0000     0.000     0.000     0.000  0.0000 -0.7066  0.7077
 

 ---------------------------------------------------------------------------------

 No NMR shielding tensors so no spin-rotation constants.
 Leave Link  601 at Tue Dec  3 20:21:40 2024, MaxMem=  1073741824 cpu:               1.5 elap:               0.2
 (Enter /home/szhao/Apps/g16/l701.exe)
 ... and contract with generalized density number  0.
 Compute integral first derivatives.
 Leave Link  701 at Tue Dec  3 20:21:40 2024, MaxMem=  1073741824 cpu:               0.7 elap:               0.1
 (Enter /home/szhao/Apps/g16/l702.exe)
 L702 exits ... SP integral derivatives will be done elsewhere.
 Leave Link  702 at Tue Dec  3 20:21:40 2024, MaxMem=  1073741824 cpu:               0.3 elap:               0.0
 (Enter /home/szhao/Apps/g16/l703.exe)
 Integral derivatives from FoFJK, PRISM(SPDF).
 Compute integral first derivatives, UseDBF=F ICtDFT=           0.
 Calling FoFJK, ICntrl=      2127 FMM=F ISym2X=0 I1Cent= 0 IOpClX= 1 NMat=1 NMatS=1 NMatT=0.
 FoFJK:  IHMeth= 1 ICntrl=    2127 DoSepK=F KAlg= 0 I1Cent=           0 FoldK=F
 IRaf=         0 NMat=       1 IRICut=       1 DoRegI=T DoRafI=F ISym2E= 0 IDoP0=0 IntGTp=1.
 FoFCou: FMM=F IPFlag=           0 FMFlag=      100000 FMFlg1=         800
         NFxFlg=           0 DoJE=F BraDBF=F KetDBF=F FulRan=T
         wScrn=  0.000000 ICntrl=      2127 IOpCl=  1 I1Cent=           0 NGrid=           0
         NMat0=    1 NMatS0=      1 NMatT0=    0 NMatD0=    1 NMtDS0=    0 NMtDT0=    0
 Symmetry not used in FoFCou.
 Leave Link  703 at Tue Dec  3 20:21:41 2024, MaxMem=  1073741824 cpu:               4.3 elap:               0.5
 (Enter /home/szhao/Apps/g16/l716.exe)
 Dipole        = 5.02773809D-06-1.15638848D-06 1.15638840D-06
 -------------------------------------------------------------------
 Center     Atomic                   Forces (Hartrees/Bohr)
 Number     Number              X              Y              Z
 -------------------------------------------------------------------
      1        6          -0.000000000   -0.000000000   -0.000000000
      2        6          -0.000000000   -0.000000000   -0.000000000
      3        1           0.001557862    0.000000008   -0.000000008
      4        1          -0.001557317   -0.000000005    0.000000005
 -------------------------------------------------------------------
 Cartesian Forces:  Max     0.001557862 RMS     0.000635883
 Leave Link  716 at Tue Dec  3 20:21:41 2024, MaxMem=  1073741824 cpu:               0.3 elap:               0.0
 (Enter /home/szhao/Apps/g16/l103.exe)

 GradGradGradGradGradGradGradGradGradGradGradGradGradGradGradGradGradGrad
 Berny optimization.
 FormGI is forming the generalized inverse of G from B-inverse, IUseBI=4.
 Internal  Forces:  Max     0.001557862 RMS     0.000899275
 Search for a local minimum.
 Step number   1 out of a maximum of   22
 All quantities printed in internal units (Hartrees-Bohrs-Radians)
 RMS Force = .89927D-03 SwitMx=.10000D-02 MixMth= 2
 Mixed Optimization -- En-DIIS/RFO-DIIS
 Second derivative matrix not updated -- first step.
 The second derivative matrix:
                          X1        Y1        Z1        X2        Y2
           X1           0.50000
           Y1           0.00000   0.50000
           Z1           0.00000   0.00000   0.50000
           X2           0.00000   0.00000   0.00000   0.50000
           Y2           0.00000   0.00000   0.00000   0.00000   0.50000
           Z2           0.00000   0.00000   0.00000   0.00000   0.00000
           R1           0.00000   0.00000   0.00000   0.00000   0.00000
           R2           0.00000   0.00000   0.00000   0.00000   0.00000
           A1           0.00000   0.00000   0.00000   0.00000   0.00000
           A2           0.00000   0.00000   0.00000   0.00000   0.00000
           A3           0.00000   0.00000   0.00000   0.00000   0.00000
           A4           0.00000   0.00000   0.00000   0.00000   0.00000
                          Z2        R1        R2        A1        A2
           Z2           0.50000
           R1           0.00000   0.31275
           R2           0.00000   0.00000   0.31275
           A1           0.00000   0.00000   0.00000   0.00230
           A2           0.00000   0.00000   0.00000   0.00000   0.00230
           A3           0.00000   0.00000   0.00000   0.00000   0.00000
           A4           0.00000   0.00000   0.00000   0.00000   0.00000
                          A3        A4
           A3           0.00230
           A4           0.00000   0.00230
 ITU=  0
     Eigenvalues ---    0.00230   0.00230   0.00230   0.31275   0.31275
     Eigenvalues --- 1000.000001000.000001000.000001000.000001000.00000
     Eigenvalues --- 1000.000001000.00000
 RFO step:  Lambda=-1.55143520D-05 EMin= 2.30000000D-03
 Linear search not attempted -- first point.
 Iteration  1 RMS(Cart)=  0.00203308 RMS(Int)=  0.00000000
 Iteration  2 RMS(Cart)=  0.00000000 RMS(Int)=  0.00000000
 ITry= 1 IFail=0 DXMaxC= 4.98D-03 DCOld= 1.00D+10 DXMaxT= 3.00D-01 DXLimC= 3.00D+00 Rises=F
 Variable       Old X    -DE/DX   Delta X   Delta X   Delta X     New X
                                 (Linear)    (Quad)   (Total)
    X1      -12.15590   0.00156   0.00000   0.00000   0.00000 -12.15590
    Y1        0.00000   0.00000   0.00000   0.00000   0.00000   0.00000
    Z1        0.00000  -0.00000   0.00000   0.00000   0.00000   0.00000
    X2       12.15590  -0.00156   0.00000   0.00000   0.00000  12.15590
    Y2        0.00000  -0.00000   0.00000   0.00000   0.00000   0.00000
    Z2        0.00000   0.00000   0.00000   0.00000   0.00000   0.00000
    R1        2.12190  -0.00156   0.00000  -0.00498  -0.00498   2.11692
    R2        2.12190  -0.00156   0.00000  -0.00498  -0.00498   2.11692
    A1        3.14159  -0.00000   0.00000  -0.00000  -0.00000   3.14159
    A2        3.14159  -0.00000   0.00000  -0.00000  -0.00000   3.14159
    A3        3.14159  -0.00000   0.00000  -0.00000  -0.00000   3.14159
    A4        3.14159  -0.00000   0.00000  -0.00000  -0.00000   3.14159
         Item               Value     Threshold  Converged?
 Maximum Force            0.001558     0.000450     NO 
 RMS     Force            0.000899     0.000300     NO 
 Maximum Displacement     0.004981     0.001800     NO 
 RMS     Displacement     0.002033     0.001200     NO 
 Predicted change in Energy=-7.757176D-06
 Lowest energy point so far.  Saving SCF results.
 GradGradGradGradGradGradGradGradGradGradGradGradGradGradGradGradGradGrad

 Leave Link  103 at Tue Dec  3 20:21:41 2024, MaxMem=  1073741824 cpu:               0.0 elap:               0.0
 (Enter /home/szhao/Apps/g16/l202.exe)
                          Input orientation:                          
 ---------------------------------------------------------------------
 Center     Atomic      Atomic             Coordinates (Angstroms)
 Number     Number       Type             X           Y           Z
 ---------------------------------------------------------------------
      1          6           0       -6.432625    0.000000    0.000000
      2          6           0        6.432625    0.000000    0.000000
      3          1           0       -7.552851   -0.000007    0.000007
      4          1           0        7.552851    0.000005   -0.000005
 ---------------------------------------------------------------------
                    Distance matrix (angstroms):
                    1          2          3          4
     1  C    0.000000
     2  C   12.865250   0.000000
     3  H    1.120226  13.985476   0.000000
     4  H   13.985476   1.120226  15.105702   0.000000
 Symmetry turned off by external request.
 Stoichiometry    C2H2
 Framework group  C*V[C*(HCCH)]
 Deg. of freedom     3
 Full point group                 C*V     NOp   4
 Rotational constants (GHZ):           0.0000000           0.4560887           0.4560887
 Leave Link  202 at Tue Dec  3 20:21:41 2024, MaxMem=  1073741824 cpu:               0.0 elap:               0.0
 (Enter /home/szhao/Apps/g16/l301.exe)
 Standard basis: 6-311+G(d,p) (5D, 7F)
 Ernie: Thresh=  0.10000D-02 Tol=  0.10000D-05 Strict=F.
    56 basis functions,    88 primitive gaussians,    58 cartesian basis functions
     7 alpha electrons        7 beta electrons
       nuclear repulsion energy         7.6384565915 Hartrees.
 IExCor= 4336 DFT=T Ex+Corr=M062X ExCW=0 ScaHFX=  0.540000
 ScaDFX=  1.000000  1.000000  1.000000  1.000000 ScalE2=  1.000000  1.000000
 IRadAn=      7 IRanWt=     -1 IRanGd=            0 ICorTp=0 IEmpDi=  4
 NAtoms=    4 NActive=    4 NUniq=    4 SFac= 1.00D+00 NAtFMM=   60 NAOKFM=F Big=F
 Integral buffers will be    131072 words long.
 Raffenetti 2 integral format.
 Two-electron integral symmetry is turned off.
 Leave Link  301 at Tue Dec  3 20:21:41 2024, MaxMem=  1073741824 cpu:               0.3 elap:               0.0
 (Enter /home/szhao/Apps/g16/l302.exe)
 NPDir=0 NMtPBC=     1 NCelOv=     1 NCel=       1 NClECP=     1 NCelD=      1
         NCelK=      1 NCelE2=     1 NClLst=     1 CellRange=     0.0.
 One-electron integrals computed using PRISM.
 NBasis=    56 RedAO= T EigKep=  2.12D-02  NBF=    56
 NBsUse=    56 1.00D-06 EigRej= -1.00D+00 NBFU=    56
 Precomputing XC quadrature grid using
 IXCGrd= 4 IRadAn=           7 IRanWt=          -1 IRanGd=           0 AccXCQ= 0.00D+00.
 Generated NRdTot=       0 NPtTot=           0 NUsed=           0 NTot=          32
 NSgBfM=    33    33    33    33    33 MxSgAt=     4 MxSgA2=     4.
 Leave Link  302 at Tue Dec  3 20:21:41 2024, MaxMem=  1073741824 cpu:               1.0 elap:               0.1
 (Enter /home/szhao/Apps/g16/l303.exe)
 DipDrv:  MaxL=1.
 Leave Link  303 at Tue Dec  3 20:21:41 2024, MaxMem=  1073741824 cpu:               0.3 elap:               0.0
 (Enter /home/szhao/Apps/g16/l401.exe)
 Initial guess from the checkpoint file:  "opt.chk"
 B after Tr=     0.000000   -0.000000    0.000000
         Rot=    1.000000   -0.000071   -0.000000   -0.000000 Ang=  -0.01 deg.
 Guess basis will be translated and rotated to current coordinates.
 JPrj=2 DoOrth=T DoCkMO=T.
 Initial guess <Sx>= 0.0000 <Sy>= 0.0000 <Sz>= 0.0000 <S**2>=-0.0000 S=-0.0000
 Leave Link  401 at Tue Dec  3 20:21:41 2024, MaxMem=  1073741824 cpu:               0.6 elap:               0.1
 (Enter /home/szhao/Apps/g16/l502.exe)
 Keep R1 and R2 ints in memory in canonical form, NReq=9624198.
 FoFCou: FMM=F IPFlag=           0 FMFlag=           0 FMFlg1=           0
         NFxFlg=           0 DoJE=F BraDBF=F KetDBF=F FulRan=T
         wScrn=  0.000000 ICntrl=       600 IOpCl=  0 I1Cent=           0 NGrid=           0
         NMat0=    1 NMatS0=   1596 NMatT0=    0 NMatD0=    1 NMtDS0=    0 NMtDT0=    0
 Symmetry not used in FoFCou.
 Two-electron integral symmetry not used.
 UHF open shell SCF:
 Using DIIS extrapolation, IDIIS=  1040.
 NGot=  1073741824 LenX=  1071185250 LenY=  1071181445
 Requested convergence on RMS density matrix=1.00D-08 within 128 cycles.
 Requested convergence on MAX density matrix=1.00D-06.
 Requested convergence on             energy=1.00D-06.
 No special actions if energy rises.

 Cycle   1  Pass 1  IDiag  1:
 E= -76.8147993669186    
 DIIS: error= 2.23D-04 at cycle   1 NSaved=   1.
 NSaved= 1 IEnMin= 1 EnMin= -76.8147993669186     IErMin= 1 ErrMin= 2.23D-04
 ErrMax= 2.23D-04  0.00D+00 EMaxC= 1.00D-01 BMatC= 8.50D-06 BMatP= 8.50D-06
 IDIUse=3 WtCom= 9.98D-01 WtEn= 2.23D-03
 Coeff-Com:  0.100D+01
 Coeff-En:   0.100D+01
 Coeff:      0.100D+01
 Gap=     0.432 Goal=   None    Shift=    0.000
 Gap=     0.432 Goal=   None    Shift=    0.000
 RMSDP=2.04D-05 MaxDP=2.27D-04              OVMax= 4.85D-04

 Cycle   2  Pass 1  IDiag  1:
 E= -76.8148015097271     Delta-E=       -0.000002142809 Rises=F Damp=F
 DIIS: error= 5.06D-05 at cycle   2 NSaved=   2.
 NSaved= 2 IEnMin= 2 EnMin= -76.8148015097271     IErMin= 2 ErrMin= 5.06D-05
 ErrMax= 5.06D-05  0.00D+00 EMaxC= 1.00D-01 BMatC= 2.31D-07 BMatP= 8.50D-06
 IDIUse=1 WtCom= 1.00D+00 WtEn= 0.00D+00
 Coeff-Com:  0.162D-01 0.984D+00
 Coeff:      0.162D-01 0.984D+00
 Gap=     0.022 Goal=   None    Shift=    0.000
 Gap=     0.022 Goal=   None    Shift=    0.000
 RMSDP=8.16D-06 MaxDP=1.77D-04 DE=-2.14D-06 OVMax= 2.15D-04

 Cycle   3  Pass 1  IDiag  1:
 E= -76.8148015937717     Delta-E=       -0.000000084045 Rises=F Damp=F
 DIIS: error= 1.95D-05 at cycle   3 NSaved=   3.
 NSaved= 3 IEnMin= 3 EnMin= -76.8148015937717     IErMin= 3 ErrMin= 1.95D-05
 ErrMax= 1.95D-05  0.00D+00 EMaxC= 1.00D-01 BMatC= 5.50D-08 BMatP= 2.31D-07
 IDIUse=1 WtCom= 1.00D+00 WtEn= 0.00D+00
 Coeff-Com: -0.198D-01 0.272D+00 0.747D+00
 Coeff:     -0.198D-01 0.272D+00 0.747D+00
 Gap=     0.022 Goal=   None    Shift=    0.000
 Gap=     0.022 Goal=   None    Shift=    0.000
 RMSDP=1.49D-05 MaxDP=1.32D-04 DE=-8.40D-08 OVMax= 1.28D-03

 Cycle   4  Pass 1  IDiag  1:
 E= -76.8147995520362     Delta-E=        0.000002041736 Rises=F Damp=F
 DIIS: error= 3.72D-04 at cycle   4 NSaved=   4.
 NSaved= 4 IEnMin= 3 EnMin= -76.8148015937717     IErMin= 3 ErrMin= 1.95D-05
 ErrMax= 3.72D-04  0.00D+00 EMaxC= 1.00D-01 BMatC= 4.36D-06 BMatP= 5.50D-08
 IDIUse=3 WtCom= 3.41D-01 WtEn= 6.59D-01
 Coeff-Com: -0.201D-01 0.241D+00 0.742D+00 0.373D-01
 Coeff-En:   0.000D+00 0.000D+00 0.967D+00 0.329D-01
 Coeff:     -0.688D-02 0.822D-01 0.890D+00 0.344D-01
 Gap=     0.022 Goal=   None    Shift=    0.000
 Gap=     0.022 Goal=   None    Shift=    0.000
 RMSDP=1.16D-05 MaxDP=1.02D-04 DE= 2.04D-06 OVMax= 1.01D-03

 Cycle   5  Pass 1  IDiag  1:
 E= -76.8148015461049     Delta-E=       -0.000001994069 Rises=F Damp=F
 DIIS: error= 6.61D-05 at cycle   5 NSaved=   5.
 NSaved= 5 IEnMin= 3 EnMin= -76.8148015937717     IErMin= 3 ErrMin= 1.95D-05
 ErrMax= 6.61D-05  0.00D+00 EMaxC= 1.00D-01 BMatC= 1.47D-07 BMatP= 5.50D-08
 IDIUse=1 WtCom= 1.00D+00 WtEn= 0.00D+00
 Coeff-Com: -0.526D-02-0.476D-01 0.315D+00-0.142D+00 0.880D+00
 Coeff:     -0.526D-02-0.476D-01 0.315D+00-0.142D+00 0.880D+00
 Gap=     0.022 Goal=   None    Shift=    0.000
 Gap=     0.022 Goal=   None    Shift=    0.000
 RMSDP=2.75D-06 MaxDP=2.56D-05 DE=-1.99D-06 OVMax= 2.19D-04

 Cycle   6  Pass 1  IDiag  1:
 E= -76.8148016141537     Delta-E=       -0.000000068049 Rises=F Damp=F
 DIIS: error= 4.79D-07 at cycle   6 NSaved=   6.
 NSaved= 6 IEnMin= 6 EnMin= -76.8148016141537     IErMin= 6 ErrMin= 4.79D-07
 ErrMax= 4.79D-07  0.00D+00 EMaxC= 1.00D-01 BMatC= 4.66D-11 BMatP= 5.50D-08
 IDIUse=1 WtCom= 1.00D+00 WtEn= 0.00D+00
 Coeff-Com:  0.942D-03-0.138D-01-0.246D-01-0.764D-02 0.353D-01 0.101D+01
 Coeff:      0.942D-03-0.138D-01-0.246D-01-0.764D-02 0.353D-01 0.101D+01
 Gap=     0.022 Goal=   None    Shift=    0.000
 Gap=     0.022 Goal=   None    Shift=    0.000
 RMSDP=1.25D-07 MaxDP=1.25D-06 DE=-6.80D-08 OVMax= 3.77D-06

 Cycle   7  Pass 1  IDiag  1:
 E= -76.8148016141845     Delta-E=       -0.000000000031 Rises=F Damp=F
 DIIS: error= 9.76D-08 at cycle   7 NSaved=   7.
 NSaved= 7 IEnMin= 7 EnMin= -76.8148016141845     IErMin= 7 ErrMin= 9.76D-08
 ErrMax= 9.76D-08  0.00D+00 EMaxC= 1.00D-01 BMatC= 6.35D-13 BMatP= 4.66D-11
 IDIUse=1 WtCom= 1.00D+00 WtEn= 0.00D+00
 Coeff-Com:  0.267D-04 0.144D-02-0.293D-02 0.304D-02-0.177D-01-0.491D-01
 Coeff-Com:  0.107D+01
 Coeff:      0.267D-04 0.144D-02-0.293D-02 0.304D-02-0.177D-01-0.491D-01
 Coeff:      0.107D+01
 Gap=     0.022 Goal=   None    Shift=    0.000
 Gap=     0.022 Goal=   None    Shift=    0.000
 RMSDP=1.13D-07 MaxDP=9.92D-07 DE=-3.07D-11 OVMax= 9.78D-06

 Cycle   8  Pass 1  IDiag  1:
 E= -76.8148016142368     Delta-E=       -0.000000000052 Rises=F Damp=F
 DIIS: error= 1.10D-06 at cycle   8 NSaved=   8.
 NSaved= 8 IEnMin= 8 EnMin= -76.8148016142368     IErMin= 7 ErrMin= 9.76D-08
 ErrMax= 1.10D-06  0.00D+00 EMaxC= 1.00D-01 BMatC= 2.75D-11 BMatP= 6.35D-13
 IDIUse=1 WtCom= 1.00D+00 WtEn= 0.00D+00
 Coeff-Com:  0.535D-05 0.197D-02-0.261D-02 0.358D-02-0.206D-01-0.814D-01
 Coeff-Com:  0.119D+01-0.928D-01
 Coeff:      0.535D-05 0.197D-02-0.261D-02 0.358D-02-0.206D-01-0.814D-01
 Coeff:      0.119D+01-0.928D-01
 Gap=     0.022 Goal=   None    Shift=    0.000
 Gap=     0.022 Goal=   None    Shift=    0.000
 RMSDP=1.16D-07 MaxDP=1.02D-06 DE=-5.23D-11 OVMax= 1.01D-05

 Cycle   9  Pass 1  IDiag  1:
 E= -76.8148016141845     Delta-E=        0.000000000052 Rises=F Damp=F
 DIIS: error= 5.76D-08 at cycle   9 NSaved=   9.
 NSaved= 9 IEnMin= 8 EnMin= -76.8148016142368     IErMin= 9 ErrMin= 5.76D-08
 ErrMax= 5.76D-08  0.00D+00 EMaxC= 1.00D-01 BMatC= 7.48D-14 BMatP= 6.35D-13
 IDIUse=1 WtCom= 1.00D+00 WtEn= 0.00D+00
 Coeff-Com: -0.824D-05 0.629D-04 0.109D-04 0.226D-04-0.140D-03-0.228D-02
 Coeff-Com: -0.524D-01-0.527D-01 0.111D+01
 Coeff:     -0.824D-05 0.629D-04 0.109D-04 0.226D-04-0.140D-03-0.228D-02
 Coeff:     -0.524D-01-0.527D-01 0.111D+01
 Gap=     0.022 Goal=   None    Shift=    0.000
 Gap=     0.022 Goal=   None    Shift=    0.000
 RMSDP=6.39D-09 MaxDP=5.66D-08 DE= 5.23D-11 OVMax= 5.51D-07

 SCF Done:  E(UM062X) =  -76.8148016142     A.U. after    9 cycles
            NFock=  9  Conv=0.64D-08     -V/T= 2.0031
 <Sx>= 0.0000 <Sy>= 0.0000 <Sz>= 0.0000 <S**2>=-0.0000 S=-0.0000
 <L.S>=  0.00000000000    
 KE= 7.657661892070D+01 PE=-1.935850385810D+02 EE= 3.255516145460D+01
 Annihilation of the first spin contaminant:
 S**2 before annihilation    -0.0000,   after    -0.0000
 Leave Link  502 at Tue Dec  3 20:21:44 2024, MaxMem=  1073741824 cpu:              21.2 elap:               2.7
 (Enter /home/szhao/Apps/g16/l701.exe)
 ... and contract with generalized density number  0.
 Compute integral first derivatives.
 Leave Link  701 at Tue Dec  3 20:21:44 2024, MaxMem=  1073741824 cpu:               0.7 elap:               0.1
 (Enter /home/szhao/Apps/g16/l702.exe)
 L702 exits ... SP integral derivatives will be done elsewhere.
 Leave Link  702 at Tue Dec  3 20:21:44 2024, MaxMem=  1073741824 cpu:               0.2 elap:               0.0
 (Enter /home/szhao/Apps/g16/l703.exe)
 Integral derivatives from FoFJK, PRISM(SPDF).
 Compute integral first derivatives, UseDBF=F ICtDFT=           0.
 Calling FoFJK, ICntrl=      2127 FMM=F ISym2X=0 I1Cent= 0 IOpClX= 1 NMat=1 NMatS=1 NMatT=0.
 FoFJK:  IHMeth= 1 ICntrl=    2127 DoSepK=F KAlg= 0 I1Cent=           0 FoldK=F
 IRaf=         0 NMat=       1 IRICut=       1 DoRegI=T DoRafI=F ISym2E= 0 IDoP0=0 IntGTp=1.
 FoFCou: FMM=F IPFlag=           0 FMFlag=      100000 FMFlg1=         800
         NFxFlg=           0 DoJE=F BraDBF=F KetDBF=F FulRan=T
         wScrn=  0.000000 ICntrl=      2127 IOpCl=  1 I1Cent=           0 NGrid=           0
         NMat0=    1 NMatS0=      1 NMatT0=    0 NMatD0=    1 NMtDS0=    0 NMtDT0=    0
 Symmetry not used in FoFCou.
 Leave Link  703 at Tue Dec  3 20:21:45 2024, MaxMem=  1073741824 cpu:               4.6 elap:               0.6
 (Enter /home/szhao/Apps/g16/l716.exe)
 Dipole        = 1.23874313D-07-1.27046518D-06 1.27049511D-06
 -------------------------------------------------------------------
 Center     Atomic                   Forces (Hartrees/Bohr)
 Number     Number              X              Y              Z
 -------------------------------------------------------------------
      1        6          -0.000000000   -0.000000000   -0.000000000
      2        6          -0.000000000   -0.000000000   -0.000000000
      3        1           0.000076618    0.000000001   -0.000000001
      4        1          -0.000076578   -0.000000001    0.000000001
 -------------------------------------------------------------------
 Cartesian Forces:  Max     0.000076618 RMS     0.000031271
 Leave Link  716 at Tue Dec  3 20:21:45 2024, MaxMem=  1073741824 cpu:               0.3 elap:               0.0
 (Enter /home/szhao/Apps/g16/l103.exe)

 GradGradGradGradGradGradGradGradGradGradGradGradGradGradGradGradGradGrad
 Berny optimization.
 Using GEDIIS/GDIIS optimizer.
 FormGI is forming the generalized inverse of G from B-inverse, IUseBI=4.
 Internal  Forces:  Max     0.000076618 RMS     0.000044224
 Search for a local minimum.
 Step number   2 out of a maximum of   22
 All quantities printed in internal units (Hartrees-Bohrs-Radians)
 RMS Force = .44224D-04 SwitMx=.10000D-02 MixMth= 2
 Mixed Optimization -- En-DIIS/RFO-DIIS
 Swapping is turned off.
 Update second derivatives using D2CorX and points    1    2
 DE= -8.16D-06 DEPred=-7.76D-06 R= 1.05D+00
 TightC=F SS=  1.41D+00  RLast= 7.04D-03 DXNew= 5.0454D-01 2.1128D-02
 Trust test= 1.05D+00 RLast= 7.04D-03 DXMaxT set to 3.00D-01
 The second derivative matrix:
                          X1        Y1        Z1        X2        Y2
           X1           0.64874
           Y1           0.00000   0.50000
           Z1          -0.00000  -0.00000   0.50000
           X2          -0.14869  -0.00000   0.00000   0.64864
           Y2          -0.00000  -0.00000   0.00000   0.00000   0.50000
           Z2           0.00000   0.00000  -0.00000  -0.00000  -0.00000
           R1          -0.14874  -0.00000   0.00000   0.14869   0.00000
           R2          -0.14869  -0.00000   0.00000   0.14864   0.00000
           A1          -0.00000  -0.00000   0.00000   0.00000   0.00000
           A2          -0.00000  -0.00000   0.00000   0.00000   0.00000
           A3          -0.00000  -0.00000   0.00000   0.00000   0.00000
           A4          -0.00000  -0.00000   0.00000   0.00000   0.00000
                          Z2        R1        R2        A1        A2
           Z2           0.50000
           R1          -0.00000   0.30507
           R2          -0.00000  -0.00768   0.30508
           A1          -0.00000   0.00000   0.00000   0.00230
           A2          -0.00000   0.00000   0.00000   0.00000   0.00230
           A3          -0.00000   0.00000   0.00000   0.00000   0.00000
           A4          -0.00000   0.00000   0.00000   0.00000   0.00000
                          A3        A4
           A3           0.00230
           A4           0.00000   0.00230
 ITU=  1  0
     Eigenvalues ---    0.00230   0.00230   0.00230   0.29739   0.31275
     Eigenvalues --- 1000.000001000.000001000.000001000.000001000.00000
     Eigenvalues --- 1000.000001000.00000
 En-DIIS/RFO-DIIS/Sim-DIIS IScMMF=       -3 using points:     2    1
 RFO step:  Lambda=-3.40161732D-08.
 NNeg= 0 NGDIIS= 2 SimSw=  2.50D-03 Rises=F DC= -8.16D-06 SmlDif=  1.00D-05
 NRisDI= 0 DoIntr=F SqrtH=F CThrHd= 10.0 CDAdj=  3.0
 RMS Error=  0.1051524065D-03 NUsed= 2 OKEnD=F EnDIS=F
 InvSVX:  RCond= 1.24D-05 Info=           0 Equed=N FErr=  9.92D-16 BErr=  6.28D-17
 DidBck=F Rises=F RFO-DIIS coefs:    1.05172   -0.05172
 Iteration  1 RMS(Cart)=  0.00010515 RMS(Int)=  0.00000000
 Iteration  2 RMS(Cart)=  0.00000000 RMS(Int)=  0.00000000
 ITry= 1 IFail=0 DXMaxC= 2.58D-04 DCOld= 1.00D+10 DXMaxT= 3.00D-01 DXLimC= 3.00D+00 Rises=F
 Variable       Old X    -DE/DX   Delta X   Delta X   Delta X     New X
                                 (Linear)    (Quad)   (Total)
    X1      -12.15590   0.00008   0.00000   0.00000   0.00000 -12.15590
    Y1        0.00000   0.00000   0.00000   0.00000   0.00000   0.00000
    Z1        0.00000  -0.00000   0.00000   0.00000   0.00000   0.00000
    X2       12.15590  -0.00008   0.00000   0.00000   0.00000  12.15590
    Y2        0.00000  -0.00000   0.00000   0.00000   0.00000   0.00000
    Z2        0.00000   0.00000   0.00000   0.00000   0.00000   0.00000
    R1        2.11692  -0.00008  -0.00026  -0.00000  -0.00026   2.11666
    R2        2.11692  -0.00008  -0.00026   0.00000  -0.00026   2.11666
    A1        3.14159   0.00000  -0.00000   0.00000   0.00000   3.14159
    A2        3.14159   0.00000  -0.00000   0.00000   0.00000   3.14159
    A3        3.14159   0.00000  -0.00000   0.00000   0.00000   3.14159
    A4        3.14159   0.00000  -0.00000   0.00000   0.00000   3.14159
         Item               Value     Threshold  Converged?
 Maximum Force            0.000077     0.000450     YES
 RMS     Force            0.000044     0.000300     YES
 Maximum Displacement     0.000258     0.001800     YES
 RMS     Displacement     0.000105     0.001200     YES
 Predicted change in Energy=-1.972932D-08
 Optimization completed.
    -- Stationary point found.
                           ----------------------------
                           !   Optimized Parameters   !
                           ! (Angstroms and Degrees)  !
 --------------------------                            --------------------------
 ! Name  Definition              Value          Derivative Info.                !
 --------------------------------------------------------------------------------
 ! X1    R(1,-1)                -6.4326         -DE/DX =    0.0001              !
 ! Y1    R(1,-2)                 0.0            -DE/DX =    0.0                 !
 ! Z1    R(1,-3)                 0.0            -DE/DX =    0.0                 !
 ! X2    R(2,-1)                 6.4326         -DE/DX =   -0.0001              !
 ! Y2    R(2,-2)                 0.0            -DE/DX =    0.0                 !
 ! Z2    R(2,-3)                 0.0            -DE/DX =    0.0                 !
 ! R1    R(1,3)                  1.1202         -DE/DX =   -0.0001              !
 ! R2    R(2,4)                  1.1202         -DE/DX =   -0.0001              !
 ! A1    L(2,1,3,-2,-1)        179.9997         -DE/DX =    0.0                 !
 ! A2    L(1,2,4,-2,-1)        179.9998         -DE/DX =    0.0                 !
 ! A3    L(2,1,3,-3,-2)        179.9997         -DE/DX =    0.0                 !
 ! A4    L(1,2,4,-3,-2)        179.9998         -DE/DX =    0.0                 !
 --------------------------------------------------------------------------------
 Lowest energy point so far.  Saving SCF results.
 Largest change from initial coordinates is atom    3       0.003 Angstoms.
 GradGradGradGradGradGradGradGradGradGradGradGradGradGradGradGradGradGrad

 Leave Link  103 at Tue Dec  3 20:21:45 2024, MaxMem=  1073741824 cpu:               0.0 elap:               0.0
 (Enter /home/szhao/Apps/g16/l202.exe)
                          Input orientation:                          
 ---------------------------------------------------------------------
 Center     Atomic      Atomic             Coordinates (Angstroms)
 Number     Number       Type             X           Y           Z
 ---------------------------------------------------------------------
      1          6           0       -6.432625    0.000000    0.000000
      2          6           0        6.432625    0.000000    0.000000
      3          1           0       -7.552851   -0.000007    0.000007
      4          1           0        7.552851    0.000005   -0.000005
 ---------------------------------------------------------------------
                    Distance matrix (angstroms):
                    1          2          3          4
     1  C    0.000000
     2  C   12.865250   0.000000
     3  H    1.120226  13.985476   0.000000
     4  H   13.985476   1.120226  15.105702   0.000000
 Symmetry turned off by external request.
 Stoichiometry    C2H2
 Framework group  C*V[C*(HCCH)]
 Deg. of freedom     3
 Full point group                 C*V     NOp   4
 Rotational constants (GHZ):           0.0000000           0.4560887           0.4560887
 Leave Link  202 at Tue Dec  3 20:21:45 2024, MaxMem=  1073741824 cpu:               0.0 elap:               0.0
 (Enter /home/szhao/Apps/g16/l601.exe)
 Copying SCF densities to generalized density rwf, IOpCl= 1 IROHF=0.

 **********************************************************************

            Population analysis using the SCF density.

 **********************************************************************

 Alpha  occ. eigenvalues --  -10.66738 -10.66738  -0.72521  -0.72518  -0.38703
 Alpha  occ. eigenvalues --   -0.38702  -0.19267
 Alpha virt. eigenvalues --   -0.17063  -0.09724  -0.09724   0.03297   0.03300
 Alpha virt. eigenvalues --    0.08101   0.08101   0.08213   0.08224   0.08926
 Alpha virt. eigenvalues --    0.08927   0.17342   0.17343   0.45400   0.45405
 Alpha virt. eigenvalues --    0.57184   0.57184   0.57732   0.57732   0.61233
 Alpha virt. eigenvalues --    0.61233   0.68442   0.68446   1.12584   1.12584
 Alpha virt. eigenvalues --    1.13611   1.13614   1.33333   1.33334   1.34572
 Alpha virt. eigenvalues --    1.34574   1.58020   1.58021   1.84809   1.84810
 Alpha virt. eigenvalues --    1.85901   1.85902   2.38382   2.38383   2.48760
 Alpha virt. eigenvalues --    2.48761   2.70397   2.70397   2.70799   2.70799
 Alpha virt. eigenvalues --    3.16979   3.16980  23.50943  23.50944
  Beta  occ. eigenvalues --  -10.66738 -10.66738  -0.72521  -0.72518  -0.38703
  Beta  occ. eigenvalues --   -0.38702  -0.19267
  Beta virt. eigenvalues --   -0.17063  -0.09724  -0.09724   0.03297   0.03300
  Beta virt. eigenvalues --    0.08101   0.08101   0.08213   0.08224   0.08926
  Beta virt. eigenvalues --    0.08927   0.17342   0.17343   0.45400   0.45405
  Beta virt. eigenvalues --    0.57184   0.57184   0.57732   0.57732   0.61233
  Beta virt. eigenvalues --    0.61233   0.68442   0.68446   1.12584   1.12584
  Beta virt. eigenvalues --    1.13611   1.13614   1.33333   1.33334   1.34572
  Beta virt. eigenvalues --    1.34574   1.58020   1.58021   1.84809   1.84810
  Beta virt. eigenvalues --    1.85901   1.85902   2.38382   2.38383   2.48760
  Beta virt. eigenvalues --    2.48761   2.70397   2.70397   2.70799   2.70799
  Beta virt. eigenvalues --    3.16979   3.16980  23.50943  23.50944
          Condensed to atoms (all electrons):
               1          2          3          4
     1  C    5.934064   0.000000   0.195300  -0.000000
     2  C    0.000000   5.934064  -0.000000   0.195300
     3  H    0.195300  -0.000000   0.675336   0.000000
     4  H   -0.000000   0.195300   0.000000   0.675336
          Atomic-Atomic Spin Densities.
               1          2          3          4
     1  C    0.000000   0.000000   0.000000  -0.000000
     2  C    0.000000  -0.000000  -0.000000  -0.000000
     3  H    0.000000  -0.000000  -0.000000  -0.000000
     4  H   -0.000000  -0.000000  -0.000000   0.000000
 Mulliken charges and spin densities:
               1          2
     1  C   -0.129364   0.000000
     2  C   -0.129364  -0.000000
     3  H    0.129364   0.000000
     4  H    0.129364  -0.000000
 Sum of Mulliken charges =  -0.00000  -0.00000
 Mulliken charges and spin densities with hydrogens summed into heavy atoms:
               1          2
     1  C   -0.000000   0.000000
     2  C    0.000000  -0.000000
 Electronic spatial extent (au):  <R**2>=           2181.6436
 Charge=             -0.0000 electrons
 Dipole moment (field-independent basis, Debye):
    X=              0.0000    Y=             -0.0000    Z=              0.0000  Tot=              0.0000
 Quadrupole moment (field-independent basis, Debye-Ang):
   XX=             27.7991   YY=            -14.5887   ZZ=            -14.5905
   XY=              0.0001   XZ=             -0.0001   YZ=             -2.7034
 Traceless Quadrupole moment (field-independent basis, Debye-Ang):
   XX=             28.2591   YY=            -14.1287   ZZ=            -14.1305
   XY=              0.0001   XZ=             -0.0001   YZ=             -2.7034
 Octapole moment (field-independent basis, Debye-Ang**2):
  XXX=              0.0000  YYY=              0.0000  ZZZ=             -0.0000  XYY=             -0.0000
  XXY=             -0.0001  XXZ=              0.0001  XZZ=              0.0000  YZZ=              0.0000
  YYZ=             -0.0000  XYZ=              0.0000
 Hexadecapole moment (field-independent basis, Debye-Ang**3):
 XXXX=           -185.5893 YYYY=            -22.1377 ZZZZ=            -22.1435 XXXY=              0.0027
 XXXZ=             -0.0027 YYYX=             -0.0001 YYYZ=             -4.4401 ZZZX=              0.0001
 ZZZY=             -4.4401 XXYY=           -620.5611 XXZZ=           -620.6357 YYZZ=             -7.3802
 XXYZ=           -113.8670 YYXZ=              0.0000 ZZXY=             -0.0000
 N-N= 7.638456591508D+00 E-N=-1.935850385893D+02  KE= 7.657661892070D+01
                          Isotropic Fermi Contact Couplings
        Atom                 a.u.       MegaHertz       Gauss      10(-4) cm-1
     1  C(13)             -0.00000      -0.00000      -0.00000      -0.00000
     2  C(13)             -0.00000      -0.00000      -0.00000      -0.00000
     3  H(1)              -0.00000      -0.00000      -0.00000      -0.00000
     4  H(1)               0.00000       0.00000       0.00000       0.00000
 --------------------------------------------------------
       Center         ----  Spin Dipole Couplings  ----
                      3XX-RR        3YY-RR        3ZZ-RR
 --------------------------------------------------------
     1   Atom       -0.000000      0.000000      0.000000
     2   Atom        0.000000     -0.000000     -0.000000
     3   Atom        0.000000     -0.000000     -0.000000
     4   Atom       -0.000000      0.000000      0.000000
 --------------------------------------------------------
                        XY            XZ            YZ
 --------------------------------------------------------
     1   Atom        0.000000     -0.000000      0.000000
     2   Atom       -0.000000      0.000000     -0.000000
     3   Atom        0.000000     -0.000000      0.000000
     4   Atom        0.000000      0.000000     -0.000000
 --------------------------------------------------------


 ---------------------------------------------------------------------------------
              Anisotropic Spin Dipole Couplings in Principal Axis System
 ---------------------------------------------------------------------------------

       Atom             a.u.   MegaHertz   Gauss  10(-4) cm-1        Axes

              Baa    -0.0000    -0.000    -0.000    -0.000  0.0000 -0.6822  0.7311
     1 C(13)  Bbb    -0.0000    -0.000    -0.000    -0.000  1.0000  0.0000 -0.0000
              Bcc     0.0000     0.000     0.000     0.000 -0.0000  0.7311  0.6822
 
              Baa    -0.0000    -0.000    -0.000    -0.000  0.0000  0.7071  0.7071
     2 C(13)  Bbb     0.0000     0.000     0.000     0.000  1.0000  0.0000 -0.0000
              Bcc     0.0000     0.000     0.000     0.000  0.0000 -0.7071  0.7071
 
              Baa    -0.0000    -0.000    -0.000    -0.000  0.0000 -0.6821  0.7312
     3 H(1)   Bbb     0.0000     0.000     0.000     0.000 -0.0000  0.7312  0.6821
              Bcc     0.0000     0.000     0.000     0.000  1.0000  0.0000 -0.0000
 
              Baa    -0.0000    -0.000    -0.000    -0.000  1.0000 -0.0000 -0.0000
     4 H(1)   Bbb    -0.0000    -0.000    -0.000    -0.000  0.0000  0.7071  0.7071
              Bcc     0.0000     0.000     0.000     0.000  0.0000 -0.7071  0.7071
 

 ---------------------------------------------------------------------------------

 No NMR shielding tensors so no spin-rotation constants.
 Leave Link  601 at Tue Dec  3 20:21:45 2024, MaxMem=  1073741824 cpu:               1.4 elap:               0.2
 (Enter /home/szhao/Apps/g16/l9999.exe)
 1\1\GINC-NODE01\FOpt\UM062X\6-311+G(d,p)\C2H2\SZHAO\03-Dec-2024\0\\#p 
 opt UM062X/6-311+G** nosymm int=superfine SCF=NoVarAcc\\Title Card Req
 uired\\0,1\C,-6.432625,0.,0.\C,6.432625,0.,0.\H,-7.5528512344,-0.00000
 67547,0.0000067548\H,7.5528511637,0.0000045655,-0.0000045655\\Version=
 ES64L-G16RevA.03\HF=-76.8148016\S2=0.\S2-1=0.\S2A=0.\RMSD=6.388e-09\RM
 SF=3.127e-05\Dipole=0.0000001,-0.0000013,0.0000013\Quadrupole=21.00998
 27,-10.5043325,-10.5056502,0.0000692,-0.0000692,-2.0099323\PG=C*V [C*(
 H1C1C1H1)]\\@


 I SUPPOSE A BABY LLAMA HAS A MMAMA AND A PPOPA.
     -- RICHARD AMOUR
 Job cpu time:       0 days  0 hours  1 minutes 28.0 seconds.
 Elapsed time:       0 days  0 hours  0 minutes 11.2 seconds.
 File lengths (MBytes):  RWF=      6 Int=      0 D2E=      0 Chk=      1 Scr=      1
 Normal termination of Gaussian 16 at Tue Dec  3 20:21:45 2024.
