Title Card Required                                                     
FOpt      UM062X                                                      6-311+G(d,p)        
Number of atoms                            I                4
Info1-9                                    I   N=           9
          13          13           0           0           0         110
           2          18        -502
Full Title                                 C   N=           2
Title Card Required     
Route                                      C   N=           5
#p opt UM062X/6-311+G** nosymm int=superfine SCF=NoVarAcc   
Charge                                     I                0
Multiplicity                               I                1
Number of electrons                        I               14
Number of alpha electrons                  I                7
Number of beta electrons                   I                7
Number of basis functions                  I               56
Number of independent functions            I               56
Number of point charges in /Mol/           I                0
Number of translation vectors              I                0
Atomic numbers                             I   N=           4
           6           6           1           1
Nuclear charges                            R   N=           4
  6.00000000E+00  6.00000000E+00  1.00000000E+00  1.00000000E+00
Current cartesian coordinates              R   N=          12
 -1.21558995E+01  0.00000000E+00  0.00000000E+00  1.21558995E+01  0.00000000E+00
  0.00000000E+00 -1.42728203E+01 -1.27645984E-05  1.27646651E-05  1.42728202E+01
  8.62758089E-06 -8.62754711E-06
Number of symbols in /Mol/                 I                0
Force Field                                I                0
Atom Types                                 C   N=           4
                                                
Int Atom Types                             I   N=           4
           0           0           0           0
MM charges                                 R   N=           4
  0.00000000E+00  0.00000000E+00  0.00000000E+00  0.00000000E+00
Integer atomic weights                     I   N=           4
          12          12           1           1
Real atomic weights                        R   N=           4
  1.20000000E+01  1.20000000E+01  1.00782504E+00  1.00782504E+00
Atom fragment info                         I   N=           4
           0           0           0           0
Atom residue num                           I   N=           4
           0           0           0           0
Nuclear spins                              I   N=           4
           0           0           1           1
Nuclear ZEff                               R   N=           4
 -3.60000000E+00 -3.60000000E+00 -1.00000000E+00 -1.00000000E+00
Nuclear ZNuc                               R   N=           4
  6.00000000E+00  6.00000000E+00  1.00000000E+00  1.00000000E+00
Nuclear QMom                               R   N=           4
  0.00000000E+00  0.00000000E+00  0.00000000E+00  0.00000000E+00
Nuclear GFac                               R   N=           4
  0.00000000E+00  0.00000000E+00  2.79284600E+00  2.79284600E+00
MicOpt                                     I   N=           4
          -2          -2          -1          -1
Number of residues                         I                0
Number of secondary structures             I                0
Redundant internal dimensions              I   N=           4
          12           8           4           0
Redundant internal coordinate indices      I   N=          48
           1          -1           0           0           1          -2
           0           0           1          -3           0           0
           2          -1           0           0           2          -2
           0           0           2          -3           0           0
           1           3           0           0           2           4
           0           0           2           1           3          -4
           1           2           4          -4           2           1
           3          -8           1           2           4          -8
Redundant internal coordinates             R   N=          12
 -1.21558995E+01  0.00000000E+00  0.00000000E+00  1.21558995E+01  0.00000000E+00
  0.00000000E+00  2.11692078E+00  2.11692065E+00  3.14158662E+00  3.14158858E+00
  3.14158662E+00  3.14158858E+00
ZRed-IntVec                                I   N=          12
          -1          -1          -1          -1          -1          -1
           0           0           0           0           0           0
ZRed-FPVec                                 R   N=          12
  0.00000000E+00  0.00000000E+00  0.00000000E+00  0.00000000E+00  0.00000000E+00
  0.00000000E+00  0.00000000E+00  0.00000000E+00  0.00000000E+00  0.00000000E+00
  0.00000000E+00  0.00000000E+00
ZRed-Constraint1                           R   N=          12
 -1.21558995E+01  0.00000000E+00  0.00000000E+00  1.21558995E+01  0.00000000E+00
  0.00000000E+00  2.12190166E+00  2.12189977E+00  3.14158731E+00  3.14158909E+00
  3.14158731E+00  3.14158909E+00
ZRed-Constraint2                           R   N=          12
 -1.21558995E+01  0.00000000E+00  0.00000000E+00  1.21558995E+01  0.00000000E+00
  0.00000000E+00  0.00000000E+00  0.00000000E+00  0.00000000E+00  0.00000000E+00
  0.00000000E+00  0.00000000E+00
Number of contracted shells                I               20
Number of primitive shells                 I               38
Pure/Cartesian d shells                    I                0
Pure/Cartesian f shells                    I                0
Highest angular momentum                   I                2
Largest degree of contraction              I                6
Shell types                                I   N=          20
           0          -1          -1          -1          -1          -2
           0          -1          -1          -1          -1          -2
           0           0           0           1           0           0
           0           1
Number of primitives per shell             I   N=          20
           6           3           1           1           1           1
           6           3           1           1           1           1
           3           1           1           1           3           1
           1           1
Shell to atom map                          I   N=          20
           1           1           1           1           1           1
           2           2           2           2           2           2
           3           3           3           3           4           4
           4           4
Primitive exponents                        R   N=          38
  4.56324000E+03  6.82024000E+02  1.54973000E+02  4.44553000E+01  1.30290000E+01
  1.82773000E+00  2.09642000E+01  4.80331000E+00  1.45933000E+00  4.83456000E-01
  1.45585000E-01  4.38000000E-02  6.26000000E-01  4.56324000E+03  6.82024000E+02
  1.54973000E+02  4.44553000E+01  1.30290000E+01  1.82773000E+00  2.09642000E+01
  4.80331000E+00  1.45933000E+00  4.83456000E-01  1.45585000E-01  4.38000000E-02
  6.26000000E-01  3.38650000E+01  5.09479000E+00  1.15879000E+00  3.25840000E-01
  1.02741000E-01  7.50000000E-01  3.38650000E+01  5.09479000E+00  1.15879000E+00
  3.25840000E-01  1.02741000E-01  7.50000000E-01
Contraction coefficients                   R   N=          38
  1.96665025E-03  1.52306019E-02  7.61269097E-02  2.60801033E-01  6.16462078E-01
  2.21006028E-01  1.14660081E-01  9.19999648E-01 -3.03068213E-03  1.00000000E+00
  1.00000000E+00  1.00000000E+00  1.00000000E+00  1.96665025E-03  1.52306019E-02
  7.61269097E-02  2.60801033E-01  6.16462078E-01  2.21006028E-01  1.14660081E-01
  9.19999648E-01 -3.03068213E-03  1.00000000E+00  1.00000000E+00  1.00000000E+00
  1.00000000E+00  2.54938145E-02  1.90373109E-01  8.52161486E-01  1.00000000E+00
  1.00000000E+00  1.00000000E+00  2.54938145E-02  1.90373109E-01  8.52161486E-01
  1.00000000E+00  1.00000000E+00  1.00000000E+00
P(S=P) Contraction coefficients            R   N=          38
  0.00000000E+00  0.00000000E+00  0.00000000E+00  0.00000000E+00  0.00000000E+00
  0.00000000E+00  4.02486927E-02  2.37593957E-01  8.15853851E-01  1.00000000E+00
  1.00000000E+00  1.00000000E+00  0.00000000E+00  0.00000000E+00  0.00000000E+00
  0.00000000E+00  0.00000000E+00  0.00000000E+00  0.00000000E+00  4.02486927E-02
  2.37593957E-01  8.15853851E-01  1.00000000E+00  1.00000000E+00  1.00000000E+00
  0.00000000E+00  0.00000000E+00  0.00000000E+00  0.00000000E+00  0.00000000E+00
  0.00000000E+00  0.00000000E+00  0.00000000E+00  0.00000000E+00  0.00000000E+00
  0.00000000E+00  0.00000000E+00  0.00000000E+00
Coordinates of each shell                  R   N=          60
 -1.21558995E+01  0.00000000E+00  0.00000000E+00 -1.21558995E+01  0.00000000E+00
  0.00000000E+00 -1.21558995E+01  0.00000000E+00  0.00000000E+00 -1.21558995E+01
  0.00000000E+00  0.00000000E+00 -1.21558995E+01  0.00000000E+00  0.00000000E+00
 -1.21558995E+01  0.00000000E+00  0.00000000E+00  1.21558995E+01  0.00000000E+00
  0.00000000E+00  1.21558995E+01  0.00000000E+00  0.00000000E+00  1.21558995E+01
  0.00000000E+00  0.00000000E+00  1.21558995E+01  0.00000000E+00  0.00000000E+00
  1.21558995E+01  0.00000000E+00  0.00000000E+00  1.21558995E+01  0.00000000E+00
  0.00000000E+00 -1.42728203E+01 -1.27645984E-05  1.27646651E-05 -1.42728203E+01
 -1.27645984E-05  1.27646651E-05 -1.42728203E+01 -1.27645984E-05  1.27646651E-05
 -1.42728203E+01 -1.27645984E-05  1.27646651E-05  1.42728202E+01  8.62758089E-06
 -8.62754711E-06  1.42728202E+01  8.62758089E-06 -8.62754711E-06  1.42728202E+01
  8.62758089E-06 -8.62754711E-06  1.42728202E+01  8.62758089E-06 -8.62754711E-06
Num ILSW                                   I              100
ILSW                                       I   N=         100
           1           0           0           1           2           0
           0           0           0           0        4336          -1
           7           0           0           0           2           0
           0           0           0           0           1           0
           1           1           0           0           0           0
           0           0      100000           0          -1           0
           0           0           0           0           0           0
           0           0           0           1           0           0
           0 -2000000000           1           0           0           0
           0           0           4          52           0           0
           0           0          55           0           0           0
           0           0           0           4           0           1
           0           0           0           0           0           0
           0           0           0           0           0           0
           0           0           0           0           0           0
           0           0           0           0           0           0
           0           0           0           0
Num RLSW                                   I               52
RLSW                                       R   N=          52
  1.00000000E+00  1.00000000E+00  1.00000000E+00  1.00000000E+00  5.40000000E-01
  0.00000000E+00  0.00000000E+00  1.00000000E+00  0.00000000E+00  0.00000000E+00
  0.00000000E+00  0.00000000E+00  1.00000000E+00  0.00000000E+00  0.00000000E+00
  0.00000000E+00  0.00000000E+00  1.00000000E+00  0.00000000E+00  0.00000000E+00
  0.00000000E+00  0.00000000E+00  1.00000000E+00  0.00000000E+00  0.00000000E+00
  0.00000000E+00  0.00000000E+00  1.00000000E+00  0.00000000E+00  0.00000000E+00
  0.00000000E+00  0.00000000E+00  1.00000000E+00  0.00000000E+00  0.00000000E+00
  0.00000000E+00  0.00000000E+00  0.00000000E+00  1.00000000E+00  1.00000000E+00
  0.00000000E+00  1.00000000E+00  0.00000000E+00  0.00000000E+00  0.00000000E+00
  0.00000000E+00  0.00000000E+00  0.00000000E+00  0.00000000E+00  0.00000000E+00
  0.00000000E+00  0.00000000E+00
MxBond                                     I                2
NBond                                      I   N=           4
           2           2           1           1
IBond                                      I   N=           8
           2           3           1           4           1           0
           2           0
RBond                                      R   N=           8
  1.00000000E-01  1.00000000E+00  1.00000000E-01  1.00000000E+00  1.00000000E+00
  0.00000000E+00  1.00000000E+00  0.00000000E+00
Virial Ratio                               R      2.003110384042004E+00
SCF Energy                                 R     -7.681480161418449E+01
Total Energy                               R     -7.681480161418449E+01
S**2                                       R     -2.398081733190338E-14
S**2 after annihilation                    R     -5.062616992290617E-14
RMS Force                                  R      3.127102554106213E-05
RMS Density                                R      6.388374188123038E-09
Job Status                                 I                1
Nuclear derivative order                   I                1
External E-field                           R   N=          35
  0.00000000E+00  0.00000000E+00  0.00000000E+00  0.00000000E+00  0.00000000E+00
  0.00000000E+00  0.00000000E+00  0.00000000E+00  0.00000000E+00  0.00000000E+00
  0.00000000E+00  0.00000000E+00  0.00000000E+00  0.00000000E+00  0.00000000E+00
  0.00000000E+00  0.00000000E+00  0.00000000E+00  0.00000000E+00  0.00000000E+00
  0.00000000E+00  0.00000000E+00  0.00000000E+00  0.00000000E+00  0.00000000E+00
  0.00000000E+00  0.00000000E+00  0.00000000E+00  0.00000000E+00  0.00000000E+00
  0.00000000E+00  0.00000000E+00  0.00000000E+00  0.00000000E+00  0.00000000E+00
IOpCl                                      I                1
IROHF                                      I                0
Alpha Orbital Energies                     R   N=          56
 -1.06673787E+01 -1.06673785E+01 -7.25205586E-01 -7.25182918E-01 -3.87027603E-01
 -3.87016405E-01 -1.92673329E-01 -1.70627085E-01 -9.72446467E-02 -9.72443311E-02
  3.29728586E-02  3.29986203E-02  8.10105616E-02  8.10145850E-02  8.21341861E-02
  8.22403420E-02  8.92634638E-02  8.92680990E-02  1.73417075E-01  1.73434826E-01
  4.53996389E-01  4.54048582E-01  5.71841772E-01  5.71843967E-01  5.77316106E-01
  5.77318420E-01  6.12328295E-01  6.12331136E-01  6.84419245E-01  6.84456587E-01
  1.12584085E+00  1.12584087E+00  1.13610597E+00  1.13613622E+00  1.33332778E+00
  1.33334261E+00  1.34572197E+00  1.34573672E+00  1.58019622E+00  1.58021080E+00
  1.84809495E+00  1.84809504E+00  1.85901488E+00  1.85901759E+00  2.38382086E+00
  2.38382646E+00  2.48759567E+00  2.48761202E+00  2.70396597E+00  2.70396706E+00
  2.70798736E+00  2.70798845E+00  3.16978907E+00  3.16980195E+00  2.35094299E+01
  2.35094369E+01
Beta Orbital Energies                      R   N=          56
 -1.06673787E+01 -1.06673785E+01 -7.25205586E-01 -7.25182918E-01 -3.87027603E-01
 -3.87016405E-01 -1.92673329E-01 -1.70627085E-01 -9.72446467E-02 -9.72443311E-02
  3.29728586E-02  3.29986203E-02  8.10105616E-02  8.10145850E-02  8.21341861E-02
  8.22403420E-02  8.92634638E-02  8.92680990E-02  1.73417075E-01  1.73434826E-01
  4.53996389E-01  4.54048582E-01  5.71841772E-01  5.71843967E-01  5.77316106E-01
  5.77318420E-01  6.12328295E-01  6.12331136E-01  6.84419245E-01  6.84456587E-01
  1.12584085E+00  1.12584087E+00  1.13610597E+00  1.13613622E+00  1.33332778E+00
  1.33334261E+00  1.34572197E+00  1.34573672E+00  1.58019622E+00  1.58021080E+00
  1.84809495E+00  1.84809504E+00  1.85901488E+00  1.85901759E+00  2.38382086E+00
  2.38382646E+00  2.48759567E+00  2.48761202E+00  2.70396597E+00  2.70396706E+00
  2.70798736E+00  2.70798845E+00  3.16978907E+00  3.16980195E+00  2.35094299E+01
  2.35094369E+01
Alpha MO coefficients                      R   N=        3136
  4.06292758E-01  3.34720646E-01 -1.29956290E-03 -7.80588365E-09  7.80593130E-09
  6.81063659E-03 -9.89813300E-04 -5.98585501E-09  5.98588626E-09 -2.85189311E-03
 -4.41469179E-05 -2.58984506E-10  2.58984514E-10  3.01956019E-04  4.72831935E-04
  2.84870312E-09 -2.84871811E-09 -3.88212310E-04 -7.85318999E-09 -4.31908399E-05
  6.72375023E-04  7.85297349E-09  3.91200008E-01  3.22286619E-01  1.25128718E-03
  5.08019863E-09 -5.08018166E-09  6.55763660E-03  9.53045421E-04  3.89524312E-09
 -3.89522738E-09 -2.74594050E-03  4.25080924E-05  1.68729150E-10 -1.68726121E-10
  2.90750752E-04 -4.55260352E-04 -1.85396718E-09  1.85396029E-09 -3.73790443E-04
 -5.11081600E-09 -4.15826749E-05  6.47396897E-04  5.11072554E-09  2.38614080E-04
 -1.99727069E-03  1.62324018E-03 -1.39442989E-03 -8.40426037E-09  8.40430317E-09
  2.29749413E-04 -1.92307560E-03  1.56292492E-03  1.34263110E-03  5.46933625E-09
 -5.46931386E-09 -3.91200018E-01 -3.22286628E-01  1.25129327E-03  7.51586339E-09
 -7.51591118E-09 -6.55770712E-03  9.53030798E-04  5.76371401E-09 -5.76374600E-09
  2.74626650E-03  4.24767615E-05  2.48487563E-10 -2.48490274E-10 -2.90425275E-04
 -4.55456715E-04 -2.74349256E-09  2.74350668E-09  3.73813157E-04  7.56131750E-09
  4.16850105E-05 -6.47435951E-04 -7.56110914E-09  4.06292768E-01  3.34720655E-01
  1.29956873E-03  5.27615828E-09 -5.27614210E-09  6.81070559E-03  9.89800574E-04
  4.04568156E-09 -4.04567005E-09 -2.85220679E-03  4.41167067E-05  1.74610444E-10
 -1.74610416E-10  3.01642155E-04 -4.73021186E-04 -1.92591020E-09  1.92590157E-09
 -3.88234321E-04 -5.30789117E-09 -4.32893668E-05  6.72413315E-04  5.30779827E-09
 -2.29767249E-04  1.92314185E-03 -1.56337727E-03  1.34262361E-03  8.09206554E-09
 -8.09210700E-09  2.38631032E-04 -1.99733632E-03  1.62367677E-03  1.39442369E-03
  5.68034844E-09 -5.68032632E-09 -7.65978448E-02 -1.23969820E-01 -5.44637420E-02
 -3.28116159E-07  3.28117808E-07  3.52743519E-01 -8.20477633E-02 -4.94038380E-07
  4.94040902E-07  2.45651880E-01 -3.29290202E-02 -1.97863303E-07  1.97864074E-07
 -6.53030247E-04 -8.72805597E-04 -5.24399208E-09  5.24395951E-09 -5.17008648E-03
 -8.87268855E-08 -3.19733220E-03  8.95274764E-03  8.87135031E-08 -7.66585253E-02
 -1.24068029E-01  5.45069013E-02  2.21914847E-07 -2.21913801E-07  3.53022962E-01
  8.21127775E-02  3.34128748E-07 -3.34127195E-07  2.45846457E-01  3.29551011E-02
  1.33731725E-07 -1.33730800E-07 -6.53581336E-04  8.73496202E-04  3.53629509E-09
 -3.53617073E-09 -5.17417677E-03 -6.00154060E-08 -3.19986986E-03  8.95984770E-03
  6.00072175E-08  1.02447356E-01  1.30437690E-01  1.56522147E-02  1.58233570E-02
  9.54196323E-08 -9.54201491E-08  1.02528530E-01  1.30541044E-01  1.56646371E-02
 -1.58358946E-02 -6.45507389E-08  6.45505086E-08 -7.66578053E-02 -1.24067104E-01
 -5.45128306E-02 -3.28409432E-07  3.28411408E-07  3.53026404E-01 -8.21220863E-02
 -4.94481264E-07  4.94484288E-07  2.45825936E-01 -3.29465614E-02 -1.97963912E-07
  1.97965236E-07 -6.95704030E-04 -8.72450242E-04 -5.21005336E-09  5.21017169E-09
 -5.17565822E-03 -8.87899259E-08 -3.20615827E-03  8.96239238E-03  8.87765056E-08
  7.65971217E-02  1.23968890E-01 -5.44696907E-02 -2.21761568E-07  2.21761023E-07
 -3.52746944E-01 -8.20570935E-02 -3.33898847E-07  3.33898063E-07 -2.45631309E-01
 -3.29204750E-02 -1.33587747E-07  1.33587675E-07  6.95187038E-04 -8.71758770E-04
 -3.50793267E-09  3.50804954E-09  5.17155566E-03  5.99630066E-08  3.20362497E-03
 -8.95530534E-03 -5.99547945E-08  1.02533709E-01  1.30556258E-01  1.56941451E-02
  1.58373297E-02  9.55032295E-08 -9.55037282E-08 -1.02452557E-01 -1.30452930E-01
 -1.56817442E-02  1.58247949E-02  6.45050627E-08 -6.45047999E-08 -4.28844278E-02
 -7.08361304E-02  1.53575073E-01  9.25146938E-07 -9.25152088E-07  2.08499128E-01
  2.21283751E-01  1.33308165E-06 -1.33308908E-06  2.97842071E-01  1.45842794E-01
  8.78493266E-07 -8.78498476E-07  4.24401939E-02  9.44291303E-03  5.71154404E-08
 -5.71159327E-08  1.23693889E-02  2.75146433E-07 -2.86231918E-03 -2.14262944E-02
 -2.75156452E-07 -4.28913491E-02 -7.08475630E-02 -1.53599853E-01 -6.25397749E-07
  6.25395787E-07  2.08532779E-01 -2.21319451E-01 -9.01161218E-07  9.01158421E-07
  2.97890148E-01 -1.45866321E-01 -5.93932327E-07  5.93930876E-07  4.24470365E-02
 -9.44443578E-03 -3.86832207E-08  3.86832986E-08  1.23713912E-02  1.85967785E-07
 -2.86278195E-03 -2.14297474E-02 -1.85975961E-07 -9.49023783E-02 -1.75763010E-01
 -1.15910649E-01 -7.22387299E-03 -4.36346495E-08  4.36348547E-08 -9.49176859E-02
 -1.75791359E-01 -1.15929342E-01  7.22503787E-03  2.95111940E-08 -2.95110411E-08
 -4.28964228E-02 -7.08560489E-02  1.53598685E-01  9.25295586E-07 -9.25300167E-07
  2.08562564E-01  2.21316254E-01  1.33328987E-06 -1.33329644E-06  2.97900838E-01
  1.45881999E-01  8.78735920E-07 -8.78740162E-07  4.23949580E-02  9.44542713E-03
  5.71822507E-08 -5.71824717E-08  1.23703581E-02  2.75203281E-07 -2.86834243E-03
 -2.14279770E-02 -2.75213350E-07  4.28895056E-02  7.08446233E-02  1.53573911E-01
  6.25296859E-07 -6.25294018E-07 -2.08528933E-01  2.21280552E-01  9.01011894E-07
 -9.01007749E-07 -2.97852807E-01  1.45858464E-01  5.93905353E-07 -5.93902407E-07
 -4.23881147E-02  9.44390275E-03  3.87172178E-08 -3.87168658E-08 -1.23683693E-02
 -1.85946199E-07  2.86788071E-03  2.14245166E-02  1.85954437E-07 -9.49120295E-02
 -1.75778601E-01 -1.15901085E-01 -7.22335263E-03 -4.36315065E-08  4.36317544E-08
  9.48967156E-02  1.75750238E-01  1.15882382E-01 -7.22218684E-03 -2.94995324E-08
  2.94994492E-08  2.08499253E-13  3.33875849E-13  2.66245008E-10  1.32202934E-01
  1.32246454E-01 -1.08938221E-12  4.07858874E-10  2.02496508E-01  2.02563168E-01
 -1.14809556E-12  4.50811060E-10  2.24060384E-01  2.24134143E-01  2.54464005E-12
  1.35865105E-10  6.75895846E-02  6.76118340E-02  1.21006236E-07 -1.15272951E-02
 -2.25961257E-11  6.98164793E-08 -1.15235017E-02 -1.24627612E-13 -1.97821060E-13
  1.73608002E-10  1.32203110E-01  1.32246276E-01  6.32785758E-13  2.65952681E-10
  2.02496778E-01  2.02562896E-01  7.28544819E-13  2.93959972E-10  2.24060683E-01
  2.24133842E-01 -1.49644037E-12  8.86827128E-11  6.75896748E-02  6.76117434E-02
 -8.17465186E-08  1.15272804E-02  1.55713866E-11 -4.71660531E-08  1.15235178E-02
  5.29812387E-14 -3.89391567E-14 -1.01050646E-12  2.49217632E-11  1.23915037E-02
  1.23955828E-02 -3.28686506E-14  4.08126694E-14  5.46477920E-13  1.62528496E-11
  1.23915210E-02  1.23955670E-02 -2.35284341E-13 -4.11579564E-13  2.66724270E-10
  1.32186313E-01  1.32229828E-01  1.47855542E-12  4.08353777E-10  2.02469674E-01
  2.02536325E-01  9.14997049E-13  4.52713478E-10  2.24007128E-01  2.24080869E-01
 -3.64376812E-12  1.36632449E-10  6.76767689E-02  6.76990470E-02  1.20830409E-07
 -1.16988507E-02 -2.25841756E-11  6.97143548E-08 -1.16950009E-02 -1.61487733E-13
 -2.82935513E-13 -1.73915535E-10 -1.32186490E-01 -1.32229651E-01  1.02461948E-12
 -2.66270491E-10 -2.02469945E-01 -2.02536054E-01  5.94172145E-13 -2.95178039E-10
 -2.24007428E-01 -2.24080570E-01 -2.50481515E-12 -8.92055325E-11 -6.76768597E-02
 -6.76989567E-02  8.16300244E-08 -1.16988359E-02 -1.55602556E-11  4.70983974E-08
 -1.16950173E-02  3.65930433E-14  2.22391684E-14  1.86337324E-12  2.51880812E-11
  1.24871281E-02  1.24912388E-02  2.35080461E-14 -8.85045689E-15  1.33089289E-12
 -1.64261075E-11 -1.24871456E-02 -1.24912229E-02  2.65878339E-10  4.50950238E-10
 -1.47852921E-06  1.22660330E-01 -1.22619965E-01 -1.65206593E-09 -2.33608419E-06
  1.93849578E-01 -1.93785786E-01 -1.56884802E-09 -2.59928544E-06  2.15450362E-01
 -2.15379462E-01  1.06552880E-08 -1.27821037E-06  1.06048329E-01 -1.06013430E-01
 -1.09712736E-07  1.05238503E-02  1.26510426E-07  1.90068753E-07 -1.05273147E-02
 -2.70096240E-10 -4.54739445E-10 -9.97469620E-07  1.22425352E-01 -1.22385392E-01
  1.59556156E-09 -1.57589409E-06  1.93478225E-01 -1.93415072E-01  1.84116824E-09
 -1.75396995E-06  2.15037627E-01 -2.14967438E-01 -9.53047121E-09 -8.62273804E-07
  1.05845181E-01 -1.05810631E-01  7.40015274E-08 -1.05037187E-02 -8.53026546E-08
 -1.28202415E-07  1.05071483E-02 -7.10229932E-10 -1.00164015E-09 -5.68101725E-09
 -1.45534467E-07  1.20731803E-02 -1.20692073E-02  5.11199250E-10  6.98091764E-10
  4.76048078E-09 -9.81852142E-08  1.20500528E-02 -1.20461196E-02 -2.52257759E-10
 -4.30008565E-10  1.47567645E-06 -1.22425797E-01  1.22385509E-01  1.60643276E-09
  2.33160339E-06 -1.93478629E-01  1.93414958E-01  1.31181008E-09  2.59417304E-06
 -2.15039294E-01  2.14968529E-01 -1.05685506E-08  1.27619776E-06 -1.05842877E-01
  1.05808046E-01  1.09499032E-07 -1.05037313E-02 -1.26258598E-07 -1.89698520E-07
  1.05071890E-02 -2.51294564E-10 -4.25930900E-10 -9.99348572E-07  1.22660446E-01
 -1.22620409E-01  1.53442733E-09 -1.57890492E-06  1.93849462E-01 -1.93786188E-01
  1.48104837E-09 -1.75711990E-06  2.15451451E-01 -2.15381127E-01 -9.42198561E-09
 -8.64553891E-07  1.06045749E-01 -1.06011134E-01  7.41382813E-08 -1.05238922E-02
 -8.54517349E-08 -1.28439319E-07  1.05273284E-02  7.27923444E-10  8.98089636E-10
  6.03100975E-09  1.45254783E-07 -1.20500729E-02  1.20461075E-02  5.38109796E-10
  5.55268814E-10  5.25683154E-09 -9.83718648E-08  1.20731696E-02 -1.20692289E-02
  2.12940069E-02  3.47989934E-02  3.42862114E-02  2.02745279E-07 -2.02746333E-07
 -8.45407931E-02  7.92662516E-02  4.73432017E-07 -4.73434626E-07 -4.28795977E-01
  7.46290384E-02  4.35192256E-07 -4.35194417E-07  1.09664153E+00 -5.37759948E-01
 -3.21503145E-06  3.21504840E-06  8.48813829E-03  1.67786217E-07  1.52369644E-03
 -1.47008837E-02 -1.67779210E-07  2.12951051E-02  3.48007886E-02 -3.42879743E-02
 -1.36124807E-07  1.36124065E-07 -8.45451591E-02 -7.92703425E-02 -3.18986645E-07
  3.18985131E-07 -4.28818076E-01 -7.46328622E-02 -2.90747625E-07  2.90746285E-07
  1.09669816E+00  5.37787718E-01  2.16693648E-06 -2.16692889E-06  8.48857436E-03
  1.13333486E-07  1.52377452E-03 -1.47016471E-02 -1.13329960E-07 -1.80160901E-02
  1.16645949E-01 -4.15694430E-01 -2.42628465E-04 -1.54839401E-09  1.54841754E-09
 -1.80170241E-02  1.16651975E-01 -4.15715941E-01  2.42636647E-04  1.06624190E-09
 -1.06627879E-09  2.12968541E-02  3.48020452E-02  3.42915265E-02  2.03070831E-07
 -2.03072569E-07 -8.45169452E-02  7.92941148E-02  4.73787249E-07 -4.73790921E-07
 -4.29082708E-01  7.46301024E-02  4.36673345E-07 -4.36676575E-07  1.09671672E+00
 -5.37464170E-01 -3.21590587E-06  3.21592214E-06  8.48518296E-03  1.67799785E-07
  1.51541803E-03 -1.46957704E-02 -1.67792716E-07 -2.12957538E-02 -3.48002477E-02
  3.42897496E-02  1.36347053E-07 -1.36347396E-07  8.45125847E-02  7.92900211E-02
  3.19206809E-07 -3.19206972E-07  4.29060526E-01  7.46262217E-02  2.91791863E-07
 -2.91792284E-07 -1.09666013E+00 -5.37436439E-01 -2.16743359E-06  2.16742518E-06
 -8.48474290E-03 -1.13332433E-07 -1.51533924E-03  1.46950164E-02  1.13328793E-07
 -1.80021393E-02  1.16632518E-01 -4.15344009E-01 -2.40408690E-04 -1.54211897E-09
  1.54205615E-09  1.80012140E-02 -1.16626502E-01  4.15322623E-01 -2.40391938E-04
 -1.06193437E-09  1.06184437E-09  4.04401995E-08  6.46205121E-08  7.33811023E-07
 -7.07416398E-02  7.07183537E-02 -1.43551224E-07  7.94477650E-07 -7.10210588E-02
  7.09976812E-02 -9.47074195E-07  2.91682695E-06 -2.92214763E-01  2.92118573E-01
  1.02731720E-06 -5.35965788E-06  6.06686269E-01 -6.06486558E-01  4.84587378E-08
 -5.87583759E-03 -6.74703539E-08 -8.39536422E-08  5.87777239E-03 -3.70680177E-08
 -5.92317932E-08  4.67436483E-07 -7.07378248E-02  7.07147289E-02  1.31571906E-07
  5.22285037E-07 -7.10172288E-02  7.09940422E-02  8.68252238E-07  1.82595159E-06
 -2.92199006E-01  2.92103602E-01 -9.41687477E-07 -3.15297480E-06  6.06653552E-01
 -6.06455473E-01 -2.96670249E-08  5.87553701E-03  4.48072590E-08  5.13985539E-08
 -5.87745601E-03  5.58085341E-08 -3.41716531E-08  5.03739171E-07  1.42618278E-08
  2.27842495E-04 -2.27767415E-04 -5.11062860E-08  3.14175912E-08 -4.62063504E-07
  1.37207674E-08  2.27829519E-04 -2.27755049E-04 -3.51356871E-08 -5.61401298E-08
 -7.48151653E-07  7.07378492E-02 -7.07145642E-02  1.24637677E-07 -8.01287945E-07
  7.10187530E-02 -7.09953761E-02  8.22433385E-07 -2.99061809E-06  2.92195977E-01
 -2.92099793E-01 -8.92619460E-07  5.60268767E-06 -6.06655635E-01  6.06455934E-01
 -5.00379186E-08  5.87549760E-03  6.78834612E-08  8.66891410E-08 -5.87743230E-03
 -2.85174773E-08 -4.55614756E-08  4.90724703E-07 -7.07414749E-02  7.07183778E-02
  1.01070880E-07  5.33423615E-07 -7.10223932E-02  7.09992049E-02  6.67469675E-07
  1.94568606E-06 -2.92210955E-01  2.92115547E-01 -7.24578317E-07 -3.54621797E-06
  6.06686730E-01 -6.06488641E-01 -3.22248058E-08  5.87581506E-03  4.54866383E-08
  5.58292094E-08 -5.87773415E-03 -4.87891751E-08  3.00494533E-08 -4.36530332E-07
 -1.22230906E-08 -2.27815407E-04  2.27740335E-04 -3.97815845E-08  2.47341896E-08
 -3.53899571E-07  1.04252487E-08  2.27826394E-04 -2.27751927E-04  1.73454819E-02
  2.77626889E-02 -4.85185843E-02 -1.51171636E-07  1.51227058E-07 -6.24328908E-02
 -2.42432493E-02 -4.58234078E-09  4.63680753E-09 -4.03961855E-01 -2.47741836E-01
 -9.08888791E-07  9.09119593E-07  4.42384593E-01  8.06786627E-01  3.64716505E-06
 -3.64765845E-06 -5.25212323E-03 -1.06178373E-07  1.37738717E-03  9.09785100E-03
  1.06178804E-07  1.73453433E-02  2.77624670E-02  4.85181964E-02  7.05252911E-08
 -7.05686254E-08 -6.24323912E-02  2.42430529E-02 -2.86613082E-08  2.86172888E-08
 -4.03958626E-01  2.47739859E-01  4.83485384E-07 -4.83662881E-07  4.42381101E-01
 -8.06780130E-01 -2.19274233E-06  2.19310743E-06 -5.25208369E-03 -6.91316512E-08
  1.37737619E-03  9.09777516E-03  6.91318905E-08  2.30920173E-02 -1.27390692E-02
  2.12189580E-01  6.88550427E-03  4.09691634E-08 -4.09696107E-08  2.30918311E-02
 -1.27389635E-02  2.12187827E-01 -6.88545044E-03 -2.75735629E-08  2.75735806E-08
  1.73346414E-02  2.77476369E-02 -4.85686165E-02 -1.16938789E-07  1.17007900E-07
 -6.24267368E-02 -2.43309169E-02  2.98895977E-08 -2.98217575E-08 -4.03534349E-01
 -2.47862204E-01 -7.67685094E-07  7.67973695E-07  4.42443609E-01  8.06761010E-01
  3.35065288E-06 -3.35127048E-06 -5.25160208E-03 -1.03258767E-07  1.36988061E-03