 vasp.6.3.1 04May22 (build Aug 04 2022 13:02:54) complex                        
  
 executed on             LinuxIFC date 2024.11.27  04:53:31
 running on   28 total cores
 distrk:  each k-point on   28 cores,    1 groups
 distr:  one band on NCORE=  14 cores,    2 groups


--------------------------------------------------------------------------------------------------------


 INCAR:
   ISTART = 1            (Read existing wavefunction
   ISPIN = 1            (Non-Spin polarised DFT)
   LREAL = .FALSE.       (Projection operators: automatic)
   ENCUT = 520        (Cut-off energy for plane wave basis set, in eV)
   PREC = A       (Precision level)
   LWAVE = .FALSE.        (Write WAVECAR or not)
   LCHARG = .FALSE.        (Write CHGCAR or not)
   ADDGRID = .TRUE.        (Increase grid
   KSPACING = 0.2000
   KGAMMA = .FALSE.
   IVDW = 12
   ISMEAR = 0            (Gaussian smearing
   SIGMA = 0.05         (Smearing value in eV
   NELM = 200           (Max electronic SCF steps)
   NELMIN = 6            (Min electronic SCF steps)
   EDIFF = 1E-08        (SCF energy convergence
   NSW = 0          (Max ionic steps)
   IBRION = -1            (Algorithm: 0-MD
   ISIF = 3           (Stress/relaxation: 2-Ions, 3-Shape/Ions/V, 4-Shape/Ions)
   EDIFFG = -1E-04        (Ionic convergence
   ISYM = 0
   SYMPREC = 1E-08
   NCORE = 14

 POTCAR:    PAW_PBE C 08Apr2002                   
 -----------------------------------------------------------------------------
|                                                                             |
|           W    W    AA    RRRRR   N    N  II  N    N   GGGG   !!!           |
|           W    W   A  A   R    R  NN   N  II  NN   N  G    G  !!!           |
|           W    W  A    A  R    R  N N  N  II  N N  N  G       !!!           |
|           W WW W  AAAAAA  RRRRR   N  N N  II  N  N N  G  GGG   !            |
|           WW  WW  A    A  R   R   N   NN  II  N   NN  G    G                |
|           W    W  A    A  R    R  N    N  II  N    N   GGGG   !!!           |
|                                                                             |
|     For optimal performance we recommend to set                             |
|       NCORE = 2 up to number-of-cores-per-socket                            |
|     NCORE specifies how many cores store one orbital (NPAR=cpu/NCORE).      |
|     This setting can greatly improve the performance of VASP for DFT.       |
|     The default, NCORE=1 might be grossly inefficient on modern             |
|     multi-core architectures or massively parallel machines. Do your        |
|     own testing! More info at https://www.vasp.at/wiki/index.php/NCORE      |
|     Unfortunately you need to use the default for GW and RPA                |
|     calculations (for HF NCORE is supported but not extensively tested      |
|     yet).                                                                   |
|                                                                             |
 -----------------------------------------------------------------------------

 POTCAR:    PAW_PBE C 08Apr2002                   
   VRHFIN =C: s2p2                                                                                  
   LEXCH  = PE                                                                                      
   EATOM  =   147.1560 eV,   10.8157 Ry                                                             
                                                                                                    
   TITEL  = PAW_PBE C 08Apr2002                                                                     
   LULTRA =        F    use ultrasoft PP ?                                                          
   IUNSCR =        1    unscreen: 0-lin 1-nonlin 2-no                                               
   RPACOR =    1.200    partial core radius                                                         
   POMASS =   12.011; ZVAL   =    4.000    mass and valenz                                          
   RCORE  =    1.500    outmost cutoff radius                                                       
   RWIGS  =    1.630; RWIGS  =    0.863    wigner-seitz radius (au A)                               
   ENMAX  =  400.000; ENMIN  =  300.000 eV                                                          
   ICORE  =        2    local potential                                                             
   LCOR   =        T    correct aug charges                                                         
   LPAW   =        T    paw PP                                                                      
   EAUG   =  644.873                                                                                
   DEXC   =    0.000                                                                                
   RMAX   =    1.529    core radius for proj-oper                                                   
   RAUG   =    1.300    factor for augmentation sphere                                              
   RDEP   =    1.501    radius for radial grids                                                     
   RDEPT  =    1.300    core radius for aug-charge                                                  
                                                                                                    
   Atomic configuration                                                                             
    4 entries                                                                                       
     n  l   j            E        occ.                                                              
     1  0  0.50      -273.3789   2.0000                                                             
     2  0  0.50       -13.7508   2.0000                                                             
     2  1  0.50        -5.2854   2.0000                                                             
     3  2  1.50        -5.4423   0.0000                                                             
   Description                                                                                      
     l       E           TYP  RCUT    TYP  RCUT                                                     
     0    -13.7508458     23  1.200                                                                 
     0     -8.2022199     23  1.200                                                                 
     1     -5.2854383     23  1.500                                                                 
     1     34.0145650     23  1.500                                                                 
     2     -5.4423304      7  1.500                                                                 
  local pseudopotential read in
  partial core-charges read in
  partial kinetic energy density read in
  atomic valenz-charges read in
  non local Contribution for L=           0  read in
    real space projection operators read in
  non local Contribution for L=           0  read in
    real space projection operators read in
  non local Contribution for L=           1  read in
    real space projection operators read in
  non local Contribution for L=           1  read in
    real space projection operators read in
    PAW grid and wavefunctions read in
 
   number of l-projection  operators is LMAX  =           4
   number of lm-projection operators is LMMAX =           8
 
  PAW_PBE C 08Apr2002                   :
 energy of atom  1       EATOM= -147.1560
 kinetic energy error for atom=    0.0071 (will be added to EATOM!!)
 
 
 POSCAR: Graphene
  positions in direct lattice
  No initial velocities read in
 exchange correlation table for  LEXCH =        8
   RHO(1)=    0.500       N(1)  =     2000
   RHO(2)=  100.500       N(2)  =     4000
 


--------------------------------------------------------------------------------------------------------


 ion  position               nearest neighbor table
   1  0.000  0.000  0.500-   2 1.95   2 1.95   2 1.95
   2  0.667  0.333  0.500-   1 1.95   1 1.95   1 1.95
 

IMPORTANT INFORMATION: All symmetrisations will be switched off!
NOSYMM: (Re-)initialisation of all symmetry stuff for point group C_1.


----------------------------------------------------------------------------------------

                                     Primitive cell                                     

  volume of cell :     148.4348

  direct lattice vectors                    reciprocal lattice vectors
     3.380303957  0.000000000  0.000000000     0.295831385  0.170793394  0.000000000
    -1.690112131  2.927444676  0.000000000     0.000000000  0.341594841  0.000000000
     0.000000000  0.000000000 15.000000000     0.000000000  0.000000000  0.066666667

  length of vectors
     3.380303957  3.380297524 15.000000000     0.341594191  0.341594841  0.066666667

  position of ions in fractional coordinates (direct lattice)
     0.000000000  0.000000000  0.500000000
     0.666668846  0.333334637  0.500000000

  ion indices of the primitive-cell ions
   primitive index   ion index
                 1           1
                 2           2

----------------------------------------------------------------------------------------

 
 
 KPOINTS: K-Spacing Value to Generate K-Mesh: 0.03

Automatic generation of k-mesh.
 Grid dimensions read from file:
 generate k-points for:   12   12    1

 Generating k-lattice:

  Cartesian coordinates                     Fractional coordinates (reciprocal lattice)
     0.024652615  0.014232783  0.000000000     0.083333333  0.000000000  0.000000000
     0.000000000  0.028466237  0.000000000     0.000000000  0.083333333  0.000000000
     0.000000000  0.000000000  0.066666667     0.000000000  0.000000000  1.000000000

  Length of vectors
     0.028466183  0.028466237  0.066666667

  Shift w.r.t. Gamma in fractional coordinates (k-lattice)
     0.000000000  0.000000000  0.000000000

 
 Subroutine IBZKPT returns following result:
 ===========================================
 
 Found     74 irreducible k-points:
 
 Following reciprocal coordinates:
            Coordinates               Weight
  0.000000  0.000000  0.000000      1.000000
  0.083333 -0.000000  0.000000      2.000000
  0.166667 -0.000000  0.000000      2.000000
  0.250000 -0.000000  0.000000      2.000000
  0.333333  0.000000  0.000000      2.000000
  0.416667 -0.000000  0.000000      2.000000
  0.500000 -0.000000  0.000000      1.000000
  0.000000  0.083333  0.000000      2.000000
  0.083333  0.083333  0.000000      2.000000
  0.166667  0.083333  0.000000      2.000000
  0.250000  0.083333  0.000000      2.000000
  0.333333  0.083333  0.000000      2.000000
  0.416667  0.083333  0.000000      2.000000
  0.500000  0.083333  0.000000      2.000000
 -0.416667  0.083333  0.000000      2.000000
 -0.333333  0.083333  0.000000      2.000000
 -0.250000  0.083333  0.000000      2.000000
 -0.166667  0.083333  0.000000      2.000000
 -0.083333  0.083333  0.000000      2.000000
  0.000000  0.166667  0.000000      2.000000
  0.083333  0.166667  0.000000      2.000000
  0.166667  0.166667  0.000000      2.000000
  0.250000  0.166667  0.000000      2.000000
  0.333333  0.166667  0.000000      2.000000
  0.416667  0.166667  0.000000      2.000000
  0.500000  0.166667  0.000000      2.000000
 -0.416667  0.166667  0.000000      2.000000
 -0.333333  0.166667  0.000000      2.000000
 -0.250000  0.166667  0.000000      2.000000
 -0.166667  0.166667  0.000000      2.000000
 -0.083333  0.166667  0.000000      2.000000
  0.000000  0.250000  0.000000      2.000000
  0.083333  0.250000  0.000000      2.000000
  0.166667  0.250000  0.000000      2.000000
  0.250000  0.250000  0.000000      2.000000
  0.333333  0.250000  0.000000      2.000000
  0.416667  0.250000  0.000000      2.000000
  0.500000  0.250000  0.000000      2.000000
 -0.416667  0.250000  0.000000      2.000000
 -0.333333  0.250000  0.000000      2.000000
 -0.250000  0.250000  0.000000      2.000000
 -0.166667  0.250000  0.000000      2.000000
 -0.083333  0.250000  0.000000      2.000000
  0.000000  0.333333  0.000000      2.000000
  0.083333  0.333333  0.000000      2.000000
  0.166667  0.333333  0.000000      2.000000
  0.250000  0.333333  0.000000      2.000000
  0.333333  0.333333  0.000000      2.000000
  0.416667  0.333333  0.000000      2.000000
  0.500000  0.333333  0.000000      2.000000
 -0.416667  0.333333  0.000000      2.000000
 -0.333333  0.333333  0.000000      2.000000
 -0.250000  0.333333  0.000000      2.000000
 -0.166667  0.333333  0.000000      2.000000
 -0.083333  0.333333  0.000000      2.000000
  0.000000  0.416667  0.000000      2.000000
  0.083333  0.416667  0.000000      2.000000
  0.166667  0.416667  0.000000      2.000000
  0.250000  0.416667  0.000000      2.000000
  0.333333  0.416667  0.000000      2.000000
  0.416667  0.416667  0.000000      2.000000
  0.500000  0.416667  0.000000      2.000000
 -0.416667  0.416667  0.000000      2.000000
 -0.333333  0.416667  0.000000      2.000000
 -0.250000  0.416667  0.000000      2.000000
 -0.166667  0.416667  0.000000      2.000000
 -0.083333  0.416667  0.000000      2.000000
  0.000000  0.500000  0.000000      1.000000
  0.083333  0.500000  0.000000      2.000000
  0.166667  0.500000  0.000000      2.000000
  0.250000  0.500000  0.000000      2.000000
  0.333333  0.500000  0.000000      2.000000
  0.416667  0.500000  0.000000      2.000000
  0.500000  0.500000  0.000000      1.000000
 
 Following cartesian coordinates:
            Coordinates               Weight
  0.000000  0.000000  0.000000      1.000000
  0.024653  0.014233  0.000000      2.000000
  0.049305  0.028466  0.000000      2.000000
  0.073958  0.042698  0.000000      2.000000
  0.098610  0.056931  0.000000      2.000000
  0.123263  0.071164  0.000000      2.000000
  0.147916  0.085397  0.000000      1.000000
  0.000000  0.028466  0.000000      2.000000
  0.024653  0.042699  0.000000      2.000000
  0.049305  0.056932  0.000000      2.000000
  0.073958  0.071165  0.000000      2.000000
  0.098610  0.085397  0.000000      2.000000
  0.123263  0.099630  0.000000      2.000000
  0.147916  0.113863  0.000000      2.000000
 -0.123263 -0.042698  0.000000      2.000000
 -0.098610 -0.028465  0.000000      2.000000
 -0.073958 -0.014232  0.000000      2.000000
 -0.049305  0.000001  0.000000      2.000000
 -0.024653  0.014233  0.000000      2.000000
  0.000000  0.056932  0.000000      2.000000
  0.024653  0.071165  0.000000      2.000000
  0.049305  0.085398  0.000000      2.000000
  0.073958  0.099631  0.000000      2.000000
  0.098610  0.113864  0.000000      2.000000
  0.123263  0.128096  0.000000      2.000000
  0.147916  0.142329  0.000000      2.000000
 -0.123263 -0.014231  0.000000      2.000000
 -0.098610  0.000001  0.000000      2.000000
 -0.073958  0.014234  0.000000      2.000000
 -0.049305  0.028467  0.000000      2.000000
 -0.024653  0.042700  0.000000      2.000000
  0.000000  0.085399  0.000000      2.000000
  0.024653  0.099631  0.000000      2.000000
  0.049305  0.113864  0.000000      2.000000
  0.073958  0.128097  0.000000      2.000000
  0.098610  0.142330  0.000000      2.000000
  0.123263  0.156563  0.000000      2.000000
  0.147916  0.170795  0.000000      2.000000
 -0.123263  0.014235  0.000000      2.000000
 -0.098610  0.028468  0.000000      2.000000
 -0.073958  0.042700  0.000000      2.000000
 -0.049305  0.056933  0.000000      2.000000
 -0.024653  0.071166  0.000000      2.000000
  0.000000  0.113865  0.000000      2.000000
  0.024653  0.128098  0.000000      2.000000
  0.049305  0.142331  0.000000      2.000000
  0.073958  0.156563  0.000000      2.000000
  0.098610  0.170796  0.000000      2.000000
  0.123263  0.185029  0.000000      2.000000
  0.147916  0.199262  0.000000      2.000000
 -0.123263  0.042701  0.000000      2.000000
 -0.098610  0.056934  0.000000      2.000000
 -0.073958  0.071167  0.000000      2.000000
 -0.049305  0.085399  0.000000      2.000000
 -0.024653  0.099632  0.000000      2.000000
  0.000000  0.142331  0.000000      2.000000
  0.024653  0.156564  0.000000      2.000000
  0.049305  0.170797  0.000000      2.000000
  0.073958  0.185030  0.000000      2.000000
  0.098610  0.199262  0.000000      2.000000
  0.123263  0.213495  0.000000      2.000000
  0.147916  0.227728  0.000000      2.000000
 -0.123263  0.071167  0.000000      2.000000
 -0.098610  0.085400  0.000000      2.000000
 -0.073958  0.099633  0.000000      2.000000
 -0.049305  0.113866  0.000000      2.000000
 -0.024653  0.128098  0.000000      2.000000
  0.000000  0.170797  0.000000      1.000000
  0.024653  0.185030  0.000000      2.000000
  0.049305  0.199263  0.000000      2.000000
  0.073958  0.213496  0.000000      2.000000
  0.098610  0.227729  0.000000      2.000000
  0.123263  0.241961  0.000000      2.000000
  0.147916  0.256194  0.000000      1.000000
 


--------------------------------------------------------------------------------------------------------




 Dimension of arrays:
   k-points           NKPTS =     74   k-points in BZ     NKDIM =     74   number of bands    NBANDS=      8
   number of dos      NEDOS =    301   number of ions     NIONS =      2
   non local maximal  LDIM  =      4   non local SUM 2l+1 LMDIM =      8
   total plane-waves  NPLWV =  87808
   max r-space proj   IRMAX =      1   max aug-charges    IRDMAX=  56040
   dimension x,y,z NGX =    28 NGY =   28 NGZ =  112
   dimension x,y,z NGXF=    56 NGYF=   56 NGZF=  224
   support grid    NGXF=   112 NGYF=  112 NGZF=  448
   ions per type =               2
   NGX,Y,Z   is equivalent  to a cutoff of  13.77, 13.77, 12.41 a.u.
   NGXF,Y,Z  is equivalent  to a cutoff of  27.54, 27.54, 24.83 a.u.

 SYSTEM =  unknown system                          
 POSCAR =  Graphene                                

 Startparameter for this run:
   NWRITE =      2    write-flag & timer
   PREC   = a         normal or accurate (medium, high low for compatibility)
   ISTART =      0    job   : 0-new  1-cont  2-samecut
   ICHARG =      2    charge: 1-file 2-atom 10-const
   ISPIN  =      1    spin polarized calculation?
   LNONCOLLINEAR =      F non collinear calculations
   LSORBIT =      F    spin-orbit coupling
   INIWAV =      1    electr: 0-lowe 1-rand  2-diag
   LASPH  =      F    aspherical Exc in radial PAW
 Electronic Relaxation 1
   ENCUT  =  520.0 eV  38.22 Ry    6.18 a.u.   6.29  6.29 27.89*2*pi/ulx,y,z
   ENINI  =  520.0     initial cutoff
   ENAUG  =  644.9 eV  augmentation charge cutoff
   NELM   =    200;   NELMIN=  6; NELMDL=  0     # of ELM steps 
   EDIFF  = 0.1E-07   stopping-criterion for ELM
   LREAL  =      F    real-space projection
   NLSPLINE    = F    spline interpolate recip. space projectors
   LCOMPAT=      F    compatible to vasp.4.4
   GGA_COMPAT  = T    GGA compatible to vasp.4.4-vasp.4.6
   LMAXPAW     = -100 max onsite density
   LMAXMIX     =    2 max onsite mixed and CHGCAR
   VOSKOWN=      0    Vosko Wilk Nusair interpolation
   ROPT   =    0.00000
 Ionic relaxation
   EDIFFG = -.1E-03   stopping-criterion for IOM
   NSW    =      0    number of steps for IOM
   NBLOCK =      1;   KBLOCK =      1    inner block; outer block 
   IBRION =     -1    ionic relax: 0-MD 1-quasi-New 2-CG
   NFREE  =      0    steps in history (QN), initial steepest desc. (CG)
   ISIF   =      3    stress and relaxation
   IWAVPR =     10    prediction:  0-non 1-charg 2-wave 3-comb
   ISYM   =      0    0-nonsym 1-usesym 2-fastsym
   LCORR  =      T    Harris-Foulkes like correction to forces

   POTIM  = 0.5000    time-step for ionic-motion
   TEIN   =    0.0    initial temperature
   TEBEG  =    0.0;   TEEND  =   0.0 temperature during run
   SMASS  =  -3.00    Nose mass-parameter (am)
   estimated Nose-frequenzy (Omega)   =  0.10E-29 period in steps = 0.13E+47 mass=  -0.261E-27a.u.
   SCALEE = 1.0000    scale energy and forces
   NPACO  =    256;   APACO  = 10.0  distance and # of slots for P.C.
   PSTRESS=    0.0 pullay stress

  Mass of Ions in am
   POMASS =  12.01
  Ionic Valenz
   ZVAL   =   4.00
  Atomic Wigner-Seitz radii
   RWIGS  =  -1.00
  virtual crystal weights 
   VCA    =   1.00
   NELECT =       8.0000    total number of electrons
   NUPDOWN=      -1.0000    fix difference up-down

 DOS related values:
   EMIN   =  10.00;   EMAX   =-10.00  energy-range for DOS
   EFERMI =   0.00
   ISMEAR =     0;   SIGMA  =   0.05  broadening in eV -4-tet -1-fermi 0-gaus

 Electronic relaxation 2 (details)
   IALGO  =     38    algorithm
   LDIAG  =      T    sub-space diagonalisation (order eigenvalues)
   LSUBROT=      F    optimize rotation matrix (better conditioning)
   TURBO    =      0    0=normal 1=particle mesh
   IRESTART =      0    0=no restart 2=restart with 2 vectors
   NREBOOT  =      0    no. of reboots
   NMIN     =      0    reboot dimension
   EREF     =   0.00    reference energy to select bands
   IMIX   =      4    mixing-type and parameters
     AMIX     =   0.40;   BMIX     =  1.00
     AMIX_MAG =   1.60;   BMIX_MAG =  1.00
     AMIN     =   0.10
     WC   =   100.;   INIMIX=   1;  MIXPRE=   1;  MAXMIX= -45

 Intra band minimization:
   WEIMIN = 0.0000     energy-eigenvalue tresh-hold
   EBREAK =  0.31E-09  absolut break condition
   DEPER  =   0.30     relativ break condition  

   TIME   =   0.40     timestep for ELM

  volume/ion in A,a.u.               =      74.22       500.84
  Fermi-wavevector in a.u.,A,eV,Ry     =   0.618386  1.168580  5.202883  0.382401
  Thomas-Fermi vector in A             =   1.676809
 
 Write flags
   LWAVE        =      F    write WAVECAR
   LDOWNSAMPLE  =      F    k-point downsampling of WAVECAR
   LCHARG       =      F    write CHGCAR
   LVTOT        =      F    write LOCPOT, total local potential
   LVHAR        =      F    write LOCPOT, Hartree potential only
   LELF         =      F    write electronic localiz. function (ELF)
   LORBIT       =      0    0 simple, 1 ext, 2 COOP (PROOUT), +10 PAW based schemes


 Dipole corrections
   LMONO  =      F    monopole corrections only (constant potential shift)
   LDIPOL =      F    correct potential (dipole corrections)
   IDIPOL =      0    1-x, 2-y, 3-z, 4-all directions 
   EPSILON=  1.0000000 bulk dielectric constant

 Exchange correlation treatment:
   GGA     =    --    GGA type
   LEXCH   =     8    internal setting for exchange type
   LIBXC   =     F    Libxc                    
   VOSKOWN =     0    Vosko Wilk Nusair interpolation
   LHFCALC =     F    Hartree Fock is set to
   LHFONE  =     F    Hartree Fock one center treatment
   AEXX    =    0.0000 exact exchange contribution

 Linear response parameters
   LEPSILON=     F    determine dielectric tensor
   LRPA    =     F    only Hartree local field effects (RPA)
   LNABLA  =     F    use nabla operator in PAW spheres
   LVEL    =     F    velocity operator in full k-point grid
   CSHIFT  =0.1000    complex shift for real part using Kramers Kronig
   OMEGAMAX=  -1.0    maximum frequency
   DEG_THRESHOLD= 0.2000000E-02 threshold for treating states as degnerate
   RTIME   =   -0.100 relaxation time in fs
  (WPLASMAI=    0.000 imaginary part of plasma frequency in eV, 0.658/RTIME)
   DFIELD  = 0.0000000 0.0000000 0.0000000 field for delta impulse in time
 
  Optional k-point grid parameters
   LKPOINTS_OPT  =     F    use optional k-point grid
   KPOINTS_OPT_MODE=     1    mode for optional k-point grid
 
 Orbital magnetization related:
   ORBITALMAG=     F  switch on orbital magnetization
   LCHIMAG   =     F  perturbation theory with respect to B field
   DQ        =  0.001000  dq finite difference perturbation B field
   LLRAUG    =     F  two centre corrections for induced B field



--------------------------------------------------------------------------------------------------------


 Static calculation
 charge density and potential will be updated during run
 non-spin polarized calculation
 Variant of blocked Davidson
 Davidson routine will perform the subspace rotation
 perform sub-space diagonalisation
    after iterative eigenvector-optimisation
 modified Broyden-mixing scheme, WC =      100.0
 initial mixing is a Kerker type mixing with AMIX =  0.4000 and BMIX =      1.0000
 Hartree-type preconditioning will be used
 using additional bands            4
 reciprocal scheme for non local part
 use partial core corrections
 calculate Harris-corrections to forces 
   (improved forces if not selfconsistent)
 use gradient corrections 
 use of overlap-Matrix (Vanderbilt PP)
 Gauss-broadening in eV      SIGMA  =   0.05


--------------------------------------------------------------------------------------------------------


  energy-cutoff  :      520.00
  volume of cell :      148.43
      direct lattice vectors                 reciprocal lattice vectors
     3.380303957  0.000000000  0.000000000     0.295831385  0.170793394  0.000000000
    -1.690112131  2.927444676  0.000000000     0.000000000  0.341594841  0.000000000
     0.000000000  0.000000000 15.000000000     0.000000000  0.000000000  0.066666667

  length of vectors
     3.380303957  3.380297524 15.000000000     0.341594191  0.341594841  0.066666667


 
 k-points in units of 2pi/SCALE and weight: K-Spacing Value to Generate K-Mesh: 0.03
   0.00000000  0.00000000  0.00000000       0.007
   0.02465262  0.01423278  0.00000000       0.014
   0.04930523  0.02846557  0.00000000       0.014
   0.07395785  0.04269835  0.00000000       0.014
   0.09861046  0.05693113  0.00000000       0.014
   0.12326308  0.07116391  0.00000000       0.014
   0.14791569  0.08539670  0.00000000       0.007
   0.00000000  0.02846624  0.00000000       0.014
   0.02465262  0.04269902  0.00000000       0.014
   0.04930523  0.05693180  0.00000000       0.014
   0.07395785  0.07116459  0.00000000       0.014
   0.09861046  0.08539737  0.00000000       0.014
   0.12326308  0.09963015  0.00000000       0.014
   0.14791569  0.11386293  0.00000000       0.014
  -0.12326308 -0.04269768  0.00000000       0.014
  -0.09861046 -0.02846489  0.00000000       0.014
  -0.07395785 -0.01423211  0.00000000       0.014
  -0.04930523  0.00000067  0.00000000       0.014
  -0.02465262  0.01423345  0.00000000       0.014
   0.00000000  0.05693247  0.00000000       0.014
   0.02465262  0.07116526  0.00000000       0.014
   0.04930523  0.08539804  0.00000000       0.014
   0.07395785  0.09963082  0.00000000       0.014
   0.09861046  0.11386360  0.00000000       0.014
   0.12326308  0.12809639  0.00000000       0.014
   0.14791569  0.14232917  0.00000000       0.014
  -0.12326308 -0.01423144  0.00000000       0.014
  -0.09861046  0.00000134  0.00000000       0.014
  -0.07395785  0.01423413  0.00000000       0.014
  -0.04930523  0.02846691  0.00000000       0.014
  -0.02465262  0.04269969  0.00000000       0.014
   0.00000000  0.08539871  0.00000000       0.014
   0.02465262  0.09963149  0.00000000       0.014
   0.04930523  0.11386428  0.00000000       0.014
   0.07395785  0.12809706  0.00000000       0.014
   0.09861046  0.14232984  0.00000000       0.014
   0.12326308  0.15656262  0.00000000       0.014
   0.14791569  0.17079541  0.00000000       0.014
  -0.12326308  0.01423480  0.00000000       0.014
  -0.09861046  0.02846758  0.00000000       0.014
  -0.07395785  0.04270036  0.00000000       0.014
  -0.04930523  0.05693314  0.00000000       0.014
  -0.02465262  0.07116593  0.00000000       0.014
   0.00000000  0.11386495  0.00000000       0.014
   0.02465262  0.12809773  0.00000000       0.014
   0.04930523  0.14233051  0.00000000       0.014
   0.07395785  0.15656330  0.00000000       0.014
   0.09861046  0.17079608  0.00000000       0.014
   0.12326308  0.18502886  0.00000000       0.014
   0.14791569  0.19926164  0.00000000       0.014
  -0.12326308  0.04270103  0.00000000       0.014
  -0.09861046  0.05693382  0.00000000       0.014
  -0.07395785  0.07116660  0.00000000       0.014
  -0.04930523  0.08539938  0.00000000       0.014
  -0.02465262  0.09963216  0.00000000       0.014
   0.00000000  0.14233118  0.00000000       0.014
   0.02465262  0.15656397  0.00000000       0.014
   0.04930523  0.17079675  0.00000000       0.014
   0.07395785  0.18502953  0.00000000       0.014
   0.09861046  0.19926232  0.00000000       0.014
   0.12326308  0.21349510  0.00000000       0.014
   0.14791569  0.22772788  0.00000000       0.014
  -0.12326308  0.07116727  0.00000000       0.014
  -0.09861046  0.08540005  0.00000000       0.014
  -0.07395785  0.09963284  0.00000000       0.014
  -0.04930523  0.11386562  0.00000000       0.014
  -0.02465262  0.12809840  0.00000000       0.014
   0.00000000  0.17079742  0.00000000       0.007
   0.02465262  0.18503020  0.00000000       0.014
   0.04930523  0.19926299  0.00000000       0.014
   0.07395785  0.21349577  0.00000000       0.014
   0.09861046  0.22772855  0.00000000       0.014
   0.12326308  0.24196133  0.00000000       0.014
   0.14791569  0.25619412  0.00000000       0.007
 
 k-points in reciprocal lattice and weights: K-Spacing Value to Generate K-Mesh: 0.03
   0.00000000  0.00000000  0.00000000       0.007
   0.08333333 -0.00000000  0.00000000       0.014
   0.16666667 -0.00000000  0.00000000       0.014
   0.25000000 -0.00000000  0.00000000       0.014
   0.33333333  0.00000000  0.00000000       0.014
   0.41666667 -0.00000000  0.00000000       0.014
   0.50000000 -0.00000000  0.00000000       0.007
   0.00000000  0.08333333  0.00000000       0.014
   0.08333333  0.08333333  0.00000000       0.014
   0.16666667  0.08333333  0.00000000       0.014
   0.25000000  0.08333333  0.00000000       0.014
   0.33333333  0.08333333  0.00000000       0.014
   0.41666667  0.08333333  0.00000000       0.014
   0.50000000  0.08333333  0.00000000       0.014
  -0.41666667  0.08333333  0.00000000       0.014
  -0.33333333  0.08333333  0.00000000       0.014
  -0.25000000  0.08333333  0.00000000       0.014
  -0.16666667  0.08333333  0.00000000       0.014
  -0.08333333  0.08333333  0.00000000       0.014
   0.00000000  0.16666667  0.00000000       0.014
   0.08333333  0.16666667  0.00000000       0.014
   0.16666667  0.16666667  0.00000000       0.014
   0.25000000  0.16666667  0.00000000       0.014
   0.33333333  0.16666667  0.00000000       0.014
   0.41666667  0.16666667  0.00000000       0.014
   0.50000000  0.16666667  0.00000000       0.014
  -0.41666667  0.16666667  0.00000000       0.014
  -0.33333333  0.16666667  0.00000000       0.014
  -0.25000000  0.16666667  0.00000000       0.014
  -0.16666667  0.16666667  0.00000000       0.014
  -0.08333333  0.16666667  0.00000000       0.014
   0.00000000  0.25000000  0.00000000       0.014
   0.08333333  0.25000000  0.00000000       0.014
   0.16666667  0.25000000  0.00000000       0.014
   0.25000000  0.25000000  0.00000000       0.014
   0.33333333  0.25000000  0.00000000       0.014
   0.41666667  0.25000000  0.00000000       0.014
   0.50000000  0.25000000  0.00000000       0.014
  -0.41666667  0.25000000  0.00000000       0.014
  -0.33333333  0.25000000  0.00000000       0.014
  -0.25000000  0.25000000  0.00000000       0.014
  -0.16666667  0.25000000  0.00000000       0.014
  -0.08333333  0.25000000  0.00000000       0.014
   0.00000000  0.33333333  0.00000000       0.014
   0.08333333  0.33333333  0.00000000       0.014
   0.16666667  0.33333333  0.00000000       0.014
   0.25000000  0.33333333  0.00000000       0.014
   0.33333333  0.33333333  0.00000000       0.014
   0.41666667  0.33333333  0.00000000       0.014
   0.50000000  0.33333333  0.00000000       0.014
  -0.41666667  0.33333333  0.00000000       0.014
  -0.33333333  0.33333333  0.00000000       0.014
  -0.25000000  0.33333333  0.00000000       0.014
  -0.16666667  0.33333333  0.00000000       0.014
  -0.08333333  0.33333333  0.00000000       0.014
   0.00000000  0.41666667  0.00000000       0.014
   0.08333333  0.41666667  0.00000000       0.014
   0.16666667  0.41666667  0.00000000       0.014
   0.25000000  0.41666667  0.00000000       0.014
   0.33333333  0.41666667  0.00000000       0.014
   0.41666667  0.41666667  0.00000000       0.014
   0.50000000  0.41666667  0.00000000       0.014
  -0.41666667  0.41666667  0.00000000       0.014
  -0.33333333  0.41666667  0.00000000       0.014
  -0.25000000  0.41666667  0.00000000       0.014
  -0.16666667  0.41666667  0.00000000       0.014
  -0.08333333  0.41666667  0.00000000       0.014
   0.00000000  0.50000000  0.00000000       0.007
   0.08333333  0.50000000  0.00000000       0.014
   0.16666667  0.50000000  0.00000000       0.014
   0.25000000  0.50000000  0.00000000       0.014
   0.33333333  0.50000000  0.00000000       0.014
   0.41666667  0.50000000  0.00000000       0.014
   0.50000000  0.50000000  0.00000000       0.007
 
 position of ions in fractional coordinates (direct lattice) 
   0.00000000  0.00000000  0.50000000
   0.66666885  0.33333464  0.50000000
 
 position of ions in cartesian coordinates  (Angst):
   0.00000000  0.00000000  7.50000000
   1.69017042  0.97581871  7.50000000
 


--------------------------------------------------------------------------------------------------------


 k-point   1 :   0.0000 0.0000 0.0000  plane waves:    4015
 k-point   2 :   0.0833-0.0000 0.0000  plane waves:    4021
 k-point   3 :   0.1667-0.0000 0.0000  plane waves:    3987
 k-point   4 :   0.2500-0.0000 0.0000  plane waves:    3999
 k-point   5 :   0.3333 0.0000 0.0000  plane waves:    4005
 k-point   6 :   0.4167-0.0000 0.0000  plane waves:    4001
 k-point   7 :   0.5000-0.0000 0.0000  plane waves:    4020
 k-point   8 :   0.0000 0.0833 0.0000  plane waves:    4021
 k-point   9 :   0.0833 0.0833 0.0000  plane waves:    4003
 k-point  10 :   0.1667 0.0833 0.0000  plane waves:    4006
 k-point  11 :   0.2500 0.0833 0.0000  plane waves:    4000
 k-point  12 :   0.3333 0.0833 0.0000  plane waves:    3999
 k-point  13 :   0.4167 0.0833 0.0000  plane waves:    4000
 k-point  14 :   0.5000 0.0833 0.0000  plane waves:    4000
 k-point  15 :  -0.4167 0.0833 0.0000  plane waves:    3999
 k-point  16 :  -0.3333 0.0833 0.0000  plane waves:    4000
 k-point  17 :  -0.2500 0.0833 0.0000  plane waves:    4006
 k-point  18 :  -0.1667 0.0833 0.0000  plane waves:    4003
 k-point  19 :  -0.0833 0.0833 0.0000  plane waves:    4021
 k-point  20 :   0.0000 0.1667 0.0000  plane waves:    3987
 k-point  21 :   0.0833 0.1667 0.0000  plane waves:    4006
 k-point  22 :   0.1667 0.1667 0.0000  plane waves:    4008
 k-point  23 :   0.2500 0.1667 0.0000  plane waves:    4001
 k-point  24 :   0.3333 0.1667 0.0000  plane waves:    3987
 k-point  25 :   0.4167 0.1667 0.0000  plane waves:    3990
 k-point  26 :   0.5000 0.1667 0.0000  plane waves:    3987
 k-point  27 :  -0.4167 0.1667 0.0000  plane waves:    4001
 k-point  28 :  -0.3333 0.1667 0.0000  plane waves:    4008
 k-point  29 :  -0.2500 0.1667 0.0000  plane waves:    4006
 k-point  30 :  -0.1667 0.1667 0.0000  plane waves:    3987
 k-point  31 :  -0.0833 0.1667 0.0000  plane waves:    4003
 k-point  32 :   0.0000 0.2500 0.0000  plane waves:    3999
 k-point  33 :   0.0833 0.2500 0.0000  plane waves:    4000
 k-point  34 :   0.1667 0.2500 0.0000  plane waves:    4001
 k-point  35 :   0.2500 0.2500 0.0000  plane waves:    3986
 k-point  36 :   0.3333 0.2500 0.0000  plane waves:    3967
 k-point  37 :   0.4167 0.2500 0.0000  plane waves:    3967
 k-point  38 :   0.5000 0.2500 0.0000  plane waves:    3986
 k-point  39 :  -0.4167 0.2500 0.0000  plane waves:    4001
 k-point  40 :  -0.3333 0.2500 0.0000  plane waves:    4000
 k-point  41 :  -0.2500 0.2500 0.0000  plane waves:    3999
 k-point  42 :  -0.1667 0.2500 0.0000  plane waves:    4006
 k-point  43 :  -0.0833 0.2500 0.0000  plane waves:    4006
 k-point  44 :   0.0000 0.3333 0.0000  plane waves:    4005
 k-point  45 :   0.0833 0.3333 0.0000  plane waves:    3999
 k-point  46 :   0.1667 0.3333 0.0000  plane waves:    3987
 k-point  47 :   0.2500 0.3333 0.0000  plane waves:    3967
 k-point  48 :   0.3333 0.3333 0.0000  plane waves:    3954
 k-point  49 :   0.4167 0.3333 0.0000  plane waves:    3967
 k-point  50 :   0.5000 0.3333 0.0000  plane waves:    3987
 k-point  51 :  -0.4167 0.3333 0.0000  plane waves:    3999
 k-point  52 :  -0.3333 0.3333 0.0000  plane waves:    4005
 k-point  53 :  -0.2500 0.3333 0.0000  plane waves:    4000
 k-point  54 :  -0.1667 0.3333 0.0000  plane waves:    4008
 k-point  55 :  -0.0833 0.3333 0.0000  plane waves:    4000
 k-point  56 :   0.0000 0.4167 0.0000  plane waves:    4001
 k-point  57 :   0.0833 0.4167 0.0000  plane waves:    4000
 k-point  58 :   0.1667 0.4167 0.0000  plane waves:    3990
 k-point  59 :   0.2500 0.4167 0.0000  plane waves:    3967
 k-point  60 :   0.3333 0.4167 0.0000  plane waves:    3967
 k-point  61 :   0.4167 0.4167 0.0000  plane waves:    3990
 k-point  62 :   0.5000 0.4167 0.0000  plane waves:    4000
 k-point  63 :  -0.4167 0.4167 0.0000  plane waves:    4001
 k-point  64 :  -0.3333 0.4167 0.0000  plane waves:    3999
 k-point  65 :  -0.2500 0.4167 0.0000  plane waves:    4001
 k-point  66 :  -0.1667 0.4167 0.0000  plane waves:    4001
 k-point  67 :  -0.0833 0.4167 0.0000  plane waves:    3999
 k-point  68 :   0.0000 0.5000 0.0000  plane waves:    4020
 k-point  69 :   0.0833 0.5000 0.0000  plane waves:    4000
 k-point  70 :   0.1667 0.5000 0.0000  plane waves:    3987
 k-point  71 :   0.2500 0.5000 0.0000  plane waves:    3986
 k-point  72 :   0.3333 0.5000 0.0000  plane waves:    3987
 k-point  73 :   0.4167 0.5000 0.0000  plane waves:    4000
 k-point  74 :   0.5000 0.5000 0.0000  plane waves:    4020

 maximum and minimum number of plane-waves per node :       297      273

 maximum number of plane-waves:      4021
 maximum index in each direction: 
   IXMAX=    6   IYMAX=    6   IZMAX=   27
   IXMIN=   -6   IYMIN=   -6   IZMIN=  -27


 parallel 3D FFT for wavefunctions:
    minimum data exchange during FFTs selected (reduces bandwidth)
 parallel 3D FFT for charge:
    minimum data exchange during FFTs selected (reduces bandwidth)


 total amount of memory used by VASP MPI-rank0    38096. kBytes
=======================================================================

   base      :      30000. kBytes
   nonl-proj :       1373. kBytes
   fftplans  :       3856. kBytes
   grid      :       1463. kBytes
   one-center:          3. kBytes
   wavefun   :       1401. kBytes
 
     INWAV:  cpu time      0.0000: real time      0.0001
 Broyden mixing: mesh for mixing (old mesh)
   NGX = 13   NGY = 13   NGZ = 55
  (NGX  = 56   NGY  = 56   NGZ  =224)
  gives a total of   9295 points

 initial charge density was supplied:
 charge density of overlapping atoms calculated
 number of electron       8.0000000 magnetization 
 keeping initial charge density in first step


--------------------------------------------------------------------------------------------------------


 Maximum index for augmentation-charges         2110 (set IRDMAX)


--------------------------------------------------------------------------------------------------------


 First call to EWALD:  gamma=   0.335
 Maximum number of real-space cells 5x 5x 1
 Maximum number of reciprocal cells 2x 2x 7

    FEWALD:  cpu time      0.0013: real time      0.0013


--------------------------------------- Iteration      1(   1)  ---------------------------------------


    POTLOK:  cpu time      0.0179: real time      0.0236
    SETDIJ:  cpu time      0.0114: real time      0.0115
     EDDAV:  cpu time      0.4886: real time      0.4906
       DOS:  cpu time      0.0016: real time      0.0016
    --------------------------------------------
      LOOP:  cpu time      0.5195: real time      0.5273

 eigenvalue-minimisations  :  1184
 total energy-change (2. order) : 0.4253589E+02  (-0.2626780E+03)
 number of electron       8.0000000 magnetization 
 augmentation part        8.0000000 magnetization 

 Free energy of the ion-electron system (eV)
  ---------------------------------------------------
  alpha Z        PSCENC =         2.21367820
  Ewald energy   TEWEN  =       339.14950735
  -Hartree energ DENC   =      -582.05910818
  -exchange      EXHF   =         0.00000000
  -V(xc)+E(xc)   XCENC  =        23.09836304
  PAW double counting   =       217.04409276     -218.18290438
  entropy T*S    EENTRO =        -0.00225521
  eigenvalues    EBANDS =       -33.02327092
  atomic energy  EATOM  =       294.29778662
  Solvation  Ediel_sol  =         0.00000000
  ---------------------------------------------------
  free energy    TOTEN  =        42.53588929 eV

  energy without entropy =       42.53814451  energy(sigma->0) =       42.53701690


--------------------------------------------------------------------------------------------------------




--------------------------------------- Iteration      1(   2)  ---------------------------------------


     EDDAV:  cpu time      0.7095: real time      0.7135
       DOS:  cpu time      0.0013: real time      0.0013
    --------------------------------------------
      LOOP:  cpu time      0.7108: real time      0.7148

 eigenvalue-minimisations  :  2104
 total energy-change (2. order) :-0.5001746E+02  (-0.4733425E+02)
 number of electron       8.0000000 magnetization 
 augmentation part        8.0000000 magnetization 

 Free energy of the ion-electron system (eV)
  ---------------------------------------------------
  alpha Z        PSCENC =         2.21367820
  Ewald energy   TEWEN  =       339.14950735
  -Hartree energ DENC   =      -582.05910818
  -exchange      EXHF   =         0.00000000
  -V(xc)+E(xc)   XCENC  =        23.09836304
  PAW double counting   =       217.04409276     -218.18290438
  entropy T*S    EENTRO =        -0.00040209
  eigenvalues    EBANDS =       -83.04258366
  atomic energy  EATOM  =       294.29778662
  Solvation  Ediel_sol  =         0.00000000
  ---------------------------------------------------
  free energy    TOTEN  =        -7.48157032 eV

  energy without entropy =       -7.48116823  energy(sigma->0) =       -7.48136928


--------------------------------------------------------------------------------------------------------




--------------------------------------- Iteration      1(   3)  ---------------------------------------


     EDDAV:  cpu time      0.6166: real time      0.6200
       DOS:  cpu time      0.0013: real time      0.0013
    --------------------------------------------
      LOOP:  cpu time      0.6179: real time      0.6213

 eigenvalue-minimisations  :  1640
 total energy-change (2. order) :-0.3398557E+01  (-0.3340461E+01)
 number of electron       8.0000000 magnetization 
 augmentation part        8.0000000 magnetization 

 Free energy of the ion-electron system (eV)
  ---------------------------------------------------
  alpha Z        PSCENC =         2.21367820
  Ewald energy   TEWEN  =       339.14950735
  -Hartree energ DENC   =      -582.05910818
  -exchange      EXHF   =         0.00000000
  -V(xc)+E(xc)   XCENC  =        23.09836304
  PAW double counting   =       217.04409276     -218.18290438
  entropy T*S    EENTRO =        -0.00229308
  eigenvalues    EBANDS =       -86.43924942
  atomic energy  EATOM  =       294.29778662
  Solvation  Ediel_sol  =         0.00000000
  ---------------------------------------------------
  free energy    TOTEN  =       -10.88012707 eV

  energy without entropy =      -10.87783399  energy(sigma->0) =      -10.87898053


--------------------------------------------------------------------------------------------------------




--------------------------------------- Iteration      1(   4)  ---------------------------------------


     EDDAV:  cpu time      0.8069: real time      0.8112
       DOS:  cpu time      0.0015: real time      0.0015
    --------------------------------------------
      LOOP:  cpu time      0.8084: real time      0.8127

 eigenvalue-minimisations  :  2000
 total energy-change (2. order) :-0.5647430E-01  (-0.5646830E-01)
 number of electron       8.0000000 magnetization 
 augmentation part        8.0000000 magnetization 

 Free energy of the ion-electron system (eV)
  ---------------------------------------------------
  alpha Z        PSCENC =         2.21367820
  Ewald energy   TEWEN  =       339.14950735
  -Hartree energ DENC   =      -582.05910818
  -exchange      EXHF   =         0.00000000
  -V(xc)+E(xc)   XCENC  =        23.09836304
  PAW double counting   =       217.04409276     -218.18290438
  entropy T*S    EENTRO =        -0.00229929
  eigenvalues    EBANDS =       -86.49571750
  atomic energy  EATOM  =       294.29778662
  Solvation  Ediel_sol  =         0.00000000
  ---------------------------------------------------
  free energy    TOTEN  =       -10.93660136 eV

  energy without entropy =      -10.93430207  energy(sigma->0) =      -10.93545172


--------------------------------------------------------------------------------------------------------




--------------------------------------- Iteration      1(   5)  ---------------------------------------


     EDDAV:  cpu time      0.6431: real time      0.6474
       DOS:  cpu time      0.0019: real time      0.0019
    CHARGE:  cpu time      0.0404: real time      0.0405
    MIXING:  cpu time      0.0043: real time      0.0043
    --------------------------------------------
      LOOP:  cpu time      0.6897: real time      0.6941

 eigenvalue-minimisations  :  1648
 total energy-change (2. order) :-0.9684406E-04  (-0.9680986E-04)
 number of electron       8.0000000 magnetization 
 augmentation part        0.0399970 magnetization 

 Broyden mixing:
  rms(total) = 0.19548E+00    rms(broyden)= 0.19539E+00
  rms(prec ) = 0.20993E+00
  weight for this iteration     100.00

 Free energy of the ion-electron system (eV)
  ---------------------------------------------------
  alpha Z        PSCENC =         2.21367820
  Ewald energy   TEWEN  =       339.14950735
  -Hartree energ DENC   =      -582.05910818
  -exchange      EXHF   =         0.00000000
  -V(xc)+E(xc)   XCENC  =        23.09836304
  PAW double counting   =       217.04409276     -218.18290438
  entropy T*S    EENTRO =        -0.00229931
  eigenvalues    EBANDS =       -86.49581432
  atomic energy  EATOM  =       294.29778662
  Solvation  Ediel_sol  =         0.00000000
  ---------------------------------------------------
  free energy    TOTEN  =       -10.93669821 eV

  energy without entropy =      -10.93439889  energy(sigma->0) =      -10.93554855


--------------------------------------------------------------------------------------------------------




--------------------------------------- Iteration      1(   6)  ---------------------------------------


    POTLOK:  cpu time      0.0132: real time      0.0132
    SETDIJ:  cpu time      0.0155: real time      0.0155
     EDDAV:  cpu time      0.7457: real time      0.7475
       DOS:  cpu time      0.0014: real time      0.0014
    CHARGE:  cpu time      0.0316: real time      0.0317
    MIXING:  cpu time      0.0031: real time      0.0032
    --------------------------------------------
      LOOP:  cpu time      0.8105: real time      0.8126

 eigenvalue-minimisations  :  1992
 total energy-change (2. order) :-0.8930798E-02  (-0.4164068E-03)
 number of electron       8.0000000 magnetization 
 augmentation part        0.0402725 magnetization 

 Broyden mixing:
  rms(total) = 0.11830E+00    rms(broyden)= 0.11830E+00
  rms(prec ) = 0.12767E+00
  weight for this iteration     100.00

 eigenvalues of (default mixing * dielectric matrix)
  average eigenvalue GAMMA=   2.4865
  2.4865

 Free energy of the ion-electron system (eV)
  ---------------------------------------------------
  alpha Z        PSCENC =         2.21367820
  Ewald energy   TEWEN  =       339.14950735
  -Hartree energ DENC   =      -582.14581110
  -exchange      EXHF   =         0.00000000
  -V(xc)+E(xc)   XCENC  =        23.09312926
  PAW double counting   =       239.68916105     -240.80890571
  entropy T*S    EENTRO =        -0.00229931
  eigenvalues    EBANDS =       -86.43187538
  atomic energy  EATOM  =       294.29778662
  Solvation  Ediel_sol  =         0.00000000
  ---------------------------------------------------
  free energy    TOTEN  =       -10.94562900 eV

  energy without entropy =      -10.94332969  energy(sigma->0) =      -10.94447935


--------------------------------------------------------------------------------------------------------




--------------------------------------- Iteration      1(   7)  ---------------------------------------


    POTLOK:  cpu time      0.0191: real time      0.0193
    SETDIJ:  cpu time      0.0095: real time      0.0095
     EDDAV:  cpu time      0.6966: real time      0.6986
       DOS:  cpu time      0.0015: real time      0.0015
    CHARGE:  cpu time      0.0295: real time      0.0295
    MIXING:  cpu time      0.0026: real time      0.0026
    --------------------------------------------
      LOOP:  cpu time      0.7588: real time      0.7610

 eigenvalue-minimisations  :  2064
 total energy-change (2. order) :-0.6015574E-02  (-0.8865947E-03)
 number of electron       8.0000000 magnetization 
 augmentation part        0.0404621 magnetization 

 Broyden mixing:
  rms(total) = 0.12667E-01    rms(broyden)= 0.12655E-01
  rms(prec ) = 0.13809E-01
  weight for this iteration     100.00

 eigenvalues of (default mixing * dielectric matrix)
  average eigenvalue GAMMA=   2.3921
  2.3921  2.3921

 Free energy of the ion-electron system (eV)
  ---------------------------------------------------
  alpha Z        PSCENC =         2.21367820
  Ewald energy   TEWEN  =       339.14950735
  -Hartree energ DENC   =      -582.60635442
  -exchange      EXHF   =         0.00000000
  -V(xc)+E(xc)   XCENC  =        23.11702499
  PAW double counting   =       271.52144302     -272.62004962
  entropy T*S    EENTRO =        -0.00229931
  eigenvalues    EBANDS =       -86.02238140
  atomic energy  EATOM  =       294.29778662
  Solvation  Ediel_sol  =         0.00000000
  ---------------------------------------------------
  free energy    TOTEN  =       -10.95164458 eV

  energy without entropy =      -10.94934526  energy(sigma->0) =      -10.95049492


--------------------------------------------------------------------------------------------------------




--------------------------------------- Iteration      1(   8)  ---------------------------------------


    POTLOK:  cpu time      0.0215: real time      0.0217
    SETDIJ:  cpu time      0.0126: real time      0.0126
     EDDAV:  cpu time      0.8156: real time      0.8181
       DOS:  cpu time      0.0013: real time      0.0013
    CHARGE:  cpu time      0.0332: real time      0.0333
    MIXING:  cpu time      0.0032: real time      0.0032
    --------------------------------------------
      LOOP:  cpu time      0.8875: real time      0.8902

 eigenvalue-minimisations  :  2248
 total energy-change (2. order) :-0.2444079E-03  (-0.8921553E-04)
 number of electron       8.0000000 magnetization 
 augmentation part        0.0403403 magnetization 

 Broyden mixing:
  rms(total) = 0.24756E-02    rms(broyden)= 0.24751E-02
  rms(prec ) = 0.29926E-02
  weight for this iteration     100.00

 eigenvalues of (default mixing * dielectric matrix)
  average eigenvalue GAMMA=   1.9519
  0.9734  2.6857  2.1965

 Free energy of the ion-electron system (eV)
  ---------------------------------------------------
  alpha Z        PSCENC =         2.21367820
  Ewald energy   TEWEN  =       339.14950735
  -Hartree energ DENC   =      -582.94040483
  -exchange      EXHF   =         0.00000000
  -V(xc)+E(xc)   XCENC  =        23.13888681
  PAW double counting   =       264.90430897     -266.00988398
  entropy T*S    EENTRO =        -0.00229931
  eigenvalues    EBANDS =       -85.70346882
  atomic energy  EATOM  =       294.29778662
  Solvation  Ediel_sol  =         0.00000000
  ---------------------------------------------------
  free energy    TOTEN  =       -10.95188899 eV

  energy without entropy =      -10.94958967  energy(sigma->0) =      -10.95073933


--------------------------------------------------------------------------------------------------------




--------------------------------------- Iteration      1(   9)  ---------------------------------------


    POTLOK:  cpu time      0.0192: real time      0.0215
    SETDIJ:  cpu time      0.0090: real time      0.0090
     EDDAV:  cpu time      0.7569: real time      0.7588
       DOS:  cpu time      0.0017: real time      0.0017
    CHARGE:  cpu time      0.0274: real time      0.0274
    MIXING:  cpu time      0.0037: real time      0.0037
    --------------------------------------------
      LOOP:  cpu time      0.8179: real time      0.8222

 eigenvalue-minimisations  :  2232
 total energy-change (2. order) :-0.4154904E-04  (-0.2321797E-05)
 number of electron       8.0000000 magnetization 
 augmentation part        0.0403517 magnetization 

 Broyden mixing:
  rms(total) = 0.12102E-02    rms(broyden)= 0.12100E-02
  rms(prec ) = 0.16275E-02
  weight for this iteration     100.00

 eigenvalues of (default mixing * dielectric matrix)
  average eigenvalue GAMMA=   1.9304
  2.8309  2.1461  1.8994  0.8454

 Free energy of the ion-electron system (eV)
  ---------------------------------------------------
  alpha Z        PSCENC =         2.21367820
  Ewald energy   TEWEN  =       339.14950735
  -Hartree energ DENC   =      -582.97726767
  -exchange      EXHF   =         0.00000000
  -V(xc)+E(xc)   XCENC  =        23.14022596
  PAW double counting   =       264.75266086     -265.85763500
  entropy T*S    EENTRO =        -0.00229931
  eigenvalues    EBANDS =       -85.66858755
  atomic energy  EATOM  =       294.29778662
  Solvation  Ediel_sol  =         0.00000000
  ---------------------------------------------------
  free energy    TOTEN  =       -10.95193054 eV

  energy without entropy =      -10.94963122  energy(sigma->0) =      -10.95078088


--------------------------------------------------------------------------------------------------------




--------------------------------------- Iteration      1(  10)  ---------------------------------------


    POTLOK:  cpu time      0.0143: real time      0.0144
    SETDIJ:  cpu time      0.0131: real time      0.0132
     EDDAV:  cpu time      0.8189: real time      0.8212
       DOS:  cpu time      0.0013: real time      0.0013
    CHARGE:  cpu time      0.0272: real time      0.0272
    MIXING:  cpu time      0.0025: real time      0.0025
    --------------------------------------------
      LOOP:  cpu time      0.8773: real time      0.8799

 eigenvalue-minimisations  :  2232
 total energy-change (2. order) :-0.3425488E-04  (-0.2519342E-05)
 number of electron       8.0000000 magnetization 
 augmentation part        0.0403587 magnetization 

 Broyden mixing:
  rms(total) = 0.83814E-03    rms(broyden)= 0.83780E-03
  rms(prec ) = 0.12208E-02
  weight for this iteration     100.00

 eigenvalues of (default mixing * dielectric matrix)
  average eigenvalue GAMMA=   1.7969
  2.9171  2.5334  2.0794  0.9523  0.5021

 Free energy of the ion-electron system (eV)
  ---------------------------------------------------
  alpha Z        PSCENC =         2.21367820
  Ewald energy   TEWEN  =       339.14950735
  -Hartree energ DENC   =      -583.01012666
  -exchange      EXHF   =         0.00000000
  -V(xc)+E(xc)   XCENC  =        23.14074935
  PAW double counting   =       264.35018635     -265.45472377
  entropy T*S    EENTRO =        -0.00229931
  eigenvalues    EBANDS =       -85.63672293
  atomic energy  EATOM  =       294.29778662
  Solvation  Ediel_sol  =         0.00000000
  ---------------------------------------------------
  free energy    TOTEN  =       -10.95196479 eV

  energy without entropy =      -10.94966548  energy(sigma->0) =      -10.95081513


--------------------------------------------------------------------------------------------------------




--------------------------------------- Iteration      1(  11)  ---------------------------------------


    POTLOK:  cpu time      0.0134: real time      0.0152
    SETDIJ:  cpu time      0.0082: real time      0.0082
     EDDAV:  cpu time      0.8745: real time      0.8773
       DOS:  cpu time      0.0014: real time      0.0014
    CHARGE:  cpu time      0.0360: real time      0.0361
    MIXING:  cpu time      0.0033: real time      0.0033
    --------------------------------------------
      LOOP:  cpu time      0.9368: real time      0.9415

 eigenvalue-minimisations  :  2312
 total energy-change (2. order) :-0.1867706E-04  (-0.1063596E-05)
 number of electron       8.0000000 magnetization 
 augmentation part        0.0403604 magnetization 

 Broyden mixing:
  rms(total) = 0.19350E-03    rms(broyden)= 0.19319E-03
  rms(prec ) = 0.60059E-03
  weight for this iteration     100.00

 eigenvalues of (default mixing * dielectric matrix)
  average eigenvalue GAMMA=   1.8243
  3.0654  2.6564  0.9883  2.0632  1.6674  0.5050

 Free energy of the ion-electron system (eV)
  ---------------------------------------------------
  alpha Z        PSCENC =         2.21367820
  Ewald energy   TEWEN  =       339.14950735
  -Hartree energ DENC   =      -583.03805430
  -exchange      EXHF   =         0.00000000
  -V(xc)+E(xc)   XCENC  =        23.14115764
  PAW double counting   =       264.07727363     -265.18161358
  entropy T*S    EENTRO =        -0.00229931
  eigenvalues    EBANDS =       -85.60941973
  atomic energy  EATOM  =       294.29778662
  Solvation  Ediel_sol  =         0.00000000
  ---------------------------------------------------
  free energy    TOTEN  =       -10.95198347 eV

  energy without entropy =      -10.94968415  energy(sigma->0) =      -10.95083381


--------------------------------------------------------------------------------------------------------




--------------------------------------- Iteration      1(  12)  ---------------------------------------


    POTLOK:  cpu time      0.0184: real time      0.0186
    SETDIJ:  cpu time      0.0187: real time      0.0187
     EDDAV:  cpu time      0.9681: real time      0.9706
       DOS:  cpu time      0.0016: real time      0.0016
    CHARGE:  cpu time      0.0316: real time      0.0316
    MIXING:  cpu time      0.0023: real time      0.0023
    --------------------------------------------
      LOOP:  cpu time      1.0406: real time      1.0435

 eigenvalue-minimisations  :  2272
 total energy-change (2. order) :-0.2474468E-04  (-0.5831159E-06)
 number of electron       8.0000000 magnetization 
 augmentation part        0.0403530 magnetization 

 Broyden mixing:
  rms(total) = 0.16014E-03    rms(broyden)= 0.16005E-03
  rms(prec ) = 0.33997E-03
  weight for this iteration     100.00

 eigenvalues of (default mixing * dielectric matrix)
  average eigenvalue GAMMA=   1.8579
  3.5052  2.7847  2.3949  1.9550  0.9289  0.9289  0.5078

 Free energy of the ion-electron system (eV)
  ---------------------------------------------------
  alpha Z        PSCENC =         2.21367820
  Ewald energy   TEWEN  =       339.14950735
  -Hartree energ DENC   =      -583.10078755
  -exchange      EXHF   =         0.00000000
  -V(xc)+E(xc)   XCENC  =        23.14218483
  PAW double counting   =       264.08853785     -265.19295011
  entropy T*S    EENTRO =        -0.00229931
  eigenvalues    EBANDS =       -85.54766608
  atomic energy  EATOM  =       294.29778662
  Solvation  Ediel_sol  =         0.00000000
  ---------------------------------------------------
  free energy    TOTEN  =       -10.95200821 eV

  energy without entropy =      -10.94970890  energy(sigma->0) =      -10.95085856


--------------------------------------------------------------------------------------------------------




--------------------------------------- Iteration      1(  13)  ---------------------------------------


    POTLOK:  cpu time      0.0151: real time      0.0152
    SETDIJ:  cpu time      0.0196: real time      0.0197
     EDDAV:  cpu time      0.8692: real time      0.8718
       DOS:  cpu time      0.0015: real time      0.0015
    CHARGE:  cpu time      0.0266: real time      0.0266
    MIXING:  cpu time      0.0050: real time      0.0051
    --------------------------------------------
      LOOP:  cpu time      0.9369: real time      0.9399

 eigenvalue-minimisations  :  2288
 total energy-change (2. order) :-0.8778643E-05  (-0.1536364E-06)
 number of electron       8.0000000 magnetization 
 augmentation part        0.0403494 magnetization 

 Broyden mixing:
  rms(total) = 0.10553E-03    rms(broyden)= 0.10551E-03
  rms(prec ) = 0.19805E-03
  weight for this iteration     100.00

 eigenvalues of (default mixing * dielectric matrix)
  average eigenvalue GAMMA=   2.2767
  5.7454  3.1162  2.6760  2.2708  1.9765  0.9822  0.9389  0.5074

 Free energy of the ion-electron system (eV)
  ---------------------------------------------------
  alpha Z        PSCENC =         2.21367820
  Ewald energy   TEWEN  =       339.14950735
  -Hartree energ DENC   =      -583.13178783
  -exchange      EXHF   =         0.00000000
  -V(xc)+E(xc)   XCENC  =        23.14244772
  PAW double counting   =       264.16767618     -265.27207939
  entropy T*S    EENTRO =        -0.00229931
  eigenvalues    EBANDS =       -85.51694655
  atomic energy  EATOM  =       294.29778662
  Solvation  Ediel_sol  =         0.00000000
  ---------------------------------------------------
  free energy    TOTEN  =       -10.95201699 eV

  energy without entropy =      -10.94971768  energy(sigma->0) =      -10.95086733


--------------------------------------------------------------------------------------------------------




--------------------------------------- Iteration      1(  14)  ---------------------------------------


    POTLOK:  cpu time      0.0173: real time      0.0174
    SETDIJ:  cpu time      0.0125: real time      0.0125
     EDDAV:  cpu time      0.8446: real time      0.8474
       DOS:  cpu time      0.0015: real time      0.0015
    CHARGE:  cpu time      0.0285: real time      0.0286
    MIXING:  cpu time      0.0046: real time      0.0046
    --------------------------------------------
      LOOP:  cpu time      0.9090: real time      0.9120

 eigenvalue-minimisations  :  2272
 total energy-change (2. order) :-0.6906667E-05  (-0.1029516E-06)
 number of electron       8.0000000 magnetization 
 augmentation part        0.0403479 magnetization 

 Broyden mixing:
  rms(total) = 0.44143E-04    rms(broyden)= 0.44141E-04
  rms(prec ) = 0.83888E-04
  weight for this iteration     100.00

 eigenvalues of (default mixing * dielectric matrix)
  average eigenvalue GAMMA=   2.3438
  7.0555  3.1512  2.6628  2.5590  1.9313  0.9952  0.9952  1.2368  0.5074

 Free energy of the ion-electron system (eV)
  ---------------------------------------------------
  alpha Z        PSCENC =         2.21367820
  Ewald energy   TEWEN  =       339.14950735
  -Hartree energ DENC   =      -583.15272675
  -exchange      EXHF   =         0.00000000
  -V(xc)+E(xc)   XCENC  =        23.14244349
  PAW double counting   =       264.14592045     -265.25028140
  entropy T*S    EENTRO =        -0.00229931
  eigenvalues    EBANDS =       -85.49605255
  atomic energy  EATOM  =       294.29778662
  Solvation  Ediel_sol  =         0.00000000
  ---------------------------------------------------
  free energy    TOTEN  =       -10.95202390 eV

  energy without entropy =      -10.94972458  energy(sigma->0) =      -10.95087424


--------------------------------------------------------------------------------------------------------




--------------------------------------- Iteration      1(  15)  ---------------------------------------


    POTLOK:  cpu time      0.0123: real time      0.0125
    SETDIJ:  cpu time      0.0148: real time      0.0149
     EDDAV:  cpu time      0.8495: real time      0.8520
       DOS:  cpu time      0.0013: real time      0.0013
    CHARGE:  cpu time      0.0358: real time      0.0359
    MIXING:  cpu time      0.0028: real time      0.0028
    --------------------------------------------
      LOOP:  cpu time      0.9166: real time      0.9195

 eigenvalue-minimisations  :  2256
 total energy-change (2. order) :-0.6891672E-05  (-0.1928776E-07)
 number of electron       8.0000000 magnetization 
 augmentation part        0.0403478 magnetization 

 Broyden mixing:
  rms(total) = 0.33954E-04    rms(broyden)= 0.33952E-04
  rms(prec ) = 0.52440E-04
  weight for this iteration     100.00

 eigenvalues of (default mixing * dielectric matrix)
  average eigenvalue GAMMA=   2.5464
  7.8663  3.9562  3.0230  2.6836  2.4783  1.9261  0.5074  0.9784  1.0225  1.0225

 Free energy of the ion-electron system (eV)
  ---------------------------------------------------
  alpha Z        PSCENC =         2.21367820
  Ewald energy   TEWEN  =       339.14950735
  -Hartree energ DENC   =      -583.15599317
  -exchange      EXHF   =         0.00000000
  -V(xc)+E(xc)   XCENC  =        23.14243937
  PAW double counting   =       264.10140976     -265.20577164
  entropy T*S    EENTRO =        -0.00229931
  eigenvalues    EBANDS =       -85.49278797
  atomic energy  EATOM  =       294.29778662
  Solvation  Ediel_sol  =         0.00000000
  ---------------------------------------------------
  free energy    TOTEN  =       -10.95203079 eV

  energy without entropy =      -10.94973148  energy(sigma->0) =      -10.95088113


--------------------------------------------------------------------------------------------------------




--------------------------------------- Iteration      1(  16)  ---------------------------------------


    POTLOK:  cpu time      0.0196: real time      0.0223
    SETDIJ:  cpu time      0.0091: real time      0.0092
     EDDAV:  cpu time      0.6903: real time      0.6923
       DOS:  cpu time      0.0013: real time      0.0013
    CHARGE:  cpu time      0.0347: real time      0.0348
    MIXING:  cpu time      0.0031: real time      0.0031
    --------------------------------------------
      LOOP:  cpu time      0.7581: real time      0.7630

 eigenvalue-minimisations  :  1808
 total energy-change (2. order) :-0.5645411E-05  (-0.3612020E-07)
 number of electron       8.0000000 magnetization 
 augmentation part        0.0403478 magnetization 

 Broyden mixing:
  rms(total) = 0.16704E-04    rms(broyden)= 0.16700E-04
  rms(prec ) = 0.18780E-04
  weight for this iteration     100.00

 eigenvalues of (default mixing * dielectric matrix)
  average eigenvalue GAMMA=   2.8086
  9.3932  5.6760  3.1353  2.6334  2.5875  2.0818  1.9053  0.5074  1.0026  1.0026
  0.9699

 Free energy of the ion-electron system (eV)
  ---------------------------------------------------
  alpha Z        PSCENC =         2.21367820
  Ewald energy   TEWEN  =       339.14950735
  -Hartree energ DENC   =      -583.15677170
  -exchange      EXHF   =         0.00000000
  -V(xc)+E(xc)   XCENC  =        23.14241497
  PAW double counting   =       264.12264500     -265.22700636
  entropy T*S    EENTRO =        -0.00229931
  eigenvalues    EBANDS =       -85.49199120
  atomic energy  EATOM  =       294.29778662
  Solvation  Ediel_sol  =         0.00000000
  ---------------------------------------------------
  free energy    TOTEN  =       -10.95203643 eV

  energy without entropy =      -10.94973712  energy(sigma->0) =      -10.95088678


--------------------------------------------------------------------------------------------------------




--------------------------------------- Iteration      1(  17)  ---------------------------------------


    POTLOK:  cpu time      0.0119: real time      0.0121
    SETDIJ:  cpu time      0.0147: real time      0.0147
     EDDAV:  cpu time      0.8565: real time      0.8590
       DOS:  cpu time      0.0013: real time      0.0013
    CHARGE:  cpu time      0.0264: real time      0.0264
    MIXING:  cpu time      0.0034: real time      0.0034
    --------------------------------------------
      LOOP:  cpu time      0.9142: real time      0.9170

 eigenvalue-minimisations  :  2336
 total energy-change (2. order) :-0.4808874E-06  (-0.1277792E-08)
 number of electron       8.0000000 magnetization 
 augmentation part        0.0403476 magnetization 

 Broyden mixing:
  rms(total) = 0.55250E-05    rms(broyden)= 0.55242E-05
  rms(prec ) = 0.62020E-05
  weight for this iteration     100.00

 eigenvalues of (default mixing * dielectric matrix)
  average eigenvalue GAMMA=   2.7170
  9.6580  5.8714  3.1466  2.7505  2.5252  2.3198  1.9260  0.5074  1.0137  0.9641
  0.9604  0.9604

 Free energy of the ion-electron system (eV)
  ---------------------------------------------------
  alpha Z        PSCENC =         2.21367820
  Ewald energy   TEWEN  =       339.14950735
  -Hartree energ DENC   =      -583.15710886
  -exchange      EXHF   =         0.00000000
  -V(xc)+E(xc)   XCENC  =        23.14241820
  PAW double counting   =       264.12282574     -265.22719069
  entropy T*S    EENTRO =        -0.00229931
  eigenvalues    EBANDS =       -85.49165417
  atomic energy  EATOM  =       294.29778662
  Solvation  Ediel_sol  =         0.00000000
  ---------------------------------------------------
  free energy    TOTEN  =       -10.95203692 eV

  energy without entropy =      -10.94973760  energy(sigma->0) =      -10.95088726


--------------------------------------------------------------------------------------------------------




--------------------------------------- Iteration      1(  18)  ---------------------------------------


    POTLOK:  cpu time      0.0119: real time      0.0121
    SETDIJ:  cpu time      0.0145: real time      0.0145
     EDDAV:  cpu time      0.6951: real time      0.6972
       DOS:  cpu time      0.0018: real time      0.0018
    CHARGE:  cpu time      0.0320: real time      0.0320
    MIXING:  cpu time      0.0042: real time      0.0042
    --------------------------------------------
      LOOP:  cpu time      0.7596: real time      0.7619

 eigenvalue-minimisations  :  2088
 total energy-change (2. order) :-0.1011499E-06  (-0.2255306E-09)
 number of electron       8.0000000 magnetization 
 augmentation part        0.0403477 magnetization 

 Broyden mixing:
  rms(total) = 0.14252E-05    rms(broyden)= 0.14245E-05
  rms(prec ) = 0.16563E-05
  weight for this iteration     100.00

 eigenvalues of (default mixing * dielectric matrix)
  average eigenvalue GAMMA=   2.7416
  9.6150  6.1091  3.2154  2.8136  2.5830  2.5830  2.3285  1.9404  0.5074  0.9931
  0.9931  0.9799  0.9799

 Free energy of the ion-electron system (eV)
  ---------------------------------------------------
  alpha Z        PSCENC =         2.21367820
  Ewald energy   TEWEN  =       339.14950735
  -Hartree energ DENC   =      -583.15683432
  -exchange      EXHF   =         0.00000000
  -V(xc)+E(xc)   XCENC  =        23.14241008
  PAW double counting   =       264.12260874     -265.22697248
  entropy T*S    EENTRO =        -0.00229931
  eigenvalues    EBANDS =       -85.49192190
  atomic energy  EATOM  =       294.29778662
  Solvation  Ediel_sol  =         0.00000000
  ---------------------------------------------------
  free energy    TOTEN  =       -10.95203702 eV

  energy without entropy =      -10.94973770  energy(sigma->0) =      -10.95088736


--------------------------------------------------------------------------------------------------------




--------------------------------------- Iteration      1(  19)  ---------------------------------------


    POTLOK:  cpu time      0.0188: real time      0.0189
    SETDIJ:  cpu time      0.0082: real time      0.0082
     EDDAV:  cpu time      0.7336: real time      0.7359
       DOS:  cpu time      0.0013: real time      0.0013
    CHARGE:  cpu time      0.0252: real time      0.0253
    MIXING:  cpu time      0.0041: real time      0.0041
    --------------------------------------------
      LOOP:  cpu time      0.7912: real time      0.7938

 eigenvalue-minimisations  :  2096
 total energy-change (2. order) :-0.2938521E-07  (-0.6211104E-10)
 number of electron       8.0000000 magnetization 
 augmentation part        0.0403477 magnetization 

 Broyden mixing:
  rms(total) = 0.24650E-06    rms(broyden)= 0.24418E-06
  rms(prec ) = 0.31435E-06
  weight for this iteration     100.00

 eigenvalues of (default mixing * dielectric matrix)
  average eigenvalue GAMMA=   2.6187
  9.6475  6.1242  3.2257  2.9410  2.6440  2.4797  2.3568  1.9333  0.5074  0.9985
  0.9985  0.9627  0.9214  0.9214

 Free energy of the ion-electron system (eV)
  ---------------------------------------------------
  alpha Z        PSCENC =         2.21367820
  Ewald energy   TEWEN  =       339.14950735
  -Hartree energ DENC   =      -583.15682309
  -exchange      EXHF   =         0.00000000
  -V(xc)+E(xc)   XCENC  =        23.14240891
  PAW double counting   =       264.12211142     -265.22647553
  entropy T*S    EENTRO =        -0.00229931
  eigenvalues    EBANDS =       -85.49193162
  atomic energy  EATOM  =       294.29778662
  Solvation  Ediel_sol  =         0.00000000
  ---------------------------------------------------
  free energy    TOTEN  =       -10.95203705 eV

  energy without entropy =      -10.94973773  energy(sigma->0) =      -10.95088739


--------------------------------------------------------------------------------------------------------




--------------------------------------- Iteration      1(  20)  ---------------------------------------


    POTLOK:  cpu time      0.0160: real time      0.0162
    SETDIJ:  cpu time      0.0108: real time      0.0108
     EDDAV:  cpu time      0.5189: real time      0.5204
       DOS:  cpu time      0.0013: real time      0.0013
    --------------------------------------------
      LOOP:  cpu time      0.5470: real time      0.5487

 eigenvalue-minimisations  :  1376
 total energy-change (2. order) :-0.2405272E-08  (-0.2470340E-11)
 number of electron       8.0000000 magnetization 
 augmentation part        0.0403477 magnetization 

 Free energy of the ion-electron system (eV)
  ---------------------------------------------------
  alpha Z        PSCENC =         2.21367820
  Ewald energy   TEWEN  =       339.14950735
  -Hartree energ DENC   =      -583.15680200
  -exchange      EXHF   =         0.00000000
  -V(xc)+E(xc)   XCENC  =        23.14240811
  PAW double counting   =       264.12215165     -265.22651562
  entropy T*S    EENTRO =        -0.00229931
  eigenvalues    EBANDS =       -85.49195205
  atomic energy  EATOM  =       294.29778662
  Solvation  Ediel_sol  =         0.00000000
  ---------------------------------------------------
  free energy    TOTEN  =       -10.95203705 eV

  energy without entropy =      -10.94973773  energy(sigma->0) =      -10.95088739


--------------------------------------------------------------------------------------------------------




 average (electrostatic) potential at core
  the test charge radii are     0.6991
  (the norm of the test charge is              1.0000)
       1 -61.5627       2 -61.5627
 
 
 
 E-fermi :  -5.0107     XC(G=0):  -2.4339     alpha+bet : -1.3504

 Fermi energy:        -5.0106555346

 k-point     1 :       0.0000    0.0000    0.0000
  band No.  band energies     occupation 
      1     -17.7728      2.00000
      2      -7.5017      2.00000
      3      -6.9607      2.00000
      4      -6.9606      2.00000
      5      -6.5413      2.00000
      6      -0.7542      0.00000
      7      -0.7540      0.00000
      8      -0.7450      0.00000

 k-point     2 :       0.0833   -0.0000    0.0000
  band No.  band energies     occupation 
      1     -17.6881      2.00000
      2      -8.1284      2.00000
      3      -7.4183      2.00000
      4      -7.0799      2.00000
      5      -5.4792      2.00000
      6      -0.8838      0.00000
      7      -0.7307      0.00000
      8      -0.5164      0.00000

 k-point     3 :       0.1667   -0.0000    0.0000
  band No.  band energies     occupation 
      1     -17.4364      2.00000
      2      -9.4939      2.00000
      3      -7.3735      2.00000
      4      -7.1725      2.00000
      5      -4.5004      0.00000
      6      -1.2770      0.00000
      7      -0.5439      0.00000
      8       0.1144      0.00000

 k-point     4 :       0.2500   -0.0000    0.0000
  band No.  band energies     occupation 
      1     -17.0267      2.00000
      2     -10.8168      2.00000
      3      -7.7184      2.00000
      4      -6.7791      2.00000
      5      -3.9587      0.00000
      6      -1.8649      0.00000
      7       0.0085      0.00000
      8       0.9582      0.00000

 k-point     5 :       0.3333    0.0000    0.0000
  band No.  band energies     occupation 
      1     -16.4826      2.00000
      2     -12.0358      2.00000
      3      -8.0179      2.00000
      4      -6.2721      2.00000
      5      -3.7994      0.00000
      6      -2.5601      0.00000
      7       0.8580      0.00000
      8       1.8119      0.00000

 k-point     6 :       0.4167   -0.0000    0.0000
  band No.  band energies     occupation 
      1     -15.8804      2.00000
      2     -13.0517      2.00000
      3      -8.2157      2.00000
      4      -5.7399      2.00000
      5      -3.7985      0.00000
      6      -3.2271      0.00000
      7       1.6521      0.00000
      8       2.4607      0.00000

 k-point     7 :       0.5000   -0.0000    0.0000
  band No.  band energies     occupation 
      1     -15.5352      2.00000
      2     -13.5363      2.00000
      3      -8.2844      2.00000
      4      -5.4575      2.00000
      5      -3.8119      0.00000
      6      -3.5583      0.00000
      7       1.9851      0.00000
      8       2.7064      0.00000

 k-point     8 :       0.0000    0.0833    0.0000
  band No.  band energies     occupation 
      1     -17.6881      2.00000
      2      -8.1285      2.00000
      3      -7.4183      2.00000
      4      -7.0799      2.00000
      5      -5.4793      2.00000
      6      -0.8838      0.00000
      7      -0.7306      0.00000
      8      -0.5165      0.00000

 k-point     9 :       0.0833    0.0833    0.0000
  band No.  band energies     occupation 
      1     -17.5198      2.00000
      2      -9.1164      2.00000
      3      -7.3224      2.00000
      4      -7.2536      2.00000
      5      -4.6840      0.00000
      6      -1.1492      0.00000
      7      -0.6904      0.00000
      8      -0.0331      0.00000

 k-point    10 :       0.1667    0.0833    0.0000
  band No.  band energies     occupation 
      1     -17.1885      2.00000
      2     -10.3241      2.00000
      3      -7.7096      2.00000
      4      -6.9333      2.00000
      5      -3.9231      0.00000
      6      -1.6370      0.00000
      7      -0.4694      0.00000
      8       0.7919      0.00000

 k-point    11 :       0.2500    0.0833    0.0000
  band No.  band energies     occupation 
      1     -16.7082      2.00000
      2     -11.5291      2.00000
      3      -8.0897      2.00000
      4      -6.4791      2.00000
      5      -3.5228      0.00000
      6      -2.2758      0.00000
      7       0.1167      0.00000
      8       1.7160      0.00000

 k-point    12 :       0.3333    0.0833    0.0000
  band No.  band energies     occupation 
      1     -16.1182      2.00000
      2     -12.6271      2.00000
      3      -8.3764      2.00000
      4      -5.9425      2.00000
      5      -3.4172      0.00000
      6      -2.9666      0.00000
      7       0.9023      0.00000
      8       2.5223      0.00000

 k-point    13 :       0.4167    0.0833    0.0000
  band No.  band energies     occupation 
      1     -15.5706      2.00000
      2     -13.4356      2.00000
      3      -8.5280      2.00000
      4      -5.4770      2.00000
      5      -3.5194      0.00000
      6      -3.4138      0.00000
      7       1.4763      0.00000
      8       3.0019      0.00000

 k-point    14 :       0.5000    0.0833    0.0000
  band No.  band energies     occupation 
[...]
      6      -2.2758      0.00000
      7       0.1168      0.00000
      8       1.7161      0.00000

 k-point    41 :      -0.2500    0.2500    0.0000
  band No.  band energies     occupation 
      1     -17.0267      2.00000
      2     -10.8168      2.00000
      3      -7.7184      2.00000
      4      -6.7791      2.00000
      5      -3.9589      0.00000
      6      -1.8649      0.00000
      7       0.0087      0.00000
      8       0.9581      0.00000

 k-point    42 :      -0.1667    0.2500    0.0000
  band No.  band energies     occupation 
      1     -17.1885      2.00000
      2     -10.3241      2.00000
      3      -7.7096      2.00000
      4      -6.9332      2.00000
      5      -3.9233      0.00000
      6      -1.6370      0.00000
      7      -0.4692      0.00000
      8       0.7918      0.00000

 k-point    43 :      -0.0833    0.2500    0.0000
  band No.  band energies     occupation 
      1     -17.1885      2.00000
      2     -10.3241      2.00000
      3      -7.7096      2.00000
      4      -6.9332      2.00000
      5      -3.9233      0.00000
      6      -1.6370      0.00000
      7      -0.4693      0.00000
      8       0.7918      0.00000

 k-point    44 :       0.0000    0.3333    0.0000
  band No.  band energies     occupation 
      1     -16.4826      2.00000
      2     -12.0359      2.00000
      3      -8.0178      2.00000
      4      -6.2720      2.00000
      5      -3.7994      0.00000
      6      -2.5602      0.00000
      7       0.8581      0.00000
      8       1.8118      0.00000

 k-point    45 :       0.0833    0.3333    0.0000
  band No.  band energies     occupation 
      1     -16.1182      2.00000
      2     -12.6272      2.00000
      3      -8.3764      2.00000
      4      -5.9425      2.00000
      5      -3.4172      0.00000
      6      -2.9666      0.00000
      7       0.9024      0.00000
      8       2.5223      0.00000

 k-point    46 :       0.1667    0.3333    0.0000
  band No.  band energies     occupation 
      1     -15.6352      2.00000
      2     -13.2275      2.00000
      3      -8.9706      2.00000
      4      -5.5141      2.00000
      5      -3.4429      0.00000
      6      -2.5294      0.00000
      7       0.5966      0.00000
      8       3.3078      0.00000

 k-point    47 :       0.2500    0.3333    0.0000
  band No.  band energies     occupation 
      1     -15.0651      2.00000
      2     -13.8324      2.00000
      3      -9.4575      2.00000
      4      -5.0181      1.16734
      5      -3.9569      0.00000
      6      -1.4932      0.00000
      7       0.1255      0.00000
      8       3.8394      0.00000

 k-point    48 :       0.3333    0.3333    0.0000
  band No.  band energies     occupation 
      1     -14.4507      2.00000
      2     -14.4505      2.00000
      3      -9.6404      2.00000
      4      -4.4891      0.00000
      5      -4.4890      0.00000
      6      -0.5649      0.00000
      7      -0.5646      0.00000
      8       4.0257      0.00000

 k-point    49 :       0.4167    0.3333    0.0000
  band No.  band energies     occupation 
      1     -15.0650      2.00000
      2     -13.8325      2.00000
      3      -9.4575      2.00000
      4      -5.0181      1.16589
      5      -3.9569      0.00000
      6      -1.4934      0.00000
      7       0.1257      0.00000
      8       3.8395      0.00000

 k-point    50 :       0.5000    0.3333    0.0000
  band No.  band energies     occupation 
      1     -15.6351      2.00000
      2     -13.2275      2.00000
      3      -8.9707      2.00000
      4      -5.5140      2.00000
      5      -3.4429      0.00000
      6      -2.5297      0.00000
      7       0.5967      0.00000
      8       3.3079      0.00000

 k-point    51 :      -0.4167    0.3333    0.0000
  band No.  band energies     occupation 
      1     -16.1182      2.00000
      2     -12.6272      2.00000
      3      -8.3764      2.00000
      4      -5.9425      2.00000
      5      -3.4174      0.00000
      6      -2.9667      0.00000
      7       0.9025      0.00000
      8       2.5224      0.00000

 k-point    52 :      -0.3333    0.3333    0.0000
  band No.  band energies     occupation 
      1     -16.4825      2.00000
      2     -12.0359      2.00000
      3      -8.0179      2.00000
      4      -6.2720      2.00000
      5      -3.7996      0.00000
      6      -2.5602      0.00000
      7       0.8582      0.00000
      8       1.8119      0.00000

 k-point    53 :      -0.2500    0.3333    0.0000
  band No.  band energies     occupation 
      1     -16.7082      2.00000
      2     -11.5292      2.00000
      3      -8.0897      2.00000
      4      -6.4791      2.00000
      5      -3.5231      0.00000
      6      -2.2758      0.00000
      7       0.1169      0.00000
      8       1.7161      0.00000

 k-point    54 :      -0.1667    0.3333    0.0000
  band No.  band energies     occupation 
      1     -16.7845      2.00000
      2     -11.3076      2.00000
      3      -8.2187      2.00000
      4      -6.5497      2.00000
      5      -3.2070      0.00000
      6      -2.1720      0.00000
      7      -0.3666      0.00000
      8       1.7487      0.00000

 k-point    55 :      -0.0833    0.3333    0.0000
  band No.  band energies     occupation 
      1     -16.7082      2.00000
      2     -11.5292      2.00000
      3      -8.0896      2.00000
      4      -6.4791      2.00000
      5      -3.5229      0.00000
      6      -2.2758      0.00000
      7       0.1168      0.00000
      8       1.7161      0.00000

 k-point    56 :       0.0000    0.4167    0.0000
  band No.  band energies     occupation 
      1     -15.8804      2.00000
      2     -13.0518      2.00000
      3      -8.2157      2.00000
      4      -5.7399      2.00000
      5      -3.7985      0.00000
      6      -3.2271      0.00000
      7       1.6522      0.00000
      8       2.4607      0.00000

 k-point    57 :       0.0833    0.4167    0.0000
  band No.  band energies     occupation 
      1     -15.5706      2.00000
      2     -13.4356      2.00000
      3      -8.5280      2.00000
      4      -5.4770      2.00000
      5      -3.5195      0.00000
      6      -3.4138      0.00000
      7       1.4763      0.00000
      8       3.0019      0.00000

 k-point    58 :       0.1667    0.4167    0.0000
  band No.  band energies     occupation 
      1     -15.2626      2.00000
      2     -13.7044      2.00000
      3      -9.0721      2.00000
      4      -5.2078      2.00000
      5      -3.7833      0.00000
      6      -2.4926      0.00000
      7       0.8738      0.00000
      8       3.5464      0.00000

 k-point    59 :       0.2500    0.4167    0.0000
  band No.  band energies     occupation 
      1     -15.0650      2.00000
      2     -13.8325      2.00000
      3      -9.4575      2.00000
      4      -5.0181      1.16626
      5      -3.9569      0.00000
      6      -1.4933      0.00000
      7       0.1256      0.00000
      8       3.8395      0.00000

 k-point    60 :       0.3333    0.4167    0.0000
  band No.  band energies     occupation 
      1     -15.0650      2.00000
      2     -13.8326      2.00000
      3      -9.4575      2.00000
      4      -5.0180      1.16549
      5      -3.9569      0.00000
      6      -1.4934      0.00000
      7       0.1257      0.00000
      8       3.8395      0.00000

 k-point    61 :       0.4167    0.4167    0.0000
  band No.  band energies     occupation 
      1     -15.2625      2.00000
      2     -13.7045      2.00000
      3      -9.0721      2.00000
      4      -5.2078      2.00000
      5      -3.7833      0.00000
      6      -2.4928      0.00000
      7       0.8739      0.00000
      8       3.5464      0.00000

 k-point    62 :       0.5000    0.4167    0.0000
  band No.  band energies     occupation 
      1     -15.5705      2.00000
      2     -13.4357      2.00000
      3      -8.5281      2.00000
      4      -5.4769      2.00000
      5      -3.5195      0.00000
      6      -3.4140      0.00000
      7       1.4765      0.00000
      8       3.0020      0.00000

 k-point    63 :      -0.4167    0.4167    0.0000
  band No.  band energies     occupation 
      1     -15.8803      2.00000
      2     -13.0518      2.00000
      3      -8.2157      2.00000
      4      -5.7398      2.00000
      5      -3.7986      0.00000
      6      -3.2271      0.00000
      7       1.6524      0.00000
      8       2.4607      0.00000

 k-point    64 :      -0.3333    0.4167    0.0000
  band No.  band energies     occupation 
      1     -16.1182      2.00000
      2     -12.6272      2.00000
      3      -8.3764      2.00000
      4      -5.9425      2.00000
      5      -3.4174      0.00000
      6      -2.9667      0.00000
      7       0.9025      0.00000
      8       2.5223      0.00000

 k-point    65 :      -0.2500    0.4167    0.0000
  band No.  band energies     occupation 
      1     -16.2452      2.00000
      2     -12.3151      2.00000
      3      -8.6742      2.00000
      4      -6.0517      2.00000
      5      -2.8093      0.00000
      6      -2.7157      0.00000
      7       0.0291      0.00000
      8       2.6727      0.00000

 k-point    66 :      -0.1667    0.4167    0.0000
  band No.  band energies     occupation 
      1     -16.2452      2.00000
      2     -12.3151      2.00000
      3      -8.6742      2.00000
      4      -6.0517      2.00000
      5      -2.8093      0.00000
      6      -2.7156      0.00000
      7       0.0290      0.00000
      8       2.6567      0.00000

 k-point    67 :      -0.0833    0.4167    0.0000
  band No.  band energies     occupation 
      1     -16.1182      2.00000
      2     -12.6272      2.00000
      3      -8.3763      2.00000
      4      -5.9425      2.00000
      5      -3.4173      0.00000
      6      -2.9667      0.00000
      7       0.9023      0.00000
      8       2.5223      0.00000

 k-point    68 :       0.0000    0.5000    0.0000
  band No.  band energies     occupation 
      1     -15.5351      2.00000
      2     -13.5364      2.00000
      3      -8.2843      2.00000
      4      -5.4575      2.00000
      5      -3.8119      0.00000
      6      -3.5583      0.00000
      7       1.9852      0.00000
      8       2.7063      0.00000

 k-point    69 :       0.0833    0.5000    0.0000
  band No.  band energies     occupation 
      1     -15.5705      2.00000
      2     -13.4357      2.00000
      3      -8.5280      2.00000
      4      -5.4769      2.00000
      5      -3.5195      0.00000
      6      -3.4138      0.00000
      7       1.4763      0.00000
      8       3.0020      0.00000

 k-point    70 :       0.1667    0.5000    0.0000
  band No.  band energies     occupation 
      1     -15.6351      2.00000
      2     -13.2275      2.00000
      3      -8.9706      2.00000
      4      -5.5140      2.00000
      5      -3.4429      0.00000
      6      -2.5295      0.00000
      7       0.5966      0.00000
      8       3.3078      0.00000

 k-point    71 :       0.2500    0.5000    0.0000
  band No.  band energies     occupation 
      1     -15.6648      2.00000
      2     -13.1180      2.00000
      3      -9.1797      2.00000
      4      -5.5318      2.00000
      5      -3.4051      0.00000
      6      -1.9261      0.00000
      7       0.0180      0.00000
      8       3.4179      0.00000

 k-point    72 :       0.3333    0.5000    0.0000
  band No.  band energies     occupation 
      1     -15.6351      2.00000
      2     -13.2276      2.00000
      3      -8.9706      2.00000
      4      -5.5140      2.00000
      5      -3.4429      0.00000
      6      -2.5297      0.00000
      7       0.5967      0.00000
      8       3.3079      0.00000

 k-point    73 :       0.4167    0.5000    0.0000
  band No.  band energies     occupation 
      1     -15.5705      2.00000
      2     -13.4357      2.00000
      3      -8.5281      2.00000
      4      -5.4769      2.00000
      5      -3.5195      0.00000
      6      -3.4140      0.00000
      7       1.4765      0.00000
      8       3.0020      0.00000

 k-point    74 :       0.5000    0.5000    0.0000
  band No.  band energies     occupation 
      1     -15.5350      2.00000
      2     -13.5365      2.00000
      3      -8.2844      2.00000
      4      -5.4574      2.00000
      5      -3.8121      0.00000
      6      -3.5584      0.00000
      7       1.9854      0.00000
      8       2.7064      0.00000


--------------------------------------------------------------------------------------------------------


 soft charge-density along one line, spin component           1
         0         1         2         3         4         5         6         7         8         9
 total charge-density along one line
 
 pseudopotential strength for first ion, spin component:           1
 10.386  13.816  -0.000  -0.000  -0.000   0.000   0.000  -0.000
 13.816  18.379  -0.000  -0.000   0.000   0.000   0.000  -0.000
 -0.000  -0.000  -4.550  -0.000  -0.000   8.932   0.000   0.000
 -0.000  -0.000  -0.000  -4.544  -0.000   0.000   8.920   0.000
 -0.000   0.000  -0.000  -0.000  -4.550   0.000   0.000   8.932
  0.000   0.000   8.932   0.000   0.000 -19.685  -0.000  -0.000
  0.000   0.000   0.000   8.920   0.000  -0.000 -19.658  -0.000
 -0.000  -0.000   0.000   0.000   8.932  -0.000  -0.000 -19.685
 total augmentation occupancy for first ion, spin component:           1
  2.521  -0.487   0.000  -0.000  -0.000   0.000  -0.000  -0.000
 -0.487   0.244  -0.000   0.000   0.000  -0.000   0.000   0.000
  0.000  -0.000   0.866   0.000  -0.000   0.045   0.000  -0.000
 -0.000   0.000   0.000   0.918  -0.000   0.000   0.016  -0.000
 -0.000   0.000  -0.000  -0.000   0.866  -0.000  -0.000   0.045
  0.000  -0.000   0.045   0.000  -0.000   0.003   0.000  -0.000
 -0.000   0.000   0.000   0.016  -0.000   0.000   0.000  -0.000
 -0.000   0.000  -0.000  -0.000   0.045  -0.000  -0.000   0.003


------------------------ aborting loop because EDIFF is reached ----------------------------------------


    CHARGE:  cpu time      0.0317: real time      0.0317
    FORLOC:  cpu time      0.0031: real time      0.0032
    FORNL :  cpu time      0.0913: real time      0.0915
    STRESS:  cpu time      0.2977: real time      0.2987
    FORCOR:  cpu time      0.0148: real time      0.0148
    FORHAR:  cpu time      0.0032: real time      0.0032
    MIXING:  cpu time      0.0020: real time      0.0020
    OFIELD:  cpu time      0.0001: real time      0.0001

 ---------------------------------------------------------------------------------------------

         DFTD3 V3.0 Rev 1        
 IVDW         = 12
 DF pbe       
 parameters
 VDW_S6       =    1.0000
 VDW_S8       =    0.7875
 VDW_A1       =    0.4289
 VDW_A2       =    4.4407
 k1-k3        =   16.0000    1.3333   -4.0000
 VDW_RADIUS   =   50.2022 A
 VDW_CNRADIUS =   21.1671 A
 Edisp (eV)   -0.11262

 E6    (eV) :    -0.0772
 E8    (eV) :    -0.0354
 % E8        : 31.45
    FORVDW:  cpu time      0.0093: real time      0.0093

  FORCE on cell =-STRESS in cart. coord.  units (eV):
  Direction    XX          YY          ZZ          XY          YZ          ZX
  --------------------------------------------------------------------------------------
  Alpha Z     2.21368     2.21368     2.21368
  Ewald     535.29688   535.29725  -731.44465    -0.00127     0.00000    -0.00000
  Hartree   561.64960   561.64967  -540.14247    -0.00042     0.00000     0.00000
  E(xc)     -25.50156   -25.50155   -26.36548    -0.00000    -0.00000    -0.00000
  Local   -1184.92299 -1184.92339  1176.55362     0.00175    -0.00000     0.00000
  n-local     4.53825     4.53828     2.33717     0.00005     0.00000     0.00000
  augment    -0.13994    -0.13995    -0.09709    -0.00000    -0.00000    -0.00000
  Kinetic    92.24124    92.24097   116.93517     0.00002    -0.00000    -0.00000
  Fock        0.00000     0.00000     0.00000     0.00000     0.00000     0.00000
  vdW         0.02110     0.02110    -0.00099     0.00000    -0.00000    -0.00000
  -------------------------------------------------------------------------------------
  Total     -14.60375   -14.60393    -0.01103     0.00013    -0.00000    -0.00000
  in kB    -157.63014  -157.63212    -0.11906     0.00145    -0.00000    -0.00000
  external pressure =     -105.13 kB  Pullay stress =        0.00 kB


 VOLUME and BASIS-vectors are now :
 -----------------------------------------------------------------------------
  energy-cutoff  :      520.00
  volume of cell :      148.43
      direct lattice vectors                 reciprocal lattice vectors
     3.380303957  0.000000000  0.000000000     0.295831385  0.170793394  0.000000000
    -1.690112131  2.927444676  0.000000000     0.000000000  0.341594841  0.000000000
     0.000000000  0.000000000 15.000000000     0.000000000  0.000000000  0.066666667

  length of vectors
     3.380303957  3.380297524 15.000000000     0.341594191  0.341594841  0.066666667


 FORCES acting on ions
    electron-ion (+dipol)            ewald-force                    non-local-force                 convergence-correction
 -----------------------------------------------------------------------------------------------
   -.200E-02 0.435E-03 -.325E-06   0.195E-02 -.358E-03 0.383E-19   -.309E-03 0.346E-04 0.125E-06   0.297E-07 -.230E-06 0.227E-06
   0.200E-02 -.434E-03 -.217E-06   -.195E-02 0.358E-03 -.378E-19   0.309E-03 -.349E-04 0.385E-07   -.153E-06 -.103E-06 0.178E-06
 -----------------------------------------------------------------------------------------------
   0.212E-06 0.585E-06 -.541E-06   0.814E-15 0.151E-14 0.540E-21   -.924E-07 -.258E-06 0.164E-06   -.124E-06 -.333E-06 0.405E-06
 
 
 POSITION                                       TOTAL-FORCE (eV/Angst)
 -----------------------------------------------------------------------------------
      0.00000      0.00000      7.50000        -0.000364      0.000111      0.000000
      1.69017      0.97582      7.50000         0.000364     -0.000111     -0.000000
 -----------------------------------------------------------------------------------
    total drift:                               -0.000000     -0.000000      0.000000


--------------------------------------------------------------------------------------------------------



  FREE ENERGIE OF THE ION-ELECTRON SYSTEM (eV)
  ---------------------------------------------------
  free  energy   TOTEN  =       -11.06465327 eV

  energy  without entropy=      -11.06235396  energy(sigma->0) =      -11.06350361
 


--------------------------------------------------------------------------------------------------------


    POTLOK:  cpu time      0.0342: real time      0.0343


--------------------------------------------------------------------------------------------------------


     LOOP+:  cpu time     16.5108: real time     16.5929
    4ORBIT:  cpu time      0.0000: real time      0.0000

 total amount of memory used by VASP MPI-rank0    38096. kBytes
=======================================================================

   base      :      30000. kBytes
   nonl-proj :       1373. kBytes
   fftplans  :       3856. kBytes
   grid      :       1463. kBytes
   one-center:          3. kBytes
   wavefun   :       1401. kBytes
 
  
  
 General timing and accounting informations for this job:
 ========================================================
  
                  Total CPU time used (sec):       18.184
                            User time (sec):       17.768
                          System time (sec):        0.416
                         Elapsed time (sec):       19.718
  
                   Maximum memory used (kb):       66096.
                   Average memory used (kb):          N/A
  
                          Minor page faults:        34497
                          Major page faults:            0
                 Voluntary context switches:         1584
