Title Card Required                                                     
FOpt      UM062X                                                      6-311+G(d,p)        
Number of atoms                            I                6
Info1-9                                    I   N=           9
          15          15           0           0           0         110
           2          18        -502
Full Title                                 C   N=           2
Title Card Required     
Route                                      C   N=           4
#p opt UM062X/6-311+G** nosymm int=superfine    
Charge                                     I                0
Multiplicity                               I                1
Number of electrons                        I               16
Number of alpha electrons                  I                8
Number of beta electrons                   I                8
Number of basis functions                  I               68
Number of independent functions            I               68
Number of point charges in /Mol/           I                0
Number of translation vectors              I                0
Atomic numbers                             I   N=           6
           6           6           1           1           1           1
Nuclear charges                            R   N=           6
  6.00000000E+00  6.00000000E+00  1.00000000E+00  1.00000000E+00  1.00000000E+00
  1.00000000E+00
Current cartesian coordinates              R   N=          18
 -1.81633748E+00  0.00000000E+00  0.00000000E+00  1.81633748E+00  0.00000000E+00
  0.00000000E+00 -2.71691256E+00 -1.82822900E+00  1.44263005E-09 -2.71688408E+00
  1.82822295E+00 -6.28527458E-09  2.71691254E+00  1.82822909E+00  3.81947350E-09
  2.71688407E+00 -1.82822305E+00 -3.90786602E-09
Number of symbols in /Mol/                 I                0
Force Field                                I                0
Atom Types                                 C   N=           6
                                                            
            
Int Atom Types                             I   N=           6
           0           0           0           0           0           0
MM charges                                 R   N=           6
  0.00000000E+00  0.00000000E+00  0.00000000E+00  0.00000000E+00  0.00000000E+00
  0.00000000E+00
Integer atomic weights                     I   N=           6
          12          12           1           1           1           1
Real atomic weights                        R   N=           6
  1.20000000E+01  1.20000000E+01  1.00782504E+00  1.00782504E+00  1.00782504E+00
  1.00782504E+00
Atom fragment info                         I   N=           6
           0           0           0           0           0           0
Atom residue num                           I   N=           6
           0           0           0           0           0           0
Nuclear spins                              I   N=           6
           0           0           1           1           1           1
Nuclear ZEff                               R   N=           6
 -3.60000000E+00 -3.60000000E+00 -1.00000000E+00 -1.00000000E+00 -1.00000000E+00
 -1.00000000E+00
Nuclear ZNuc                               R   N=           6
  6.00000000E+00  6.00000000E+00  1.00000000E+00  1.00000000E+00  1.00000000E+00
  1.00000000E+00
Nuclear QMom                               R   N=           6
  0.00000000E+00  0.00000000E+00  0.00000000E+00  0.00000000E+00  0.00000000E+00
  0.00000000E+00
Nuclear GFac                               R   N=           6
  0.00000000E+00  0.00000000E+00  2.79284600E+00  2.79284600E+00  2.79284600E+00
  2.79284600E+00
MicOpt                                     I   N=           6
          -2          -2          -1          -1          -1          -1
Number of residues                         I                0
Number of secondary structures             I                0
Redundant internal dimensions              I   N=           4
          20          10           6           4
Redundant internal coordinate indices      I   N=          80
           1          -1           0           0           1          -2
           0           0           1          -3           0           0
           2          -1           0           0           2          -2
           0           0           2          -3           0           0
           1           3           0           0           1           4
           0           0           2           5           0           0
           2           6           0           0           2           1
           3           0           2           1           4           0
           3           1           4           0           1           2
           5           0           1           2           6           0
           5           2           6           0           3           1
           2           5           3           1           2           6
           4           1           2           5           4           1
           2           6
Redundant internal coordinates             R   N=          20
 -1.81633748E+00  0.00000000E+00  0.00000000E+00  1.81633748E+00  0.00000000E+00
  0.00000000E+00  2.03800313E+00  2.03798512E+00  2.03800321E+00  2.03798520E+00
  2.02850180E+00  2.02849057E+00  2.22619293E+00  2.02850177E+00  2.02849055E+00
  2.22619299E+00  3.14159265E+00  0.00000000E+00  0.00000000E+00  3.14159265E+00
ZRed-IntVec                                I   N=          20
          -1          -1          -1          -1          -1          -1
           0           0           0           0           0           0
           0           0           0           0           0           0
           0           0
ZRed-FPVec                                 R   N=          20
  0.00000000E+00  0.00000000E+00  0.00000000E+00  0.00000000E+00  0.00000000E+00
  0.00000000E+00  0.00000000E+00  0.00000000E+00  0.00000000E+00  0.00000000E+00
  0.00000000E+00  0.00000000E+00  0.00000000E+00  0.00000000E+00  0.00000000E+00
  0.00000000E+00  0.00000000E+00  0.00000000E+00  0.00000000E+00  0.00000000E+00
ZRed-Constraint1                           R   N=          20
 -1.81633748E+00  0.00000000E+00  0.00000000E+00  1.81633748E+00  0.00000000E+00
  0.00000000E+00  2.33824418E+00  2.33844960E+00  2.33824418E+00  2.33844960E+00
  2.30159125E+00  2.29644169E+00  1.68515237E+00  2.30159125E+00  2.29644169E+00
  1.68515237E+00  3.14159265E+00  0.00000000E+00  0.00000000E+00  3.14159265E+00
ZRed-Constraint2                           R   N=          20
 -1.81633748E+00  0.00000000E+00  0.00000000E+00  1.81633748E+00  0.00000000E+00
  0.00000000E+00  0.00000000E+00  0.00000000E+00  0.00000000E+00  0.00000000E+00
  0.00000000E+00  0.00000000E+00  0.00000000E+00  0.00000000E+00  0.00000000E+00
  0.00000000E+00  0.00000000E+00  0.00000000E+00  0.00000000E+00  0.00000000E+00
Number of contracted shells                I               28
Number of primitive shells                 I               50
Pure/Cartesian d shells                    I                0
Pure/Cartesian f shells                    I                0
Highest angular momentum                   I                2
Largest degree of contraction              I                6
Shell types                                I   N=          28
           0          -1          -1          -1          -1          -2
           0          -1          -1          -1          -1          -2
           0           0           0           1           0           0
           0           1           0           0           0           1
           0           0           0           1
Number of primitives per shell             I   N=          28
           6           3           1           1           1           1
           6           3           1           1           1           1
           3           1           1           1           3           1
           1           1           3           1           1           1
           3           1           1           1
Shell to atom map                          I   N=          28
           1           1           1           1           1           1
           2           2           2           2           2           2
           3           3           3           3           4           4
           4           4           5           5           5           5
           6           6           6           6
Primitive exponents                        R   N=          50
  4.56324000E+03  6.82024000E+02  1.54973000E+02  4.44553000E+01  1.30290000E+01
  1.82773000E+00  2.09642000E+01  4.80331000E+00  1.45933000E+00  4.83456000E-01
  1.45585000E-01  4.38000000E-02  6.26000000E-01  4.56324000E+03  6.82024000E+02
  1.54973000E+02  4.44553000E+01  1.30290000E+01  1.82773000E+00  2.09642000E+01
  4.80331000E+00  1.45933000E+00  4.83456000E-01  1.45585000E-01  4.38000000E-02
  6.26000000E-01  3.38650000E+01  5.09479000E+00  1.15879000E+00  3.25840000E-01
  1.02741000E-01  7.50000000E-01  3.38650000E+01  5.09479000E+00  1.15879000E+00
  3.25840000E-01  1.02741000E-01  7.50000000E-01  3.38650000E+01  5.09479000E+00
  1.15879000E+00  3.25840000E-01  1.02741000E-01  7.50000000E-01  3.38650000E+01
  5.09479000E+00  1.15879000E+00  3.25840000E-01  1.02741000E-01  7.50000000E-01
Contraction coefficients                   R   N=          50
  1.96665025E-03  1.52306019E-02  7.61269097E-02  2.60801033E-01  6.16462078E-01
  2.21006028E-01  1.14660081E-01  9.19999648E-01 -3.03068213E-03  1.00000000E+00
  1.00000000E+00  1.00000000E+00  1.00000000E+00  1.96665025E-03  1.52306019E-02
  7.61269097E-02  2.60801033E-01  6.16462078E-01  2.21006028E-01  1.14660081E-01
  9.19999648E-01 -3.03068213E-03  1.00000000E+00  1.00000000E+00  1.00000000E+00
  1.00000000E+00  2.54938145E-02  1.90373109E-01  8.52161486E-01  1.00000000E+00
  1.00000000E+00  1.00000000E+00  2.54938145E-02  1.90373109E-01  8.52161486E-01
  1.00000000E+00  1.00000000E+00  1.00000000E+00  2.54938145E-02  1.90373109E-01
  8.52161486E-01  1.00000000E+00  1.00000000E+00  1.00000000E+00  2.54938145E-02
  1.90373109E-01  8.52161486E-01  1.00000000E+00  1.00000000E+00  1.00000000E+00
P(S=P) Contraction coefficients            R   N=          50
  0.00000000E+00  0.00000000E+00  0.00000000E+00  0.00000000E+00  0.00000000E+00
  0.00000000E+00  4.02486927E-02  2.37593957E-01  8.15853851E-01  1.00000000E+00
  1.00000000E+00  1.00000000E+00  0.00000000E+00  0.00000000E+00  0.00000000E+00
  0.00000000E+00  0.00000000E+00  0.00000000E+00  0.00000000E+00  4.02486927E-02
  2.37593957E-01  8.15853851E-01  1.00000000E+00  1.00000000E+00  1.00000000E+00
  0.00000000E+00  0.00000000E+00  0.00000000E+00  0.00000000E+00  0.00000000E+00
  0.00000000E+00  0.00000000E+00  0.00000000E+00  0.00000000E+00  0.00000000E+00
  0.00000000E+00  0.00000000E+00  0.00000000E+00  0.00000000E+00  0.00000000E+00
  0.00000000E+00  0.00000000E+00  0.00000000E+00  0.00000000E+00  0.00000000E+00
  0.00000000E+00  0.00000000E+00  0.00000000E+00  0.00000000E+00  0.00000000E+00
Coordinates of each shell                  R   N=          84
 -1.81633748E+00  0.00000000E+00  0.00000000E+00 -1.81633748E+00  0.00000000E+00
  0.00000000E+00 -1.81633748E+00  0.00000000E+00  0.00000000E+00 -1.81633748E+00
  0.00000000E+00  0.00000000E+00 -1.81633748E+00  0.00000000E+00  0.00000000E+00
 -1.81633748E+00  0.00000000E+00  0.00000000E+00  1.81633748E+00  0.00000000E+00
  0.00000000E+00  1.81633748E+00  0.00000000E+00  0.00000000E+00  1.81633748E+00
  0.00000000E+00  0.00000000E+00  1.81633748E+00  0.00000000E+00  0.00000000E+00
  1.81633748E+00  0.00000000E+00  0.00000000E+00  1.81633748E+00  0.00000000E+00
  0.00000000E+00 -2.71691256E+00 -1.82822900E+00  1.44263005E-09 -2.71691256E+00
 -1.82822900E+00  1.44263005E-09 -2.71691256E+00 -1.82822900E+00  1.44263005E-09
 -2.71691256E+00 -1.82822900E+00  1.44263005E-09 -2.71688408E+00  1.82822295E+00
 -6.28527458E-09 -2.71688408E+00  1.82822295E+00 -6.28527458E-09 -2.71688408E+00
  1.82822295E+00 -6.28527458E-09 -2.71688408E+00  1.82822295E+00 -6.28527458E-09
  2.71691254E+00  1.82822909E+00  3.81947350E-09  2.71691254E+00  1.82822909E+00
  3.81947350E-09  2.71691254E+00  1.82822909E+00  3.81947350E-09  2.71691254E+00
  1.82822909E+00  3.81947350E-09  2.71688407E+00 -1.82822305E+00 -3.90786602E-09
  2.71688407E+00 -1.82822305E+00 -3.90786602E-09  2.71688407E+00 -1.82822305E+00
 -3.90786602E-09  2.71688407E+00 -1.82822305E+00 -3.90786602E-09
Num ILSW                                   I              100
ILSW                                       I   N=         100
           1           0           0           1           2           0
           0           0           0           0        4336          -1
           7           0           0           0           2           0
           0           0           0           0           1           0
           1           1           0           0           0           0
           0           0      100000           0          -1           0
           0           0           0           0           0           0
           0           0           0           1           0           0
           0 -2000000000           1           0           0           0
           0           0           4          52           0           0
           0           0          55           0           0           0
           0           0           0           6           0           1
           0           0           0           0           0           0
           0           0           0           0           0           0
           0           0           0           0           0           0
           0           0           0           0           0           0
           0           0           0           0
Num RLSW                                   I               52
RLSW                                       R   N=          52
  1.00000000E+00  1.00000000E+00  1.00000000E+00  1.00000000E+00  5.40000000E-01
  0.00000000E+00  0.00000000E+00  1.00000000E+00  0.00000000E+00  0.00000000E+00
  0.00000000E+00  0.00000000E+00  1.00000000E+00  0.00000000E+00  0.00000000E+00
  0.00000000E+00  0.00000000E+00  1.00000000E+00  0.00000000E+00  0.00000000E+00
  0.00000000E+00  0.00000000E+00  1.00000000E+00  0.00000000E+00  0.00000000E+00
  0.00000000E+00  0.00000000E+00  1.00000000E+00  0.00000000E+00  0.00000000E+00
  0.00000000E+00  0.00000000E+00  1.00000000E+00  0.00000000E+00  0.00000000E+00
  0.00000000E+00  0.00000000E+00  0.00000000E+00  1.00000000E+00  1.00000000E+00
  0.00000000E+00  1.00000000E+00  0.00000000E+00  0.00000000E+00  0.00000000E+00
  0.00000000E+00  0.00000000E+00  0.00000000E+00  0.00000000E+00  0.00000000E+00
  0.00000000E+00  0.00000000E+00
MxBond                                     I                3
NBond                                      I   N=           6
           3           3           1           1           1           1
IBond                                      I   N=          18
           2           3           4           1           5           6
           1           0           0           1           0           0
           2           0           0           2           0           0
RBond                                      R   N=          18
  1.00000000E-01  1.00000000E+00  1.00000000E+00  1.00000000E-01  1.00000000E+00
  1.00000000E+00  1.00000000E+00  0.00000000E+00  0.00000000E+00  1.00000000E+00
  0.00000000E+00  0.00000000E+00  1.00000000E+00  0.00000000E+00  0.00000000E+00
  1.00000000E+00  0.00000000E+00  0.00000000E+00
Virial Ratio                               R      2.012243065594346E+00
SCF Energy                                 R     -7.840316394808721E+01
Total Energy                               R     -7.840316394808721E+01
S**2                                       R     -4.973799150320701E-14
S**2 after annihilation                    R      5.506706202140654E-14
RMS Force                                  R      3.560071689073522E-05
RMS Density                                R      1.106130592520755E-09
Job Status                                 I                1
Nuclear derivative order                   I                1
External E-field                           R   N=          35
  0.00000000E+00  0.00000000E+00  0.00000000E+00  0.00000000E+00  0.00000000E+00
  0.00000000E+00  0.00000000E+00  0.00000000E+00  0.00000000E+00  0.00000000E+00
  0.00000000E+00  0.00000000E+00  0.00000000E+00  0.00000000E+00  0.00000000E+00
  0.00000000E+00  0.00000000E+00  0.00000000E+00  0.00000000E+00  0.00000000E+00
  0.00000000E+00  0.00000000E+00  0.00000000E+00  0.00000000E+00  0.00000000E+00
  0.00000000E+00  0.00000000E+00  0.00000000E+00  0.00000000E+00  0.00000000E+00
  0.00000000E+00  0.00000000E+00  0.00000000E+00  0.00000000E+00  0.00000000E+00
IOpCl                                      I                1
IROHF                                      I                0
Alpha Orbital Energies                     R   N=          68
 -1.06050991E+01 -1.06049351E+01 -7.80177534E-01 -7.09514066E-01 -5.29488339E-01
 -4.91276696E-01 -3.92009644E-01 -2.67262434E-01 -5.65922314E-02  2.52779969E-02
  3.36289258E-02  5.39412593E-02  7.41328148E-02  8.97781440E-02  9.83299662E-02
  1.14802455E-01  1.16280018E-01  1.54875919E-01  1.65189254E-01  2.11599107E-01
  2.11825157E-01  2.84000308E-01  4.00042843E-01  4.38788257E-01  4.56256486E-01
  5.91728748E-01  6.18682881E-01  6.24765877E-01  6.53720739E-01  6.88943515E-01
  7.01205698E-01  7.49976643E-01  7.69126279E-01  8.27901411E-01  1.07866876E+00
  1.10379907E+00  1.13144589E+00  1.25715847E+00  1.40954511E+00  1.43838073E+00
  1.50201217E+00  1.50828199E+00  1.53225766E+00  1.63349605E+00  1.73802887E+00
  1.82180363E+00  1.87476261E+00  1.90253598E+00  1.96365607E+00  1.97920254E+00
  2.05925312E+00  2.06665124E+00  2.36566386E+00  2.52746293E+00  2.58218615E+00
  2.59595401E+00  2.61748185E+00  2.62855452E+00  2.69422672E+00  2.72446492E+00
  2.75763516E+00  2.78373980E+00  2.80651615E+00  3.56097437E+00  3.72460670E+00
  3.76843418E+00  2.38093026E+01  2.38503841E+01
Beta Orbital Energies                      R   N=          68
 -1.06050991E+01 -1.06049351E+01 -7.80177534E-01 -7.09514066E-01 -5.29488339E-01
 -4.91276696E-01 -3.92009644E-01 -2.67262434E-01 -5.65922314E-02  2.52779969E-02
  3.36289258E-02  5.39412593E-02  7.41328148E-02  8.97781440E-02  9.83299662E-02
  1.14802455E-01  1.16280018E-01  1.54875919E-01  1.65189254E-01  2.11599107E-01
  2.11825157E-01  2.84000308E-01  4.00042843E-01  4.38788257E-01  4.56256486E-01
  5.91728748E-01  6.18682881E-01  6.24765877E-01  6.53720739E-01  6.88943515E-01
  7.01205698E-01  7.49976643E-01  7.69126279E-01  8.27901411E-01  1.07866876E+00
  1.10379907E+00  1.13144589E+00  1.25715847E+00  1.40954511E+00  1.43838073E+00
  1.50201217E+00  1.50828199E+00  1.53225766E+00  1.63349605E+00  1.73802887E+00
  1.82180363E+00  1.87476261E+00  1.90253598E+00  1.96365607E+00  1.97920254E+00
  2.05925312E+00  2.06665124E+00  2.36566386E+00  2.52746293E+00  2.58218615E+00
  2.59595401E+00  2.61748185E+00  2.62855452E+00  2.69422672E+00  2.72446492E+00
  2.75763516E+00  2.78373980E+00  2.80651615E+00  3.56097437E+00  3.72460670E+00
  3.76843418E+00  2.38093026E+01  2.38503841E+01
Alpha MO coefficients                      R   N=        4624
  3.98963414E-01  3.28052825E-01  3.48264334E-04 -1.35272081E-08  2.37719331E-13
  8.18702064E-03 -1.35902745E-03  1.14885648E-07 -4.09712932E-12 -1.98411264E-03
 -5.09773402E-05  8.90619618E-09  3.91923859E-14 -5.56999857E-04  4.48108377E-04
 -3.07719079E-08  1.13641661E-12 -8.66169449E-04  1.44635991E-12 -5.53250438E-12
 -9.61103615E-04 -2.31273514E-08  3.98985916E-01  3.28071329E-01 -3.48285741E-04
  1.35278603E-08  9.57628044E-13  8.18748217E-03  1.35912906E-03 -1.14891745E-07
 -5.23940760E-13 -1.98430534E-03  5.10066089E-05 -8.90535311E-09  2.96688673E-13
 -5.56937288E-04 -4.48166362E-04  3.07728769E-08 -4.43627567E-13 -8.66213573E-04
 -2.34486156E-13  5.53249761E-12 -9.61166890E-04 -2.31289482E-08  1.24615027E-04
 -2.37385430E-03  1.50529851E-03 -7.03151607E-04 -1.30682360E-03  8.09925692E-13
  1.24592021E-04 -2.37402474E-03  1.50539757E-03 -7.03172898E-04  1.30690138E-03
 -4.56368414E-12  1.24620285E-04 -2.37397963E-03  1.50539310E-03  7.03188013E-04
  1.30689819E-03  2.70551508E-12  1.24597277E-04 -2.37415008E-03  1.50549216E-03
  7.03209306E-04 -1.30697597E-03 -2.66868462E-12  3.99002050E-01  3.28126643E-01
  3.80266220E-04 -1.22365162E-08  2.36541698E-13  8.19599457E-03 -1.81000191E-03
  1.11643227E-07 -4.16002708E-12 -3.41208712E-03 -5.15720354E-04 -1.48959549E-08
  5.56858137E-13  1.08345751E-03  1.02188660E-03 -1.76667230E-08  1.18886247E-12
 -7.85391150E-04  1.48483282E-12 -5.09038257E-12 -1.12418664E-03 -2.64370495E-08
 -3.98979549E-01 -3.28108142E-01  3.80246564E-04 -1.22357072E-08 -9.96557235E-13
 -8.19553215E-03 -1.80992488E-03  1.11636539E-07  4.65418585E-13  3.41197523E-03
 -5.15717496E-04 -1.48963028E-08 -9.99890801E-14 -1.08348911E-03  1.02186128E-03
 -1.76649806E-08 -4.05834722E-13  7.85342155E-04  1.57633020E-13 -5.08982168E-12
  1.12413237E-03  2.64359027E-08  9.21411651E-05 -2.23288118E-03  1.68488911E-03
 -6.48163767E-04 -1.32619024E-03  8.24432379E-13  9.21145271E-05 -2.23302746E-03
  1.68499741E-03 -6.48181839E-04  1.32626767E-03 -4.70027717E-12 -9.21342039E-05
  2.23274683E-03 -1.68480395E-03 -6.48123991E-04 -1.32611636E-03 -2.78726298E-12
 -9.21075672E-05  2.23289310E-03 -1.68491225E-03 -6.48142062E-04  1.32619379E-03
  2.73641815E-12 -7.84555811E-02 -1.26416787E-01 -6.47996123E-03  1.07289828E-06
 -6.69409825E-11  3.38046285E-01 -1.52016233E-03  1.03351273E-06 -9.02543586E-11
  2.30302483E-01  8.96484056E-05  2.88715289E-07 -3.62968551E-11  2.81078854E-03
 -4.24834240E-03  6.17888075E-09 -6.18849220E-12 -8.99594079E-03  8.12256184E-12
 -3.19696877E-11  3.94456407E-04 -1.00582103E-08 -7.84555684E-02 -1.26416767E-01
  6.47995007E-03 -1.07289442E-06 -3.51119330E-12  3.38046233E-01  1.52014828E-03
 -1.03350836E-06  1.90466706E-12  2.30302452E-01 -8.96553027E-05 -2.88713099E-07
 -4.53226141E-12  2.81078597E-03  4.24834260E-03 -6.17890694E-09  2.50146831E-12
 -8.99593985E-03 -4.68859232E-12  3.19980148E-11  3.94457551E-04 -1.00594085E-08
  7.12377743E-02  8.18208597E-02  3.89037116E-03  4.67338991E-03  1.09670963E-02
 -1.13785842E-11  7.12395773E-02  8.18225204E-02  3.89043506E-03  4.67339613E-03
 -1.09673831E-02  3.39262314E-11  7.12377567E-02  8.18208411E-02  3.89037100E-03
 -4.67338891E-03 -1.09670939E-02 -2.26275681E-11  7.12395597E-02  8.18225018E-02
  3.89043489E-03 -4.67339514E-03  1.09673807E-02  2.26812976E-11 -7.38289950E-02
 -1.19285200E-01 -5.20265765E-02  1.65632851E-06 -9.53997777E-11  3.24215037E-01
 -7.61215398E-02  1.85971224E-06 -1.33249942E-10  2.26830458E-01 -3.63414010E-02
  7.22602115E-07 -5.38489894E-11 -2.63367197E-02 -1.21524712E-02  1.77822581E-09
 -7.07769352E-12 -6.52320017E-03  1.63882459E-11 -4.42206859E-11 -9.59194300E-03
  6.80176358E-09  7.38290084E-02  1.19285222E-01 -5.20265708E-02  1.65632637E-06
 -6.07293381E-12 -3.24215099E-01 -7.61215321E-02  1.85970941E-06 -1.56785450E-11
 -2.26830507E-01 -3.63413978E-02  7.22598791E-07 -2.78734641E-12  2.63367190E-02
 -1.21524720E-02  1.77863364E-09  3.24346223E-12  6.52320172E-03  5.67243937E-12
 -4.42010766E-11  9.59194306E-03 -6.80081303E-09  8.59311586E-02  1.03555376E-01
  1.26997617E-02  3.14257683E-03  1.23242875E-02 -1.47981170E-11  8.59334448E-02
  1.03557550E-01  1.26999728E-02  3.14256865E-03 -1.23245850E-02  3.93616341E-11
 -8.59311659E-02 -1.03555387E-01 -1.26997629E-02  3.14257746E-03  1.23242888E-02
  2.60723977E-11 -8.59334521E-02 -1.03557562E-01 -1.26999740E-02  3.14256928E-03
 -1.23245864E-02 -2.80969642E-11  4.81823626E-07  8.07473692E-07  7.60095926E-07
  1.48087763E-01 -2.57860741E-10 -2.35035785E-06  1.25184490E-06  2.06954690E-01
 -3.47796436E-10 -2.98043769E-06  7.63038470E-07  1.21596079E-01 -1.95629900E-10
  9.15525159E-07  5.08646667E-07  4.20659422E-03 -1.15797332E-11  1.91076582E-08
  3.54319767E-11 -4.30232729E-11 -1.60799669E-07 -9.56191212E-03 -4.81822212E-07
 -8.07471389E-07  7.60080058E-07  1.48087728E-01  2.57828424E-10  2.35035126E-06
  1.25182258E-06  2.06954646E-01  3.48043626E-10  2.98042912E-06  7.63024364E-07
  1.21596055E-01  1.95503527E-10 -9.15526716E-07  5.08645377E-07  4.20659379E-03
  1.16363057E-11 -1.91080440E-08  3.54381764E-11  1.89549236E-12  1.60797958E-07
  9.56190732E-03 -1.05416310E-01 -1.44954881E-01 -4.18230884E-02 -7.39228736E-03
 -9.60257826E-03  1.02153757E-12  1.05415615E-01  1.44952909E-01  4.18224663E-02
  7.39212024E-03 -9.60244604E-03  4.73026141E-11  1.05416284E-01  1.44954849E-01
  4.18230782E-02 -7.39228497E-03 -9.60257630E-03 -2.43872013E-11 -1.05415589E-01
 -1.44952876E-01 -4.18224560E-02  7.39211786E-03 -9.60244408E-03 -2.39826956E-11
  3.01389139E-07  5.19139414E-07  4.92464793E-07  1.51474112E-01 -3.74922733E-10
 -1.56942844E-06  9.08193459E-07  2.08564269E-01 -5.33293329E-10 -2.63020449E-06
  5.50094915E-07  1.28431293E-01 -3.24693567E-10 -2.99090259E-07  1.30041112E-07
  1.13646069E-02 -1.28682805E-11  1.03878771E-08  2.27550895E-11 -4.57983285E-11
 -1.82900251E-07 -2.04196714E-02  3.01390095E-07  5.19140958E-07 -4.92456960E-07
 -1.51474139E-01 -3.74912808E-10 -1.56943255E-06 -9.08183273E-07 -2.08564311E-01
 -5.32961405E-10 -2.63020929E-06 -5.50088169E-07 -1.28431320E-01 -3.24860344E-10
 -2.99099458E-07 -1.30037331E-07 -1.13646090E-02 -1.27166291E-11  1.03879052E-08
 -2.27271857E-11 -4.78485691E-12 -1.82897241E-07 -2.04196724E-02 -1.12749116E-01
 -1.61576224E-01 -5.39227727E-02 -7.78564065E-03 -9.45726686E-03 -6.67833766E-12
  1.12748847E-01  1.61574850E-01  5.39223947E-02  7.78551922E-03 -9.45726485E-03
  3.94498629E-11 -1.12749135E-01 -1.61576256E-01 -5.39227825E-02  7.78564141E-03
  9.45726915E-03  1.67023474E-11  1.12748866E-01  1.61574882E-01  5.39224045E-02
 -7.78551998E-03  9.45726714E-03  1.59934827E-11 -1.31458591E-02 -2.19666789E-02
  1.74093616E-01 -1.19034297E-06  1.81903228E-10  6.09471388E-02  2.68225708E-01
 -1.46272299E-06  2.60192187E-10  9.52203935E-02  2.02507292E-01 -1.00555908E-06
  2.09073747E-10  2.78591050E-03  1.48103210E-02  8.33990194E-08  2.74987713E-11
 -1.12801108E-05 -2.52823629E-11  2.89867583E-11  1.40181679E-02  8.44498756E-08
 -1.31458567E-02 -2.19666749E-02 -1.74093616E-01  1.19032670E-06  2.51108926E-11
  6.09471270E-02 -2.68225709E-01  1.46269913E-06  5.19589721E-11  9.52203752E-02
 -2.02507292E-01  1.00554164E-06  2.41328781E-11  2.78590682E-03 -1.48103210E-02
 -8.34005984E-08 -8.49952756E-12 -1.12803779E-05 -1.14801571E-11 -2.89796263E-11
  1.40181691E-02  8.44502861E-08 -5.79502984E-02 -8.95622222E-02 -4.41582145E-02
  6.90717401E-03 -8.27238248E-03  1.86907321E-11 -5.79506469E-02 -8.95623240E-02
 -4.41584761E-02  6.90734250E-03  8.27235351E-03 -1.84892788E-11 -5.79502992E-02
 -8.95622262E-02 -4.41582171E-02 -6.90717383E-03  8.27238232E-03  1.99755033E-11
 -5.79506477E-02 -8.95623280E-02 -4.41584786E-02 -6.90734232E-03 -8.27235336E-03
 -1.70662845E-11 -6.22297811E-11 -1.04033536E-10 -1.39063044E-10  4.34075634E-10
  1.71115842E-01  3.07309182E-10 -2.34491155E-10  6.45238561E-10  2.67934806E-01
  4.41950174E-10 -2.15824292E-10  5.52873437E-10  2.93700457E-01 -5.05509485E-10
 -2.51299158E-10  1.63015812E-10  5.67198446E-02 -1.33729338E-11  8.30904740E-03
  5.51989874E-08 -1.61643381E-12 -3.60406827E-11  2.02231049E-11  3.40987296E-11
  1.22565145E-10 -4.34033130E-10  1.71115843E-01 -1.00725985E-10  1.75158189E-10
 -6.46071634E-10  2.67934807E-01 -1.20362524E-10  1.71336234E-10 -5.53118678E-10
  2.93700458E-01  5.24969010E-10 -1.38206642E-10 -1.62027826E-10  5.67198448E-02
  5.45292639E-12 -8.30904786E-03 -5.51984246E-08  9.97348384E-13 -3.64347233E-11
 -1.42244827E-10 -2.93031626E-10 -1.44667917E-10 -2.08346089E-11  7.97861854E-12
  1.42375611E-02  2.92329912E-11  1.27444721E-10  1.97661724E-10 -1.65915688E-11
  3.07557943E-11  1.42376834E-02 -6.07448261E-11 -1.58509698E-10 -1.76562319E-10
  9.32058352E-12 -2.64420548E-11  1.42375608E-02  1.11047270E-10  2.58785200E-10
  1.69621298E-10  5.08197987E-12 -1.28757444E-11  1.42376830E-02 -7.49148764E-11
 -1.25435213E-10 -1.04728745E-10  3.18691173E-10  1.83671232E-01  3.61791016E-10
 -1.75434115E-10  5.03229003E-10  2.80778755E-01  7.46912935E-10 -2.85572798E-10
  7.34382785E-10  3.71788835E-01  5.18311026E-10 -1.45475805E-11  4.21907764E-10
  2.92730421E-01 -7.69207920E-12 -1.87973295E-02  5.55990259E-08  1.12652922E-11
  2.54399185E-11  2.67077073E-11  4.45844547E-11  9.68750935E-11  3.18695523E-10
 -1.83671232E-01 -1.41036324E-10  1.60039122E-10  5.02030173E-10 -2.80778755E-01
 -1.51168056E-10  1.16084062E-10  7.32486726E-10 -3.71788835E-01 -2.63107231E-10
  2.59823480E-10  4.26116577E-10 -2.92730422E-01 -1.30720581E-11 -1.87973290E-02
  5.55985563E-08  3.65112437E-12 -2.59953218E-11 -2.46229570E-11 -3.70826410E-11
  7.55392131E-12 -1.91632456E-11  2.93574146E-11  1.91586921E-02 -2.07724499E-10
 -3.86244289E-10 -4.17541301E-10 -4.04677550E-12  5.92830749E-11  1.91587448E-02
 -6.75508911E-11 -1.37925387E-10 -1.50531311E-10  2.94316135E-12  4.33740479E-11
 -1.91586916E-02  1.16034493E-10  2.05800995E-10  2.80642214E-10  1.82648241E-11
  4.44471550E-11 -1.91587443E-02 -3.61380003E-02 -6.10346795E-02  5.56708775E-02
 -8.29039709E-07 -6.73086894E-11  1.84365106E-01  9.11310734E-02 -8.33983085E-07
 -1.29121727E-10  3.72084703E-01  7.68326587E-02 -3.46564192E-06 -2.03006794E-10
  2.73006494E+00  1.82070526E+00 -2.94765461E-06  4.19284458E-10  4.19103738E-03
  1.48437846E-12 -2.14543310E-11 -1.77954850E-02 -1.81982986E-07  3.61380020E-02
  6.10346821E-02  5.56708747E-02 -8.29030590E-07  2.81405551E-11 -1.84365109E-01
  9.11310714E-02 -8.33953621E-07  3.39140883E-11 -3.72084755E-01  7.68326447E-02