 Entering Gaussian System, Link 0=g16
 Initial command:
 /home/szhao/Apps/g16/l1.exe "/home/szhao/tmp/Gau-98798.inp" -scrdir="/home/szhao/tmp/"
 Default is to use a total of  16 processors:
                               16 via shared-memory
                                1 via Linda
 Entering Link 1 = /home/szhao/Apps/g16/l1.exe PID=     98799.
  
 Copyright (c) 1988,1990,1992,1993,1995,1998,2003,2009,2016,
            Gaussian, Inc.  All Rights Reserved.
  
 This is part of the Gaussian(R) 16 program.  It is based on
 the Gaussian(R) 09 system (copyright 2009, Gaussian, Inc.),
 the Gaussian(R) 03 system (copyright 2003, Gaussian, Inc.),
 the Gaussian(R) 98 system (copyright 1998, Gaussian, Inc.),
 the Gaussian(R) 94 system (copyright 1995, Gaussian, Inc.),
 the Gaussian 92(TM) system (copyright 1992, Gaussian, Inc.),
 the Gaussian 90(TM) system (copyright 1990, Gaussian, Inc.),
 the Gaussian 88(TM) system (copyright 1988, Gaussian, Inc.),
 the Gaussian 86(TM) system (copyright 1986, Carnegie Mellon
 University), and the Gaussian 82(TM) system (copyright 1983,
 Carnegie Mellon University). Gaussian is a federally registered
 trademark of Gaussian, Inc.
  
 This software contains proprietary and confidential information,
 including trade secrets, belonging to Gaussian, Inc.
  
 This software is provided under written license and may be
 used, copied, transmitted, or stored only in accord with that
 written license.
  
 The following legend is applicable only to US Government
 contracts under FAR:
  
                    RESTRICTED RIGHTS LEGEND
  
 Use, reproduction and disclosure by the US Government is
 subject to restrictions as set forth in subparagraphs (a)
 and (c) of the Commercial Computer Software - Restricted
 Rights clause in FAR 52.227-19.
  
 Gaussian, Inc.
 340 Quinnipiac St., Bldg. 40, Wallingford CT 06492
  
  
 ---------------------------------------------------------------
 Warning -- This program may not be used in any manner that
 competes with the business of Gaussian, Inc. or will provide
 assistance to any competitor of Gaussian, Inc.  The licensee
 of this program is prohibited from giving any competitor of
 Gaussian, Inc. access to this program.  By using this program,
 the user acknowledges that Gaussian, Inc. is engaged in the
 business of creating and licensing software in the field of
 computational chemistry and represents and warrants to the
 licensee that it is not a competitor of Gaussian, Inc. and that
 it will not use this program in any manner prohibited above.
 ---------------------------------------------------------------
  

 Cite this work as:
 Gaussian 16, Revision A.03,
 M. J. Frisch, G. W. Trucks, H. B. Schlegel, G. E. Scuseria, 
 M. A. Robb, J. R. Cheeseman, G. Scalmani, V. Barone, 
 G. A. Petersson, H. Nakatsuji, X. Li, M. Caricato, A. V. Marenich, 
 J. Bloino, B. G. Janesko, R. Gomperts, B. Mennucci, H. P. Hratchian, 
 J. V. Ortiz, A. F. Izmaylov, J. L. Sonnenberg, D. Williams-Young, 
 F. Ding, F. Lipparini, F. Egidi, J. Goings, B. Peng, A. Petrone, 
 T. Henderson, D. Ranasinghe, V. G. Zakrzewski, J. Gao, N. Rega, 
 G. Zheng, W. Liang, M. Hada, M. Ehara, K. Toyota, R. Fukuda, 
 J. Hasegawa, M. Ishida, T. Nakajima, Y. Honda, O. Kitao, H. Nakai, 
 T. Vreven, K. Throssell, J. A. Montgomery, Jr., J. E. Peralta, 
 F. Ogliaro, M. J. Bearpark, J. J. Heyd, E. N. Brothers, K. N. Kudin, 
 V. N. Staroverov, T. A. Keith, R. Kobayashi, J. Normand, 
 K. Raghavachari, A. P. Rendell, J. C. Burant, S. S. Iyengar, 
 J. Tomasi, M. Cossi, J. M. Millam, M. Klene, C. Adamo, R. Cammi, 
 J. W. Ochterski, R. L. Martin, K. Morokuma, O. Farkas, 
 J. B. Foresman, and D. J. Fox, Gaussian, Inc., Wallingford CT, 2016.
 
 ******************************************
 Gaussian 16:  ES64L-G16RevA.03 25-Dec-2016
                 3-Dec-2024 
 ******************************************
 %chk=opt.chk
 %mem=16GB
 %nprocshared=24
 Will use up to   24 processors via shared memory.
 --------------------------------------------
 #p opt UM062X/6-311+G** nosymm int=superfine
 --------------------------------------------
 1/18=20,19=15,26=5,38=1/1,3;
 2/9=110,12=2,15=1,17=6,18=5,40=1/2;
 3/5=4,6=6,7=111,11=2,25=1,30=1,71=1,74=-55,75=-7,116=2/1,2,3;
 4//1;
 5/5=2,38=5/2;
 6/7=2,8=2,9=2,10=2,28=1/1;
 7/30=1/1,2,3,16;
 1/18=20,19=15,26=5/3(2);
 2/9=110,15=1/2;
 99//99;
 2/9=110,15=1/2;
 3/5=4,6=6,7=111,11=2,25=1,30=1,71=1,74=-55,75=-7,116=2/1,2,3;
 4/5=5,16=3,69=1/1;
 5/5=2,38=5/2;
 7/30=1/1,2,3,16;
 1/18=20,19=15,26=5/3(-5);
 2/9=110,15=1/2;
 6/7=2,8=2,9=2,10=2,19=2,28=1/1;
 99/9=1/99;
 Leave Link    1 at Tue Dec  3 11:32:31 2024, MaxMem=  2147483648 cpu:               1.0 elap:               0.0
 (Enter /home/szhao/Apps/g16/l101.exe)
 -------------------
 Title Card Required
 -------------------
 Symbolic Z-matrix:
 Charge =  1 Multiplicity = 2
 C                    -1   -1.88216   0.        0. 
 C                    -1    1.88216   0.        0. 
 H                    0    -2.98315   0.        0. 
 H                    0     2.98313   0.        0. 
 
 Add virtual bond connecting atoms C2         and C1         Dist= 7.11D+00.
 ITRead=  2  2  0  0
 MicOpt= -2 -2 -1 -1
 NAtoms=      4 NQM=        2 NQMF=       2 NMMI=      0 NMMIF=      0
                NMic=       0 NMicF=      0.
                    Isotopes and Nuclear Properties:
 (Nuclear quadrupole moments (NQMom) in fm**2, nuclear magnetic moments (NMagM)
  in nuclear magnetons)

  Atom         1           2           3           4
 IAtWgt=          12          12           1           1
 AtmWgt=  12.0000000  12.0000000   1.0078250   1.0078250
 NucSpn=           0           0           1           1
 AtZEff=  -0.0000000  -0.0000000  -0.0000000  -0.0000000
 NQMom=    0.0000000   0.0000000   0.0000000   0.0000000
 NMagM=    0.0000000   0.0000000   2.7928460   2.7928460
 AtZNuc=   6.0000000   6.0000000   1.0000000   1.0000000
 Leave Link  101 at Tue Dec  3 11:32:32 2024, MaxMem=  2147483648 cpu:              19.8 elap:               0.8
 (Enter /home/szhao/Apps/g16/l103.exe)

 GradGradGradGradGradGradGradGradGradGradGradGradGradGradGradGradGradGrad
 Berny optimization.
 Initialization pass.
                           ----------------------------
                           !    Initial Parameters    !
                           ! (Angstroms and Degrees)  !
 --------------------------                            --------------------------
 ! Name  Definition              Value          Derivative Info.                !
 --------------------------------------------------------------------------------
 ! X1    R(1,-1)                -1.8822         Frozen                          !
 ! Y1    R(1,-2)                 0.0            Frozen                          !
 ! Z1    R(1,-3)                 0.0            Frozen                          !
 ! X2    R(2,-1)                 1.8822         Frozen                          !
 ! Y2    R(2,-2)                 0.0            Frozen                          !
 ! Z2    R(2,-3)                 0.0            Frozen                          !
 ! R1    R(1,3)                  1.101          estimate D2E/DX2                !
 ! R2    R(2,4)                  1.101          estimate D2E/DX2                !
 ! A1    L(2,1,3,-2,-1)        180.0            estimate D2E/DX2                !
 ! A2    L(1,2,4,-2,-1)        180.0            estimate D2E/DX2                !
 ! A3    L(2,1,3,-3,-2)        180.0            estimate D2E/DX2                !
 ! A4    L(1,2,4,-3,-2)        180.0            estimate D2E/DX2                !
 --------------------------------------------------------------------------------
 Trust Radius=3.00D-01 FncErr=1.00D-07 GrdErr=1.00D-07 EigMax=2.50D+02 EigMin=1.00D-04
 Number of steps in this run=     22 maximum allowed number of steps=    100.
 GradGradGradGradGradGradGradGradGradGradGradGradGradGradGradGradGradGrad

 Leave Link  103 at Tue Dec  3 11:32:32 2024, MaxMem=  2147483648 cpu:               0.2 elap:               0.0
 (Enter /home/szhao/Apps/g16/l202.exe)
                          Input orientation:                          
 ---------------------------------------------------------------------
 Center     Atomic      Atomic             Coordinates (Angstroms)
 Number     Number       Type             X           Y           Z
 ---------------------------------------------------------------------
      1          6           0       -1.882160    0.000000    0.000000
      2          6           0        1.882160    0.000000    0.000000
      3          1           0       -2.983153    0.000000    0.000000
      4          1           0        2.983131    0.000000    0.000000
 ---------------------------------------------------------------------
                    Distance matrix (angstroms):
                    1          2          3          4
     1  C    0.000000
     2  C    3.764320   0.000000
     3  H    1.100993   4.865313   0.000000
     4  H    4.865291   1.100971   5.966284   0.000000
 Symmetry turned off by external request.
 Stoichiometry    C2H2(1+,2)
 Framework group  C*V[C*(HCCH)]
 Deg. of freedom     3
 Full point group                 C*V     NOp   4
 Rotational constants (GHZ):           0.0000000           4.9085855           4.9085855
 Leave Link  202 at Tue Dec  3 11:32:32 2024, MaxMem=  2147483648 cpu:               0.0 elap:               0.0
 (Enter /home/szhao/Apps/g16/l301.exe)
 Standard basis: 6-311+G(d,p) (5D, 7F)
 Ernie: Thresh=  0.10000D-02 Tol=  0.10000D-05 Strict=F.
    56 basis functions,    88 primitive gaussians,    58 cartesian basis functions
     7 alpha electrons        6 beta electrons
       nuclear repulsion energy        12.2223502484 Hartrees.
 IExCor= 4336 DFT=T Ex+Corr=M062X ExCW=0 ScaHFX=  0.540000
 ScaDFX=  1.000000  1.000000  1.000000  1.000000 ScalE2=  1.000000  1.000000
 IRadAn=      7 IRanWt=     -1 IRanGd=            0 ICorTp=0 IEmpDi=  4
 NAtoms=    4 NActive=    4 NUniq=    4 SFac= 1.00D+00 NAtFMM=   60 NAOKFM=F Big=F
 Integral buffers will be    131072 words long.
 Raffenetti 2 integral format.
 Two-electron integral symmetry is turned off.
 Leave Link  301 at Tue Dec  3 11:32:33 2024, MaxMem=  2147483648 cpu:               0.9 elap:               0.0
 (Enter /home/szhao/Apps/g16/l302.exe)
 NPDir=0 NMtPBC=     1 NCelOv=     1 NCel=       1 NClECP=     1 NCelD=      1
         NCelK=      1 NCelE2=     1 NClLst=     1 CellRange=     0.0.
 One-electron integrals computed using PRISM.
 NBasis=    56 RedAO= T EigKep=  1.41D-02  NBF=    56
 NBsUse=    56 1.00D-06 EigRej= -1.00D+00 NBFU=    56
 Precomputing XC quadrature grid using
 IXCGrd= 4 IRadAn=           7 IRanWt=          -1 IRanGd=           0 AccXCQ= 0.00D+00.
 Generated NRdTot=       0 NPtTot=           0 NUsed=           0 NTot=          32
 NSgBfM=    58    58    58    58    58 MxSgAt=     4 MxSgA2=     4.
 Leave Link  302 at Tue Dec  3 11:32:33 2024, MaxMem=  2147483648 cpu:               4.3 elap:               0.2
 (Enter /home/szhao/Apps/g16/l303.exe)
 DipDrv:  MaxL=1.
 Leave Link  303 at Tue Dec  3 11:32:33 2024, MaxMem=  2147483648 cpu:               0.9 elap:               0.0
 (Enter /home/szhao/Apps/g16/l401.exe)
 ExpMin= 4.38D-02 ExpMax= 4.56D+03 ExpMxC= 6.82D+02 IAcc=3 IRadAn=         7 AccDes= 0.00D+00
 Harris functional with IExCor= 1009 and IRadAn=       7 diagonalized for initial guess.
 HarFok:  IExCor= 1009 AccDes= 0.00D+00 IRadAn=         7 IDoV= 1 UseB2=F ITyADJ=14
 ICtDFT=  3500011 ScaDFX=  1.000000  1.000000  1.000000  1.000000
 FoFCou: FMM=F IPFlag=           0 FMFlag=      100000 FMFlg1=           0
         NFxFlg=           0 DoJE=T BraDBF=F KetDBF=T FulRan=T
         wScrn=  0.000000 ICntrl=       500 IOpCl=  0 I1Cent=   200000004 NGrid=           0
         NMat0=    1 NMatS0=      1 NMatT0=    0 NMatD0=    1 NMtDS0=    0 NMtDT0=    0
 Symmetry not used in FoFCou.
 Harris En= -76.6191550540774    
 JPrj=0 DoOrth=F DoCkMO=F.
 Initial guess <Sx>= 0.0000 <Sy>= 0.0000 <Sz>= 0.5000 <S**2>= 0.7500 S= 0.5000
 Leave Link  401 at Tue Dec  3 11:32:33 2024, MaxMem=  2147483648 cpu:               5.0 elap:               0.2
 (Enter /home/szhao/Apps/g16/l502.exe)
 Keep R1 and R2 ints in memory in canonical form, NReq=23774294.
 FoFCou: FMM=F IPFlag=           0 FMFlag=           0 FMFlg1=           0
         NFxFlg=           0 DoJE=F BraDBF=F KetDBF=F FulRan=T
         wScrn=  0.000000 ICntrl=       600 IOpCl=  0 I1Cent=           0 NGrid=           0
         NMat0=    1 NMatS0=   1596 NMatT0=    0 NMatD0=    1 NMtDS0=    0 NMtDT0=    0
 Symmetry not used in FoFCou.
 Two-electron integral symmetry not used.
 UHF open shell SCF:
 Using DIIS extrapolation, IDIIS=  1040.
 NGot=  2147483648 LenX=  2144926146 LenY=  2144922341
 Requested convergence on RMS density matrix=1.00D-08 within 128 cycles.
 Requested convergence on MAX density matrix=1.00D-06.
 Requested convergence on             energy=1.00D-06.
 No special actions if energy rises.

 Cycle   1  Pass 1  IDiag  1:
 E= -76.5640621547899    
 DIIS: error= 1.78D-02 at cycle   1 NSaved=   1.
 NSaved= 1 IEnMin= 1 EnMin= -76.5640621547899     IErMin= 1 ErrMin= 1.78D-02
 ErrMax= 1.78D-02  0.00D+00 EMaxC= 1.00D-01 BMatC= 8.54D-02 BMatP= 8.54D-02
 IDIUse=3 WtCom= 8.22D-01 WtEn= 1.78D-01
 Coeff-Com:  0.100D+01
 Coeff-En:   0.100D+01
 Coeff:      0.100D+01
 Gap=     0.144 Goal=   None    Shift=    0.000
 Gap=     0.306 Goal=   None    Shift=    0.000
 GapD=    0.144 DampG=1.000 DampE=0.500 DampFc=0.5000 IDamp=-1.
 Damping current iteration by 5.00D-01
 RMSDP=3.58D-03 MaxDP=8.23D-02              OVMax= 7.82D-02

 Cycle   2  Pass 1  IDiag  1:
 E= -76.5751515519751     Delta-E=       -0.011089397185 Rises=F Damp=T
 DIIS: error= 8.35D-03 at cycle   2 NSaved=   2.
 NSaved= 2 IEnMin= 2 EnMin= -76.5751515519751     IErMin= 2 ErrMin= 8.35D-03
 ErrMax= 8.35D-03  0.00D+00 EMaxC= 1.00D-01 BMatC= 1.53D-02 BMatP= 8.54D-02
 IDIUse=3 WtCom= 9.16D-01 WtEn= 8.35D-02
 Coeff-Com: -0.579D+00 0.158D+01
 Coeff-En:   0.000D+00 0.100D+01
 Coeff:     -0.530D+00 0.153D+01
 Gap=     0.076 Goal=   None    Shift=    0.000
 Gap=     0.297 Goal=   None    Shift=    0.000
 RMSDP=9.80D-04 MaxDP=2.02D-02 DE=-1.11D-02 OVMax= 2.06D-02

 Cycle   3  Pass 1  IDiag  1:
 E= -76.5848223632450     Delta-E=       -0.009670811270 Rises=F Damp=F
 DIIS: error= 1.09D-03 at cycle   3 NSaved=   3.
 NSaved= 3 IEnMin= 3 EnMin= -76.5848223632450     IErMin= 3 ErrMin= 1.09D-03
 ErrMax= 1.09D-03  0.00D+00 EMaxC= 1.00D-01 BMatC= 1.59D-04 BMatP= 1.53D-02
 IDIUse=3 WtCom= 9.89D-01 WtEn= 1.09D-02
 Coeff-Com: -0.689D-01 0.112D+00 0.957D+00
 Coeff-En:   0.000D+00 0.000D+00 0.100D+01
 Coeff:     -0.682D-01 0.111D+00 0.958D+00
 Gap=     0.076 Goal=   None    Shift=    0.000
 Gap=     0.298 Goal=   None    Shift=    0.000
 RMSDP=1.42D-04 MaxDP=3.43D-03 DE=-9.67D-03 OVMax= 3.18D-03

 Cycle   4  Pass 1  IDiag  1:
 E= -76.5848723994809     Delta-E=       -0.000050036236 Rises=F Damp=F
 DIIS: error= 2.76D-04 at cycle   4 NSaved=   4.
 NSaved= 4 IEnMin= 4 EnMin= -76.5848723994809     IErMin= 4 ErrMin= 2.76D-04
 ErrMax= 2.76D-04  0.00D+00 EMaxC= 1.00D-01 BMatC= 9.31D-06 BMatP= 1.59D-04
 IDIUse=3 WtCom= 9.97D-01 WtEn= 2.76D-03
 Coeff-Com:  0.165D-01-0.393D-01-0.827D-01 0.111D+01
 Coeff-En:   0.000D+00 0.000D+00 0.000D+00 0.100D+01
 Coeff:      0.165D-01-0.392D-01-0.825D-01 0.111D+01
 Gap=     0.076 Goal=   None    Shift=    0.000
 Gap=     0.298 Goal=   None    Shift=    0.000
 RMSDP=6.49D-05 MaxDP=1.60D-03 DE=-5.00D-05 OVMax= 5.96D-03

 Cycle   5  Pass 1  IDiag  1:
 E= -76.5848688964287     Delta-E=        0.000003503052 Rises=F Damp=F
 DIIS: error= 3.59D-04 at cycle   5 NSaved=   5.
 NSaved= 5 IEnMin= 4 EnMin= -76.5848723994809     IErMin= 4 ErrMin= 2.76D-04
 ErrMax= 3.59D-04  0.00D+00 EMaxC= 1.00D-01 BMatC= 1.66D-05 BMatP= 9.31D-06
 IDIUse=3 WtCom= 3.46D-01 WtEn= 6.54D-01
 Coeff-Com:  0.155D-01-0.335D-01-0.117D+00 0.744D+00 0.390D+00
 Coeff-En:   0.000D+00 0.000D+00 0.000D+00 0.709D+00 0.291D+00
 Coeff:      0.534D-02-0.116D-01-0.404D-01 0.721D+00 0.325D+00
 Gap=     0.076 Goal=   None    Shift=    0.000
 Gap=     0.299 Goal=   None    Shift=    0.000
 RMSDP=4.72D-05 MaxDP=7.39D-04 DE= 3.50D-06 OVMax= 5.09D-03

 Cycle   6  Pass 1  IDiag  1:
 E= -76.5848757110867     Delta-E=       -0.000006814658 Rises=F Damp=F
 DIIS: error= 5.64D-05 at cycle   6 NSaved=   6.
 NSaved= 6 IEnMin= 6 EnMin= -76.5848757110867     IErMin= 6 ErrMin= 5.64D-05
 ErrMax= 5.64D-05  0.00D+00 EMaxC= 1.00D-01 BMatC= 6.82D-07 BMatP= 9.31D-06
 IDIUse=1 WtCom= 1.00D+00 WtEn= 0.00D+00
 Coeff-Com:  0.600D-03-0.226D-03-0.301D-01-0.139D+00 0.120D+00 0.105D+01
 Coeff:      0.600D-03-0.226D-03-0.301D-01-0.139D+00 0.120D+00 0.105D+01
 Gap=     0.076 Goal=   None    Shift=    0.000
 Gap=     0.299 Goal=   None    Shift=    0.000
 RMSDP=1.12D-05 MaxDP=3.26D-04 DE=-6.81D-06 OVMax= 6.98D-04

 Cycle   7  Pass 1  IDiag  1:
 E= -76.5848760196264     Delta-E=       -0.000000308540 Rises=F Damp=F
 DIIS: error= 5.54D-06 at cycle   7 NSaved=   7.
 NSaved= 7 IEnMin= 7 EnMin= -76.5848760196264     IErMin= 7 ErrMin= 5.54D-06
 ErrMax= 5.54D-06  0.00D+00 EMaxC= 1.00D-01 BMatC= 3.27D-09 BMatP= 6.82D-07
 IDIUse=1 WtCom= 1.00D+00 WtEn= 0.00D+00
 Coeff-Com: -0.353D-03 0.567D-03 0.790D-02 0.721D-02-0.321D-01-0.203D+00
 Coeff-Com:  0.122D+01
 Coeff:     -0.353D-03 0.567D-03 0.790D-02 0.721D-02-0.321D-01-0.203D+00
 Coeff:      0.122D+01
 Gap=     0.076 Goal=   None    Shift=    0.000
 Gap=     0.299 Goal=   None    Shift=    0.000
 RMSDP=1.19D-06 MaxDP=2.80D-05 DE=-3.09D-07 OVMax= 3.01D-05

 Cycle   8  Pass 1  IDiag  1:
 E= -76.5848760218576     Delta-E=       -0.000000002231 Rises=F Damp=F
 DIIS: error= 1.21D-06 at cycle   8 NSaved=   8.
 NSaved= 8 IEnMin= 8 EnMin= -76.5848760218576     IErMin= 8 ErrMin= 1.21D-06
 ErrMax= 1.21D-06  0.00D+00 EMaxC= 1.00D-01 BMatC= 1.07D-10 BMatP= 3.27D-09
 IDIUse=1 WtCom= 1.00D+00 WtEn= 0.00D+00
 Coeff-Com:  0.117D-03-0.203D-03-0.235D-02 0.151D-03 0.857D-02 0.479D-01
 Coeff-Com: -0.368D+00 0.131D+01
 Coeff:      0.117D-03-0.203D-03-0.235D-02 0.151D-03 0.857D-02 0.479D-01
 Coeff:     -0.368D+00 0.131D+01
 Gap=     0.076 Goal=   None    Shift=    0.000
 Gap=     0.299 Goal=   None    Shift=    0.000
 RMSDP=2.01D-07 MaxDP=3.81D-06 DE=-2.23D-09 OVMax= 6.21D-06

 Cycle   9  Pass 1  IDiag  1:
 E= -76.5848760219442     Delta-E=       -0.000000000087 Rises=F Damp=F
 DIIS: error= 2.60D-07 at cycle   9 NSaved=   9.
 NSaved= 9 IEnMin= 9 EnMin= -76.5848760219442     IErMin= 9 ErrMin= 2.60D-07
 ErrMax= 2.60D-07  0.00D+00 EMaxC= 1.00D-01 BMatC= 8.77D-12 BMatP= 1.07D-10
 IDIUse=1 WtCom= 1.00D+00 WtEn= 0.00D+00
 Coeff-Com: -0.241D-04 0.460D-04 0.385D-03-0.908D-03-0.920D-03-0.291D-02
 Coeff-Com:  0.529D-01-0.461D+00 0.141D+01
 Coeff:     -0.241D-04 0.460D-04 0.385D-03-0.908D-03-0.920D-03-0.291D-02
 Coeff:      0.529D-01-0.461D+00 0.141D+01
 Gap=     0.076 Goal=   None    Shift=    0.000
 Gap=     0.299 Goal=   None    Shift=    0.000
 RMSDP=6.15D-08 MaxDP=9.53D-07 DE=-8.65D-11 OVMax= 1.71D-06

 Cycle  10  Pass 1  IDiag  1:
 E= -76.5848760219513     Delta-E=       -0.000000000007 Rises=F Damp=F
 DIIS: error= 5.74D-08 at cycle  10 NSaved=  10.
 NSaved=10 IEnMin=10 EnMin= -76.5848760219513     IErMin=10 ErrMin= 5.74D-08
 ErrMax= 5.74D-08  0.00D+00 EMaxC= 1.00D-01 BMatC= 3.15D-13 BMatP= 8.77D-12
 IDIUse=1 WtCom= 1.00D+00 WtEn= 0.00D+00
 Coeff-Com: -0.719D-06 0.667D-06 0.704D-05 0.144D-03-0.180D-03-0.144D-02
 Coeff-Com:  0.727D-02 0.491D-01-0.363D+00 0.131D+01
 Coeff:     -0.719D-06 0.667D-06 0.704D-05 0.144D-03-0.180D-03-0.144D-02
 Coeff:      0.727D-02 0.491D-01-0.363D+00 0.131D+01
 Gap=     0.076 Goal=   None    Shift=    0.000
 Gap=     0.299 Goal=   None    Shift=    0.000
 RMSDP=1.02D-08 MaxDP=1.35D-07 DE=-7.15D-12 OVMax= 3.85D-07

 Cycle  11  Pass 1  IDiag  1:
 E= -76.5848760219516     Delta-E=       -0.000000000000 Rises=F Damp=F
 DIIS: error= 1.71D-08 at cycle  11 NSaved=  11.
 NSaved=11 IEnMin=11 EnMin= -76.5848760219516     IErMin=11 ErrMin= 1.71D-08
 ErrMax= 1.71D-08  0.00D+00 EMaxC= 1.00D-01 BMatC= 7.87D-15 BMatP= 3.15D-13
 IDIUse=1 WtCom= 1.00D+00 WtEn= 0.00D+00
 Coeff-Com:  0.637D-06-0.115D-05-0.700D-05-0.147D-05 0.390D-04 0.228D-03
 Coeff-Com: -0.198D-02 0.182D-02 0.259D-01-0.229D+00 0.120D+01
 Coeff:      0.637D-06-0.115D-05-0.700D-05-0.147D-05 0.390D-04 0.228D-03
 Coeff:     -0.198D-02 0.182D-02 0.259D-01-0.229D+00 0.120D+01
 Gap=     0.076 Goal=   None    Shift=    0.000
 Gap=     0.299 Goal=   None    Shift=    0.000
 RMSDP=3.22D-09 MaxDP=3.58D-08 DE=-3.13D-13 OVMax= 3.44D-07

 SCF Done:  E(UM062X) =  -76.5848760220     A.U. after   11 cycles
            NFock= 11  Conv=0.32D-08     -V/T= 2.0024
 <Sx>= 0.0000 <Sy>= 0.0000 <Sz>= 0.5000 <S**2>= 0.7513 S= 0.5007
 <L.S>=  0.00000000000    
 KE= 7.639942635105D+01 PE=-1.990720569561D+02 EE= 3.386540433470D+01
 Annihilation of the first spin contaminant:
 S**2 before annihilation     0.7513,   after     0.7500
 Leave Link  502 at Tue Dec  3 11:32:35 2024, MaxMem=  2147483648 cpu:              52.1 elap:               2.3
 (Enter /home/szhao/Apps/g16/l601.exe)
 Copying SCF densities to generalized density rwf, IOpCl= 1 IROHF=0.

 **********************************************************************

            Population analysis using the SCF density.

 **********************************************************************

 Alpha  occ. eigenvalues --  -10.94363 -10.94363  -0.98638  -0.98496  -0.64225
 Alpha  occ. eigenvalues --   -0.62795  -0.48170
 Alpha virt. eigenvalues --   -0.40584  -0.33380  -0.33004  -0.12269  -0.11324
 Alpha virt. eigenvalues --   -0.07709  -0.07261  -0.05357  -0.04767  -0.04421
 Alpha virt. eigenvalues --   -0.01411  -0.00114   0.06186   0.24909   0.29997
 Alpha virt. eigenvalues --    0.35988   0.36202   0.37069   0.38061   0.38943
 Alpha virt. eigenvalues --    0.50127   0.52958   0.59872   0.89635   0.89667
 Alpha virt. eigenvalues --    0.89795   0.89932   1.07693   1.07751   1.08761
 Alpha virt. eigenvalues --    1.08819   1.36009   1.36868   1.64009   1.64092
 Alpha virt. eigenvalues --    1.64308   1.64370   2.17795   2.18109   2.26789
 Alpha virt. eigenvalues --    2.33432   2.43355   2.44780   2.45276   2.46677
 Alpha virt. eigenvalues --    2.91408   3.01378  23.27957  23.29509
  Beta  occ. eigenvalues --  -10.93951 -10.93951  -0.96274  -0.96211  -0.62876
  Beta  occ. eigenvalues --   -0.61366
  Beta virt. eigenvalues --   -0.31514  -0.31035  -0.29923  -0.29377  -0.12759
  Beta virt. eigenvalues --   -0.11262  -0.07103  -0.06328  -0.06065  -0.04016
  Beta virt. eigenvalues --   -0.03077  -0.01959   0.01506   0.07856   0.24055
  Beta virt. eigenvalues --    0.30333   0.36605   0.36854   0.38693   0.38873
  Beta virt. eigenvalues --    0.39060   0.51289   0.55733   0.62626   0.97227
  Beta virt. eigenvalues --    0.97230   0.98148   0.98152   1.11008   1.11009
  Beta virt. eigenvalues --    1.11020   1.11020   1.36251   1.37224   1.65822
  Beta virt. eigenvalues --    1.65913   1.66492   1.66581   2.31039   2.31996
  Beta virt. eigenvalues --    2.34859   2.42066   2.45935   2.47803   2.48288
  Beta virt. eigenvalues --    2.50101   3.03838   3.12248  23.29375  23.30930
          Condensed to atoms (all electrons):
               1          2          3          4
     1  C    5.472654   0.003322   0.254534   0.000781
     2  C    0.003322   5.472658   0.000781   0.254534
     3  H    0.254534   0.000781   0.513390   0.000002
     4  H    0.000781   0.254534   0.000002   0.513391
          Atomic-Atomic Spin Densities.
               1          2          3          4
     1  C    0.515048   0.007730  -0.006382  -0.000104
     2  C    0.007730   0.515053  -0.000104  -0.006382
     3  H   -0.006382  -0.000104  -0.009807   0.000000
     4  H   -0.000104  -0.006382   0.000000  -0.009807
 Mulliken charges and spin densities:
               1          2
     1  C    0.268709   0.516291
     2  C    0.268705   0.516296
     3  H    0.231294  -0.016294
     4  H    0.231292  -0.016294
 Sum of Mulliken charges =   1.00000   1.00000
 Mulliken charges and spin densities with hydrogens summed into heavy atoms:
               1          2
     1  C    0.500002   0.499998
     2  C    0.499998   0.500002
 Electronic spatial extent (au):  <R**2>=            214.7444
 Charge=              1.0000 electrons
 Dipole moment (field-independent basis, Debye):
    X=             -0.0000    Y=             -0.0000    Z=              0.0000  Tot=              0.0000
 Quadrupole moment (field-independent basis, Debye-Ang):
   XX=             21.7615   YY=            -10.1947   ZZ=            -10.7310
   XY=              0.0000   XZ=              0.0000   YZ=              0.9677
 Traceless Quadrupole moment (field-independent basis, Debye-Ang):
   XX=             21.4829   YY=            -10.4733   ZZ=            -11.0096
   XY=              0.0000   XZ=              0.0000   YZ=              0.9677
 Octapole moment (field-independent basis, Debye-Ang**2):
  XXX=             -0.0003  YYY=              0.0000  ZZZ=             -0.0000  XYY=              0.0001
  XXY=             -0.0000  XXZ=              0.0000  XZZ=              0.0001  YZZ=              0.0000
  YYZ=             -0.0000  XYZ=              0.0000
 Hexadecapole moment (field-independent basis, Debye-Ang**3):
 XXXX=            -67.2476 YYYY=             -9.8399 ZZZZ=            -10.9850 XXXY=              0.0000
 XXXZ=              0.0000 YYYX=              0.0000 YYYZ=              1.0329 ZZZX=              0.0000
 ZZZY=              1.0330 XXYY=            -43.1405 XXZZ=            -45.2305 YYZZ=             -3.4708
 XXYZ=              3.7708 YYXZ=              0.0000 ZZXY=              0.0000
 N-N= 1.222235024840D+01 E-N=-1.990720569344D+02  KE= 7.639942635105D+01
                          Isotropic Fermi Contact Couplings
        Atom                 a.u.       MegaHertz       Gauss      10(-4) cm-1
     1  C(13)              0.07740      87.01199      31.04804      29.02408
     2  C(13)              0.07740      87.01265      31.04828      29.02430
     3  H(1)              -0.00383     -17.12787      -6.11165      -5.71324
     4  H(1)              -0.00383     -17.12604      -6.11100      -5.71263
 --------------------------------------------------------
       Center         ----  Spin Dipole Couplings  ----
                      3XX-RR        3YY-RR        3ZZ-RR
 --------------------------------------------------------
     1   Atom       -0.319601      0.025020      0.294581
     2   Atom       -0.319606      0.025021      0.294584
     3   Atom        0.043057     -0.026330     -0.016727
     4   Atom        0.043058     -0.026331     -0.016727
 --------------------------------------------------------
                        XY            XZ            YZ
 --------------------------------------------------------
     1   Atom        0.000000      0.000000     -0.486356
     2   Atom        0.000000      0.000000     -0.486360
     3   Atom        0.000000      0.000000     -0.017326
     4   Atom        0.000000      0.000000     -0.017327
 --------------------------------------------------------


 ---------------------------------------------------------------------------------
              Anisotropic Spin Dipole Couplings in Principal Axis System
 ---------------------------------------------------------------------------------

       Atom             a.u.   MegaHertz   Gauss  10(-4) cm-1        Axes

              Baa    -0.3449   -46.280   -16.514   -15.437 -0.0000  0.7959  0.6054
     1 C(13)  Bbb    -0.3196   -42.887   -15.303   -14.306  1.0000  0.0000  0.0000
              Bcc     0.6645    89.168    31.817    29.743  0.0000 -0.6054  0.7959
 
              Baa    -0.3449   -46.281   -16.514   -15.438 -0.0000  0.7959  0.6054
     2 C(13)  Bbb    -0.3196   -42.888   -15.304   -14.306  1.0000  0.0000  0.0000
              Bcc     0.6645    89.169    31.818    29.743  0.0000 -0.6054  0.7959
 
              Baa    -0.0395   -21.079    -7.522    -7.031 -0.0000  0.7959  0.6054
     3 H(1)   Bbb    -0.0035    -1.894    -0.676    -0.632  0.0000 -0.6054  0.7959
              Bcc     0.0431    22.973     8.197     7.663  1.0000  0.0000  0.0000
 
              Baa    -0.0395   -21.080    -7.522    -7.032 -0.0000  0.7959  0.6054
     4 H(1)   Bbb    -0.0035    -1.893    -0.676    -0.632  0.0000 -0.6054  0.7959
              Bcc     0.0431    22.974     8.198     7.663  1.0000  0.0000  0.0000
 

 ---------------------------------------------------------------------------------

 No NMR shielding tensors so no spin-rotation constants.
 Leave Link  601 at Tue Dec  3 11:32:36 2024, MaxMem=  2147483648 cpu:               5.5 elap:               0.3
 (Enter /home/szhao/Apps/g16/l701.exe)
 ... and contract with generalized density number  0.
 Compute integral first derivatives.
 Leave Link  701 at Tue Dec  3 11:32:36 2024, MaxMem=  2147483648 cpu:               3.4 elap:               0.2
 (Enter /home/szhao/Apps/g16/l702.exe)
 L702 exits ... SP integral derivatives will be done elsewhere.
 Leave Link  702 at Tue Dec  3 11:32:36 2024, MaxMem=  2147483648 cpu:               1.0 elap:               0.0
 (Enter /home/szhao/Apps/g16/l703.exe)
 Integral derivatives from FoFJK, PRISM(SPDF).
 Compute integral first derivatives, UseDBF=F ICtDFT=           0.
 Calling FoFJK, ICntrl=      2127 FMM=F ISym2X=0 I1Cent= 0 IOpClX= 1 NMat=1 NMatS=1 NMatT=0.
 FoFJK:  IHMeth= 1 ICntrl=    2127 DoSepK=F KAlg= 0 I1Cent=           0 FoldK=F
 IRaf=         0 NMat=       1 IRICut=       1 DoRegI=T DoRafI=F ISym2E= 0 IDoP0=0 IntGTp=1.
 FoFCou: FMM=F IPFlag=           0 FMFlag=      100000 FMFlg1=         800
         NFxFlg=           0 DoJE=F BraDBF=F KetDBF=F FulRan=T
         wScrn=  0.000000 ICntrl=      2127 IOpCl=  1 I1Cent=           0 NGrid=           0
         NMat0=    1 NMatS0=      1 NMatT0=    0 NMatD0=    1 NMtDS0=    0 NMtDT0=    0
 Symmetry not used in FoFCou.
 Leave Link  703 at Tue Dec  3 11:32:36 2024, MaxMem=  2147483648 cpu:              10.7 elap:               0.5
 (Enter /home/szhao/Apps/g16/l716.exe)
 Dipole        =-1.38642310D-05-3.76459166D-16 2.87049816D-16
 -------------------------------------------------------------------
 Center     Atomic                   Forces (Hartrees/Bohr)
 Number     Number              X              Y              Z
 -------------------------------------------------------------------
      1        6          -0.000000000   -0.000000000   -0.000000000
      2        6          -0.000000000   -0.000000000   -0.000000000
      3        1          -0.010596127    0.000000000   -0.000000000
      4        1           0.010610314   -0.000000000    0.000000000
 -------------------------------------------------------------------
 Cartesian Forces:  Max     0.010610314 RMS     0.004328748
 Leave Link  716 at Tue Dec  3 11:32:36 2024, MaxMem=  2147483648 cpu:               0.7 elap:               0.0
 (Enter /home/szhao/Apps/g16/l103.exe)

 GradGradGradGradGradGradGradGradGradGradGradGradGradGradGradGradGradGrad
 Berny optimization.
 FormGI is forming the generalized inverse of G from B-inverse, IUseBI=4.
 Internal  Forces:  Max     0.010610314 RMS     0.006121774
 Search for a local minimum.
 Step number   1 out of a maximum of   22
 All quantities printed in internal units (Hartrees-Bohrs-Radians)
 RMS Force = .61218D-02 SwitMx=.10000D-02 MixMth= 1
 Mixed Optimization -- RFO/linear search
 Second derivative matrix not updated -- first step.
 The second derivative matrix:
                          X1        Y1        Z1        X2        Y2
           X1           0.50000
           Y1           0.00000   0.50000
           Z1           0.00000   0.00000   0.50000
           X2           0.00000   0.00000   0.00000   0.50000
           Y2           0.00000   0.00000   0.00000   0.00000   0.50000
           Z2           0.00000   0.00000   0.00000   0.00000   0.00000
           R1           0.00000   0.00000   0.00000   0.00000   0.00000
           R2           0.00000   0.00000   0.00000   0.00000   0.00000
           A1           0.00000   0.00000   0.00000   0.00000   0.00000
           A2           0.00000   0.00000   0.00000   0.00000   0.00000
           A3           0.00000   0.00000   0.00000   0.00000   0.00000
           A4           0.00000   0.00000   0.00000   0.00000   0.00000
                          Z2        R1        R2        A1        A2
           Z2           0.50000
           R1           0.00000   0.33573
           R2           0.00000   0.00000   0.33575
           A1           0.00000   0.00000   0.00000   0.00230
           A2           0.00000   0.00000   0.00000   0.00000   0.00230
           A3           0.00000   0.00000   0.00000   0.00000   0.00000
           A4           0.00000   0.00000   0.00000   0.00000   0.00000
                          A3        A4
           A3           0.00230
           A4           0.00000   0.00230
 ITU=  0
     Eigenvalues ---    0.00230   0.00230   0.00230   0.33573   0.33575
     Eigenvalues --- 1000.000001000.000001000.000001000.000001000.00000
     Eigenvalues --- 1000.000001000.00000
 RFO step:  Lambda=-6.68406060D-04 EMin= 2.30000000D-03
 Linear search not attempted -- first point.
 Iteration  1 RMS(Cart)=  0.01286763 RMS(Int)=  0.00000000
 Iteration  2 RMS(Cart)=  0.00000000 RMS(Int)=  0.00000000
 ITry= 1 IFail=0 DXMaxC= 3.15D-02 DCOld= 1.00D+10 DXMaxT= 3.00D-01 DXLimC= 3.00D+00 Rises=F
 Variable       Old X    -DE/DX   Delta X   Delta X   Delta X     New X
                                 (Linear)    (Quad)   (Total)
    X1       -3.55677  -0.01060   0.00000   0.00000   0.00000  -3.55677
    Y1        0.00000   0.00000   0.00000   0.00000   0.00000   0.00000
    Z1        0.00000   0.00000   0.00000   0.00000   0.00000   0.00000
    X2        3.55677   0.01061   0.00000   0.00000   0.00000   3.55677
    Y2        0.00000  -0.00000   0.00000   0.00000   0.00000   0.00000
    Z2        0.00000  -0.00000   0.00000   0.00000   0.00000   0.00000
    R1        2.08058   0.01060   0.00000   0.03150   0.03150   2.11207
    R2        2.08053   0.01061   0.00000   0.03154   0.03154   2.11207
    A1        3.14159   0.00000   0.00000   0.00000   0.00000   3.14159
    A2        3.14159  -0.00000   0.00000  -0.00000   0.00000   3.14159
    A3        3.14159   0.00000   0.00000   0.00000   0.00000   3.14159
    A4        3.14159   0.00000   0.00000   0.00000   0.00000   3.14159
         Item               Value     Threshold  Converged?
 Maximum Force            0.010610     0.000450     NO 
 RMS     Force            0.006122     0.000300     NO 
 Maximum Displacement     0.031539     0.001800     NO 
 RMS     Displacement     0.012868     0.001200     NO 
 Predicted change in Energy=-3.348684D-04
 Lowest energy point so far.  Saving SCF results.
 GradGradGradGradGradGradGradGradGradGradGradGradGradGradGradGradGradGrad

 Leave Link  103 at Tue Dec  3 11:32:36 2024, MaxMem=  2147483648 cpu:               0.2 elap:               0.0
 (Enter /home/szhao/Apps/g16/l202.exe)
                          Input orientation:                          
 ---------------------------------------------------------------------
 Center     Atomic      Atomic             Coordinates (Angstroms)
 Number     Number       Type             X           Y           Z
 ---------------------------------------------------------------------
      1          6           0       -1.882160    0.000000    0.000000
      2          6           0        1.882160    0.000000    0.000000
      3          1           0       -2.999822    0.000000   -0.000000
      4          1           0        2.999821   -0.000000   -0.000000
 ---------------------------------------------------------------------
                    Distance matrix (angstroms):
                    1          2          3          4
     1  C    0.000000
     2  C    3.764320   0.000000
     3  H    1.117662   4.881982   0.000000
     4  H    4.881981   1.117661   5.999642   0.000000
 Symmetry turned off by external request.
 Stoichiometry    C2H2(1+,2)
 Framework group  C*V[C*(HCCH)]
 Deg. of freedom     3
 Full point group                 C*V     NOp   4
 Rotational constants (GHZ):           0.0000000           4.8990146           4.8990146
 Leave Link  202 at Tue Dec  3 11:32:36 2024, MaxMem=  2147483648 cpu:               0.1 elap:               0.0
 (Enter /home/szhao/Apps/g16/l301.exe)
 Standard basis: 6-311+G(d,p) (5D, 7F)
 Ernie: Thresh=  0.10000D-02 Tol=  0.10000D-05 Strict=F.
    56 basis functions,    88 primitive gaussians,    58 cartesian basis functions
     7 alpha electrons        6 beta electrons
       nuclear repulsion energy        12.1313248936 Hartrees.
 IExCor= 4336 DFT=T Ex+Corr=M062X ExCW=0 ScaHFX=  0.540000
 ScaDFX=  1.000000  1.000000  1.000000  1.000000 ScalE2=  1.000000  1.000000
 IRadAn=      7 IRanWt=     -1 IRanGd=            0 ICorTp=0 IEmpDi=  4
 NAtoms=    4 NActive=    4 NUniq=    4 SFac= 1.00D+00 NAtFMM=   60 NAOKFM=F Big=F
 Integral buffers will be    131072 words long.
 Raffenetti 2 integral format.
 Two-electron integral symmetry is turned off.
 Leave Link  301 at Tue Dec  3 11:32:36 2024, MaxMem=  2147483648 cpu:               1.0 elap:               0.0
 (Enter /home/szhao/Apps/g16/l302.exe)
 NPDir=0 NMtPBC=     1 NCelOv=     1 NCel=       1 NClECP=     1 NCelD=      1
         NCelK=      1 NCelE2=     1 NClLst=     1 CellRange=     0.0.
 One-electron integrals computed using PRISM.
 NBasis=    56 RedAO= T EigKep=  1.43D-02  NBF=    56
 NBsUse=    56 1.00D-06 EigRej= -1.00D+00 NBFU=    56
 Precomputing XC quadrature grid using
 IXCGrd= 4 IRadAn=           7 IRanWt=          -1 IRanGd=           0 AccXCQ= 0.00D+00.
 Generated NRdTot=       0 NPtTot=           0 NUsed=           0 NTot=          32
 NSgBfM=    58    58    58    58    58 MxSgAt=     4 MxSgA2=     4.
 Leave Link  302 at Tue Dec  3 11:32:37 2024, MaxMem=  2147483648 cpu:               4.0 elap:               0.2
 (Enter /home/szhao/Apps/g16/l303.exe)
 DipDrv:  MaxL=1.
 Leave Link  303 at Tue Dec  3 11:32:37 2024, MaxMem=  2147483648 cpu:               0.9 elap:               0.0
 (Enter /home/szhao/Apps/g16/l401.exe)
 Initial guess from the checkpoint file:  "opt.chk"
 B after Tr=     0.000003    0.000000   -0.000000
         Rot=    0.984279   -0.176622    0.000000    0.000000 Ang= -20.35 deg.
 Guess basis will be translated and rotated to current coordinates.
 JPrj=2 DoOrth=T DoCkMO=T.
 Initial guess <Sx>= 0.0000 <Sy>= 0.0000 <Sz>= 0.5000 <S**2>= 0.7513 S= 0.5007
 Generating alternative initial guess.
 ExpMin= 4.38D-02 ExpMax= 4.56D+03 ExpMxC= 6.82D+02 IAcc=3 IRadAn=         5 AccDes= 0.00D+00
 Harris functional with IExCor= 1009 and IRadAn=       5 diagonalized for initial guess.
 HarFok:  IExCor= 1009 AccDes= 0.00D+00 IRadAn=         5 IDoV= 1 UseB2=F ITyADJ=14
 ICtDFT=  3500011 ScaDFX=  1.000000  1.000000  1.000000  1.000000
 FoFCou: FMM=F IPFlag=           0 FMFlag=      100000 FMFlg1=           0
         NFxFlg=           0 DoJE=T BraDBF=F KetDBF=T FulRan=T
         wScrn=  0.000000 ICntrl=       500 IOpCl=  0 I1Cent=   200000004 NGrid=           0
         NMat0=    1 NMatS0=      1 NMatT0=    0 NMatD0=    1 NMtDS0=    0 NMtDT0=    0
 Symmetry not used in FoFCou.
 Harris En= -76.6208244233995    
 Leave Link  401 at Tue Dec  3 11:32:37 2024, MaxMem=  2147483648 cpu:               5.1 elap:               0.2
 (Enter /home/szhao/Apps/g16/l502.exe)
 Keep R1 and R2 ints in memory in canonical form, NReq=23774294.
 FoFCou: FMM=F IPFlag=           0 FMFlag=           0 FMFlg1=           0
         NFxFlg=           0 DoJE=F BraDBF=F KetDBF=F FulRan=T
         wScrn=  0.000000 ICntrl=       600 IOpCl=  0 I1Cent=           0 NGrid=           0
         NMat0=    1 NMatS0=   1596 NMatT0=    0 NMatD0=    1 NMtDS0=    0 NMtDT0=    0
 Symmetry not used in FoFCou.
 Two-electron integral symmetry not used.
 UHF open shell SCF:
 Using DIIS extrapolation, IDIIS=  1040.
 NGot=  2147483648 LenX=  2144926146 LenY=  2144922341
 Requested convergence on RMS density matrix=1.00D-08 within 128 cycles.
 Requested convergence on MAX density matrix=1.00D-06.
 Requested convergence on             energy=1.00D-06.
 No special actions if energy rises.

 Cycle   1  Pass 1  IDiag  1:
 E= -76.5851221945248    
 DIIS: error= 1.59D-03 at cycle   1 NSaved=   1.
 NSaved= 1 IEnMin= 1 EnMin= -76.5851221945248     IErMin= 1 ErrMin= 1.59D-03
 ErrMax= 1.59D-03  0.00D+00 EMaxC= 1.00D-01 BMatC= 3.64D-04 BMatP= 3.64D-04
 IDIUse=3 WtCom= 9.84D-01 WtEn= 1.59D-02
 Coeff-Com:  0.100D+01
 Coeff-En:   0.100D+01
 Coeff:      0.100D+01
 Gap=     0.508 Goal=   None    Shift=    0.000
 Gap=     0.636 Goal=   None    Shift=    0.000
 GapD=    0.508 DampG=2.000 DampE=1.000 DampFc=2.0000 IDamp=-1.
 RMSDP=1.32D-04 MaxDP=1.48D-03              OVMax= 2.95D-03

 Cycle   2  Pass 1  IDiag  1:
 E= -76.5852112163518     Delta-E=       -0.000089021827 Rises=F Damp=F
 DIIS: error= 1.85D-04 at cycle   2 NSaved=   2.
 NSaved= 2 IEnMin= 2 EnMin= -76.5852112163518     IErMin= 2 ErrMin= 1.85D-04
 ErrMax= 1.85D-04  0.00D+00 EMaxC= 1.00D-01 BMatC= 7.71D-06 BMatP= 3.64D-04
 IDIUse=3 WtCom= 9.98D-01 WtEn= 1.85D-03
 Coeff-Com: -0.469D-02 0.100D+01
 Coeff-En:   0.000D+00 0.100D+01
 Coeff:     -0.468D-02 0.100D+01
 Gap=     0.076 Goal=   None    Shift=    0.000
 Gap=     0.297 Goal=   None    Shift=    0.000
 RMSDP=4.40D-05 MaxDP=1.18D-03 DE=-8.90D-05 OVMax= 7.35D-04

 Cycle   3  Pass 1  IDiag  1:
 E= -76.5852141830111     Delta-E=       -0.000002966659 Rises=F Damp=F
 DIIS: error= 8.71D-05 at cycle   3 NSaved=   3.
 NSaved= 3 IEnMin= 3 EnMin= -76.5852141830111     IErMin= 3 ErrMin= 8.71D-05
 ErrMax= 8.71D-05  0.00D+00 EMaxC= 1.00D-01 BMatC= 7.14D-07 BMatP= 7.71D-06
 IDIUse=1 WtCom= 1.00D+00 WtEn= 0.00D+00
 Coeff-Com: -0.161D-01 0.809D-01 0.935D+00
 Coeff:     -0.161D-01 0.809D-01 0.935D+00
 Gap=     0.076 Goal=   None    Shift=    0.000
 Gap=     0.297 Goal=   None    Shift=    0.000
 RMSDP=8.73D-06 MaxDP=1.38D-04 DE=-2.97D-06 OVMax= 3.02D-04

 Cycle   4  Pass 1  IDiag  1:
 E= -76.5852144568793     Delta-E=       -0.000000273868 Rises=F Damp=F
 DIIS: error= 2.33D-05 at cycle   4 NSaved=   4.
 NSaved= 4 IEnMin= 4 EnMin= -76.5852144568793     IErMin= 4 ErrMin= 2.33D-05
 ErrMax= 2.33D-05  0.00D+00 EMaxC= 1.00D-01 BMatC= 7.87D-08 BMatP= 7.14D-07
 IDIUse=1 WtCom= 1.00D+00 WtEn= 0.00D+00
 Coeff-Com:  0.263D-03-0.708D-01 0.117D-01 0.106D+01
 Coeff:      0.263D-03-0.708D-01 0.117D-01 0.106D+01
 Gap=     0.076 Goal=   None    Shift=    0.000
 Gap=     0.297 Goal=   None    Shift=    0.000
 RMSDP=4.59D-06 MaxDP=1.37D-04 DE=-2.74D-07 OVMax= 1.53D-04

 Cycle   5  Pass 1  IDiag  1:
 E= -76.5852144867589     Delta-E=       -0.000000029880 Rises=F Damp=F
 DIIS: error= 8.13D-06 at cycle   5 NSaved=   5.
 NSaved= 5 IEnMin= 5 EnMin= -76.5852144867589     IErMin= 5 ErrMin= 8.13D-06
 ErrMax= 8.13D-06  0.00D+00 EMaxC= 1.00D-01 BMatC= 1.26D-08 BMatP= 7.87D-08
 IDIUse=1 WtCom= 1.00D+00 WtEn= 0.00D+00
 Coeff-Com:  0.119D-02-0.201D-01-0.534D-01 0.240D+00 0.832D+00
 Coeff:      0.119D-02-0.201D-01-0.534D-01 0.240D+00 0.832D+00
 Gap=     0.076 Goal=   None    Shift=    0.000
 Gap=     0.297 Goal=   None    Shift=    0.000
 RMSDP=2.76D-06 MaxDP=4.67D-05 DE=-2.99D-08 OVMax= 2.85D-04

 Cycle   6  Pass 1  IDiag  1:
 E= -76.5852144801800     Delta-E=        0.000000006579 Rises=F Damp=F
 DIIS: error= 1.30D-05 at cycle   6 NSaved=   6.
 NSaved= 6 IEnMin= 5 EnMin= -76.5852144867589     IErMin= 5 ErrMin= 8.13D-06
 ErrMax= 1.30D-05  0.00D+00 EMaxC= 1.00D-01 BMatC= 2.91D-08 BMatP= 1.26D-08
 IDIUse=1 WtCom= 1.00D+00 WtEn= 0.00D+00
 Coeff-Com:  0.925D-03-0.153D-02-0.449D-01-0.250D-01 0.680D+00 0.391D+00
 Coeff:      0.925D-03-0.153D-02-0.449D-01-0.250D-01 0.680D+00 0.391D+00
 Gap=     0.076 Goal=   None    Shift=    0.000
 Gap=     0.297 Goal=   None    Shift=    0.000
 RMSDP=1.79D-06 MaxDP=3.11D-05 DE= 6.58D-09 OVMax= 1.91D-04

 Cycle   7  Pass 1  IDiag  1:
 E= -76.5852144926393     Delta-E=       -0.000000012459 Rises=F Damp=F
 DIIS: error= 1.32D-06 at cycle   7 NSaved=   7.
 NSaved= 7 IEnMin= 7 EnMin= -76.5852144926393     IErMin= 7 ErrMin= 1.32D-06
 ErrMax= 1.32D-06  0.00D+00 EMaxC= 1.00D-01 BMatC= 1.99D-10 BMatP= 1.26D-08
 IDIUse=1 WtCom= 1.00D+00 WtEn= 0.00D+00
 Coeff-Com: -0.266D-03 0.358D-02 0.134D-01-0.430D-01-0.195D+00-0.476D-01
 Coeff-Com:  0.127D+01
 Coeff:     -0.266D-03 0.358D-02 0.134D-01-0.430D-01-0.195D+00-0.476D-01
 Coeff:      0.127D+01
 Gap=     0.076 Goal=   None    Shift=    0.000
 Gap=     0.297 Goal=   None    Shift=    0.000
 RMSDP=2.60D-07 MaxDP=2.99D-06 DE=-1.25D-08 OVMax= 7.76D-06

 Cycle   8  Pass 1  IDiag  1:
 E= -76.5852144927877     Delta-E=       -0.000000000148 Rises=F Damp=F
 DIIS: error= 3.22D-07 at cycle   8 NSaved=   8.
 NSaved= 8 IEnMin= 8 EnMin= -76.5852144927877     IErMin= 8 ErrMin= 3.22D-07
 ErrMax= 3.22D-07  0.00D+00 EMaxC= 1.00D-01 BMatC= 9.04D-12 BMatP= 1.99D-10
 IDIUse=1 WtCom= 1.00D+00 WtEn= 0.00D+00
 Coeff-Com:  0.352D-04-0.108D-02-0.202D-02 0.171D-01 0.162D-01-0.109D-01
 Coeff-Com: -0.389D+00 0.137D+01
 Coeff:      0.352D-04-0.108D-02-0.202D-02 0.171D-01 0.162D-01-0.109D-01
 Coeff:     -0.389D+00 0.137D+01
 Gap=     0.076 Goal=   None    Shift=    0.000
 Gap=     0.297 Goal=   None    Shift=    0.000
 RMSDP=6.72D-08 MaxDP=8.78D-07 DE=-1.48D-10 OVMax= 2.38D-06

 Cycle   9  Pass 1  IDiag  1:
 E= -76.5852144927965     Delta-E=       -0.000000000009 Rises=F Damp=F
 DIIS: error= 1.00D-07 at cycle   9 NSaved=   9.
 NSaved= 9 IEnMin= 9 EnMin= -76.5852144927965     IErMin= 9 ErrMin= 1.00D-07
 ErrMax= 1.00D-07  0.00D+00 EMaxC= 1.00D-01 BMatC= 4.52D-13 BMatP= 9.04D-12
 IDIUse=1 WtCom= 1.00D+00 WtEn= 0.00D+00
 Coeff-Com:  0.172D-05 0.146D-03 0.157D-03-0.319D-02 0.133D-02 0.441D-02
 Coeff-Com:  0.698D-01-0.420D+00 0.135D+01
 Coeff:      0.172D-05 0.146D-03 0.157D-03-0.319D-02 0.133D-02 0.441D-02
 Coeff:      0.698D-01-0.420D+00 0.135D+01
 Gap=     0.076 Goal=   None    Shift=    0.000
 Gap=     0.297 Goal=   None    Shift=    0.000
 RMSDP=2.15D-08 MaxDP=2.35D-07 DE=-8.80D-12 OVMax= 2.29D-06

 Cycle  10  Pass 1  IDiag  1:
 E= -76.5852144927979     Delta-E=       -0.000000000001 Rises=F Damp=F
 DIIS: error= 1.00D-07 at cycle  10 NSaved=  10.
 NSaved=10 IEnMin=10 EnMin= -76.5852144927979     IErMin= 9 ErrMin= 1.00D-07
 ErrMax= 1.00D-07  0.00D+00 EMaxC= 1.00D-01 BMatC= 1.34D-13 BMatP= 4.52D-13
 IDIUse=1 WtCom= 1.00D+00 WtEn= 0.00D+00
 Coeff-Com: -0.110D-05 0.759D-05-0.137D-04 0.116D-03-0.140D-03-0.271D-03
 Coeff-Com: -0.360D-02 0.440D-01-0.243D+00 0.120D+01
 Coeff:     -0.110D-05 0.759D-05-0.137D-04 0.116D-03-0.140D-03-0.271D-03
 Coeff:     -0.360D-02 0.440D-01-0.243D+00 0.120D+01
 Gap=     0.076 Goal=   None    Shift=    0.000
 Gap=     0.297 Goal=   None    Shift=    0.000
 RMSDP=1.71D-08 MaxDP=1.95D-07 DE=-1.34D-12 OVMax= 2.01D-06

 Cycle  11  Pass 1  IDiag  1:
 E= -76.5852144927989     Delta-E=       -0.000000000001 Rises=F Damp=F
 DIIS: error= 1.00D-07 at cycle  11 NSaved=  11.
 NSaved=11 IEnMin=11 EnMin= -76.5852144927989     IErMin= 9 ErrMin= 1.00D-07
 ErrMax= 1.00D-07  0.00D+00 EMaxC= 1.00D-01 BMatC= 1.30D-13 BMatP= 1.34D-13
 IDIUse=1 WtCom= 1.00D+00 WtEn= 0.00D+00
 Coeff-Com:  0.118D-06-0.159D-05 0.650D-06 0.311D-05 0.309D-04 0.156D-04
 Coeff-Com: -0.762D-04-0.264D-02 0.223D-01-0.167D+00 0.115D+01
 Coeff:      0.118D-06-0.159D-05 0.650D-06 0.311D-05 0.309D-04 0.156D-04
 Coeff:     -0.762D-04-0.264D-02 0.223D-01-0.167D+00 0.115D+01
 Gap=     0.076 Goal=   None    Shift=    0.000
 Gap=     0.297 Goal=   None    Shift=    0.000
 RMSDP=1.60D-08 MaxDP=1.81D-07 DE=-9.95D-13 OVMax= 1.88D-06

 Cycle  12  Pass 1  IDiag  1:
 E= -76.5852144927998     Delta-E=       -0.000000000001 Rises=F Damp=F
 DIIS: error= 1.00D-07 at cycle  12 NSaved=  12.
 NSaved=12 IEnMin=12 EnMin= -76.5852144927998     IErMin= 9 ErrMin= 1.00D-07
 ErrMax= 1.00D-07  0.00D+00 EMaxC= 1.00D-01 BMatC= 1.30D-13 BMatP= 1.30D-13
 IDIUse=1 WtCom= 1.00D+00 WtEn= 0.00D+00
 Coeff-Com:  0.251D-07-0.282D-06 0.237D-06 0.179D-06 0.417D-05 0.315D-05
 Coeff-Com:  0.737D-05-0.660D-03 0.486D-02-0.331D-01 0.163D+00 0.866D+00
 Coeff:      0.251D-07-0.282D-06 0.237D-06 0.179D-06 0.417D-05 0.315D-05
 Coeff:      0.737D-05-0.660D-03 0.486D-02-0.331D-01 0.163D+00 0.866D+00
 Gap=     0.076 Goal=   None    Shift=    0.000
 Gap=     0.297 Goal=   None    Shift=    0.000
 RMSDP=1.21D-08 MaxDP=1.37D-07 DE=-9.09D-13 OVMax= 1.42D-06

 Cycle  13  Pass 1  IDiag  1:
 E= -76.5852144928005     Delta-E=       -0.000000000001 Rises=F Damp=F
 DIIS: error= 1.00D-07 at cycle  13 NSaved=  13.
 NSaved=13 IEnMin=13 EnMin= -76.5852144928005     IErMin= 9 ErrMin= 1.00D-07
 ErrMax= 1.00D-07  0.00D+00 EMaxC= 1.00D-01 BMatC= 1.30D-13 BMatP= 1.30D-13
 IDIUse=1 WtCom= 1.00D+00 WtEn= 0.00D+00
 Large coefficients: NSaved= 13 BigCof=   29.40 CofMax=   10.00 Det=-3.30D-20
 Inversion failed.  Reducing to 12 matrices.
 Large coefficients: NSaved= 12 BigCof=   28.89 CofMax=   10.00 Det=-3.41D-20
 Inversion failed.  Reducing to 11 matrices.
 Large coefficients: NSaved= 11 BigCof=   25.34 CofMax=   10.00 Det=-3.96D-20
 Inversion failed.  Reducing to 10 matrices.
 Large coefficients: NSaved= 10 BigCof=   25.35 CofMax=   10.00 Det=-3.98D-20
 Inversion failed.  Reducing to  9 matrices.
 Large coefficients: NSaved=  9 BigCof=   23.82 CofMax=   10.00 Det=-4.25D-20
 Inversion failed.  Reducing to  8 matrices.
 Large coefficients: NSaved=  8 BigCof=   23.81 CofMax=   10.00 Det=-4.26D-20
 Inversion failed.  Reducing to  7 matrices.
 Large coefficients: NSaved=  7 BigCof=   19.23 CofMax=   10.00 Det=-5.38D-20
 Inversion failed.  Reducing to  6 matrices.
 Large coefficients: NSaved=  6 BigCof=   17.18 CofMax=   10.00 Det=-6.11D-20
 Inversion failed.  Reducing to  5 matrices.
 Large coefficients: NSaved=  5 BigCof=   15.27 CofMax=   10.00 Det=-6.82D-20
 Inversion failed.  Reducing to  4 matrices.
 Large coefficients: NSaved=  4 BigCof=   14.30 CofMax=   10.00 Det=-7.43D-20
 Inversion failed.  Reducing to  3 matrices.
 Large coefficients: NSaved=  3 BigCof=   13.01 CofMax=   10.00 Det=-8.51D-20
 Inversion failed.  Reducing to  2 matrices.
 Coeff-Com:  0.745D+01-0.645D+01
 Coeff:      0.745D+01-0.645D+01
 Gap=     0.076 Goal=   None    Shift=    0.000
 Gap=     0.297 Goal=   None    Shift=    0.000
 RMSDP=7.65D-08 MaxDP=8.62D-07 DE=-7.53D-13 OVMax= 8.98D-06

 Cycle  14  Pass 1  IDiag  1:
 E= -76.5852144927961     Delta-E=        0.000000000004 Rises=F Damp=F
 DIIS: error= 1.00D-07 at cycle  14 NSaved=   3.
 NSaved= 3 IEnMin= 2 EnMin= -76.5852144928005     IErMin= 3 ErrMin= 1.00D-07
 ErrMax= 1.00D-07  0.00D+00 EMaxC= 1.00D-01 BMatC= 1.30D-13 BMatP= 1.30D-13
 IDIUse=1 WtCom= 1.00D+00 WtEn= 0.00D+00
 Large coefficients: NSaved=  3 BigCof=   38.52 CofMax=   10.00 Det=-5.40D-20
 Inversion failed.  Reducing to  2 matrices.
 Large coefficients: NSaved=  2 BigCof=   11.74 CofMax=   10.00 Det=-7.06D-19
 Coeff-Com: -0.107D+02 0.117D+02
 Coeff:     -0.107D+02 0.117D+02
 Gap=     0.076 Goal=   None    Shift=    0.000
 Gap=     0.297 Goal=   None    Shift=    0.000
 RMSDP=8.08D-07 MaxDP=9.10D-06 DE= 4.39D-12 OVMax= 9.48D-05

 Cycle  15  Pass 1  IDiag  1:
 E= -76.5852144927501     Delta-E=        0.000000000046 Rises=F Damp=F
 DIIS: error= 1.00D-07 at cycle  15 NSaved=   3.
 NSaved= 3 IEnMin= 1 EnMin= -76.5852144928005     IErMin= 3 ErrMin= 1.00D-07
 ErrMax= 1.00D-07  0.00D+00 EMaxC= 1.00D-01 BMatC= 1.30D-13 BMatP= 1.30D-13
 IDIUse=1 WtCom= 1.00D+00 WtEn= 0.00D+00
 Coeff-Com: -0.710D+01 0.423D+01 0.387D+01
 Coeff:     -0.710D+01 0.423D+01 0.387D+01
 Gap=     0.076 Goal=   None    Shift=    0.000
 Gap=     0.297 Goal=   None    Shift=    0.000
 RMSDP=2.85D-06 MaxDP=3.21D-05 DE= 4.61D-11 OVMax= 3.34D-04

 Cycle  16  Pass 1  IDiag  1:
 E= -76.5852144925874     Delta-E=        0.000000000163 Rises=F Damp=F
 DIIS: error= 1.00D-07 at cycle  16 NSaved=   4.
 NSaved= 4 IEnMin= 1 EnMin= -76.5852144928005     IErMin= 4 ErrMin= 1.00D-07
 ErrMax= 1.00D-07  0.00D+00 EMaxC= 1.00D-01 BMatC= 1.30D-13 BMatP= 1.30D-13
 IDIUse=1 WtCom= 1.00D+00 WtEn= 0.00D+00
 Large coefficients: NSaved=  4 BigCof=   22.39 CofMax=   10.00 Det=-4.32D-19
 Inversion failed.  Reducing to  3 matrices.
 Coeff-Com: -0.791D+01 0.790D+01 0.101D+01
 Coeff:     -0.791D+01 0.790D+01 0.101D+01
 Gap=     0.076 Goal=   None    Shift=    0.000
 Gap=     0.297 Goal=   None    Shift=    0.000
 RMSDP=7.00D-06 MaxDP=7.89D-05 DE= 1.63D-10 OVMax= 8.22D-04

 Cycle  17  Pass 1  IDiag  1:
 E= -76.5852144921893     Delta-E=        0.000000000398 Rises=F Damp=F
 DIIS: error= 9.94D-08 at cycle  17 NSaved=   4.
 NSaved= 4 IEnMin= 1 EnMin= -76.5852144928005     IErMin= 4 ErrMin= 9.94D-08
 ErrMax= 9.94D-08  0.00D+00 EMaxC= 1.00D-01 BMatC= 1.34D-13 BMatP= 1.30D-13
 IDIUse=1 WtCom= 1.00D+00 WtEn= 0.00D+00
 Coeff-Com: -0.873D+01 0.871D+01 0.110D+01-0.764D-01
 Coeff:     -0.873D+01 0.871D+01 0.110D+01-0.764D-01
 Gap=     0.076 Goal=   None    Shift=    0.000
 Gap=     0.297 Goal=   None    Shift=    0.000
 RMSDP=2.20D-07 MaxDP=2.48D-06 DE= 3.98D-10 OVMax= 2.58D-05

 Cycle  18  Pass 1  IDiag  1:
 E= -76.5852144921769     Delta-E=        0.000000000012 Rises=F Damp=F
 DIIS: error= 9.94D-08 at cycle  18 NSaved=   5.
 NSaved= 5 IEnMin= 1 EnMin= -76.5852144928005     IErMin= 5 ErrMin= 9.94D-08
 ErrMax= 9.94D-08  0.00D+00 EMaxC= 1.00D-01 BMatC= 1.35D-13 BMatP= 1.30D-13
 IDIUse=1 WtCom= 1.00D+00 WtEn= 0.00D+00
 Large coefficients: NSaved=  5 BigCof=   65.18 CofMax=   10.00 Det=-1.46D-18
 Inversion failed.  Reducing to  4 matrices.
 Large coefficients: NSaved=  4 BigCof=   60.98 CofMax=   10.00 Det=-1.85D-18
 Inversion failed.  Reducing to  3 matrices.
 Large coefficients: NSaved=  3 BigCof=   41.54 CofMax=   10.00 Det=-2.42D-18
 Inversion failed.  Reducing to  2 matrices.
 Coeff-Com:  0.916D+01-0.816D+01
 Coeff:      0.916D+01-0.816D+01
 Gap=     0.076 Goal=   None    Shift=    0.000
 Gap=     0.297 Goal=   None    Shift=    0.000
 RMSDP=2.03D-06 MaxDP=2.29D-05 DE= 1.24D-11 OVMax= 2.38D-04

 Cycle  19  Pass 1  IDiag  1:
 E= -76.5852144922920     Delta-E=       -0.000000000115 Rises=F Damp=F
 DIIS: error= 9.95D-08 at cycle  19 NSaved=   3.
 NSaved= 3 IEnMin= 3 EnMin= -76.5852144922920     IErMin= 2 ErrMin= 9.94D-08
 ErrMax= 9.95D-08  0.00D+00 EMaxC= 1.00D-01 BMatC= 1.28D-13 BMatP= 1.34D-13
 IDIUse=1 WtCom= 1.00D+00 WtEn= 0.00D+00
 Coeff-Com:  0.545D+01-0.490D+01 0.445D+00
 Coeff:      0.545D+01-0.490D+01 0.445D+00
 Gap=     0.076 Goal=   None    Shift=    0.000
 Gap=     0.297 Goal=   None    Shift=    0.000
 RMSDP=8.69D-08 MaxDP=9.84D-07 DE=-1.15D-10 OVMax= 1.02D-05

 Cycle  20  Pass 1  IDiag  1:
 E= -76.5852144922970     Delta-E=       -0.000000000005 Rises=F Damp=F
 DIIS: error= 9.95D-08 at cycle  20 NSaved=   4.
 NSaved= 4 IEnMin= 4 EnMin= -76.5852144922970     IErMin= 2 ErrMin= 9.94D-08
 ErrMax= 9.95D-08  0.00D+00 EMaxC= 1.00D-01 BMatC= 1.28D-13 BMatP= 1.28D-13
 IDIUse=1 WtCom= 1.00D+00 WtEn= 0.00D+00
 Coeff-Com:  0.143D+01-0.129D+01 0.317D+00 0.547D+00
 Coeff:      0.143D+01-0.129D+01 0.317D+00 0.547D+00
 Gap=     0.076 Goal=   None    Shift=    0.000
 Gap=     0.297 Goal=   None    Shift=    0.000
 RMSDP=1.30D-08 MaxDP=1.48D-07 DE=-4.93D-12 OVMax= 1.53D-06

 Cycle  21  Pass 1  IDiag  1:
 E= -76.5852144922977     Delta-E=       -0.000000000001 Rises=F Damp=F
 DIIS: error= 9.95D-08 at cycle  21 NSaved=   5.
 NSaved= 5 IEnMin= 5 EnMin= -76.5852144922977     IErMin= 2 ErrMin= 9.94D-08
 ErrMax= 9.95D-08  0.00D+00 EMaxC= 1.00D-01 BMatC= 1.28D-13 BMatP= 1.28D-13
 IDIUse=1 WtCom= 1.00D+00 WtEn= 0.00D+00
 Coeff-Com: -0.281D+01 0.259D+01-0.543D+00-0.877D+00 0.264D+01
 Coeff:     -0.281D+01 0.259D+01-0.543D+00-0.877D+00 0.264D+01
 Gap=     0.076 Goal=   None    Shift=    0.000
 Gap=     0.297 Goal=   None    Shift=    0.000
 RMSDP=7.75D-08 MaxDP=8.74D-07 DE=-7.39D-13 OVMax= 9.09D-06

 Cycle  22  Pass 1  IDiag  1:
 E= -76.5852144922933     Delta-E=        0.000000000004 Rises=F Damp=F
 DIIS: error= 9.95D-08 at cycle  22 NSaved=   6.
 NSaved= 6 IEnMin= 5 EnMin= -76.5852144922977     IErMin= 2 ErrMin= 9.94D-08
 ErrMax= 9.95D-08  0.00D+00 EMaxC= 1.00D-01 BMatC= 1.28D-13 BMatP= 1.28D-13
 IDIUse=1 WtCom= 1.00D+00 WtEn= 0.00D+00
 Large coefficients: NSaved=  6 BigCof=   81.46 CofMax=   10.00 Det=-1.09D-19
 Inversion failed.  Reducing to  5 matrices.
 Large coefficients: NSaved=  5 BigCof=   29.55 CofMax=   10.00 Det=-4.93D-19
 Inversion failed.  Reducing to  4 matrices.
 Coeff-Com:  0.618D+00 0.108D+01-0.580D+01 0.510D+01
 Coeff:      0.618D+00 0.108D+01-0.580D+01 0.510D+01
 Gap=     0.076 Goal=   None    Shift=    0.000
 Gap=     0.297 Goal=   None    Shift=    0.000
 RMSDP=3.80D-07 MaxDP=4.28D-06 DE= 4.41D-12 OVMax= 4.45D-05

 Cycle  23  Pass 1  IDiag  1:
 E= -76.5852144922717     Delta-E=        0.000000000022 Rises=F Damp=F
 DIIS: error= 9.95D-08 at cycle  23 NSaved=   5.
 NSaved= 5 IEnMin= 3 EnMin= -76.5852144922977     IErMin= 5 ErrMin= 9.95D-08
 ErrMax= 9.95D-08  0.00D+00 EMaxC= 1.00D-01 BMatC= 1.28D-13 BMatP= 1.28D-13
 IDIUse=1 WtCom= 1.00D+00 WtEn= 0.00D+00
 Large coefficients: NSaved=  5 BigCof=   47.52 CofMax=   10.00 Det=-6.11D-19
 Inversion failed.  Reducing to  4 matrices.
 Large coefficients: NSaved=  4 BigCof=   12.69 CofMax=   10.00 Det=-1.47D-18
 Inversion failed.  Reducing to  3 matrices.
 Large coefficients: NSaved=  3 BigCof=   12.69 CofMax=   10.00 Det=-1.47D-18
 Inversion failed.  Reducing to  2 matrices.
 Large coefficients: NSaved=  2 BigCof=   12.62 CofMax=   10.00 Det=-3.23D-18
 Coeff-Com: -0.116D+02 0.126D+02
 Coeff:     -0.116D+02 0.126D+02
 Gap=     0.076 Goal=   None    Shift=    0.000
 Gap=     0.297 Goal=   None    Shift=    0.000
 RMSDP=4.40D-06 MaxDP=4.96D-05 DE= 2.16D-11 OVMax= 5.16D-04

 Cycle  24  Pass 1  IDiag  1:
 E= -76.5852144920226     Delta-E=        0.000000000249 Rises=F Damp=F
 DIIS: error= 9.91D-08 at cycle  24 NSaved=   3.
 NSaved= 3 IEnMin= 1 EnMin= -76.5852144922933     IErMin= 3 ErrMin= 9.91D-08
 ErrMax= 9.91D-08  0.00D+00 EMaxC= 1.00D-01 BMatC= 1.28D-13 BMatP= 1.28D-13
 IDIUse=1 WtCom= 1.00D+00 WtEn= 0.00D+00
 Large coefficients: NSaved=  3 BigCof=   23.01 CofMax=   10.00 Det=-2.38D-18
 Inversion failed.  Reducing to  2 matrices.
 Coeff-Com:  0.353D+00 0.647D+00
 Coeff:      0.353D+00 0.647D+00
 Gap=     0.076 Goal=   None    Shift=    0.000
 Gap=     0.297 Goal=   None    Shift=    0.000
 RMSDP=1.57D-06 MaxDP=1.77D-05 DE= 2.49D-10 OVMax= 1.84D-04

 Cycle  25  Pass 1  IDiag  1:
 E= -76.5852144921111     Delta-E=       -0.000000000089 Rises=F Damp=F
 DIIS: error= 9.93D-08 at cycle  25 NSaved=   3.
 NSaved= 3 IEnMin= 1 EnMin= -76.5852144922717     IErMin= 2 ErrMin= 9.91D-08
 ErrMax= 9.93D-08  0.00D+00 EMaxC= 1.00D-01 BMatC= 1.28D-13 BMatP= 1.28D-13
 IDIUse=1 WtCom= 1.00D+00 WtEn= 0.00D+00
 Coeff-Com: -0.263D+01 0.178D+01 0.185D+01
 Coeff:     -0.263D+01 0.178D+01 0.185D+01
 Gap=     0.076 Goal=   None    Shift=    0.000
 Gap=     0.297 Goal=   None    Shift=    0.000
 RMSDP=1.02D-05 MaxDP=1.15D-04 DE=-8.85D-11 OVMax= 1.20D-03

 Cycle  26  Pass 1  IDiag  1:
 E= -76.5852144915358     Delta-E=        0.000000000575 Rises=F Damp=F
 DIIS: error= 9.84D-08 at cycle  26 NSaved=   4.
 NSaved= 4 IEnMin= 1 EnMin= -76.5852144922717     IErMin= 4 ErrMin= 9.84D-08
 ErrMax= 9.84D-08  0.00D+00 EMaxC= 1.00D-01 BMatC= 1.36D-13 BMatP= 1.28D-13
 IDIUse=1 WtCom= 1.00D+00 WtEn= 0.00D+00
 Coeff-Com: -0.474D+01 0.369D+01 0.251D+01-0.463D+00
 Coeff:     -0.474D+01 0.369D+01 0.251D+01-0.463D+00
 Gap=     0.076 Goal=   None    Shift=    0.000
 Gap=     0.297 Goal=   None    Shift=    0.000
 RMSDP=4.25D-06 MaxDP=4.80D-05 DE= 5.75D-10 OVMax= 4.98D-04

 Cycle  27  Pass 1  IDiag  1:
 E= -76.5852144912978     Delta-E=        0.000000000238 Rises=F Damp=F
 DIIS: error= 9.80D-08 at cycle  27 NSaved=   5.
 NSaved= 5 IEnMin= 1 EnMin= -76.5852144922717     IErMin= 5 ErrMin= 9.80D-08
 ErrMax= 9.80D-08  0.00D+00 EMaxC= 1.00D-01 BMatC= 1.78D-13 BMatP= 1.28D-13
 IDIUse=1 WtCom= 1.00D+00 WtEn= 0.00D+00
 Large coefficients: NSaved=  5 BigCof=   84.57 CofMax=   10.00 Det=-5.90D-18
 Inversion failed.  Reducing to  4 matrices.
 Large coefficients: NSaved=  4 BigCof=   26.17 CofMax=   10.00 Det=-2.25D-17
 Inversion failed.  Reducing to  3 matrices.
 Coeff-Com:  0.239D+00 0.132D+01-0.562D+00
 Coeff:      0.239D+00 0.132D+01-0.562D+00
 Gap=     0.076 Goal=   None    Shift=    0.000
 Gap=     0.297 Goal=   None    Shift=    0.000
 RMSDP=9.76D-06 MaxDP=1.10D-04 DE= 2.38D-10 OVMax= 1.15D-03

 Cycle  28  Pass 1  IDiag  1:
 E= -76.5852144918460     Delta-E=       -0.000000000548 Rises=F Damp=F
 DIIS: error= 9.89D-08 at cycle  28 NSaved=   4.
 NSaved= 4 IEnMin= 1 EnMin= -76.5852144922717     IErMin= 3 ErrMin= 9.80D-08
 ErrMax= 9.89D-08  0.00D+00 EMaxC= 1.00D-01 BMatC= 1.31D-13 BMatP= 1.28D-13
 IDIUse=1 WtCom= 1.00D+00 WtEn= 0.00D+00
 Large coefficients: NSaved=  4 BigCof=   54.91 CofMax=   10.00 Det=-1.56D-17
 Inversion failed.  Reducing to  3 matrices.
 Coeff-Com:  0.766D+00 0.462D-01 0.188D+00
 Coeff:      0.766D+00 0.462D-01 0.188D+00
 Gap=     0.076 Goal=   None    Shift=    0.000
 Gap=     0.297 Goal=   None    Shift=    0.000
 RMSDP=5.33D-06 MaxDP=6.01D-05 DE=-5.48D-10 OVMax= 6.25D-04

 Cycle  29  Pass 1  IDiag  1:
 E= -76.5852144921469     Delta-E=       -0.000000000301 Rises=F Damp=F
 DIIS: error= 9.93D-08 at cycle  29 NSaved=   4.
 NSaved= 4 IEnMin= 1 EnMin= -76.5852144922717     IErMin= 2 ErrMin= 9.80D-08
 ErrMax= 9.93D-08  0.00D+00 EMaxC= 1.00D-01 BMatC= 1.28D-13 BMatP= 1.28D-13
 IDIUse=1 WtCom= 1.00D+00 WtEn= 0.00D+00
 Large coefficients: NSaved=  4 BigCof=  140.92 CofMax=   10.00 Det=-3.39D-18
 Inversion failed.  Reducing to  3 matrices.
 Coeff-Com: -0.439D+01 0.179D+01 0.360D+01
 Coeff:     -0.439D+01 0.179D+01 0.360D+01
 Gap=     0.076 Goal=   None    Shift=    0.000
 Gap=     0.297 Goal=   None    Shift=    0.000
 RMSDP=1.92D-05 MaxDP=2.17D-04 DE=-3.01D-10 OVMax= 2.25D-03

 Cycle  30  Pass 1  IDiag  1:
 E= -76.5852144910683     Delta-E=        0.000000001079 Rises=F Damp=F
 DIIS: error= 9.77D-08 at cycle  30 NSaved=   4.
 NSaved= 4 IEnMin= 1 EnMin= -76.5852144922717     IErMin= 4 ErrMin= 9.77D-08
 ErrMax= 9.77D-08  0.00D+00 EMaxC= 1.00D-01 BMatC= 1.98D-13 BMatP= 1.28D-13
 IDIUse=1 WtCom= 1.00D+00 WtEn= 0.00D+00
 Large coefficients: NSaved=  4 BigCof=  109.35 CofMax=   10.00 Det=-4.40D-18
 Inversion failed.  Reducing to  3 matrices.
 Coeff-Com:  0.610D+00 0.344D+00 0.463D-01
 Coeff:      0.610D+00 0.344D+00 0.463D-01
 Gap=     0.076 Goal=   None    Shift=    0.000
 Gap=     0.297 Goal=   None    Shift=    0.000
 RMSDP=1.97D-05 MaxDP=2.22D-04 DE= 1.08D-09 OVMax= 2.31D-03

 Cycle  31  Pass 1  IDiag  1:
 E= -76.5852144921733     Delta-E=       -0.000000001105 Rises=F Damp=F
 DIIS: error= 9.94D-08 at cycle  31 NSaved=   4.
 NSaved= 4 IEnMin= 1 EnMin= -76.5852144922717     IErMin= 3 ErrMin= 9.77D-08
 ErrMax= 9.94D-08  0.00D+00 EMaxC= 1.00D-01 BMatC= 1.28D-13 BMatP= 1.28D-13
 IDIUse=1 WtCom= 1.00D+00 WtEn= 0.00D+00
 Large coefficients: NSaved=  4 BigCof=  130.92 CofMax=   10.00 Det=-2.36D-18
 Inversion failed.  Reducing to  3 matrices.
 Coeff-Com:  0.412D+00 0.672D-01 0.521D+00
 Coeff:      0.412D+00 0.672D-01 0.521D+00
 Gap=     0.076 Goal=   None    Shift=    0.000
 Gap=     0.297 Goal=   None    Shift=    0.000
 RMSDP=5.94D-07 MaxDP=6.71D-06 DE=-1.10D-09 OVMax= 6.97D-05

 Cycle  32  Pass 1  IDiag  1:
 E= -76.5852144921396     Delta-E=        0.000000000034 Rises=F Damp=F
 DIIS: error= 9.93D-08 at cycle  32 NSaved=   4.
 NSaved= 4 IEnMin= 1 EnMin= -76.5852144922717     IErMin= 2 ErrMin= 9.77D-08
 ErrMax= 9.93D-08  0.00D+00 EMaxC= 1.00D-01 BMatC= 1.29D-13 BMatP= 1.28D-13
 IDIUse=1 WtCom= 1.00D+00 WtEn= 0.00D+00
 Large coefficients: NSaved=  4 BigCof=  134.93 CofMax=   10.00 Det=-2.45D-18
 Inversion failed.  Reducing to  3 matrices.
 Coeff-Com:  0.289D+00 0.374D+00 0.337D+00
 Coeff:      0.289D+00 0.374D+00 0.337D+00
 Gap=     0.076 Goal=   None    Shift=    0.000
 Gap=     0.297 Goal=   None    Shift=    0.000
 RMSDP=9.08D-07 MaxDP=1.03D-05 DE= 3.36D-11 OVMax= 1.07D-04

 Cycle  33  Pass 1  IDiag  1:
 E= -76.5852144921912     Delta-E=       -0.000000000052 Rises=F Damp=F
 DIIS: error= 9.94D-08 at cycle  33 NSaved=   4.
 NSaved= 4 IEnMin= 1 EnMin= -76.5852144922717     IErMin= 3 ErrMin= 9.93D-08
 ErrMax= 9.94D-08  0.00D+00 EMaxC= 1.00D-01 BMatC= 1.27D-13 BMatP= 1.28D-13
 IDIUse=1 WtCom= 1.00D+00 WtEn= 0.00D+00
 Coeff-Com: -0.546D+01 0.439D+00 0.144D+00 0.588D+01
 Coeff:     -0.546D+01 0.439D+00 0.144D+00 0.588D+01
 Gap=     0.076 Goal=   None    Shift=    0.000
 Gap=     0.297 Goal=   None    Shift=    0.000
 RMSDP=8.01D-06 MaxDP=9.04D-05 DE=-5.16D-11 OVMax= 9.40D-04

 Cycle  34  Pass 1  IDiag  1:
 E= -76.5852144917385     Delta-E=        0.000000000453 Rises=F Damp=F
 DIIS: error= 9.87D-08 at cycle  34 NSaved=   5.
 NSaved= 5 IEnMin= 1 EnMin= -76.5852144922717     IErMin= 5 ErrMin= 9.87D-08
 ErrMax= 9.87D-08  0.00D+00 EMaxC= 1.00D-01 BMatC= 1.29D-13 BMatP= 1.27D-13
 IDIUse=1 WtCom= 1.00D+00 WtEn= 0.00D+00
 Large coefficients: NSaved=  5 BigCof=  171.77 CofMax=   10.00 Det=-2.02D-18
 Inversion failed.  Reducing to  4 matrices.
 Coeff-Com: -0.895D+01 0.111D+01 0.807D+01 0.761D+00
 Coeff:     -0.895D+01 0.111D+01 0.807D+01 0.761D+00
 Gap=     0.076 Goal=   None    Shift=    0.000
 Gap=     0.297 Goal=   None    Shift=    0.000
 RMSDP=1.11D-05 MaxDP=1.26D-04 DE= 4.53D-10 OVMax= 1.31D-03

 Cycle  35  Pass 1  IDiag  1:
 E= -76.5852144911152     Delta-E=        0.000000000623 Rises=F Damp=F
 DIIS: error= 9.78D-08 at cycle  35 NSaved=   5.
 NSaved= 5 IEnMin= 1 EnMin= -76.5852144922717     IErMin= 5 ErrMin= 9.78D-08
 ErrMax= 9.78D-08  0.00D+00 EMaxC= 1.00D-01 BMatC= 1.97D-13 BMatP= 1.27D-13
 IDIUse=1 WtCom= 1.00D+00 WtEn= 0.00D+00
 Large coefficients: NSaved=  5 BigCof=   56.83 CofMax=   10.00 Det=-9.00D-18
 Inversion failed.  Reducing to  4 matrices.
 Large coefficients: NSaved=  4 BigCof=   19.57 CofMax=   10.00 Det=-1.50D-17
 Inversion failed.  Reducing to  3 matrices.
 Coeff-Com: -0.429D+01 0.658D+01-0.130D+01
 Coeff:     -0.429D+01 0.658D+01-0.130D+01
 Gap=     0.076 Goal=   None    Shift=    0.000
 Gap=     0.297 Goal=   None    Shift=    0.000
 RMSDP=1.49D-05 MaxDP=1.68D-04 DE= 6.23D-10 OVMax= 1.75D-03

 Cycle  36  Pass 1  IDiag  1:
 E= -76.5852144902898     Delta-E=        0.000000000825 Rises=F Damp=F
 DIIS: error= 1.25D-07 at cycle  36 NSaved=   4.
 NSaved= 4 IEnMin= 1 EnMin= -76.5852144922717     IErMin= 3 ErrMin= 9.78D-08
 ErrMax= 1.25D-07  0.00D+00 EMaxC= 1.00D-01 BMatC= 1.13D-12 BMatP= 1.28D-13
 IDIUse=1 WtCom= 1.00D+00 WtEn= 0.00D+00
 Coeff-Com: -0.837D+01 0.801D+01 0.246D+01-0.110D+01
 Coeff:     -0.837D+01 0.801D+01 0.246D+01-0.110D+01
 Gap=     0.076 Goal=   None    Shift=    0.000
 Gap=     0.297 Goal=   None    Shift=    0.000
 RMSDP=5.16D-05 MaxDP=5.86D-04 DE= 8.25D-10 OVMax= 6.05D-03

 Cycle  37  Pass 1  IDiag  1:
 E= -76.5852144875027     Delta-E=        0.000000002787 Rises=F Damp=F
 DIIS: error= 7.09D-07 at cycle  37 NSaved=   5.
 NSaved= 5 IEnMin= 1 EnMin= -76.5852144922717     IErMin= 3 ErrMin= 9.78D-08
 ErrMax= 7.09D-07  0.00D+00 EMaxC= 1.00D-01 BMatC= 3.45D-11 BMatP= 1.28D-13
 IDIUse=1 WtCom= 1.00D+00 WtEn= 0.00D+00
 Large coefficients: NSaved=  5 BigCof=   71.29 CofMax=   10.00 Det=-9.10D-18
 Inversion failed.  Reducing to  4 matrices.
 Large coefficients: NSaved=  4 BigCof=   21.68 CofMax=   10.00 Det=-4.69D-17
 Inversion failed.  Reducing to  3 matrices.
 Coeff-Com:  0.820D+00 0.217D+00-0.366D-01
 Coeff:      0.820D+00 0.217D+00-0.366D-01
 Gap=     0.076 Goal=   None    Shift=    0.000
 Gap=     0.297 Goal=   None    Shift=    0.000
 RMSDP=8.26D-05 MaxDP=9.36D-04 DE= 2.79D-09 OVMax= 9.69D-03

 Cycle  38  Pass 1  IDiag  1:
 E= -76.5852144920181     Delta-E=       -0.000000004515 Rises=F Damp=F
 DIIS: error= 9.91D-08 at cycle  38 NSaved=   4.
 NSaved= 4 IEnMin= 1 EnMin= -76.5852144922717     IErMin= 4 ErrMin= 9.91D-08
 ErrMax= 9.91D-08  0.00D+00 EMaxC= 1.00D-01 BMatC= 1.31D-13 BMatP= 1.28D-13
 IDIUse=1 WtCom= 1.00D+00 WtEn= 0.00D+00
 Large coefficients: NSaved=  4 BigCof=   35.97 CofMax=   10.00 Det=-4.29D-17
 Inversion failed.  Reducing to  3 matrices.
 Coeff-Com:  0.889D+00-0.240D-03 0.111D+00
 Coeff:      0.889D+00-0.240D-03 0.111D+00
 Gap=     0.076 Goal=   None    Shift=    0.000
 Gap=     0.297 Goal=   None    Shift=    0.000
 RMSDP=4.02D-06 MaxDP=4.53D-05 DE=-4.52D-09 OVMax= 4.71D-04

 Cycle  39  Pass 1  IDiag  1:
 E= -76.5852144922454     Delta-E=       -0.000000000227 Rises=F Damp=F
 DIIS: error= 9.95D-08 at cycle  39 NSaved=   4.
 NSaved= 4 IEnMin= 1 EnMin= -76.5852144922717     IErMin= 3 ErrMin= 9.91D-08
 ErrMax= 9.95D-08  0.00D+00 EMaxC= 1.00D-01 BMatC= 1.28D-13 BMatP= 1.28D-13
 IDIUse=1 WtCom= 1.00D+00 WtEn= 0.00D+00
 Large coefficients: NSaved=  4 BigCof=   33.27 CofMax=   10.00 Det=-5.12D-18
 Inversion failed.  Reducing to  3 matrices.
 Coeff-Com: -0.305D+01 0.996D+00 0.305D+01
 Coeff:     -0.305D+01 0.996D+00 0.305D+01
 Gap=     0.076 Goal=   None    Shift=    0.000
 Gap=     0.297 Goal=   None    Shift=    0.000
 RMSDP=5.39D-06 MaxDP=6.08D-05 DE=-2.27D-10 OVMax= 6.33D-04

 Cycle  40  Pass 1  IDiag  1:
 E= -76.5852144919402     Delta-E=        0.000000000305 Rises=F Damp=F
 DIIS: error= 9.90D-08 at cycle  40 NSaved=   4.
 NSaved= 4 IEnMin= 1 EnMin= -76.5852144922717     IErMin= 4 ErrMin= 9.90D-08
 ErrMax= 9.90D-08  0.00D+00 EMaxC= 1.00D-01 BMatC= 1.27D-13 BMatP= 1.28D-13
 IDIUse=1 WtCom= 1.00D+00 WtEn= 0.00D+00
 Coeff-Com: -0.109D+01-0.347D+00-0.920D+00 0.336D+01
 Coeff:     -0.109D+01-0.347D+00-0.920D+00 0.336D+01
 Gap=     0.076 Goal=   None    Shift=    0.000
 Gap=     0.297 Goal=   None    Shift=    0.000
 RMSDP=1.18D-05 MaxDP=1.33D-04 DE= 3.05D-10 OVMax= 1.38D-03

 Cycle  41  Pass 1  IDiag  1:
 E= -76.5852144912775     Delta-E=        0.000000000663 Rises=F Damp=F
 DIIS: error= 9.80D-08 at cycle  41 NSaved=   5.
 NSaved= 5 IEnMin= 1 EnMin= -76.5852144922717     IErMin= 5 ErrMin= 9.80D-08
 ErrMax= 9.80D-08  0.00D+00 EMaxC= 1.00D-01 BMatC= 1.54D-13 BMatP= 1.27D-13
 IDIUse=1 WtCom= 1.00D+00 WtEn= 0.00D+00
 Large coefficients: NSaved=  5 BigCof=  147.45 CofMax=   10.00 Det=-1.32D-18
 Inversion failed.  Reducing to  4 matrices.
 Coeff-Com: -0.802D+01 0.689D-01 0.960D+01-0.655D+00
 Coeff:     -0.802D+01 0.689D-01 0.960D+01-0.655D+00
 Gap=     0.076 Goal=   None    Shift=    0.000
 Gap=     0.297 Goal=   None    Shift=    0.000
 RMSDP=2.70D-05 MaxDP=3.06D-04 DE= 6.63D-10 OVMax= 3.17D-03

 Cycle  42  Pass 1  IDiag  1:
 E= -76.5852144897835     Delta-E=        0.000000001494 Rises=F Damp=F
 DIIS: error= 1.89D-07 at cycle  42 NSaved=   5.
 NSaved= 5 IEnMin= 1 EnMin= -76.5852144922717     IErMin= 4 ErrMin= 9.80D-08
 ErrMax= 1.89D-07  0.00D+00 EMaxC= 1.00D-01 BMatC= 2.47D-12 BMatP= 1.27D-13
 IDIUse=1 WtCom= 1.00D+00 WtEn= 0.00D+00
 Large coefficients: NSaved=  5 BigCof=   43.29 CofMax=   10.00 Det=-3.14D-17
 Inversion failed.  Reducing to  4 matrices.
 Large coefficients: NSaved=  4 BigCof=   43.28 CofMax=   10.00 Det=-3.52D-17
 Inversion failed.  Reducing to  3 matrices.
 Large coefficients: NSaved=  3 BigCof=   31.66 CofMax=   10.00 Det=-4.67D-17
 Inversion failed.  Reducing to  2 matrices.
 Coeff-Com:  0.113D+01-0.127D+00
 Coeff:      0.113D+01-0.127D+00
 Gap=     0.076 Goal=   None    Shift=    0.000
 Gap=     0.297 Goal=   None    Shift=    0.000
 RMSDP=3.05D-05 MaxDP=3.45D-04 DE= 1.49D-09 OVMax= 3.58D-03

 Cycle  43  Pass 1  IDiag  1:
 E= -76.5852144914702     Delta-E=       -0.000000001687 Rises=F Damp=F
 DIIS: error= 9.83D-08 at cycle  43 NSaved=   3.
 NSaved= 3 IEnMin= 3 EnMin= -76.5852144914702     IErMin= 1 ErrMin= 9.80D-08
 ErrMax= 9.83D-08  0.00D+00 EMaxC= 1.00D-01 BMatC= 1.32D-13 BMatP= 1.54D-13
 IDIUse=1 WtCom= 1.00D+00 WtEn= 0.00D+00
 Coeff-Com:  0.145D+01-0.147D+00-0.305D+00
 Coeff:      0.145D+01-0.147D+00-0.305D+00
 Gap=     0.076 Goal=   None    Shift=    0.000
 Gap=     0.297 Goal=   None    Shift=    0.000
 RMSDP=5.13D-07 MaxDP=5.80D-06 DE=-1.69D-09 OVMax= 6.02D-05

 Cycle  44  Pass 1  IDiag  1:
 E= -76.5852144914414     Delta-E=        0.000000000029 Rises=F Damp=F
 DIIS: error= 9.83D-08 at cycle  44 NSaved=   4.
 NSaved= 4 IEnMin= 3 EnMin= -76.5852144914702     IErMin= 1 ErrMin= 9.80D-08
 ErrMax= 9.83D-08  0.00D+00 EMaxC= 1.00D-01 BMatC= 1.35D-13 BMatP= 1.32D-13
 IDIUse=1 WtCom= 1.00D+00 WtEn= 0.00D+00
 Large coefficients: NSaved=  4 BigCof=   45.66 CofMax=   10.00 Det=-2.42D-18
 Inversion failed.  Reducing to  3 matrices.
 Coeff-Com: -0.672D+00 0.346D+01-0.179D+01
 Coeff:     -0.672D+00 0.346D+01-0.179D+01
 Gap=     0.076 Goal=   None    Shift=    0.000
 Gap=     0.297 Goal=   None    Shift=    0.000
 RMSDP=3.76D-06 MaxDP=4.25D-05 DE= 2.87D-11 OVMax= 4.41D-04

 Cycle  45  Pass 1  IDiag  1:
 E= -76.5852144916524     Delta-E=       -0.000000000211 Rises=F Damp=F
 DIIS: error= 9.86D-08 at cycle  45 NSaved=   4.
 NSaved= 4 IEnMin= 4 EnMin= -76.5852144916524     IErMin= 1 ErrMin= 9.80D-08
 ErrMax= 9.86D-08  0.00D+00 EMaxC= 1.00D-01 BMatC= 1.26D-13 BMatP= 1.32D-13
 IDIUse=1 WtCom= 1.00D+00 WtEn= 0.00D+00
 Large coefficients: NSaved=  4 BigCof=   73.78 CofMax=   10.00 Det=-3.10D-19
 Inversion failed.  Reducing to  3 matrices.
 Coeff-Com: -0.417D+00 0.228D+00 0.119D+01
 Coeff:     -0.417D+00 0.228D+00 0.119D+01
 Gap=     0.076 Goal=   None    Shift=    0.000
 Gap=     0.297 Goal=   None    Shift=    0.000
 RMSDP=5.10D-07 MaxDP=5.76D-06 DE=-2.11D-10 OVMax= 5.99D-05

 Cycle  46  Pass 1  IDiag  1:
 E= -76.5852144916811     Delta-E=       -0.000000000029 Rises=F Damp=F
 DIIS: error= 9.86D-08 at cycle  46 NSaved=   4.
 NSaved= 4 IEnMin= 4 EnMin= -76.5852144916811     IErMin= 2 ErrMin= 9.83D-08
 ErrMax= 9.86D-08  0.00D+00 EMaxC= 1.00D-01 BMatC= 1.25D-13 BMatP= 1.26D-13
 IDIUse=1 WtCom= 1.00D+00 WtEn= 0.00D+00
 Large coefficients: NSaved=  4 BigCof=   69.50 CofMax=   10.00 Det=-1.59D-19
 Inversion failed.  Reducing to  3 matrices.
 Coeff-Com:  0.378D-01-0.127D-01 0.975D+00
 Coeff:      0.378D-01-0.127D-01 0.975D+00
 Gap=     0.076 Goal=   None    Shift=    0.000
 Gap=     0.297 Goal=   None    Shift=    0.000
 RMSDP=1.22D-07 MaxDP=1.38D-06 DE=-2.87D-11 OVMax= 1.43D-05

 Cycle  47  Pass 1  IDiag  1:
 E= -76.5852144916742     Delta-E=        0.000000000007 Rises=F Damp=F
 DIIS: error= 9.86D-08 at cycle  47 NSaved=   4.
 NSaved= 4 IEnMin= 3 EnMin= -76.5852144916811     IErMin= 1 ErrMin= 9.83D-08
 ErrMax= 9.86D-08  0.00D+00 EMaxC= 1.00D-01 BMatC= 1.25D-13 BMatP= 1.25D-13
 IDIUse=1 WtCom= 1.00D+00 WtEn= 0.00D+00
 Large coefficients: NSaved=  4 BigCof=  114.33 CofMax=   10.00 Det=-2.12D-19
 Inversion failed.  Reducing to  3 matrices.
 Coeff-Com:  0.215D+00 0.183D+00 0.602D+00
 Coeff:      0.215D+00 0.183D+00 0.602D+00
 Gap=     0.076 Goal=   None    Shift=    0.000
 Gap=     0.297 Goal=   None    Shift=    0.000
 RMSDP=4.77D-08 MaxDP=5.41D-07 DE= 6.92D-12 OVMax= 5.60D-06

 Cycle  48  Pass 1  IDiag  1:
 E= -76.5852144916716     Delta-E=        0.000000000003 Rises=F Damp=F
 DIIS: error= 9.86D-08 at cycle  48 NSaved=   4.
 NSaved= 4 IEnMin= 2 EnMin= -76.5852144916811     IErMin= 1 ErrMin= 9.86D-08
 ErrMax= 9.86D-08  0.00D+00 EMaxC= 1.00D-01 BMatC= 1.25D-13 BMatP= 1.25D-13
 IDIUse=1 WtCom= 1.00D+00 WtEn= 0.00D+00
 Large coefficients: NSaved=  4 BigCof=  250.10 CofMax=   10.00 Det=-7.92D-20
 Inversion failed.  Reducing to  3 matrices.
 Coeff-Com: -0.757D+01 0.413D+01 0.444D+01
 Coeff:     -0.757D+01 0.413D+01 0.444D+01
 Gap=     0.076 Goal=   None    Shift=    0.000
 Gap=     0.297 Goal=   None    Shift=    0.000
 RMSDP=1.07D-06 MaxDP=1.21D-05 DE= 2.61D-12 OVMax= 1.26D-04

 Cycle  49  Pass 1  IDiag  1:
 E= -76.5852144916112     Delta-E=        0.000000000060 Rises=F Damp=F
 DIIS: error= 9.85D-08 at cycle  49 NSaved=   4.
 NSaved= 4 IEnMin= 1 EnMin= -76.5852144916811     IErMin= 4 ErrMin= 9.85D-08
 ErrMax= 9.85D-08  0.00D+00 EMaxC= 1.00D-01 BMatC= 1.25D-13 BMatP= 1.25D-13
 IDIUse=1 WtCom= 1.00D+00 WtEn= 0.00D+00
 Large coefficients: NSaved=  4 BigCof=   13.58 CofMax=   10.00 Det=-1.95D-18
 Inversion failed.  Reducing to  3 matrices.
 Large coefficients: NSaved=  3 BigCof=   11.67 CofMax=   10.00 Det=-6.93D-18
 Inversion failed.  Reducing to  2 matrices.
 Coeff-Com: -0.113D+01 0.213D+01
 Coeff:     -0.113D+01 0.213D+01
 Gap=     0.076 Goal=   None    Shift=    0.000
 Gap=     0.297 Goal=   None    Shift=    0.000
 RMSDP=1.20D-06 MaxDP=1.35D-05 DE= 6.04D-11 OVMax= 1.41D-04

 Cycle  50  Pass 1  IDiag  1:
 E= -76.5852144915440     Delta-E=        0.000000000067 Rises=F Damp=F
 DIIS: error= 9.84D-08 at cycle  50 NSaved=   3.
 NSaved= 3 IEnMin= 1 EnMin= -76.5852144916716     IErMin= 3 ErrMin= 9.84D-08
 ErrMax= 9.84D-08  0.00D+00 EMaxC= 1.00D-01 BMatC= 1.26D-13 BMatP= 1.25D-13
 IDIUse=1 WtCom= 1.00D+00 WtEn= 0.00D+00
 Large coefficients: NSaved=  3 BigCof=   41.05 CofMax=   10.00 Det=-3.67D-18
 Inversion failed.  Reducing to  2 matrices.
 Coeff-Com:  0.799D+00 0.201D+00
 Coeff:      0.799D+00 0.201D+00
 Gap=     0.076 Goal=   None    Shift=    0.000
 Gap=     0.297 Goal=   None    Shift=    0.000
 RMSDP=9.71D-07 MaxDP=1.10D-05 DE= 6.72D-11 OVMax= 1.14D-04

 Cycle  51  Pass 1  IDiag  1:
 E= -76.5852144915985     Delta-E=       -0.000000000054 Rises=F Damp=F
 DIIS: error= 9.85D-08 at cycle  51 NSaved=   3.
 NSaved= 3 IEnMin= 1 EnMin= -76.5852144916112     IErMin= 2 ErrMin= 9.84D-08
 ErrMax= 9.85D-08  0.00D+00 EMaxC= 1.00D-01 BMatC= 1.25D-13 BMatP= 1.25D-13
 IDIUse=1 WtCom= 1.00D+00 WtEn= 0.00D+00
 Coeff-Com: -0.635D+01 0.188D+01 0.548D+01
 Coeff:     -0.635D+01 0.188D+01 0.548D+01
 Gap=     0.076 Goal=   None    Shift=    0.000
 Gap=     0.297 Goal=   None    Shift=    0.000
 RMSDP=3.25D-06 MaxDP=3.67D-05 DE=-5.45D-11 OVMax= 3.81D-04

 Cycle  52  Pass 1  IDiag  1:
 E= -76.5852144914163     Delta-E=        0.000000000182 Rises=F Damp=F
 DIIS: error= 9.82D-08 at cycle  52 NSaved=   4.
 NSaved= 4 IEnMin= 1 EnMin= -76.5852144916112     IErMin= 4 ErrMin= 9.82D-08
 ErrMax= 9.82D-08  0.00D+00 EMaxC= 1.00D-01 BMatC= 1.25D-13 BMatP= 1.25D-13
 IDIUse=1 WtCom= 1.00D+00 WtEn= 0.00D+00
 Large coefficients: NSaved=  4 BigCof=   14.85 CofMax=   10.00 Det=-5.72D-18
 Inversion failed.  Reducing to  3 matrices.
 Coeff-Com: -0.970D+00-0.452D+00 0.242D+01
 Coeff:     -0.970D+00-0.452D+00 0.242D+01
 Gap=     0.076 Goal=   None    Shift=    0.000
 Gap=     0.297 Goal=   None    Shift=    0.000
 RMSDP=4.83D-06 MaxDP=5.45D-05 DE= 1.82D-10 OVMax= 5.67D-04

 Cycle  53  Pass 1  IDiag  1:
 E= -76.5852144911465     Delta-E=        0.000000000270 Rises=F Damp=F
 DIIS: error= 9.78D-08 at cycle  53 NSaved=   4.
 NSaved= 4 IEnMin= 1 EnMin= -76.5852144916112     IErMin= 4 ErrMin= 9.78D-08
 ErrMax= 9.78D-08  0.00D+00 EMaxC= 1.00D-01 BMatC= 1.25D-13 BMatP= 1.25D-13
 IDIUse=1 WtCom= 1.00D+00 WtEn= 0.00D+00
 Coeff-Com: -0.148D+01 0.380D+00 0.170D+01 0.398D+00
 Coeff:     -0.148D+01 0.380D+00 0.170D+01 0.398D+00
 Gap=     0.076 Goal=   None    Shift=    0.000
 Gap=     0.297 Goal=   None    Shift=    0.000
 RMSDP=9.94D-07 MaxDP=1.12D-05 DE= 2.70D-10 OVMax= 1.17D-04

 Cycle  54  Pass 1  IDiag  1:
 E= -76.5852144910910     Delta-E=        0.000000000056 Rises=F Damp=F
 DIIS: error= 9.77D-08 at cycle  54 NSaved=   5.
 NSaved= 5 IEnMin= 1 EnMin= -76.5852144916112     IErMin= 5 ErrMin= 9.77D-08
 ErrMax= 9.77D-08  0.00D+00 EMaxC= 1.00D-01 BMatC= 1.25D-13 BMatP= 1.25D-13
 IDIUse=1 WtCom= 1.00D+00 WtEn= 0.00D+00
 Large coefficients: NSaved=  5 BigCof=  557.37 CofMax=   10.00 Det=-6.64D-20
 Inversion failed.  Reducing to  4 matrices.
 Coeff-Com:  0.169D+01-0.151D+01-0.498D+01 0.580D+01
 Coeff:      0.169D+01-0.151D+01-0.498D+01 0.580D+01
 Gap=     0.076 Goal=   None    Shift=    0.000
 Gap=     0.297 Goal=   None    Shift=    0.000
 RMSDP=2.93D-06 MaxDP=3.32D-05 DE= 5.55D-11 OVMax= 3.44D-04

 Cycle  55  Pass 1  IDiag  1:
 E= -76.5852144909277     Delta-E=        0.000000000163 Rises=F Damp=F
 DIIS: error= 9.75D-08 at cycle  55 NSaved=   5.
 NSaved= 5 IEnMin= 1 EnMin= -76.5852144916112     IErMin= 5 ErrMin= 9.75D-08
 ErrMax= 9.75D-08  0.00D+00 EMaxC= 1.00D-01 BMatC= 1.23D-13 BMatP= 1.25D-13
 IDIUse=1 WtCom= 1.00D+00 WtEn= 0.00D+00
 Large coefficients: NSaved=  5 BigCof=  142.70 CofMax=   10.00 Det=-2.50D-18
 Inversion failed.  Reducing to  4 matrices.
 Coeff-Com: -0.917D+01 0.573D+01 0.648D+00 0.379D+01
 Coeff:     -0.917D+01 0.573D+01 0.648D+00 0.379D+01
[...]
 Large coefficients: NSaved= 11 BigCof=    0.00 CofMax=   10.00 Det=-2.45D-20
 Inversion failed.  Reducing to 10 matrices.
 Coeff-Com: -0.703D+00-0.182D+01-0.522D+00 0.211D+01 0.821D+00 0.122D+01
 Coeff-Com: -0.236D+00-0.862D-01 0.906D+00-0.691D+00
 Coeff:     -0.703D+00-0.182D+01-0.522D+00 0.211D+01 0.821D+00 0.122D+01
 Coeff:     -0.236D+00-0.862D-01 0.906D+00-0.691D+00
 Gap=     0.077 Goal=   None    Shift=    0.000
 Gap=     0.297 Goal=   None    Shift=    0.000
 RMSDP=3.00D-08 MaxDP=3.79D-07 DE= 1.19D-12 OVMax= 3.52D-06

 Cycle  87  Pass 1  IDiag  1:
 E= -76.5852140396131     Delta-E=        0.000000000019 Rises=F Damp=F
 DIIS: error= 1.32D-04 at cycle  87 NSaved=  11.
 NSaved=11 IEnMin= 1 EnMin= -76.5852145063986     IErMin= 2 ErrMin= 1.53D-06
 ErrMax= 1.32D-04  0.00D+00 EMaxC= 1.00D-01 BMatC= 1.01D-06 BMatP= 1.65D-10
 IDIUse=1 WtCom= 1.00D+00 WtEn= 0.00D+00
 Large coefficients: NSaved= 11 BigCof=    0.00 CofMax=   10.00 Det=-8.60D-21
 Inversion failed.  Reducing to 10 matrices.
 Coeff-Com: -0.700D+00-0.183D+01-0.520D+00 0.212D+01 0.841D+00 0.120D+01
 Coeff-Com: -0.232D+00-0.103D+00-0.234D+01 0.257D+01
 Coeff:     -0.700D+00-0.183D+01-0.520D+00 0.212D+01 0.841D+00 0.120D+01
 Coeff:     -0.232D+00-0.103D+00-0.234D+01 0.257D+01
 Gap=     0.077 Goal=   None    Shift=    0.000
 Gap=     0.297 Goal=   None    Shift=    0.000
 RMSDP=5.70D-09 MaxDP=8.85D-08 DE= 1.88D-11 OVMax= 6.55D-07

 SCF Done:  E(UM062X) =  -76.5852140396     A.U. after   87 cycles
            NFock= 87  Conv=0.57D-08     -V/T= 2.0029
 <Sx>= 0.0000 <Sy>= 0.0000 <Sz>= 0.5000 <S**2>= 0.7513 S= 0.5007
 <L.S>=  0.00000000000    
 KE= 7.636087644131D+01 PE=-1.988754015633D+02 EE= 3.379798618871D+01
 Annihilation of the first spin contaminant:
 S**2 before annihilation     0.7513,   after     0.7500
 Leave Link  502 at Tue Dec  3 11:32:52 2024, MaxMem=  2147483648 cpu:             350.5 elap:              15.2
 (Enter /home/szhao/Apps/g16/l701.exe)
 ... and contract with generalized density number  0.
 Compute integral first derivatives.
 Leave Link  701 at Tue Dec  3 11:32:52 2024, MaxMem=  2147483648 cpu:               4.6 elap:               0.2
 (Enter /home/szhao/Apps/g16/l702.exe)
 L702 exits ... SP integral derivatives will be done elsewhere.
 Leave Link  702 at Tue Dec  3 11:32:52 2024, MaxMem=  2147483648 cpu:               1.4 elap:               0.1
 (Enter /home/szhao/Apps/g16/l703.exe)
 Integral derivatives from FoFJK, PRISM(SPDF).
 Compute integral first derivatives, UseDBF=F ICtDFT=           0.
 Calling FoFJK, ICntrl=      2127 FMM=F ISym2X=0 I1Cent= 0 IOpClX= 1 NMat=1 NMatS=1 NMatT=0.
 FoFJK:  IHMeth= 1 ICntrl=    2127 DoSepK=F KAlg= 0 I1Cent=           0 FoldK=F
 IRaf=         0 NMat=       1 IRICut=       1 DoRegI=T DoRafI=F ISym2E= 0 IDoP0=0 IntGTp=1.
 FoFCou: FMM=F IPFlag=           0 FMFlag=      100000 FMFlg1=         800
         NFxFlg=           0 DoJE=F BraDBF=F KetDBF=F FulRan=T
         wScrn=  0.000000 ICntrl=      2127 IOpCl=  1 I1Cent=           0 NGrid=           0
         NMat0=    1 NMatS0=      1 NMatT0=    0 NMatD0=    1 NMtDS0=    0 NMtDT0=    0
 Symmetry not used in FoFCou.
 Leave Link  703 at Tue Dec  3 11:32:53 2024, MaxMem=  2147483648 cpu:              10.5 elap:               0.5
 (Enter /home/szhao/Apps/g16/l716.exe)
 Dipole        = 9.54231170D-06-1.66908359D-11-1.03285755D-10
 -------------------------------------------------------------------
 Center     Atomic                   Forces (Hartrees/Bohr)
 Number     Number              X              Y              Z
 -------------------------------------------------------------------
      1        6          -0.000000000   -0.000000000   -0.000000000
      2        6          -0.000000000   -0.000000000   -0.000000000
      3        1          -0.000321047   -0.000000000   -0.000000000
      4        1           0.000321425    0.000000000   -0.000000000
 -------------------------------------------------------------------
 Cartesian Forces:  Max     0.000321425 RMS     0.000131144
 Leave Link  716 at Tue Dec  3 11:32:53 2024, MaxMem=  2147483648 cpu:               1.3 elap:               0.1
 (Enter /home/szhao/Apps/g16/l103.exe)

 GradGradGradGradGradGradGradGradGradGradGradGradGradGradGradGradGradGrad
 Berny optimization.
 Using GEDIIS/GDIIS optimizer.
 FormGI is forming the generalized inverse of G from B-inverse, IUseBI=4.
 Internal  Forces:  Max     0.000321425 RMS     0.000185466
 Search for a local minimum.
 Step number   2 out of a maximum of   22
 All quantities printed in internal units (Hartrees-Bohrs-Radians)
 RMS Force = .18547D-03 SwitMx=.10000D-02 MixMth= 2
 Mixed Optimization -- En-DIIS/RFO-DIIS
 Update second derivatives using D2CorX and points    1    2
 DE= -3.38D-04 DEPred=-3.35D-04 R= 1.01D+00
 TightC=F SS=  1.41D+00  RLast= 4.46D-02 DXNew= 5.0454D-01 1.3372D-01
 Trust test= 1.01D+00 RLast= 4.46D-02 DXMaxT set to 3.00D-01
 The second derivative matrix:
                          X1        Y1        Z1        X2        Y2
           X1           0.66289
           Y1          -0.00000   0.50000
           Z1          -0.00000   0.00000   0.50000
           X2          -0.16311   0.00000   0.00000   0.66333
           Y2           0.00000  -0.00000  -0.00000  -0.00000   0.50000
           Z2          -0.00000   0.00000   0.00000   0.00000  -0.00000
           R1          -0.16289   0.00000   0.00000   0.16311  -0.00000
           R2          -0.16311   0.00000   0.00000   0.16333  -0.00000
           A1           0.00000  -0.00000  -0.00000  -0.00000   0.00000
           A2          -0.00000   0.00000   0.00000   0.00000  -0.00000
           A3          -0.00000   0.00000   0.00000   0.00000  -0.00000
           A4          -0.00000   0.00000   0.00000   0.00000  -0.00000
                          Z2        R1        R2        A1        A2
           Z2           0.50000
           R1           0.00000   0.33097
           R2           0.00000  -0.00476   0.33098
           A1          -0.00000  -0.00000  -0.00000   0.00230
           A2           0.00000   0.00000   0.00000  -0.00000   0.00230
           A3           0.00000   0.00000   0.00000  -0.00000   0.00000
           A4           0.00000   0.00000   0.00000  -0.00000   0.00000
                          A3        A4
           A3           0.00230
           A4           0.00000   0.00230
 ITU=  1  0
 Use linear search instead of GDIIS.
     Eigenvalues ---    0.00230   0.00230   0.00230   0.32621   0.33574
     Eigenvalues --- 1000.000001000.000001000.000001000.000001000.00000
     Eigenvalues --- 1000.000001000.00000
 RFO step:  Lambda= 0.00000000D+00 EMin= 2.30000000D-03
 Quartic linear search produced a step of  0.03323.
 Iteration  1 RMS(Cart)=  0.00042756 RMS(Int)=  0.00000000
 Iteration  2 RMS(Cart)=  0.00000001 RMS(Int)=  0.00000000
 ITry= 1 IFail=0 DXMaxC= 1.05D-03 DCOld= 1.00D+10 DXMaxT= 3.00D-01 DXLimC= 3.00D+00 Rises=F
 Variable       Old X    -DE/DX   Delta X   Delta X   Delta X     New X
                                 (Linear)    (Quad)   (Total)
    X1       -3.55677  -0.00032   0.00000   0.00000   0.00000  -3.55677
    Y1        0.00000  -0.00000   0.00000   0.00000   0.00000   0.00000
    Z1        0.00000  -0.00000   0.00000   0.00000   0.00000   0.00000
    X2        3.55677   0.00032   0.00000   0.00000   0.00000   3.55677
    Y2        0.00000   0.00000   0.00000   0.00000   0.00000   0.00000
    Z2        0.00000  -0.00000   0.00000   0.00000   0.00000   0.00000
    R1        2.11207   0.00032   0.00105   0.00000   0.00105   2.11312
    R2        2.11207   0.00032   0.00105  -0.00000   0.00105   2.11312
    A1        3.14159   0.00000   0.00000   0.00000   0.00000   3.14159
    A2        3.14159  -0.00000   0.00000  -0.00000   0.00000   3.14159
    A3        3.14159  -0.00000   0.00000  -0.00000   0.00000   3.14159
    A4        3.14159  -0.00000   0.00000  -0.00000  -0.00000   3.14159
         Item               Value     Threshold  Converged?
 Maximum Force            0.000321     0.000450     YES
 RMS     Force            0.000185     0.000300     YES
 Maximum Displacement     0.001048     0.001800     YES
 RMS     Displacement     0.000428     0.001200     YES
 Predicted change in Energy=-3.150568D-07
 Optimization completed.
    -- Stationary point found.
                           ----------------------------
                           !   Optimized Parameters   !
                           ! (Angstroms and Degrees)  !
 --------------------------                            --------------------------
 ! Name  Definition              Value          Derivative Info.                !
 --------------------------------------------------------------------------------
 ! X1    R(1,-1)                -1.8822         -DE/DX =   -0.0003              !
 ! Y1    R(1,-2)                 0.0            -DE/DX =    0.0                 !
 ! Z1    R(1,-3)                 0.0            -DE/DX =    0.0                 !
 ! X2    R(2,-1)                 1.8822         -DE/DX =    0.0003              !
 ! Y2    R(2,-2)                 0.0            -DE/DX =    0.0                 !
 ! Z2    R(2,-3)                 0.0            -DE/DX =    0.0                 !
 ! R1    R(1,3)                  1.1177         -DE/DX =    0.0003              !
 ! R2    R(2,4)                  1.1177         -DE/DX =    0.0003              !
 ! A1    L(2,1,3,-2,-1)        180.0            -DE/DX =    0.0                 !
 ! A2    L(1,2,4,-2,-1)        180.0            -DE/DX =    0.0                 !
 ! A3    L(2,1,3,-3,-2)        180.0            -DE/DX =    0.0                 !
 ! A4    L(1,2,4,-3,-2)        180.0            -DE/DX =    0.0                 !
 --------------------------------------------------------------------------------
 Lowest energy point so far.  Saving SCF results.
 Largest change from initial coordinates is atom    4       0.017 Angstoms.
 GradGradGradGradGradGradGradGradGradGradGradGradGradGradGradGradGradGrad

 Leave Link  103 at Tue Dec  3 11:32:53 2024, MaxMem=  2147483648 cpu:               0.1 elap:               0.0
 (Enter /home/szhao/Apps/g16/l202.exe)
                          Input orientation:                          
 ---------------------------------------------------------------------
 Center     Atomic      Atomic             Coordinates (Angstroms)
 Number     Number       Type             X           Y           Z
 ---------------------------------------------------------------------
      1          6           0       -1.882160    0.000000    0.000000
      2          6           0        1.882160    0.000000    0.000000
      3          1           0       -2.999822    0.000000   -0.000000
      4          1           0        2.999821   -0.000000   -0.000000
 ---------------------------------------------------------------------
                    Distance matrix (angstroms):
                    1          2          3          4
     1  C    0.000000
     2  C    3.764320   0.000000
     3  H    1.117662   4.881982   0.000000
     4  H    4.881981   1.117661   5.999642   0.000000
 Symmetry turned off by external request.
 Stoichiometry    C2H2(1+,2)
 Framework group  C*V[C*(HCCH)]
 Deg. of freedom     3
 Full point group                 C*V     NOp   4
 Rotational constants (GHZ):           0.0000000           4.8990146           4.8990146
 Leave Link  202 at Tue Dec  3 11:32:53 2024, MaxMem=  2147483648 cpu:               0.1 elap:               0.0
 (Enter /home/szhao/Apps/g16/l601.exe)
 Copying SCF densities to generalized density rwf, IOpCl= 1 IROHF=0.

 **********************************************************************

            Population analysis using the SCF density.

 **********************************************************************

 Alpha  occ. eigenvalues --  -10.94498 -10.94498  -0.98183  -0.98036  -0.64119
 Alpha  occ. eigenvalues --   -0.62696  -0.48406
 Alpha virt. eigenvalues --   -0.40692  -0.33122  -0.32867  -0.12326  -0.11362
 Alpha virt. eigenvalues --   -0.07719  -0.07253  -0.05387  -0.04776  -0.04415
 Alpha virt. eigenvalues --   -0.01585  -0.00517   0.05873   0.25217   0.29849
 Alpha virt. eigenvalues --    0.35531   0.36160   0.37061   0.38024   0.38939
 Alpha virt. eigenvalues --    0.49948   0.52456   0.59544   0.89531   0.89562
 Alpha virt. eigenvalues --    0.89693   0.89834   1.07644   1.07702   1.08836
 Alpha virt. eigenvalues --    1.08893   1.35214   1.36190   1.62820   1.62905
 Alpha virt. eigenvalues --    1.63131   1.63194   2.16473   2.17791   2.26877
 Alpha virt. eigenvalues --    2.32304   2.43182   2.44678   2.45104   2.46576
 Alpha virt. eigenvalues --    2.90475   3.00367  23.25394  23.27102
  Beta  occ. eigenvalues --  -10.94087 -10.94087  -0.95789  -0.95722  -0.62785
  Beta  occ. eigenvalues --   -0.61283
  Beta virt. eigenvalues --   -0.31577  -0.31101  -0.29935  -0.29389  -0.12804
  Beta virt. eigenvalues --   -0.11285  -0.07130  -0.06333  -0.06078  -0.04051
  Beta virt. eigenvalues --   -0.03089  -0.02080   0.01054   0.07478   0.24418
  Beta virt. eigenvalues --    0.30189   0.36573   0.36827   0.38624   0.38655
  Beta virt. eigenvalues --    0.38841   0.51074   0.54904   0.62060   0.96805
  Beta virt. eigenvalues --    0.96813   0.97741   0.97750   1.11007   1.11008
  Beta virt. eigenvalues --    1.11019   1.11020   1.35563   1.36645   1.64586
  Beta virt. eigenvalues --    1.64677   1.65274   1.65365   2.30728   2.32782
  Beta virt. eigenvalues --    2.32952   2.38555   2.45791   2.47659   2.48228
  Beta virt. eigenvalues --    2.50039   3.01135   3.09749  23.26719  23.28430
          Condensed to atoms (all electrons):
               1          2          3          4
     1  C    5.473091   0.003250   0.254724   0.000801
     2  C    0.003250   5.473088   0.000801   0.254724
     3  H    0.254724   0.000801   0.512608   0.000002
     4  H    0.000801   0.254724   0.000002   0.512608
          Atomic-Atomic Spin Densities.
               1          2          3          4
     1  C    0.515012   0.007674  -0.006105  -0.000103
     2  C    0.007674   0.515009  -0.000103  -0.006105
     3  H   -0.006105  -0.000103  -0.010268   0.000000
     4  H   -0.000103  -0.006105   0.000000  -0.010268
 Mulliken charges and spin densities:
               1          2
     1  C    0.268134   0.516477
     2  C    0.268136   0.516475
     3  H    0.231865  -0.016476
     4  H    0.231865  -0.016476
 Sum of Mulliken charges =   1.00000   1.00000
 Mulliken charges and spin densities with hydrogens summed into heavy atoms:
               1          2
     1  C    0.499999   0.500001
     2  C    0.500001   0.499999
 Electronic spatial extent (au):  <R**2>=            215.4884
 Charge=              1.0000 electrons
 Dipole moment (field-independent basis, Debye):
    X=              0.0000    Y=             -0.0000    Z=             -0.0000  Tot=              0.0000
 Quadrupole moment (field-independent basis, Debye-Ang):
   XX=             21.7742   YY=            -10.6627   ZZ=            -10.3177
   XY=              0.0000   XZ=             -0.0000   YZ=              0.9872
 Traceless Quadrupole moment (field-independent basis, Debye-Ang):
   XX=             21.5096   YY=            -10.9273   ZZ=            -10.5823
   XY=              0.0000   XZ=             -0.0000   YZ=              0.9872
 Octapole moment (field-independent basis, Debye-Ang**2):
  XXX=              0.0001  YYY=             -0.0000  ZZZ=             -0.0000  XYY=              0.0000
  XXY=             -0.0000  XXZ=             -0.0000  XZZ=              0.0000  YZZ=             -0.0000
  YYZ=             -0.0000  XYZ=             -0.0000
 Hexadecapole moment (field-independent basis, Debye-Ang**3):
 XXXX=            -66.6930 YYYY=            -10.8041 ZZZZ=            -10.0682 XXXY=             -0.0000
 XXXZ=             -0.0000 YYYX=              0.0000 YYYZ=              1.0529 ZZZX=             -0.0000
 ZZZY=              1.0528 XXYY=            -45.2788 XXZZ=            -43.9347 YYZZ=             -3.4788
 XXYZ=              3.8458 YYXZ=             -0.0000 ZZXY=             -0.0000
 N-N= 1.213132489364D+01 E-N=-1.988754017787D+02  KE= 7.636087644131D+01
                          Isotropic Fermi Contact Couplings
        Atom                 a.u.       MegaHertz       Gauss      10(-4) cm-1
     1  C(13)              0.07717      86.74927      30.95430      28.93644
     2  C(13)              0.07717      86.74934      30.95432      28.93646
     3  H(1)              -0.00416     -18.60275      -6.63792      -6.20521
     4  H(1)              -0.00416     -18.60268      -6.63790      -6.20519
 --------------------------------------------------------
       Center         ----  Spin Dipole Couplings  ----
                      3XX-RR        3YY-RR        3ZZ-RR
 --------------------------------------------------------
     1   Atom       -0.318758      0.246450      0.072308
     2   Atom       -0.318756      0.246454      0.072302
     3   Atom        0.042643     -0.018385     -0.024258
     4   Atom        0.042643     -0.018385     -0.024258
 --------------------------------------------------------
                        XY            XZ            YZ
 --------------------------------------------------------
     1   Atom        0.000000      0.000000     -0.498302
     2   Atom        0.000000      0.000000     -0.498298
     3   Atom       -0.000000     -0.000000     -0.016806
     4   Atom       -0.000000     -0.000000     -0.016806
 --------------------------------------------------------


 ---------------------------------------------------------------------------------
              Anisotropic Spin Dipole Couplings in Principal Axis System
 ---------------------------------------------------------------------------------

       Atom             a.u.   MegaHertz   Gauss  10(-4) cm-1        Axes

              Baa    -0.3465   -46.493   -16.590   -15.509 -0.0000  0.6434  0.7655
     1 C(13)  Bbb    -0.3188   -42.774   -15.263   -14.268  1.0000  0.0000  0.0000
              Bcc     0.6652    89.268    31.853    29.776 -0.0000  0.7655 -0.6434
 
              Baa    -0.3465   -46.493   -16.590   -15.508 -0.0000  0.6434  0.7656
     2 C(13)  Bbb    -0.3188   -42.774   -15.263   -14.268  1.0000  0.0000  0.0000
              Bcc     0.6652    89.267    31.853    29.776 -0.0000  0.7656 -0.6434
 
              Baa    -0.0384   -20.479    -7.307    -6.831  0.0000  0.6434  0.7655
     3 H(1)   Bbb    -0.0043    -2.274    -0.811    -0.758  0.0000  0.7655 -0.6434
              Bcc     0.0426    22.752     8.119     7.589  1.0000 -0.0000 -0.0000
 
              Baa    -0.0384   -20.479    -7.307    -6.831  0.0000  0.6434  0.7656
     4 H(1)   Bbb    -0.0043    -2.273    -0.811    -0.758 -0.0000  0.7656 -0.6434
              Bcc     0.0426    22.752     8.118     7.589  1.0000 -0.0000 -0.0000
 

 ---------------------------------------------------------------------------------

 No NMR shielding tensors so no spin-rotation constants.
 Leave Link  601 at Tue Dec  3 11:32:53 2024, MaxMem=  2147483648 cpu:               5.5 elap:               0.2
 (Enter /home/szhao/Apps/g16/l9999.exe)
 1\1\GINC-NODE01\FOpt\UM062X\6-311+G(d,p)\C2H2(1+,2)\SZHAO\03-Dec-2024\
 0\\#p opt UM062X/6-311+G** nosymm int=superfine\\Title Card Required\\
 1,2\C,-1.88216,0.,0.\C,1.88216,0.,0.\H,-2.9998216437,0.,0.\H,2.9998207
 595,0.,0.\\Version=ES64L-G16RevA.03\HF=-76.585214\S2=0.751321\S2-1=0.\
 S2A=0.750001\RMSD=5.702e-09\RMSF=1.311e-04\Dipole=0.0000097,0.,0.\Quad
 rupole=15.9918682,-8.1241909,-7.8676773,0.,0.,0.7339821\PG=C*V [C*(H1C
 1C1H1)]\\@


 THE MOST INCOMPREHENSIBLE THING ABOUT THE WORLD
 IS THAT IT IS COMPREHENSIBLE. -- A. EINSTEIN
 Job cpu time:       0 days  0 hours  8 minutes 12.5 seconds.
 Elapsed time:       0 days  0 hours  0 minutes 21.4 seconds.
 File lengths (MBytes):  RWF=      6 Int=      0 D2E=      0 Chk=      1 Scr=      1
 Normal termination of Gaussian 16 at Tue Dec  3 11:32:53 2024.
