 Entering Gaussian System, Link 0=g16
 Initial command:
 /home/szhao/Apps/g16/l1.exe "/home/szhao/tmp/Gau-43665.inp" -scrdir="/home/szhao/tmp/"
 Default is to use a total of  16 processors:
                               16 via shared-memory
                                1 via Linda
 Entering Link 1 = /home/szhao/Apps/g16/l1.exe PID=     43666.
  
 Copyright (c) 1988,1990,1992,1993,1995,1998,2003,2009,2016,
            Gaussian, Inc.  All Rights Reserved.
  
 This is part of the Gaussian(R) 16 program.  It is based on
 the Gaussian(R) 09 system (copyright 2009, Gaussian, Inc.),
 the Gaussian(R) 03 system (copyright 2003, Gaussian, Inc.),
 the Gaussian(R) 98 system (copyright 1998, Gaussian, Inc.),
 the Gaussian(R) 94 system (copyright 1995, Gaussian, Inc.),
 the Gaussian 92(TM) system (copyright 1992, Gaussian, Inc.),
 the Gaussian 90(TM) system (copyright 1990, Gaussian, Inc.),
 the Gaussian 88(TM) system (copyright 1988, Gaussian, Inc.),
 the Gaussian 86(TM) system (copyright 1986, Carnegie Mellon
 University), and the Gaussian 82(TM) system (copyright 1983,
 Carnegie Mellon University). Gaussian is a federally registered
 trademark of Gaussian, Inc.
  
 This software contains proprietary and confidential information,
 including trade secrets, belonging to Gaussian, Inc.
  
 This software is provided under written license and may be
 used, copied, transmitted, or stored only in accord with that
 written license.
  
 The following legend is applicable only to US Government
 contracts under FAR:
  
                    RESTRICTED RIGHTS LEGEND
  
 Use, reproduction and disclosure by the US Government is
 subject to restrictions as set forth in subparagraphs (a)
 and (c) of the Commercial Computer Software - Restricted
 Rights clause in FAR 52.227-19.
  
 Gaussian, Inc.
 340 Quinnipiac St., Bldg. 40, Wallingford CT 06492
  
  
 ---------------------------------------------------------------
 Warning -- This program may not be used in any manner that
 competes with the business of Gaussian, Inc. or will provide
 assistance to any competitor of Gaussian, Inc.  The licensee
 of this program is prohibited from giving any competitor of
 Gaussian, Inc. access to this program.  By using this program,
 the user acknowledges that Gaussian, Inc. is engaged in the
 business of creating and licensing software in the field of
 computational chemistry and represents and warrants to the
 licensee that it is not a competitor of Gaussian, Inc. and that
 it will not use this program in any manner prohibited above.
 ---------------------------------------------------------------
  

 Cite this work as:
 Gaussian 16, Revision A.03,
 M. J. Frisch, G. W. Trucks, H. B. Schlegel, G. E. Scuseria, 
 M. A. Robb, J. R. Cheeseman, G. Scalmani, V. Barone, 
 G. A. Petersson, H. Nakatsuji, X. Li, M. Caricato, A. V. Marenich, 
 J. Bloino, B. G. Janesko, R. Gomperts, B. Mennucci, H. P. Hratchian, 
 J. V. Ortiz, A. F. Izmaylov, J. L. Sonnenberg, D. Williams-Young, 
 F. Ding, F. Lipparini, F. Egidi, J. Goings, B. Peng, A. Petrone, 
 T. Henderson, D. Ranasinghe, V. G. Zakrzewski, J. Gao, N. Rega, 
 G. Zheng, W. Liang, M. Hada, M. Ehara, K. Toyota, R. Fukuda, 
 J. Hasegawa, M. Ishida, T. Nakajima, Y. Honda, O. Kitao, H. Nakai, 
 T. Vreven, K. Throssell, J. A. Montgomery, Jr., J. E. Peralta, 
 F. Ogliaro, M. J. Bearpark, J. J. Heyd, E. N. Brothers, K. N. Kudin, 
 V. N. Staroverov, T. A. Keith, R. Kobayashi, J. Normand, 
 K. Raghavachari, A. P. Rendell, J. C. Burant, S. S. Iyengar, 
 J. Tomasi, M. Cossi, J. M. Millam, M. Klene, C. Adamo, R. Cammi, 
 J. W. Ochterski, R. L. Martin, K. Morokuma, O. Farkas, 
 J. B. Foresman, and D. J. Fox, Gaussian, Inc., Wallingford CT, 2016.
 
 ******************************************
 Gaussian 16:  ES64L-G16RevA.03 25-Dec-2016
                21-Apr-2025 
 ******************************************
 %chk=opt.chk
 %mem=4GB
 %nprocshared=8
 Will use up to    8 processors via shared memory.
 --------------------------------------------
 #p opt UM062X/6-311+G** nosymm int=superfine
 --------------------------------------------
 1/18=20,19=15,26=5,38=1/1,3;
 2/9=110,12=2,15=1,17=6,18=5,40=1/2;
 3/5=4,6=6,7=111,11=2,25=1,30=1,71=1,74=-55,75=-7,116=2/1,2,3;
 4//1;
 5/5=2,38=5/2;
 6/7=2,8=2,9=2,10=2,28=1/1;
 7/30=1/1,2,3,16;
 1/18=20,19=15,26=5/3(2);
 2/9=110,15=1/2;
 99//99;
 2/9=110,15=1/2;
 3/5=4,6=6,7=111,11=2,25=1,30=1,71=1,74=-55,75=-7,116=2/1,2,3;
 4/5=5,16=3,69=1/1;
 5/5=2,38=5/2;
 7/30=1/1,2,3,16;
 1/18=20,19=15,26=5/3(-5);
 2/9=110,15=1/2;
 6/7=2,8=2,9=2,10=2,19=2,28=1/1;
 99/9=1/99;
 Leave Link    1 at Mon Apr 21 20:43:24 2025, MaxMem=   536870912 cpu:               1.2 elap:               0.1
 (Enter /home/szhao/Apps/g16/l101.exe)
 -------------------
 Title Card Required
 -------------------
 Symbolic Z-matrix:
 Charge =  1 Multiplicity = 2
 Si                   -1   -2.52797   0.        0. 
 Si                   -1    2.52797   0.        0. 
 H                    0    -3.0994   -1.37463   0. 
 H                    0     3.51431   1.10449   0. 
 
 Add virtual bond connecting atoms Si2        and Si1        Dist= 9.55D+00.
 ITRead=  2  2  0  0
 MicOpt= -2 -2 -1 -1
 NAtoms=      4 NQM=        2 NQMF=       2 NMMI=      0 NMMIF=      0
                NMic=       0 NMicF=      0.
                    Isotopes and Nuclear Properties:
 (Nuclear quadrupole moments (NQMom) in fm**2, nuclear magnetic moments (NMagM)
  in nuclear magnetons)

  Atom         1           2           3           4
 IAtWgt=          28          28           1           1
 AtmWgt=  27.9769284  27.9769284   1.0078250   1.0078250
 NucSpn=           0           0           1           1
 AtZEff=  -0.0000000  -0.0000000  -0.0000000  -0.0000000
 NQMom=    0.0000000   0.0000000   0.0000000   0.0000000
 NMagM=    0.0000000   0.0000000   2.7928460   2.7928460
 AtZNuc=  14.0000000  14.0000000   1.0000000   1.0000000
 Leave Link  101 at Mon Apr 21 20:43:25 2025, MaxMem=   536870912 cpu:               2.5 elap:               0.3
 (Enter /home/szhao/Apps/g16/l103.exe)

 GradGradGradGradGradGradGradGradGradGradGradGradGradGradGradGradGradGrad
 Berny optimization.
 Initialization pass.
                           ----------------------------
                           !    Initial Parameters    !
                           ! (Angstroms and Degrees)  !
 --------------------------                            --------------------------
 ! Name  Definition              Value          Derivative Info.                !
 --------------------------------------------------------------------------------
 ! X1    R(1,-1)                -2.528          Frozen                          !
 ! Y1    R(1,-2)                 0.0            Frozen                          !
 ! Z1    R(1,-3)                 0.0            Frozen                          !
 ! X2    R(2,-1)                 2.528          Frozen                          !
 ! Y2    R(2,-2)                 0.0            Frozen                          !
 ! Z2    R(2,-3)                 0.0            Frozen                          !
 ! R1    R(1,3)                  1.4887         estimate D2E/DX2                !
 ! R2    R(2,4)                  1.4808         estimate D2E/DX2                !
 ! A1    A(2,1,3)              112.5724         estimate D2E/DX2                !
 ! A2    A(1,2,4)              131.7655         estimate D2E/DX2                !
 ! D1    D(3,1,2,4)            180.0            estimate D2E/DX2                !
 --------------------------------------------------------------------------------
 Trust Radius=3.00D-01 FncErr=1.00D-07 GrdErr=1.00D-07 EigMax=2.50D+02 EigMin=1.00D-04
 Number of steps in this run=     21 maximum allowed number of steps=    100.
 GradGradGradGradGradGradGradGradGradGradGradGradGradGradGradGradGradGrad

 Leave Link  103 at Mon Apr 21 20:43:25 2025, MaxMem=   536870912 cpu:               0.4 elap:               0.1
 (Enter /home/szhao/Apps/g16/l202.exe)
                          Input orientation:                          
 ---------------------------------------------------------------------
 Center     Atomic      Atomic             Coordinates (Angstroms)
 Number     Number       Type             X           Y           Z
 ---------------------------------------------------------------------
      1         14           0       -2.527975    0.000000    0.000000
      2         14           0        2.527975    0.000000    0.000000
      3          1           0       -3.099400   -1.374629    0.000000
      4          1           0        3.514306    1.104488    0.000000
 ---------------------------------------------------------------------
                    Distance matrix (angstroms):
                    1          2          3          4
     1  Si   0.000000
     2  Si   5.055949   0.000000
     3  H    1.488667   5.792836   0.000000
     4  H    6.142397   1.480791   7.063081   0.000000
 Symmetry turned off by external request.
 Stoichiometry    H2Si2(1+,2)
 Framework group  CS[SG(H2Si2)]
 Deg. of freedom     5
 Full point group                 CS      NOp   2
 Rotational constants (GHZ):         171.0977931           1.3303437           1.3200796
 Leave Link  202 at Mon Apr 21 20:43:26 2025, MaxMem=   536870912 cpu:               0.6 elap:               0.5
 (Enter /home/szhao/Apps/g16/l301.exe)
 Standard basis: 6-311+G(d,p) (5D, 7F)
 Ernie: Thresh=  0.10000D-02 Tol=  0.10000D-05 Strict=F.
    72 basis functions,   116 primitive gaussians,    74 cartesian basis functions
    15 alpha electrons       14 beta electrons
       nuclear repulsion energy        33.0537848947 Hartrees.
 IExCor= 4336 DFT=T Ex+Corr=M062X ExCW=0 ScaHFX=  0.540000
 ScaDFX=  1.000000  1.000000  1.000000  1.000000 ScalE2=  1.000000  1.000000
 IRadAn=      7 IRanWt=     -1 IRanGd=            0 ICorTp=0 IEmpDi=  4
 NAtoms=    4 NActive=    4 NUniq=    4 SFac= 1.00D+00 NAtFMM=   60 NAOKFM=F Big=F
 Integral buffers will be    131072 words long.
 Raffenetti 2 integral format.
 Two-electron integral symmetry is turned off.
 Leave Link  301 at Mon Apr 21 20:43:26 2025, MaxMem=   536870912 cpu:               1.0 elap:               0.3
 (Enter /home/szhao/Apps/g16/l302.exe)
 NPDir=0 NMtPBC=     1 NCelOv=     1 NCel=       1 NClECP=     1 NCelD=      1
         NCelK=      1 NCelE2=     1 NClLst=     1 CellRange=     0.0.
 One-electron integrals computed using PRISM.
 NBasis=    72 RedAO= T EigKep=  1.75D-02  NBF=    72
 NBsUse=    72 1.00D-06 EigRej= -1.00D+00 NBFU=    72
 Precomputing XC quadrature grid using
 IXCGrd= 4 IRadAn=           7 IRanWt=          -1 IRanGd=           0 AccXCQ= 0.00D+00.
 Generated NRdTot=       0 NPtTot=           0 NUsed=           0 NTot=          32
 NSgBfM=    64    64    64    64    64 MxSgAt=     4 MxSgA2=     4.
 Leave Link  302 at Mon Apr 21 20:43:27 2025, MaxMem=   536870912 cpu:               2.1 elap:               0.4
 (Enter /home/szhao/Apps/g16/l303.exe)
 DipDrv:  MaxL=1.
 Leave Link  303 at Mon Apr 21 20:43:27 2025, MaxMem=   536870912 cpu:               0.4 elap:               0.1
 (Enter /home/szhao/Apps/g16/l401.exe)
 ExpMin= 3.31D-02 ExpMax= 6.94D+04 ExpMxC= 2.33D+03 IAcc=3 IRadAn=         7 AccDes= 0.00D+00
 Harris functional with IExCor= 1009 and IRadAn=       7 diagonalized for initial guess.
 HarFok:  IExCor= 1009 AccDes= 0.00D+00 IRadAn=         7 IDoV= 1 UseB2=F ITyADJ=14
 ICtDFT=  3500011 ScaDFX=  1.000000  1.000000  1.000000  1.000000
 FoFCou: FMM=F IPFlag=           0 FMFlag=      100000 FMFlg1=           0
         NFxFlg=           0 DoJE=T BraDBF=F KetDBF=T FulRan=T
         wScrn=  0.000000 ICntrl=       500 IOpCl=  0 I1Cent=   200000004 NGrid=           0
         NMat0=    1 NMatS0=      1 NMatT0=    0 NMatD0=    1 NMtDS0=    0 NMtDT0=    0
 Symmetry not used in FoFCou.
 Harris En= -579.442283390579    
 JPrj=0 DoOrth=F DoCkMO=F.
 Initial guess <Sx>= 0.0000 <Sy>= 0.0000 <Sz>= 0.5000 <S**2>= 0.7500 S= 0.5000
 Leave Link  401 at Mon Apr 21 20:43:28 2025, MaxMem=   536870912 cpu:               2.9 elap:               0.4
 (Enter /home/szhao/Apps/g16/l502.exe)
 Keep R1 and R2 ints in memory in canonical form, NReq=14118010.
 FoFCou: FMM=F IPFlag=           0 FMFlag=           0 FMFlg1=           0
         NFxFlg=           0 DoJE=F BraDBF=F KetDBF=F FulRan=T
         wScrn=  0.000000 ICntrl=       600 IOpCl=  0 I1Cent=           0 NGrid=           0
         NMat0=    1 NMatS0=   2628 NMatT0=    0 NMatD0=    1 NMtDS0=    0 NMtDT0=    0
 Symmetry not used in FoFCou.
 Two-electron integral symmetry not used.
 UHF open shell SCF:
 Using DIIS extrapolation, IDIIS=  1040.
 NGot=   536870912 LenX=   529949706 LenY=   529943789
 Requested convergence on RMS density matrix=1.00D-08 within 128 cycles.
 Requested convergence on MAX density matrix=1.00D-06.
 Requested convergence on             energy=1.00D-06.
 No special actions if energy rises.

 Cycle   1  Pass 1  IDiag  1:
 E= -579.630115953318    
 DIIS: error= 2.98D-02 at cycle   1 NSaved=   1.
 NSaved= 1 IEnMin= 1 EnMin= -579.630115953318     IErMin= 1 ErrMin= 2.98D-02
 ErrMax= 2.98D-02  0.00D+00 EMaxC= 1.00D-01 BMatC= 2.20D-01 BMatP= 2.20D-01
 IDIUse=3 WtCom= 7.02D-01 WtEn= 2.98D-01
 Coeff-Com:  0.100D+01
 Coeff-En:   0.100D+01
 Coeff:      0.100D+01
 Gap=     0.105 Goal=   None    Shift=    0.000
 Gap=     0.243 Goal=   None    Shift=    0.000
 GapD=    0.105 DampG=1.000 DampE=0.500 DampFc=0.5000 IDamp=-1.
 Damping current iteration by 5.00D-01
 RMSDP=5.86D-03 MaxDP=1.58D-01              OVMax= 1.01D-01

 Cycle   2  Pass 1  IDiag  1:
 E= -579.651514342643     Delta-E=       -0.021398389325 Rises=F Damp=T
 DIIS: error= 1.50D-02 at cycle   2 NSaved=   2.
 NSaved= 2 IEnMin= 2 EnMin= -579.651514342643     IErMin= 2 ErrMin= 1.50D-02
 ErrMax= 1.50D-02  0.00D+00 EMaxC= 1.00D-01 BMatC= 3.84D-02 BMatP= 2.20D-01
 IDIUse=3 WtCom= 8.50D-01 WtEn= 1.50D-01
 Coeff-Com: -0.534D+00 0.153D+01
 Coeff-En:   0.000D+00 0.100D+01
 Coeff:     -0.454D+00 0.145D+01
 Gap=     0.069 Goal=   None    Shift=    0.000
 Gap=     0.249 Goal=   None    Shift=    0.000
 RMSDP=1.86D-03 MaxDP=4.84D-02 DE=-2.14D-02 OVMax= 2.85D-02

 Cycle   3  Pass 1  IDiag  1:
 E= -579.670138427347     Delta-E=       -0.018624084704 Rises=F Damp=F
 DIIS: error= 8.94D-04 at cycle   3 NSaved=   3.
 NSaved= 3 IEnMin= 3 EnMin= -579.670138427347     IErMin= 3 ErrMin= 8.94D-04
 ErrMax= 8.94D-04  0.00D+00 EMaxC= 1.00D-01 BMatC= 3.10D-04 BMatP= 3.84D-02
 IDIUse=3 WtCom= 9.91D-01 WtEn= 8.94D-03
 Coeff-Com: -0.583D-01 0.111D+00 0.947D+00
 Coeff-En:   0.000D+00 0.000D+00 0.100D+01
 Coeff:     -0.578D-01 0.110D+00 0.948D+00
 Gap=     0.070 Goal=   None    Shift=    0.000
 Gap=     0.248 Goal=   None    Shift=    0.000
 RMSDP=2.64D-04 MaxDP=8.76D-03 DE=-1.86D-02 OVMax= 2.23D-02

 Cycle   4  Pass 1  IDiag  1:
 E= -579.670205847855     Delta-E=       -0.000067420508 Rises=F Damp=F
 DIIS: error= 4.25D-04 at cycle   4 NSaved=   4.
 NSaved= 4 IEnMin= 4 EnMin= -579.670205847855     IErMin= 4 ErrMin= 4.25D-04
 ErrMax= 4.25D-04  0.00D+00 EMaxC= 1.00D-01 BMatC= 8.04D-05 BMatP= 3.10D-04
 IDIUse=3 WtCom= 9.96D-01 WtEn= 4.25D-03
 Coeff-Com: -0.224D-01 0.388D-01 0.326D+00 0.657D+00
 Coeff-En:   0.000D+00 0.000D+00 0.000D+00 0.100D+01
 Coeff:     -0.224D-01 0.386D-01 0.325D+00 0.659D+00
 Gap=     0.070 Goal=   None    Shift=    0.000
 Gap=     0.247 Goal=   None    Shift=    0.000
 RMSDP=1.88D-04 MaxDP=6.18D-03 DE=-6.74D-05 OVMax= 1.93D-02

 Cycle   5  Pass 1  IDiag  1:
 E= -579.670249766750     Delta-E=       -0.000043918895 Rises=F Damp=F
 DIIS: error= 2.81D-04 at cycle   5 NSaved=   5.
 NSaved= 5 IEnMin= 5 EnMin= -579.670249766750     IErMin= 5 ErrMin= 2.81D-04
 ErrMax= 2.81D-04  0.00D+00 EMaxC= 1.00D-01 BMatC= 2.85D-05 BMatP= 8.04D-05
 IDIUse=3 WtCom= 9.97D-01 WtEn= 2.81D-03
 Coeff-Com: -0.100D-02 0.188D-03-0.424D-01 0.338D+00 0.706D+00
 Coeff-En:   0.000D+00 0.000D+00 0.000D+00 0.386D-01 0.961D+00
 Coeff:     -0.998D-03 0.187D-03-0.423D-01 0.337D+00 0.706D+00
 Gap=     0.070 Goal=   None    Shift=    0.000
 Gap=     0.245 Goal=   None    Shift=    0.000
 RMSDP=8.73D-05 MaxDP=2.25D-03 DE=-4.39D-05 OVMax= 7.48D-03

 Cycle   6  Pass 1  IDiag  1:
 E= -579.670275794840     Delta-E=       -0.000026028090 Rises=F Damp=F
 DIIS: error= 1.58D-04 at cycle   6 NSaved=   6.
 NSaved= 6 IEnMin= 6 EnMin= -579.670275794840     IErMin= 6 ErrMin= 1.58D-04
 ErrMax= 1.58D-04  0.00D+00 EMaxC= 1.00D-01 BMatC= 3.78D-06 BMatP= 2.85D-05
 IDIUse=3 WtCom= 9.98D-01 WtEn= 1.58D-03
 Coeff-Com:  0.745D-02-0.125D-01-0.530D-01-0.312D+00-0.351D+00 0.172D+01
 Coeff-En:   0.000D+00 0.000D+00 0.000D+00 0.000D+00 0.000D+00 0.100D+01
 Coeff:      0.744D-02-0.125D-01-0.529D-01-0.311D+00-0.351D+00 0.172D+01
 Gap=     0.070 Goal=   None    Shift=    0.000
 Gap=     0.244 Goal=   None    Shift=    0.000
 RMSDP=8.36D-05 MaxDP=1.26D-03 DE=-2.60D-05 OVMax= 5.19D-03

 Cycle   7  Pass 1  IDiag  1:
 E= -579.670289888737     Delta-E=       -0.000014093898 Rises=F Damp=F
 DIIS: error= 6.82D-05 at cycle   7 NSaved=   7.
 NSaved= 7 IEnMin= 7 EnMin= -579.670289888737     IErMin= 7 ErrMin= 6.82D-05
 ErrMax= 6.82D-05  0.00D+00 EMaxC= 1.00D-01 BMatC= 6.90D-07 BMatP= 3.78D-06
 IDIUse=1 WtCom= 1.00D+00 WtEn= 0.00D+00
 Coeff-Com: -0.480D-02 0.853D-02 0.459D-01 0.107D+00 0.479D-01-0.108D+01
 Coeff-Com:  0.188D+01
 Coeff:     -0.480D-02 0.853D-02 0.459D-01 0.107D+00 0.479D-01-0.108D+01
 Coeff:      0.188D+01
 Gap=     0.070 Goal=   None    Shift=    0.000
 Gap=     0.244 Goal=   None    Shift=    0.000
 RMSDP=5.42D-05 MaxDP=7.98D-04 DE=-1.41D-05 OVMax= 3.50D-03

 Cycle   8  Pass 1  IDiag  1:
 E= -579.670293037157     Delta-E=       -0.000003148420 Rises=F Damp=F
 DIIS: error= 1.02D-05 at cycle   8 NSaved=   8.
 NSaved= 8 IEnMin= 8 EnMin= -579.670293037157     IErMin= 8 ErrMin= 1.02D-05
 ErrMax= 1.02D-05  0.00D+00 EMaxC= 1.00D-01 BMatC= 2.10D-08 BMatP= 6.90D-07
 IDIUse=1 WtCom= 1.00D+00 WtEn= 0.00D+00
 Coeff-Com: -0.560D-03 0.102D-02 0.230D-02 0.226D-01 0.278D-01-0.124D+00
 Coeff-Com: -0.269D-01 0.110D+01
 Coeff:     -0.560D-03 0.102D-02 0.230D-02 0.226D-01 0.278D-01-0.124D+00
 Coeff:     -0.269D-01 0.110D+01
 Gap=     0.070 Goal=   None    Shift=    0.000
 Gap=     0.244 Goal=   None    Shift=    0.000
 RMSDP=7.76D-06 MaxDP=1.08D-04 DE=-3.15D-06 OVMax= 4.98D-04

 Cycle   9  Pass 1  IDiag  1:
 E= -579.670293102814     Delta-E=       -0.000000065657 Rises=F Damp=F
 DIIS: error= 1.62D-06 at cycle   9 NSaved=   9.
 NSaved= 9 IEnMin= 9 EnMin= -579.670293102814     IErMin= 9 ErrMin= 1.62D-06
 ErrMax= 1.62D-06  0.00D+00 EMaxC= 1.00D-01 BMatC= 9.67D-10 BMatP= 2.10D-08
 IDIUse=1 WtCom= 1.00D+00 WtEn= 0.00D+00
 Coeff-Com:  0.291D-03-0.530D-03-0.225D-02-0.781D-02-0.445D-02 0.622D-01
 Coeff-Com: -0.838D-01-0.162D+00 0.120D+01
 Coeff:      0.291D-03-0.530D-03-0.225D-02-0.781D-02-0.445D-02 0.622D-01
 Coeff:     -0.838D-01-0.162D+00 0.120D+01
 Gap=     0.070 Goal=   None    Shift=    0.000
 Gap=     0.244 Goal=   None    Shift=    0.000
 RMSDP=1.21D-06 MaxDP=1.66D-05 DE=-6.57D-08 OVMax= 7.18D-05

 Cycle  10  Pass 1  IDiag  1:
 E= -579.670293104482     Delta-E=       -0.000000001668 Rises=F Damp=F
 DIIS: error= 4.46D-07 at cycle  10 NSaved=  10.
 NSaved=10 IEnMin=10 EnMin= -579.670293104482     IErMin=10 ErrMin= 4.46D-07
 ErrMax= 4.46D-07  0.00D+00 EMaxC= 1.00D-01 BMatC= 5.91D-11 BMatP= 9.67D-10
 IDIUse=1 WtCom= 1.00D+00 WtEn= 0.00D+00
 Coeff-Com: -0.107D-04 0.170D-04 0.230D-03-0.213D-03-0.538D-03-0.156D-02
 Coeff-Com:  0.112D-01-0.421D-01-0.517D-01 0.108D+01
 Coeff:     -0.107D-04 0.170D-04 0.230D-03-0.213D-03-0.538D-03-0.156D-02
 Coeff:      0.112D-01-0.421D-01-0.517D-01 0.108D+01
 Gap=     0.070 Goal=   None    Shift=    0.000
 Gap=     0.244 Goal=   None    Shift=    0.000
 RMSDP=1.80D-07 MaxDP=2.41D-06 DE=-1.67D-09 OVMax= 8.70D-06

 Cycle  11  Pass 1  IDiag  1:
 E= -579.670293104578     Delta-E=       -0.000000000096 Rises=F Damp=F
 DIIS: error= 3.31D-07 at cycle  11 NSaved=  11.
 NSaved=11 IEnMin=11 EnMin= -579.670293104578     IErMin=11 ErrMin= 3.31D-07
 ErrMax= 3.31D-07  0.00D+00 EMaxC= 1.00D-01 BMatC= 1.42D-11 BMatP= 5.91D-11
 IDIUse=1 WtCom= 1.00D+00 WtEn= 0.00D+00
 Coeff-Com: -0.163D-04 0.307D-04 0.800D-04 0.483D-03 0.584D-03-0.388D-02
 Coeff-Com:  0.262D-02 0.243D-01-0.760D-01-0.305D+00 0.136D+01
 Coeff:     -0.163D-04 0.307D-04 0.800D-04 0.483D-03 0.584D-03-0.388D-02
 Coeff:      0.262D-02 0.243D-01-0.760D-01-0.305D+00 0.136D+01
 Gap=     0.070 Goal=   None    Shift=    0.000
 Gap=     0.244 Goal=   None    Shift=    0.000
 RMSDP=1.20D-07 MaxDP=1.93D-06 DE=-9.61D-11 OVMax= 7.07D-06

 Cycle  12  Pass 1  IDiag  1:
 E= -579.670293104618     Delta-E=       -0.000000000040 Rises=F Damp=F
 DIIS: error= 1.73D-07 at cycle  12 NSaved=  12.
 NSaved=12 IEnMin=12 EnMin= -579.670293104618     IErMin=12 ErrMin= 1.73D-07
 ErrMax= 1.73D-07  0.00D+00 EMaxC= 1.00D-01 BMatC= 4.30D-12 BMatP= 1.42D-11
 IDIUse=1 WtCom= 1.00D+00 WtEn= 0.00D+00
 Coeff-Com:  0.132D-04-0.237D-04-0.124D-03-0.251D-03-0.843D-04 0.272D-02
 Coeff-Com: -0.503D-02 0.133D-03 0.553D-01-0.172D+00-0.631D+00 0.175D+01
 Coeff:      0.132D-04-0.237D-04-0.124D-03-0.251D-03-0.843D-04 0.272D-02
 Coeff:     -0.503D-02 0.133D-03 0.553D-01-0.172D+00-0.631D+00 0.175D+01
 Gap=     0.070 Goal=   None    Shift=    0.000
 Gap=     0.244 Goal=   None    Shift=    0.000
 RMSDP=1.09D-07 MaxDP=1.73D-06 DE=-4.01D-11 OVMax= 6.44D-06

 Cycle  13  Pass 1  IDiag  1:
 E= -579.670293104636     Delta-E=       -0.000000000018 Rises=F Damp=F
 DIIS: error= 5.24D-08 at cycle  13 NSaved=  13.
 NSaved=13 IEnMin=13 EnMin= -579.670293104636     IErMin=13 ErrMin= 5.24D-08
 ErrMax= 5.24D-08  0.00D+00 EMaxC= 1.00D-01 BMatC= 4.49D-13 BMatP= 4.30D-12
 IDIUse=1 WtCom= 1.00D+00 WtEn= 0.00D+00
 Coeff-Com:  0.161D-05-0.329D-05 0.116D-05-0.542D-04-0.788D-04 0.387D-03
 Coeff-Com:  0.327D-04-0.548D-02 0.144D-01 0.693D-01-0.287D+00-0.166D-01
 Coeff-Com:  0.122D+01
 Coeff:      0.161D-05-0.329D-05 0.116D-05-0.542D-04-0.788D-04 0.387D-03
 Coeff:      0.327D-04-0.548D-02 0.144D-01 0.693D-01-0.287D+00-0.166D-01
 Coeff:      0.122D+01
 Gap=     0.070 Goal=   None    Shift=    0.000
 Gap=     0.244 Goal=   None    Shift=    0.000
 RMSDP=3.94D-08 MaxDP=7.23D-07 DE=-1.80D-11 OVMax= 2.30D-06

 Cycle  14  Pass 1  IDiag  1:
 E= -579.670293104638     Delta-E=       -0.000000000002 Rises=F Damp=F
 DIIS: error= 9.09D-09 at cycle  14 NSaved=  14.
 NSaved=14 IEnMin=14 EnMin= -579.670293104638     IErMin=14 ErrMin= 9.09D-09
 ErrMax= 9.09D-09  0.00D+00 EMaxC= 1.00D-01 BMatC= 2.65D-14 BMatP= 4.49D-13
 IDIUse=1 WtCom= 1.00D+00 WtEn= 0.00D+00
 Coeff-Com: -0.654D-06 0.129D-05 0.203D-05 0.191D-04 0.100D-04-0.146D-03
 Coeff-Com:  0.111D-03 0.156D-02-0.618D-02-0.172D-01 0.134D+00-0.870D-01
 Coeff-Com: -0.435D+00 0.141D+01
 Coeff:     -0.654D-06 0.129D-05 0.203D-05 0.191D-04 0.100D-04-0.146D-03
 Coeff:      0.111D-03 0.156D-02-0.618D-02-0.172D-01 0.134D+00-0.870D-01
 Coeff:     -0.435D+00 0.141D+01
 Gap=     0.070 Goal=   None    Shift=    0.000
 Gap=     0.244 Goal=   None    Shift=    0.000
 RMSDP=6.26D-09 MaxDP=1.10D-07 DE=-2.16D-12 OVMax= 2.87D-07

 SCF Done:  E(UM062X) =  -579.670293105     A.U. after   14 cycles
            NFock= 14  Conv=0.63D-08     -V/T= 2.0014
 <Sx>= 0.0000 <Sy>= 0.0000 <Sz>= 0.5000 <S**2>= 0.7579 S= 0.5040
 <L.S>=  0.00000000000    
 KE= 5.788712581903D+02 PE=-1.441386867261D+03 EE= 2.497915310715D+02
 Annihilation of the first spin contaminant:
 S**2 before annihilation     0.7579,   after     0.7500
 Leave Link  502 at Mon Apr 21 20:43:35 2025, MaxMem=   536870912 cpu:              54.7 elap:               7.2
 (Enter /home/szhao/Apps/g16/l601.exe)
 Copying SCF densities to generalized density rwf, IOpCl= 1 IROHF=0.

 **********************************************************************

            Population analysis using the SCF density.

 **********************************************************************

 Alpha  occ. eigenvalues --  -67.25205 -67.25058  -5.79434  -5.79306  -4.10547
 Alpha  occ. eigenvalues --   -4.10453  -4.10430  -4.10332  -4.09805  -4.09681
 Alpha  occ. eigenvalues --   -0.74667  -0.74513  -0.51510  -0.51089  -0.37247
 Alpha virt. eigenvalues --   -0.30198  -0.26302  -0.25985  -0.10321  -0.08789
 Alpha virt. eigenvalues --   -0.08362  -0.07323  -0.06318  -0.05949  -0.05523
 Alpha virt. eigenvalues --   -0.05398  -0.04650  -0.02664   0.13319   0.15334
 Alpha virt. eigenvalues --    0.16610   0.17327   0.18542   0.19570   0.23369
 Alpha virt. eigenvalues --    0.25528   0.28150   0.30564   0.39722   0.39884
 Alpha virt. eigenvalues --    0.39899   0.40070   0.40382   0.40457   0.41297
 Alpha virt. eigenvalues --    0.41877   0.66042   0.66448   1.01867   1.02755
 Alpha virt. eigenvalues --    1.02850   1.03595   1.04352   1.05028   1.31003
 Alpha virt. eigenvalues --    1.31008   1.31259   1.31289   1.80700   1.81904
 Alpha virt. eigenvalues --    2.42753   2.44165   5.23105   5.23990  11.21458
 Alpha virt. eigenvalues --   11.21855  11.22526  11.23031  11.31359  11.32066
 Alpha virt. eigenvalues --  140.78013 140.79167
  Beta  occ. eigenvalues --  -67.24940 -67.24784  -5.79360  -5.79227  -4.10389
  Beta  occ. eigenvalues --   -4.10265  -4.09825  -4.09707  -4.09691  -4.09573
  Beta  occ. eigenvalues --   -0.72881  -0.72815  -0.50825  -0.50390
  Beta virt. eigenvalues --   -0.25993  -0.25593  -0.25555  -0.24180  -0.13236
  Beta virt. eigenvalues --   -0.10720  -0.08516  -0.07533  -0.06860  -0.05754
  Beta virt. eigenvalues --   -0.05608  -0.04665  -0.04340  -0.02636   0.11550
  Beta virt. eigenvalues --    0.14131   0.14897   0.15571   0.16517   0.16590
  Beta virt. eigenvalues --    0.23334   0.24903   0.27745   0.30015   0.41111
  Beta virt. eigenvalues --    0.41137   0.42291   0.42745   0.44045   0.44088
  Beta virt. eigenvalues --    0.44153   0.44512   0.66764   0.67183   1.01938
  Beta virt. eigenvalues --    1.02174   1.02476   1.03811   1.04344   1.05349
  Beta virt. eigenvalues --    1.31393   1.31682   1.31939   1.32225   1.81615
  Beta virt. eigenvalues --    1.82845   2.43184   2.44648   5.24005   5.24911
  Beta virt. eigenvalues --   11.22248  11.23431  11.23477  11.24583  11.31851
  Beta virt. eigenvalues --   11.32576 140.78470 140.79634
          Condensed to atoms (all electrons):
               1          2          3          4
     1  Si  13.160964   0.026786   0.223780   0.000155
     2  Si   0.026786  13.165360   0.000197   0.234540
     3  H    0.223780   0.000197   0.859667  -0.000000
     4  H    0.000155   0.234540  -0.000000   0.843094
          Atomic-Atomic Spin Densities.
               1          2          3          4
     1  Si   0.484650   0.021902  -0.004301   0.000177
     2  Si   0.021902   0.501414   0.000079  -0.007383
     3  H   -0.004301   0.000079  -0.004768  -0.000000
     4  H    0.000177  -0.007383  -0.000000  -0.002245
 Mulliken charges and spin densities:
               1          2
     1  Si   0.588316   0.502428
     2  Si   0.573117   0.516013
     3  H   -0.083644  -0.008990
     4  H   -0.077789  -0.009451
 Sum of Mulliken charges =   1.00000   1.00000
 Mulliken charges and spin densities with hydrogens summed into heavy atoms:
               1          2
     1  Si   0.504672   0.493438
     2  Si   0.495328   0.506562
 Electronic spatial extent (au):  <R**2>=            754.0555
 Charge=              1.0000 electrons
 Dipole moment (field-independent basis, Debye):
    X=              0.0867    Y=             -0.1041    Z=              0.0000  Tot=              0.1355
 Quadrupole moment (field-independent basis, Debye-Ang):
   XX=             12.1450   YY=            -26.5985   ZZ=            -19.9018
   XY=              1.0917   XZ=             -0.0000   YZ=              0.0000
 Traceless Quadrupole moment (field-independent basis, Debye-Ang):
   XX=             23.5968   YY=            -15.1467   ZZ=             -8.4500
   XY=              1.0917   XZ=             -0.0000   YZ=              0.0000
 Octapole moment (field-independent basis, Debye-Ang**2):
  XXX=             -2.5252  YYY=              0.9803  ZZZ=              0.0000  XYY=              1.1378
  XXY=             -1.7551  XXZ=             -0.0000  XZZ=             -0.2366  YZZ=              0.1004
  YYZ=              0.0000  XYZ=              0.0000
 Hexadecapole moment (field-independent basis, Debye-Ang**3):
 XXXX=           -754.0854 YYYY=            -63.6915 ZZZZ=            -25.8309 XXXY=            -34.6445
 XXXZ=             -0.0000 YYYX=            -21.1230 YYYZ=             -0.0000 ZZZX=              0.0000
 ZZZY=             -0.0000 XXYY=           -195.3576 XXZZ=           -140.0528 YYZZ=            -14.9186
 XXYZ=             -0.0000 YYXZ=              0.0000 ZZXY=             -5.1967
 N-N= 3.305378489466D+01 E-N=-1.441386867224D+03  KE= 5.788712581903D+02
                          Isotropic Fermi Contact Couplings
        Atom                 a.u.       MegaHertz       Gauss      10(-4) cm-1
     1  Si(29)             0.00134      -1.19382      -0.42599      -0.39822
     2  Si(29)             0.00874      -7.76698      -2.77145      -2.59078
     3  H(1)              -0.00226     -10.11395      -3.60891      -3.37365
     4  H(1)              -0.00210      -9.38757      -3.34972      -3.13136
 --------------------------------------------------------
       Center         ----  Spin Dipole Couplings  ----
                      3XX-RR        3YY-RR        3ZZ-RR
 --------------------------------------------------------
     1   Atom        0.669771     -0.156001     -0.513770
     2   Atom        0.168025      0.359787     -0.527812
     3   Atom        0.004728      0.008062     -0.012790
     4   Atom        0.006611      0.006484     -0.013094
 --------------------------------------------------------
                        XY            XZ            YZ
 --------------------------------------------------------
     1   Atom       -0.636948     -0.000000      0.000000
     2   Atom       -0.777419      0.000000     -0.000000
     3   Atom        0.002107     -0.000000      0.000000
     4   Atom        0.003030      0.000000     -0.000000
 --------------------------------------------------------


 ---------------------------------------------------------------------------------
              Anisotropic Spin Dipole Couplings in Principal Axis System
 ---------------------------------------------------------------------------------

       Atom             a.u.   MegaHertz   Gauss  10(-4) cm-1        Axes

              Baa    -0.5138    54.503    19.448    18.180  0.0000  0.0000  1.0000
     1 Si(29) Bbb    -0.5022    53.273    19.009    17.770  0.4775  0.8786 -0.0000
              Bcc     1.0159  -107.776   -38.457   -35.950  0.8786 -0.4775 -0.0000
 
              Baa    -0.5278    55.992    19.980    18.677 -0.0000 -0.0000  1.0000
     2 Si(29) Bbb    -0.5194    55.100    19.661    18.379  0.7491  0.6624  0.0000
              Bcc     1.0472  -111.093   -39.641   -37.057 -0.6624  0.7491 -0.0000
 
              Baa    -0.0128    -6.824    -2.435    -2.276  0.0000 -0.0000  1.0000
     3 H(1)   Bbb     0.0037     1.978     0.706     0.660  0.9001 -0.4356 -0.0000
              Bcc     0.0091     4.846     1.729     1.616  0.4356  0.9001 -0.0000
 
              Baa    -0.0131    -6.987    -2.493    -2.330 -0.0000  0.0000  1.0000
     4 H(1)   Bbb     0.0035     1.876     0.669     0.626 -0.6997  0.7145 -0.0000
              Bcc     0.0096     5.110     1.823     1.705  0.7145  0.6997  0.0000
 

 ---------------------------------------------------------------------------------

 No NMR shielding tensors so no spin-rotation constants.
 Leave Link  601 at Mon Apr 21 20:43:36 2025, MaxMem=   536870912 cpu:               2.1 elap:               0.4
 (Enter /home/szhao/Apps/g16/l701.exe)
 ... and contract with generalized density number  0.
 Compute integral first derivatives.
 Leave Link  701 at Mon Apr 21 20:43:37 2025, MaxMem=   536870912 cpu:               1.2 elap:               0.2
 (Enter /home/szhao/Apps/g16/l702.exe)
 L702 exits ... SP integral derivatives will be done elsewhere.
 Leave Link  702 at Mon Apr 21 20:43:37 2025, MaxMem=   536870912 cpu:               0.4 elap:               0.1
 (Enter /home/szhao/Apps/g16/l703.exe)
 Integral derivatives from FoFJK, PRISM(SPDF).
 Compute integral first derivatives, UseDBF=F ICtDFT=           0.
 Calling FoFJK, ICntrl=      2127 FMM=F ISym2X=0 I1Cent= 0 IOpClX= 1 NMat=1 NMatS=1 NMatT=0.
 FoFJK:  IHMeth= 1 ICntrl=    2127 DoSepK=F KAlg= 0 I1Cent=           0 FoldK=F
 IRaf=         0 NMat=       1 IRICut=       1 DoRegI=T DoRafI=F ISym2E= 0 IDoP0=0 IntGTp=1.
 FoFCou: FMM=F IPFlag=           0 FMFlag=      100000 FMFlg1=         800
         NFxFlg=           0 DoJE=F BraDBF=F KetDBF=F FulRan=T
         wScrn=  0.000000 ICntrl=      2127 IOpCl=  1 I1Cent=           0 NGrid=           0
         NMat0=    1 NMatS0=      1 NMatT0=    0 NMatD0=    1 NMtDS0=    0 NMtDT0=    0
 Symmetry not used in FoFCou.
 Leave Link  703 at Mon Apr 21 20:43:38 2025, MaxMem=   536870912 cpu:               5.5 elap:               0.7
 (Enter /home/szhao/Apps/g16/l716.exe)
 Dipole        = 3.41135008D-02-4.09680900D-02 2.54334760D-14
 -------------------------------------------------------------------
 Center     Atomic                   Forces (Hartrees/Bohr)
 Number     Number              X              Y              Z
 -------------------------------------------------------------------
      1       14          -0.000000000   -0.000000000   -0.000000000
      2       14          -0.000000000   -0.000000000   -0.000000000
      3        1          -0.001767278   -0.006512814   -0.000000000
      4        1           0.004937901    0.007936279    0.000000000
 -------------------------------------------------------------------
 Cartesian Forces:  Max     0.007936279 RMS     0.003328005
 Leave Link  716 at Mon Apr 21 20:43:38 2025, MaxMem=   536870912 cpu:               0.7 elap:               0.1
 (Enter /home/szhao/Apps/g16/l103.exe)

 GradGradGradGradGradGradGradGradGradGradGradGradGradGradGradGradGradGrad
 Berny optimization.
 FormGI is forming the generalized inverse of G from B-inverse, IUseBI=4.
 Internal  Forces:  Max     0.009208543 RMS     0.005313669
 Search for a local minimum.
 Step number   1 out of a maximum of   21
 All quantities printed in internal units (Hartrees-Bohrs-Radians)
 RMS Force = .55798D-02 SwitMx=.10000D-02 MixMth= 1
 Mixed Optimization -- RFO/linear search
 Second derivative matrix not updated -- first step.
 The second derivative matrix:
                          X1        Y1        Z1        X2        Y2
           X1           0.50000
           Y1           0.00000   0.50000
           Z1           0.00000   0.00000   0.50000
           X2           0.00000   0.00000   0.00000   0.50000
           Y2           0.00000   0.00000   0.00000   0.00000   0.50000
           Z2           0.00000   0.00000   0.00000   0.00000   0.00000
           R1           0.00000   0.00000   0.00000   0.00000   0.00000
           R2           0.00000   0.00000   0.00000   0.00000   0.00000
           A1           0.00000   0.00000   0.00000   0.00000   0.00000
           A2           0.00000   0.00000   0.00000   0.00000   0.00000
           D1           0.00000   0.00000   0.00000   0.00000   0.00000
                          Z2        R1        R2        A1        A2
           Z2           0.50000
           R1           0.00000   0.17370
           R2           0.00000   0.00000   0.17736
           A1           0.00000   0.00000   0.00000   0.16000
           A2           0.00000   0.00000   0.00000   0.00000   0.16000
           D1           0.00000   0.00000   0.00000   0.00000   0.00000
                          D1
           D1           0.00230
 ITU=  0
     Eigenvalues ---    0.00230   0.16000   0.16000   0.17370   0.17736
     Eigenvalues --- 1000.000001000.000001000.000001000.000001000.00000
     Eigenvalues --- 1000.00000
 RFO step:  Lambda=-8.94372932D-04 EMin= 2.30000000D-03
 Linear search not attempted -- first point.
 Iteration  1 RMS(Cart)=  0.03277037 RMS(Int)=  0.00030455
 Iteration  2 RMS(Cart)=  0.00075008 RMS(Int)=  0.00000027
 Iteration  3 RMS(Cart)=  0.00000029 RMS(Int)=  0.00000000
 ITry= 1 IFail=0 DXMaxC= 9.06D-02 DCOld= 1.00D+10 DXMaxT= 3.00D-01 DXLimC= 3.00D+00 Rises=F
 Variable       Old X    -DE/DX   Delta X   Delta X   Delta X     New X
                                 (Linear)    (Quad)   (Total)
    X1       -4.77718  -0.00177   0.00000   0.00000   0.00000  -4.77718
    Y1        0.00000  -0.00724   0.00000   0.00000   0.00000   0.00000
    Z1        0.00000   0.00000   0.00000   0.00000   0.00000   0.00000
    X2        4.77718   0.00494   0.00000   0.00000   0.00000   4.77718
    Y2        0.00000   0.00866   0.00000   0.00000   0.00000   0.00000
    Z2        0.00000   0.00000   0.00000   0.00000   0.00000   0.00000
    R1        2.81317   0.00669   0.00000   0.03833   0.03833   2.85150
    R2        2.79829   0.00921   0.00000   0.05166   0.05166   2.84995
    A1        1.96476  -0.00244   0.00000  -0.01518  -0.01518   1.94958
    A2        2.29974  -0.00449   0.00000  -0.02788  -0.02788   2.27186
    D1        3.14159   0.00000   0.00000   0.00000   0.00000   3.14159
         Item               Value     Threshold  Converged?
 Maximum Force            0.009209     0.000450     NO 
 RMS     Force            0.005580     0.000300     NO 
 Maximum Displacement     0.090628     0.001800     NO 
 RMS     Displacement     0.033283     0.001200     NO 
 Predicted change in Energy=-4.494875D-04
 Lowest energy point so far.  Saving SCF results.
 GradGradGradGradGradGradGradGradGradGradGradGradGradGradGradGradGradGrad

 Leave Link  103 at Mon Apr 21 20:43:38 2025, MaxMem=   536870912 cpu:               0.6 elap:               0.1
 (Enter /home/szhao/Apps/g16/l202.exe)
                          Input orientation:                          
 ---------------------------------------------------------------------
 Center     Atomic      Atomic             Coordinates (Angstroms)
 Number     Number       Type             X           Y           Z
 ---------------------------------------------------------------------
      1         14           0       -2.527975    0.000000    0.000000
      2         14           0        2.527975    0.000000    0.000000
      3          1           0       -3.085972   -1.401988    0.000000
      4          1           0        3.500764    1.152446    0.000000
 ---------------------------------------------------------------------
                    Distance matrix (angstroms):
                    1          2          3          4
     1  Si   0.000000
     2  Si   5.055949   0.000000
     3  H    1.508950   5.786360   0.000000
     4  H    6.137901   1.508129   7.064717   0.000000
 Symmetry turned off by external request.
 Stoichiometry    H2Si2(1+,2)
 Framework group  CS[SG(H2Si2)]
 Deg. of freedom     5
 Full point group                 CS      NOp   2
 Rotational constants (GHZ):         161.4802185           1.3309377           1.3200576
 Leave Link  202 at Mon Apr 21 20:43:38 2025, MaxMem=   536870912 cpu:               0.1 elap:               0.0
 (Enter /home/szhao/Apps/g16/l301.exe)
 Standard basis: 6-311+G(d,p) (5D, 7F)
 Ernie: Thresh=  0.10000D-02 Tol=  0.10000D-05 Strict=F.
    72 basis functions,   116 primitive gaussians,    74 cartesian basis functions
    15 alpha electrons       14 beta electrons
       nuclear repulsion energy        32.8984989990 Hartrees.
 IExCor= 4336 DFT=T Ex+Corr=M062X ExCW=0 ScaHFX=  0.540000
 ScaDFX=  1.000000  1.000000  1.000000  1.000000 ScalE2=  1.000000  1.000000
 IRadAn=      7 IRanWt=     -1 IRanGd=            0 ICorTp=0 IEmpDi=  4
 NAtoms=    4 NActive=    4 NUniq=    4 SFac= 1.00D+00 NAtFMM=   60 NAOKFM=F Big=F
 Integral buffers will be    131072 words long.
 Raffenetti 2 integral format.
 Two-electron integral symmetry is turned off.
 Leave Link  301 at Mon Apr 21 20:43:39 2025, MaxMem=   536870912 cpu:               0.7 elap:               0.2
 (Enter /home/szhao/Apps/g16/l302.exe)
 NPDir=0 NMtPBC=     1 NCelOv=     1 NCel=       1 NClECP=     1 NCelD=      1
         NCelK=      1 NCelE2=     1 NClLst=     1 CellRange=     0.0.
 One-electron integrals computed using PRISM.
 NBasis=    72 RedAO= T EigKep=  1.76D-02  NBF=    72
 NBsUse=    72 1.00D-06 EigRej= -1.00D+00 NBFU=    72
 Precomputing XC quadrature grid using
 IXCGrd= 4 IRadAn=           7 IRanWt=          -1 IRanGd=           0 AccXCQ= 0.00D+00.
 Generated NRdTot=       0 NPtTot=           0 NUsed=           0 NTot=          32
 NSgBfM=    64    64    64    64    64 MxSgAt=     4 MxSgA2=     4.
 Leave Link  302 at Mon Apr 21 20:43:39 2025, MaxMem=   536870912 cpu:               1.6 elap:               0.3
 (Enter /home/szhao/Apps/g16/l303.exe)
 DipDrv:  MaxL=1.
 Leave Link  303 at Mon Apr 21 20:43:39 2025, MaxMem=   536870912 cpu:               0.8 elap:               0.2
 (Enter /home/szhao/Apps/g16/l401.exe)
 Initial guess from the checkpoint file:  "opt.chk"
 B after Tr=    -0.000031    0.001261    0.000000
         Rot=    1.000000    0.000000    0.000000   -0.000702 Ang=  -0.08 deg.
 Guess basis will be translated and rotated to current coordinates.
 JPrj=2 DoOrth=T DoCkMO=T.
 Initial guess <Sx>= 0.0000 <Sy>= 0.0000 <Sz>= 0.5000 <S**2>= 0.7579 S= 0.5040
 Generating alternative initial guess.
 ExpMin= 3.31D-02 ExpMax= 6.94D+04 ExpMxC= 2.33D+03 IAcc=3 IRadAn=         5 AccDes= 0.00D+00
 Harris functional with IExCor= 1009 and IRadAn=       5 diagonalized for initial guess.
 HarFok:  IExCor= 1009 AccDes= 0.00D+00 IRadAn=         5 IDoV= 1 UseB2=F ITyADJ=14
 ICtDFT=  3500011 ScaDFX=  1.000000  1.000000  1.000000  1.000000
 FoFCou: FMM=F IPFlag=           0 FMFlag=      100000 FMFlg1=           0
         NFxFlg=           0 DoJE=T BraDBF=F KetDBF=T FulRan=T
         wScrn=  0.000000 ICntrl=       500 IOpCl=  0 I1Cent=   200000004 NGrid=           0
         NMat0=    1 NMatS0=      1 NMatT0=    0 NMatD0=    1 NMtDS0=    0 NMtDT0=    0
 Symmetry not used in FoFCou.
 Harris En= -579.442768598198    
 Leave Link  401 at Mon Apr 21 20:43:40 2025, MaxMem=   536870912 cpu:               2.6 elap:               0.4
 (Enter /home/szhao/Apps/g16/l502.exe)
 Keep R1 and R2 ints in memory in canonical form, NReq=14118010.
 FoFCou: FMM=F IPFlag=           0 FMFlag=           0 FMFlg1=           0
         NFxFlg=           0 DoJE=F BraDBF=F KetDBF=F FulRan=T
         wScrn=  0.000000 ICntrl=       600 IOpCl=  0 I1Cent=           0 NGrid=           0
         NMat0=    1 NMatS0=   2628 NMatT0=    0 NMatD0=    1 NMtDS0=    0 NMtDT0=    0
 Symmetry not used in FoFCou.
 Two-electron integral symmetry not used.
 UHF open shell SCF:
 Using DIIS extrapolation, IDIIS=  1040.
 NGot=   536870912 LenX=   529949706 LenY=   529943789
 Requested convergence on RMS density matrix=1.00D-08 within 128 cycles.
 Requested convergence on MAX density matrix=1.00D-06.
 Requested convergence on             energy=1.00D-06.
 No special actions if energy rises.

 Cycle   1  Pass 1  IDiag  1:
 E= -579.670602975755    
 DIIS: error= 1.28D-03 at cycle   1 NSaved=   1.
 NSaved= 1 IEnMin= 1 EnMin= -579.670602975755     IErMin= 1 ErrMin= 1.28D-03
 ErrMax= 1.28D-03  0.00D+00 EMaxC= 1.00D-01 BMatC= 3.90D-04 BMatP= 3.90D-04
 IDIUse=3 WtCom= 9.87D-01 WtEn= 1.28D-02
 Coeff-Com:  0.100D+01
 Coeff-En:   0.100D+01
 Coeff:      0.100D+01
 Gap=     0.411 Goal=   None    Shift=    0.000
 Gap=     0.512 Goal=   None    Shift=    0.000
 GapD=    0.411 DampG=2.000 DampE=1.000 DampFc=2.0000 IDamp=-1.
 RMSDP=2.09D-04 MaxDP=3.16D-03              OVMax= 7.63D-03

 Cycle   2  Pass 1  IDiag  1:
 E= -579.670777957844     Delta-E=       -0.000174982088 Rises=F Damp=F
 DIIS: error= 2.53D-04 at cycle   2 NSaved=   2.
 NSaved= 2 IEnMin= 2 EnMin= -579.670777957844     IErMin= 2 ErrMin= 2.53D-04
 ErrMax= 2.53D-04  0.00D+00 EMaxC= 1.00D-01 BMatC= 1.55D-05 BMatP= 3.90D-04
 IDIUse=3 WtCom= 9.97D-01 WtEn= 2.53D-03
 Coeff-Com: -0.112D-01 0.101D+01
 Coeff-En:   0.000D+00 0.100D+01
 Coeff:     -0.111D-01 0.101D+01
 Gap=     0.071 Goal=   None    Shift=    0.000
 Gap=     0.243 Goal=   None    Shift=    0.000
 RMSDP=6.84D-05 MaxDP=1.16D-03 DE=-1.75D-04 OVMax= 3.02D-03

 Cycle   3  Pass 1  IDiag  1:
 E= -579.670794664038     Delta-E=       -0.000016706194 Rises=F Damp=F
 DIIS: error= 1.06D-04 at cycle   3 NSaved=   3.
 NSaved= 3 IEnMin= 3 EnMin= -579.670794664038     IErMin= 3 ErrMin= 1.06D-04
 ErrMax= 1.06D-04  0.00D+00 EMaxC= 1.00D-01 BMatC= 2.25D-06 BMatP= 1.55D-05
 IDIUse=3 WtCom= 9.99D-01 WtEn= 1.06D-03
 Coeff-Com: -0.385D-01-0.177D-01 0.106D+01
 Coeff-En:   0.000D+00 0.000D+00 0.100D+01
 Coeff:     -0.384D-01-0.177D-01 0.106D+01
 Gap=     0.071 Goal=   None    Shift=    0.000
 Gap=     0.243 Goal=   None    Shift=    0.000
 RMSDP=3.28D-05 MaxDP=5.35D-04 DE=-1.67D-05 OVMax= 1.75D-03

 Cycle   4  Pass 1  IDiag  1:
 E= -579.670797701262     Delta-E=       -0.000003037225 Rises=F Damp=F
 DIIS: error= 4.20D-05 at cycle   4 NSaved=   4.
 NSaved= 4 IEnMin= 4 EnMin= -579.670797701262     IErMin= 4 ErrMin= 4.20D-05
 ErrMax= 4.20D-05  0.00D+00 EMaxC= 1.00D-01 BMatC= 6.09D-07 BMatP= 2.25D-06
 IDIUse=1 WtCom= 1.00D+00 WtEn= 0.00D+00
 Coeff-Com: -0.657D-02-0.109D+00 0.253D+00 0.863D+00
 Coeff:     -0.657D-02-0.109D+00 0.253D+00 0.863D+00
 Gap=     0.071 Goal=   None    Shift=    0.000
 Gap=     0.243 Goal=   None    Shift=    0.000
 RMSDP=1.82D-05 MaxDP=5.52D-04 DE=-3.04D-06 OVMax= 1.60D-03

 Cycle   5  Pass 1  IDiag  1:
 E= -579.670798240128     Delta-E=       -0.000000538865 Rises=F Damp=F
 DIIS: error= 2.65D-05 at cycle   5 NSaved=   5.
 NSaved= 5 IEnMin= 5 EnMin= -579.670798240128     IErMin= 5 ErrMin= 2.65D-05
 ErrMax= 2.65D-05  0.00D+00 EMaxC= 1.00D-01 BMatC= 2.92D-07 BMatP= 6.09D-07
 IDIUse=1 WtCom= 1.00D+00 WtEn= 0.00D+00
 Coeff-Com:  0.547D-02-0.648D-01-0.966D-01 0.482D+00 0.674D+00
 Coeff:      0.547D-02-0.648D-01-0.966D-01 0.482D+00 0.674D+00
 Gap=     0.071 Goal=   None    Shift=    0.000
 Gap=     0.243 Goal=   None    Shift=    0.000
 RMSDP=9.16D-06 MaxDP=2.44D-04 DE=-5.39D-07 OVMax= 8.34D-04

 Cycle   6  Pass 1  IDiag  1:
 E= -579.670798483262     Delta-E=       -0.000000243135 Rises=F Damp=F
 DIIS: error= 9.87D-06 at cycle   6 NSaved=   6.
 NSaved= 6 IEnMin= 6 EnMin= -579.670798483262     IErMin= 6 ErrMin= 9.87D-06
 ErrMax= 9.87D-06  0.00D+00 EMaxC= 1.00D-01 BMatC= 1.77D-08 BMatP= 2.92D-07
 IDIUse=1 WtCom= 1.00D+00 WtEn= 0.00D+00
 Coeff-Com:  0.150D-02 0.800D-02-0.506D-01-0.683D-01 0.700D-01 0.104D+01
 Coeff:      0.150D-02 0.800D-02-0.506D-01-0.683D-01 0.700D-01 0.104D+01
 Gap=     0.071 Goal=   None    Shift=    0.000
 Gap=     0.243 Goal=   None    Shift=    0.000
 RMSDP=2.98D-06 MaxDP=6.45D-05 DE=-2.43D-07 OVMax= 2.17D-04

 Cycle   7  Pass 1  IDiag  1:
 E= -579.670798519663     Delta-E=       -0.000000036401 Rises=F Damp=F
 DIIS: error= 5.15D-06 at cycle   7 NSaved=   7.
 NSaved= 7 IEnMin= 7 EnMin= -579.670798519663     IErMin= 7 ErrMin= 5.15D-06
 ErrMax= 5.15D-06  0.00D+00 EMaxC= 1.00D-01 BMatC= 4.37D-09 BMatP= 1.77D-08
 IDIUse=1 WtCom= 1.00D+00 WtEn= 0.00D+00
 Coeff-Com: -0.109D-02 0.104D-01 0.177D-01-0.738D-01-0.102D+00-0.104D+00
 Coeff-Com:  0.125D+01
 Coeff:     -0.109D-02 0.104D-01 0.177D-01-0.738D-01-0.102D+00-0.104D+00
 Coeff:      0.125D+01
 Gap=     0.071 Goal=   None    Shift=    0.000
 Gap=     0.243 Goal=   None    Shift=    0.000
 RMSDP=2.28D-06 MaxDP=3.59D-05 DE=-3.64D-08 OVMax= 1.40D-04

 Cycle   8  Pass 1  IDiag  1:
 E= -579.670798534438     Delta-E=       -0.000000014774 Rises=F Damp=F
 DIIS: error= 2.69D-06 at cycle   8 NSaved=   8.
 NSaved= 8 IEnMin= 8 EnMin= -579.670798534438     IErMin= 8 ErrMin= 2.69D-06
 ErrMax= 2.69D-06  0.00D+00 EMaxC= 1.00D-01 BMatC= 1.35D-09 BMatP= 4.37D-09
 IDIUse=1 WtCom= 1.00D+00 WtEn= 0.00D+00
 Coeff-Com:  0.320D-04-0.808D-02 0.953D-02 0.492D-01 0.311D-01-0.243D+00
 Coeff-Com: -0.801D+00 0.196D+01
 Coeff:      0.320D-04-0.808D-02 0.953D-02 0.492D-01 0.311D-01-0.243D+00
 Coeff:     -0.801D+00 0.196D+01
 Gap=     0.071 Goal=   None    Shift=    0.000
 Gap=     0.243 Goal=   None    Shift=    0.000
 RMSDP=2.42D-06 MaxDP=3.74D-05 DE=-1.48D-08 OVMax= 1.59D-04

 Cycle   9  Pass 1  IDiag  1:
 E= -579.670798540643     Delta-E=       -0.000000006205 Rises=F Damp=F
 DIIS: error= 4.63D-07 at cycle   9 NSaved=   9.
 NSaved= 9 IEnMin= 9 EnMin= -579.670798540643     IErMin= 9 ErrMin= 4.63D-07
 ErrMax= 4.63D-07  0.00D+00 EMaxC= 1.00D-01 BMatC= 5.95D-11 BMatP= 1.35D-09
 IDIUse=1 WtCom= 1.00D+00 WtEn= 0.00D+00
 Coeff-Com:  0.130D-03-0.315D-03-0.320D-02 0.407D-02 0.524D-02 0.290D-01
 Coeff-Com:  0.418D-01-0.351D+00 0.127D+01
 Coeff:      0.130D-03-0.315D-03-0.320D-02 0.407D-02 0.524D-02 0.290D-01
 Coeff:      0.418D-01-0.351D+00 0.127D+01
 Gap=     0.071 Goal=   None    Shift=    0.000
 Gap=     0.243 Goal=   None    Shift=    0.000
 RMSDP=4.02D-07 MaxDP=7.12D-06 DE=-6.21D-09 OVMax= 2.30D-05

 Cycle  10  Pass 1  IDiag  1:
 E= -579.670798540787     Delta-E=       -0.000000000144 Rises=F Damp=F
 DIIS: error= 1.43D-07 at cycle  10 NSaved=  10.
 NSaved=10 IEnMin=10 EnMin= -579.670798540787     IErMin=10 ErrMin= 1.43D-07
 ErrMax= 1.43D-07  0.00D+00 EMaxC= 1.00D-01 BMatC= 2.52D-12 BMatP= 5.95D-11
 IDIUse=1 WtCom= 1.00D+00 WtEn= 0.00D+00
 Coeff-Com: -0.205D-04 0.433D-03 0.960D-04-0.368D-02-0.147D-02 0.104D-01
 Coeff-Com:  0.245D-01-0.225D-01-0.224D+00 0.122D+01
 Coeff:     -0.205D-04 0.433D-03 0.960D-04-0.368D-02-0.147D-02 0.104D-01
 Coeff:      0.245D-01-0.225D-01-0.224D+00 0.122D+01
 Gap=     0.071 Goal=   None    Shift=    0.000
 Gap=     0.243 Goal=   None    Shift=    0.000
 RMSDP=3.51D-08 MaxDP=6.04D-07 DE=-1.44D-10 OVMax= 1.79D-06

 Cycle  11  Pass 1  IDiag  1:
 E= -579.670798540791     Delta-E=       -0.000000000004 Rises=F Damp=F
 DIIS: error= 3.42D-08 at cycle  11 NSaved=  11.
 NSaved=11 IEnMin=11 EnMin= -579.670798540791     IErMin=11 ErrMin= 3.42D-08
 ErrMax= 3.42D-08  0.00D+00 EMaxC= 1.00D-01 BMatC= 2.12D-13 BMatP= 2.52D-12
 IDIUse=1 WtCom= 1.00D+00 WtEn= 0.00D+00
 Coeff-Com: -0.789D-05 0.149D-04 0.144D-03-0.775D-05-0.621D-03-0.197D-02
 Coeff-Com: -0.148D-02 0.211D-01-0.733D-01-0.727D-02 0.106D+01
 Coeff:     -0.789D-05 0.149D-04 0.144D-03-0.775D-05-0.621D-03-0.197D-02
 Coeff:     -0.148D-02 0.211D-01-0.733D-01-0.727D-02 0.106D+01
 Gap=     0.071 Goal=   None    Shift=    0.000
 Gap=     0.243 Goal=   None    Shift=    0.000
 RMSDP=1.02D-08 MaxDP=3.08D-07 DE=-3.75D-12 OVMax= 6.54D-07

 Cycle  12  Pass 1  IDiag  1:
 E= -579.670798540790     Delta-E=        0.000000000001 Rises=F Damp=F
 DIIS: error= 7.76D-09 at cycle  12 NSaved=  12.
 NSaved=12 IEnMin=11 EnMin= -579.670798540791     IErMin=12 ErrMin= 7.76D-09
 ErrMax= 7.76D-09  0.00D+00 EMaxC= 1.00D-01 BMatC= 1.56D-14 BMatP= 2.12D-13
 IDIUse=1 WtCom= 1.00D+00 WtEn= 0.00D+00
 Coeff-Com:  0.185D-05-0.236D-04-0.140D-04 0.180D-03 0.190D-03-0.629D-03
 Coeff-Com: -0.404D-03-0.187D-02 0.211D-01-0.671D-01-0.152D+00 0.120D+01
 Coeff:      0.185D-05-0.236D-04-0.140D-04 0.180D-03 0.190D-03-0.629D-03
 Coeff:     -0.404D-03-0.187D-02 0.211D-01-0.671D-01-0.152D+00 0.120D+01
 Gap=     0.071 Goal=   None    Shift=    0.000
 Gap=     0.243 Goal=   None    Shift=    0.000
 RMSDP=4.21D-09 MaxDP=7.12D-08 DE= 5.68D-13 OVMax= 2.17D-07

 SCF Done:  E(UM062X) =  -579.670798541     A.U. after   12 cycles
            NFock= 12  Conv=0.42D-08     -V/T= 2.0015
 <Sx>= 0.0000 <Sy>= 0.0000 <Sz>= 0.5000 <S**2>= 0.7579 S= 0.5040
 <L.S>=  0.00000000000    
 KE= 5.788264069764D+02 PE=-1.441019212571D+03 EE= 2.496235080553D+02
 Annihilation of the first spin contaminant:
 S**2 before annihilation     0.7579,   after     0.7500
 Leave Link  502 at Mon Apr 21 20:43:46 2025, MaxMem=   536870912 cpu:              46.6 elap:               6.2
 (Enter /home/szhao/Apps/g16/l701.exe)
 ... and contract with generalized density number  0.
 Compute integral first derivatives.
 Leave Link  701 at Mon Apr 21 20:43:46 2025, MaxMem=   536870912 cpu:               1.2 elap:               0.2
 (Enter /home/szhao/Apps/g16/l702.exe)
 L702 exits ... SP integral derivatives will be done elsewhere.
 Leave Link  702 at Mon Apr 21 20:43:47 2025, MaxMem=   536870912 cpu:               0.5 elap:               0.1
 (Enter /home/szhao/Apps/g16/l703.exe)
 Integral derivatives from FoFJK, PRISM(SPDF).
 Compute integral first derivatives, UseDBF=F ICtDFT=           0.
 Calling FoFJK, ICntrl=      2127 FMM=F ISym2X=0 I1Cent= 0 IOpClX= 1 NMat=1 NMatS=1 NMatT=0.
 FoFJK:  IHMeth= 1 ICntrl=    2127 DoSepK=F KAlg= 0 I1Cent=           0 FoldK=F
 IRaf=         0 NMat=       1 IRICut=       1 DoRegI=T DoRafI=F ISym2E= 0 IDoP0=0 IntGTp=1.
 FoFCou: FMM=F IPFlag=           0 FMFlag=      100000 FMFlg1=         800
         NFxFlg=           0 DoJE=F BraDBF=F KetDBF=F FulRan=T
         wScrn=  0.000000 ICntrl=      2127 IOpCl=  1 I1Cent=           0 NGrid=           0
         NMat0=    1 NMatS0=      1 NMatT0=    0 NMatD0=    1 NMtDS0=    0 NMtDT0=    0
 Symmetry not used in FoFCou.
 Leave Link  703 at Mon Apr 21 20:43:48 2025, MaxMem=   536870912 cpu:               6.1 elap:               1.0
 (Enter /home/szhao/Apps/g16/l716.exe)
 Dipole        = 2.88331363D-02-3.91664592D-02-1.22825769D-12
 -------------------------------------------------------------------
 Center     Atomic                   Forces (Hartrees/Bohr)
 Number     Number              X              Y              Z
 -------------------------------------------------------------------
      1       14          -0.000000000   -0.000000000   -0.000000000
      2       14          -0.000000000   -0.000000000   -0.000000000
      3        1           0.000888736   -0.000056456    0.000000000
      4        1          -0.001402289    0.000721329    0.000000000
 -------------------------------------------------------------------
 Cartesian Forces:  Max     0.001402289 RMS     0.000522794
 Leave Link  716 at Mon Apr 21 20:43:48 2025, MaxMem=   536870912 cpu:               0.6 elap:               0.1
 (Enter /home/szhao/Apps/g16/l103.exe)

 GradGradGradGradGradGradGradGradGradGradGradGradGradGradGradGradGradGrad
 Berny optimization.
 Using GEDIIS/GDIIS optimizer.
 FormGI is forming the generalized inverse of G from B-inverse, IUseBI=4.
 Internal  Forces:  Max     0.004379939 RMS     0.001668157
 Search for a local minimum.
 Step number   2 out of a maximum of   21
 All quantities printed in internal units (Hartrees-Bohrs-Radians)
 RMS Force = .22456D-02 SwitMx=.10000D-02 MixMth= 1
 Mixed Optimization -- RFO/linear search
 Update second derivatives using D2CorX and points    1    2
 DE= -5.05D-04 DEPred=-4.49D-04 R= 1.12D+00
 TightC=F SS=  1.41D+00  RLast= 7.17D-02 DXNew= 5.0454D-01 2.1520D-01
 Trust test= 1.12D+00 RLast= 7.17D-02 DXMaxT set to 3.00D-01
 The second derivative matrix:
                          X1        Y1        Z1        X2        Y2
           X1           0.50923
           Y1           0.02248   0.55477
           Z1           0.00000   0.00000   0.50000
           X2          -0.02203  -0.05366  -0.00000   0.55258
           Y2          -0.02512  -0.06119  -0.00000   0.05996   0.56836
           Z2           0.00000   0.00000   0.00000  -0.00000  -0.00000
           R1          -0.02421  -0.05898  -0.00000   0.05780   0.06590
           R2          -0.03322  -0.08093  -0.00000   0.07930   0.09042
           A1           0.00010   0.00024   0.00000  -0.00023  -0.00026
           A2           0.00037   0.00090   0.00000  -0.00088  -0.00100
           D1           0.00000   0.00000   0.00000  -0.00000  -0.00000
                          Z2        R1        R2        A1        A2
           Z2           0.50000
           R1          -0.00000   0.18741
           R2          -0.00000   0.01860   0.20261
           A1           0.00000   0.01792   0.02466   0.15337
           A2           0.00000   0.03241   0.04461  -0.01217   0.13765
           D1           0.00000  -0.00000  -0.00000   0.00000   0.00000
                          D1
           D1           0.00230
 ITU=  1  0
 Use linear search instead of GDIIS.
     Eigenvalues ---    0.00230   0.09730   0.16000   0.17495   0.24879
     Eigenvalues --- 1000.000001000.000001000.000001000.000001000.00000
     Eigenvalues --- 1000.00000
 RFO step:  Lambda=-1.93192007D-04 EMin= 2.30000000D-03
 Quartic linear search produced a step of  0.18109.
 Iteration  1 RMS(Cart)=  0.03752442 RMS(Int)=  0.00064248
 Iteration  2 RMS(Cart)=  0.00080589 RMS(Int)=  0.00000017
 Iteration  3 RMS(Cart)=  0.00000035 RMS(Int)=  0.00000000
 ITry= 1 IFail=0 DXMaxC= 7.96D-02 DCOld= 1.00D+10 DXMaxT= 3.00D-01 DXLimC= 3.00D+00 Rises=F
 Variable       Old X    -DE/DX   Delta X   Delta X   Delta X     New X
                                 (Linear)    (Quad)   (Total)
    X1       -4.77718   0.00089   0.00000   0.00000   0.00000  -4.77718
    Y1        0.00000  -0.00077   0.00000   0.00000   0.00000   0.00000
    Z1        0.00000   0.00000   0.00000   0.00000   0.00000   0.00000
    X2        4.77718  -0.00140   0.00000   0.00000   0.00000   4.77718
    Y2        0.00000   0.00143   0.00000   0.00000   0.00000   0.00000
    Z2        0.00000   0.00000   0.00000   0.00000   0.00000   0.00000
    R1        2.85150  -0.00028   0.00694  -0.00030   0.00664   2.85815
    R2        2.84995  -0.00035   0.00936  -0.00023   0.00912   2.85907
    A1        1.94958  -0.00241  -0.00275  -0.01843  -0.02118   1.92840
    A2        2.27186  -0.00438  -0.00505  -0.03345  -0.03850   2.23336
    D1        3.14159   0.00000   0.00000   0.00000   0.00000   3.14159
         Item               Value     Threshold  Converged?
 Maximum Force            0.004380     0.000450     NO 
 RMS     Force            0.002246     0.000300     NO 
 Maximum Displacement     0.079580     0.001800     NO 
 RMS     Displacement     0.037972     0.001200     NO 
 Predicted change in Energy=-1.057616D-04
 Lowest energy point so far.  Saving SCF results.
 GradGradGradGradGradGradGradGradGradGradGradGradGradGradGradGradGradGrad

 Leave Link  103 at Mon Apr 21 20:43:49 2025, MaxMem=   536870912 cpu:               0.3 elap:               0.1
 (Enter /home/szhao/Apps/g16/l202.exe)
                          Input orientation:                          
 ---------------------------------------------------------------------
 Center     Atomic      Atomic             Coordinates (Angstroms)
 Number     Number       Type             X           Y           Z
 ---------------------------------------------------------------------
      1         14           0       -2.527975    0.000000    0.000000
      2         14           0        2.527975    0.000000    0.000000
      3          1           0       -3.057387   -1.416784   -0.000000
      4          1           0        3.458652    1.192844   -0.000000
 ---------------------------------------------------------------------
                    Distance matrix (angstroms):
                    1          2          3          4
     1  Si   0.000000
     2  Si   5.055949   0.000000
     3  H    1.512466   5.762251   0.000000
     4  H    6.104308   1.512957   7.019182   0.000000
 Symmetry turned off by external request.
 Stoichiometry    H2Si2(1+,2)
 Framework group  CS[SG(H2Si2)]
 Deg. of freedom     5
 Full point group                 CS      NOp   2
 Rotational constants (GHZ):         154.8949496           1.3325783           1.3212117
 Leave Link  202 at Mon Apr 21 20:43:49 2025, MaxMem=   536870912 cpu:               0.1 elap:               0.1
 (Enter /home/szhao/Apps/g16/l301.exe)
 Standard basis: 6-311+G(d,p) (5D, 7F)
 Ernie: Thresh=  0.10000D-02 Tol=  0.10000D-05 Strict=F.
    72 basis functions,   116 primitive gaussians,    74 cartesian basis functions
    15 alpha electrons       14 beta electrons
       nuclear repulsion energy        32.8838968703 Hartrees.
 IExCor= 4336 DFT=T Ex+Corr=M062X ExCW=0 ScaHFX=  0.540000
 ScaDFX=  1.000000  1.000000  1.000000  1.000000 ScalE2=  1.000000  1.000000
 IRadAn=      7 IRanWt=     -1 IRanGd=            0 ICorTp=0 IEmpDi=  4
 NAtoms=    4 NActive=    4 NUniq=    4 SFac= 1.00D+00 NAtFMM=   60 NAOKFM=F Big=F
 Integral buffers will be    131072 words long.
 Raffenetti 2 integral format.
 Two-electron integral symmetry is turned off.
 Leave Link  301 at Mon Apr 21 20:43:49 2025, MaxMem=   536870912 cpu:               0.9 elap:               0.2
 (Enter /home/szhao/Apps/g16/l302.exe)
 NPDir=0 NMtPBC=     1 NCelOv=     1 NCel=       1 NClECP=     1 NCelD=      1
         NCelK=      1 NCelE2=     1 NClLst=     1 CellRange=     0.0.
 One-electron integrals computed using PRISM.
 NBasis=    72 RedAO= T EigKep=  1.75D-02  NBF=    72
 NBsUse=    72 1.00D-06 EigRej= -1.00D+00 NBFU=    72
 Precomputing XC quadrature grid using
 IXCGrd= 4 IRadAn=           7 IRanWt=          -1 IRanGd=           0 AccXCQ= 0.00D+00.
 Generated NRdTot=       0 NPtTot=           0 NUsed=           0 NTot=          32
 NSgBfM=    64    64    64    64    64 MxSgAt=     4 MxSgA2=     4.
 Leave Link  302 at Mon Apr 21 20:43:50 2025, MaxMem=   536870912 cpu:               2.1 elap:               0.3
 (Enter /home/szhao/Apps/g16/l303.exe)
 DipDrv:  MaxL=1.
 Leave Link  303 at Mon Apr 21 20:43:50 2025, MaxMem=   536870912 cpu:               1.3 elap:               0.2
 (Enter /home/szhao/Apps/g16/l401.exe)
 Initial guess from the checkpoint file:  "opt.chk"
 B after Tr=    -0.000873    0.001577   -0.000000
         Rot=    1.000000   -0.000000   -0.000000   -0.000676 Ang=  -0.08 deg.
 Guess basis will be translated and rotated to current coordinates.
 JPrj=2 DoOrth=T DoCkMO=T.
 Initial guess <Sx>= 0.0000 <Sy>= 0.0000 <Sz>= 0.5000 <S**2>= 0.7580 S= 0.5040
 Generating alternative initial guess.
 ExpMin= 3.31D-02 ExpMax= 6.94D+04 ExpMxC= 2.33D+03 IAcc=3 IRadAn=         5 AccDes= 0.00D+00
 Harris functional with IExCor= 1009 and IRadAn=       5 diagonalized for initial guess.
 HarFok:  IExCor= 1009 AccDes= 0.00D+00 IRadAn=         5 IDoV= 1 UseB2=F ITyADJ=14
 ICtDFT=  3500011 ScaDFX=  1.000000  1.000000  1.000000  1.000000
 FoFCou: FMM=F IPFlag=           0 FMFlag=      100000 FMFlg1=           0
         NFxFlg=           0 DoJE=T BraDBF=F KetDBF=T FulRan=T
         wScrn=  0.000000 ICntrl=       500 IOpCl=  0 I1Cent=   200000004 NGrid=           0
         NMat0=    1 NMatS0=      1 NMatT0=    0 NMatD0=    1 NMtDS0=    0 NMtDT0=    0
 Symmetry not used in FoFCou.
 Harris En= -579.443133188251    
 Leave Link  401 at Mon Apr 21 20:43:51 2025, MaxMem=   536870912 cpu:               3.4 elap:               0.5
 (Enter /home/szhao/Apps/g16/l502.exe)
 Keep R1 and R2 ints in memory in canonical form, NReq=14118010.
 FoFCou: FMM=F IPFlag=           0 FMFlag=           0 FMFlg1=           0
         NFxFlg=           0 DoJE=F BraDBF=F KetDBF=F FulRan=T
         wScrn=  0.000000 ICntrl=       600 IOpCl=  0 I1Cent=           0 NGrid=           0
         NMat0=    1 NMatS0=   2628 NMatT0=    0 NMatD0=    1 NMtDS0=    0 NMtDT0=    0
 Symmetry not used in FoFCou.
 Two-electron integral symmetry not used.
 UHF open shell SCF:
 Using DIIS extrapolation, IDIIS=  1040.
 NGot=   536870912 LenX=   529949706 LenY=   529943789
 Requested convergence on RMS density matrix=1.00D-08 within 128 cycles.
 Requested convergence on MAX density matrix=1.00D-06.
 Requested convergence on             energy=1.00D-06.
 No special actions if energy rises.

 Cycle   1  Pass 1  IDiag  1:
 E= -579.670789429380    
 DIIS: error= 1.36D-03 at cycle   1 NSaved=   1.
 NSaved= 1 IEnMin= 1 EnMin= -579.670789429380     IErMin= 1 ErrMin= 1.36D-03
 ErrMax= 1.36D-03  0.00D+00 EMaxC= 1.00D-01 BMatC= 1.97D-04 BMatP= 1.97D-04
 IDIUse=3 WtCom= 9.86D-01 WtEn= 1.36D-02
 Coeff-Com:  0.100D+01
 Coeff-En:   0.100D+01
 Coeff:      0.100D+01
 Gap=     0.410 Goal=   None    Shift=    0.000
 Gap=     0.510 Goal=   None    Shift=    0.000
 GapD=    0.410 DampG=2.000 DampE=1.000 DampFc=2.0000 IDamp=-1.
 RMSDP=1.73D-04 MaxDP=2.69D-03              OVMax= 9.87D-03

 Cycle   2  Pass 1  IDiag  1:
 E= -579.670964176565     Delta-E=       -0.000174747185 Rises=F Damp=F
 DIIS: error= 2.99D-04 at cycle   2 NSaved=   2.
 NSaved= 2 IEnMin= 2 EnMin= -579.670964176565     IErMin= 2 ErrMin= 2.99D-04
 ErrMax= 2.99D-04  0.00D+00 EMaxC= 1.00D-01 BMatC= 1.76D-05 BMatP= 1.97D-04
 IDIUse=3 WtCom= 9.97D-01 WtEn= 2.99D-03
 Coeff-Com: -0.219D+00 0.122D+01
 Coeff-En:   0.000D+00 0.100D+01
 Coeff:     -0.218D+00 0.122D+01
 Gap=     0.072 Goal=   None    Shift=    0.000
 Gap=     0.243 Goal=   None    Shift=    0.000
 RMSDP=8.63D-05 MaxDP=1.51D-03 DE=-1.75D-04 OVMax= 4.79D-03

 Cycle   3  Pass 1  IDiag  1:
 E= -579.670993851044     Delta-E=       -0.000029674479 Rises=F Damp=F
 DIIS: error= 1.06D-04 at cycle   3 NSaved=   3.
 NSaved= 3 IEnMin= 3 EnMin= -579.670993851044     IErMin= 3 ErrMin= 1.06D-04
 ErrMax= 1.06D-04  0.00D+00 EMaxC= 1.00D-01 BMatC= 1.59D-06 BMatP= 1.76D-05
 IDIUse=3 WtCom= 9.99D-01 WtEn= 1.06D-03
 Coeff-Com:  0.145D-01-0.367D+00 0.135D+01
 Coeff-En:   0.000D+00 0.000D+00 0.100D+01
 Coeff:      0.145D-01-0.367D+00 0.135D+01
 Gap=     0.072 Goal=   None    Shift=    0.000
 Gap=     0.243 Goal=   None    Shift=    0.000
 RMSDP=3.81D-05 MaxDP=7.36D-04 DE=-2.97D-05 OVMax= 2.39D-03

 Cycle   4  Pass 1  IDiag  1:
 E= -579.670997609297     Delta-E=       -0.000003758252 Rises=F Damp=F
 DIIS: error= 3.09D-05 at cycle   4 NSaved=   4.
 NSaved= 4 IEnMin= 4 EnMin= -579.670997609297     IErMin= 4 ErrMin= 3.09D-05
 ErrMax= 3.09D-05  0.00D+00 EMaxC= 1.00D-01 BMatC= 1.78D-07 BMatP= 1.59D-06
 IDIUse=1 WtCom= 1.00D+00 WtEn= 0.00D+00
 Coeff-Com:  0.175D-01-0.147D+00 0.184D+00 0.946D+00
 Coeff:      0.175D-01-0.147D+00 0.184D+00 0.946D+00
 Gap=     0.072 Goal=   None    Shift=    0.000
 Gap=     0.243 Goal=   None    Shift=    0.000
 RMSDP=9.05D-06 MaxDP=2.08D-04 DE=-3.76D-06 OVMax= 5.97D-04

 Cycle   5  Pass 1  IDiag  1:
 E= -579.670997855953     Delta-E=       -0.000000246657 Rises=F Damp=F
 DIIS: error= 1.30D-05 at cycle   5 NSaved=   5.
 NSaved= 5 IEnMin= 5 EnMin= -579.670997855953     IErMin= 5 ErrMin= 1.30D-05
 ErrMax= 1.30D-05  0.00D+00 EMaxC= 1.00D-01 BMatC= 5.37D-08 BMatP= 1.78D-07
 IDIUse=1 WtCom= 1.00D+00 WtEn= 0.00D+00
 Coeff-Com:  0.526D-02-0.177D-01-0.738D-01 0.367D+00 0.719D+00
 Coeff:      0.526D-02-0.177D-01-0.738D-01 0.367D+00 0.719D+00
 Gap=     0.072 Goal=   None    Shift=    0.000
 Gap=     0.243 Goal=   None    Shift=    0.000
 RMSDP=4.87D-06 MaxDP=1.32D-04 DE=-2.47D-07 OVMax= 4.16D-04

 Cycle   6  Pass 1  IDiag  1:
 E= -579.670997923552     Delta-E=       -0.000000067598 Rises=F Damp=F
 DIIS: error= 9.27D-06 at cycle   6 NSaved=   6.
 NSaved= 6 IEnMin= 6 EnMin= -579.670997923552     IErMin= 6 ErrMin= 9.27D-06
 ErrMax= 9.27D-06  0.00D+00 EMaxC= 1.00D-01 BMatC= 2.02D-08 BMatP= 5.37D-08
 IDIUse=1 WtCom= 1.00D+00 WtEn= 0.00D+00
 Coeff-Com: -0.570D-02 0.568D-01-0.103D+00-0.243D+00 0.293D+00 0.100D+01
 Coeff:     -0.570D-02 0.568D-01-0.103D+00-0.243D+00 0.293D+00 0.100D+01
 Gap=     0.072 Goal=   None    Shift=    0.000
 Gap=     0.243 Goal=   None    Shift=    0.000
 RMSDP=3.87D-06 MaxDP=6.45D-05 DE=-6.76D-08 OVMax= 2.46D-04

 Cycle   7  Pass 1  IDiag  1:
 E= -579.670997969358     Delta-E=       -0.000000045807 Rises=F Damp=F
 DIIS: error= 4.96D-06 at cycle   7 NSaved=   7.
 NSaved= 7 IEnMin= 7 EnMin= -579.670997969358     IErMin= 7 ErrMin= 4.96D-06
 ErrMax= 4.96D-06  0.00D+00 EMaxC= 1.00D-01 BMatC= 4.30D-09 BMatP= 2.02D-08
 IDIUse=1 WtCom= 1.00D+00 WtEn= 0.00D+00
 Coeff-Com:  0.147D-02-0.256D-01 0.747D-01-0.358D-02-0.351D+00-0.538D+00
 Coeff-Com:  0.184D+01
 Coeff:      0.147D-02-0.256D-01 0.747D-01-0.358D-02-0.351D+00-0.538D+00
 Coeff:      0.184D+01
 Gap=     0.072 Goal=   None    Shift=    0.000
 Gap=     0.243 Goal=   None    Shift=    0.000
 RMSDP=3.93D-06 MaxDP=6.19D-05 DE=-4.58D-08 OVMax= 2.60D-04

 Cycle   8  Pass 1  IDiag  1:
 E= -579.670997988508     Delta-E=       -0.000000019150 Rises=F Damp=F
 DIIS: error= 1.04D-06 at cycle   8 NSaved=   8.
 NSaved= 8 IEnMin= 8 EnMin= -579.670997988508     IErMin= 8 ErrMin= 1.04D-06
 ErrMax= 1.04D-06  0.00D+00 EMaxC= 1.00D-01 BMatC= 4.00D-10 BMatP= 4.30D-09
 IDIUse=1 WtCom= 1.00D+00 WtEn= 0.00D+00
 Coeff-Com:  0.101D-02-0.107D-01 0.233D-01 0.313D-01-0.553D-01-0.155D+00
 Coeff-Com:  0.137D-01 0.115D+01
 Coeff:      0.101D-02-0.107D-01 0.233D-01 0.313D-01-0.553D-01-0.155D+00
 Coeff:      0.137D-01 0.115D+01
 Gap=     0.072 Goal=   None    Shift=    0.000
 Gap=     0.243 Goal=   None    Shift=    0.000
 RMSDP=1.01D-06 MaxDP=1.81D-05 DE=-1.91D-08 OVMax= 6.12D-05

 Cycle   9  Pass 1  IDiag  1:
 E= -579.670997989516     Delta-E=       -0.000000001007 Rises=F Damp=F
 DIIS: error= 4.30D-07 at cycle   9 NSaved=   9.
 NSaved= 9 IEnMin= 9 EnMin= -579.670997989516     IErMin= 9 ErrMin= 4.30D-07
 ErrMax= 4.30D-07  0.00D+00 EMaxC= 1.00D-01 BMatC= 2.54D-11 BMatP= 4.00D-10
 IDIUse=1 WtCom= 1.00D+00 WtEn= 0.00D+00
 Coeff-Com: -0.161D-03 0.265D-02-0.720D-02-0.338D-02 0.413D-01 0.709D-01
 Coeff-Com: -0.197D+00-0.456D-01 0.114D+01
 Coeff:     -0.161D-03 0.265D-02-0.720D-02-0.338D-02 0.413D-01 0.709D-01
 Coeff:     -0.197D+00-0.456D-01 0.114D+01
 Gap=     0.072 Goal=   None    Shift=    0.000
 Gap=     0.243 Goal=   None    Shift=    0.000
 RMSDP=1.23D-07 MaxDP=2.52D-06 DE=-1.01D-09 OVMax= 5.27D-06

 Cycle  10  Pass 1  IDiag  1:
 E= -579.670997989543     Delta-E=       -0.000000000028 Rises=F Damp=F
 DIIS: error= 9.92D-08 at cycle  10 NSaved=  10.
 NSaved=10 IEnMin=10 EnMin= -579.670997989543     IErMin=10 ErrMin= 9.92D-08
 ErrMax= 9.92D-08  0.00D+00 EMaxC= 1.00D-01 BMatC= 1.02D-12 BMatP= 2.54D-11
 IDIUse=1 WtCom= 1.00D+00 WtEn= 0.00D+00
 Coeff-Com: -0.397D-04 0.363D-03-0.772D-03-0.208D-02 0.142D-02 0.596D-02
 Coeff-Com:  0.517D-02-0.328D-01-0.118D+00 0.114D+01
 Coeff:     -0.397D-04 0.363D-03-0.772D-03-0.208D-02 0.142D-02 0.596D-02
 Coeff:      0.517D-02-0.328D-01-0.118D+00 0.114D+01
 Gap=     0.072 Goal=   None    Shift=    0.000
 Gap=     0.243 Goal=   None    Shift=    0.000
 RMSDP=2.48D-08 MaxDP=4.20D-07 DE=-2.80D-11 OVMax= 1.99D-06

 Cycle  11  Pass 1  IDiag  1:
 E= -579.670997989545     Delta-E=       -0.000000000002 Rises=F Damp=F
 DIIS: error= 1.97D-08 at cycle  11 NSaved=  11.
 NSaved=11 IEnMin=11 EnMin= -579.670997989545     IErMin=11 ErrMin= 1.97D-08
 ErrMax= 1.97D-08  0.00D+00 EMaxC= 1.00D-01 BMatC= 7.48D-14 BMatP= 1.02D-12
 IDIUse=1 WtCom= 1.00D+00 WtEn= 0.00D+00
 Coeff-Com:  0.131D-04-0.185D-03 0.518D-03 0.410D-03-0.260D-02-0.394D-02
 Coeff-Com:  0.975D-02 0.472D-02-0.336D-01-0.197D+00 0.122D+01
 Coeff:      0.131D-04-0.185D-03 0.518D-03 0.410D-03-0.260D-02-0.394D-02
 Coeff:      0.975D-02 0.472D-02-0.336D-01-0.197D+00 0.122D+01
 Gap=     0.072 Goal=   None    Shift=    0.000
 Gap=     0.243 Goal=   None    Shift=    0.000
 RMSDP=1.04D-08 MaxDP=1.83D-07 DE=-1.59D-12 OVMax= 3.94D-07

 Cycle  12  Pass 1  IDiag  1:
 E= -579.670997989546     Delta-E=       -0.000000000000 Rises=F Damp=F
 DIIS: error= 8.09D-09 at cycle  12 NSaved=  12.
 NSaved=12 IEnMin=12 EnMin= -579.670997989546     IErMin=12 ErrMin= 8.09D-09
 ErrMax= 8.09D-09  0.00D+00 EMaxC= 1.00D-01 BMatC= 1.09D-14 BMatP= 7.48D-14
 IDIUse=1 WtCom= 1.00D+00 WtEn= 0.00D+00
 Coeff-Com: -0.528D-06 0.204D-04-0.609D-04-0.105D-04 0.513D-03 0.715D-03
 Coeff-Com: -0.282D-02 0.773D-03 0.167D-01-0.483D-01-0.213D+00 0.125D+01
 Coeff:     -0.528D-06 0.204D-04-0.609D-04-0.105D-04 0.513D-03 0.715D-03
 Coeff:     -0.282D-02 0.773D-03 0.167D-01-0.483D-01-0.213D+00 0.125D+01
 Gap=     0.072 Goal=   None    Shift=    0.000
 Gap=     0.243 Goal=   None    Shift=    0.000
 RMSDP=3.53D-09 MaxDP=7.16D-08 DE=-4.55D-13 OVMax= 1.74D-07

 SCF Done:  E(UM062X) =  -579.670997990     A.U. after   12 cycles
            NFock= 12  Conv=0.35D-08     -V/T= 2.0015
 <Sx>= 0.0000 <Sy>= 0.0000 <Sz>= 0.5000 <S**2>= 0.7580 S= 0.5040
 <L.S>=  0.00000000000    
 KE= 5.788177944893D+02 PE=-1.440973104487D+03 EE= 2.496004151379D+02
 Annihilation of the first spin contaminant:
 S**2 before annihilation     0.7580,   after     0.7500
 Leave Link  502 at Mon Apr 21 20:43:58 2025, MaxMem=   536870912 cpu:              46.4 elap:               6.3
 (Enter /home/szhao/Apps/g16/l701.exe)
 ... and contract with generalized density number  0.
 Compute integral first derivatives.
 Leave Link  701 at Mon Apr 21 20:43:58 2025, MaxMem=   536870912 cpu:               1.1 elap:               0.2
 (Enter /home/szhao/Apps/g16/l702.exe)
 L702 exits ... SP integral derivatives will be done elsewhere.
 Leave Link  702 at Mon Apr 21 20:43:59 2025, MaxMem=   536870912 cpu:               0.6 elap:               0.4
 (Enter /home/szhao/Apps/g16/l703.exe)
 Integral derivatives from FoFJK, PRISM(SPDF).
 Compute integral first derivatives, UseDBF=F ICtDFT=           0.
 Calling FoFJK, ICntrl=      2127 FMM=F ISym2X=0 I1Cent= 0 IOpClX= 1 NMat=1 NMatS=1 NMatT=0.
 FoFJK:  IHMeth= 1 ICntrl=    2127 DoSepK=F KAlg= 0 I1Cent=           0 FoldK=F
 IRaf=         0 NMat=       1 IRICut=       1 DoRegI=T DoRafI=F ISym2E= 0 IDoP0=0 IntGTp=1.
 FoFCou: FMM=F IPFlag=           0 FMFlag=      100000 FMFlg1=         800
         NFxFlg=           0 DoJE=F BraDBF=F KetDBF=F FulRan=T
         wScrn=  0.000000 ICntrl=      2127 IOpCl=  1 I1Cent=           0 NGrid=           0
         NMat0=    1 NMatS0=      1 NMatT0=    0 NMatD0=    1 NMtDS0=    0 NMtDT0=    0
 Symmetry not used in FoFCou.
 Leave Link  703 at Mon Apr 21 20:44:00 2025, MaxMem=   536870912 cpu:               6.1 elap:               0.8
 (Enter /home/szhao/Apps/g16/l716.exe)
 Dipole        = 2.63287131D-02-3.61412980D-02-8.56814793D-10
 -------------------------------------------------------------------
 Center     Atomic                   Forces (Hartrees/Bohr)
 Number     Number              X              Y              Z
 -------------------------------------------------------------------
      1       14          -0.000000000   -0.000000000   -0.000000000
      2       14          -0.000000000   -0.000000000   -0.000000000
      3        1           0.001252121    0.001033461    0.000000000
      4        1          -0.002328401   -0.000595390    0.000000000
 -------------------------------------------------------------------
 Cartesian Forces:  Max     0.002328401 RMS     0.000837247
 Leave Link  716 at Mon Apr 21 20:44:00 2025, MaxMem=   536870912 cpu:               0.9 elap:               0.3
 (Enter /home/szhao/Apps/g16/l103.exe)

 GradGradGradGradGradGradGradGradGradGradGradGradGradGradGradGradGradGrad
 Berny optimization.
 Using GEDIIS/GDIIS optimizer.
 FormGI is forming the generalized inverse of G from B-inverse, IUseBI=4.
 Internal  Forces:  Max     0.004201433 RMS     0.001802563
 Search for a local minimum.
 Step number   3 out of a maximum of   21
 All quantities printed in internal units (Hartrees-Bohrs-Radians)
 RMS Force = .23926D-02 SwitMx=.10000D-02 MixMth= 1
 Mixed Optimization -- RFO/linear search
 Update second derivatives using D2CorX and points    1    2    3
 DE= -1.99D-04 DEPred=-1.06D-04 R= 1.89D+00
 TightC=F SS=  1.41D+00  RLast= 4.54D-02 DXNew= 5.0454D-01 1.3611D-01
 Trust test= 1.89D+00 RLast= 4.54D-02 DXMaxT set to 3.00D-01
 The second derivative matrix:
                          X1        Y1        Z1        X2        Y2
           X1           0.51428
           Y1           0.03821   0.60324
           Z1           0.00000   0.00000   0.50000
           X2          -0.03495  -0.09376  -0.00000   0.58559
           Y2          -0.04409  -0.11951  -0.00000   0.10829   0.63848
           Z2           0.00000   0.00000   0.00000  -0.00000  -0.00000
           R1          -0.04426  -0.11844  -0.00000   0.10832   0.13669
           R2          -0.06062  -0.16225  -0.00000   0.14837   0.18724
           A1          -0.00543  -0.01293   0.00000   0.01290   0.01432
           A2          -0.00957  -0.02271   0.00000   0.02270   0.02513
           D1           0.00000   0.00000   0.00000  -0.00000  -0.00000
                          Z2        R1        R2        A1        A2
           Z2           0.50000
           R1          -0.00000   0.24980
           R2          -0.00000   0.10408   0.31971
           A1           0.00000   0.01642   0.02286   0.12739
           A2           0.00000   0.02938   0.04093  -0.05934   0.05204
           D1           0.00000  -0.00000  -0.00000  -0.00000   0.00000
                          D1
           D1           0.00230
 ITU=  1  1  0
 Use linear search instead of GDIIS.
     Eigenvalues ---    0.00230   0.01075   0.16000   0.17496   0.40323
     Eigenvalues --- 1000.000001000.000001000.000001000.000001000.00000
     Eigenvalues --- 1000.00000
 RFO step:  Lambda=-1.71548180D-04 EMin= 2.30000000D-03
 Quartic linear search produced a step of  2.00000.
 Iteration  1 RMS(Cart)=  0.12961003 RMS(Int)=  0.00787485
 Iteration  2 RMS(Cart)=  0.00975200 RMS(Int)=  0.00002419
 Iteration  3 RMS(Cart)=  0.00004970 RMS(Int)=  0.00000000
 Iteration  4 RMS(Cart)=  0.00000000 RMS(Int)=  0.00000000
 ITry= 1 IFail=0 DXMaxC= 3.17D-01 DCOld= 1.00D+10 DXMaxT= 3.00D-01 DXLimC= 3.00D+00 Rises=F
 Variable       Old X    -DE/DX   Delta X   Delta X   Delta X     New X
                                 (Linear)    (Quad)   (Total)
    X1       -4.77718   0.00125   0.00000   0.00000   0.00000  -4.77718
    Y1        0.00000   0.00035   0.00000   0.00000   0.00000   0.00000
    Z1        0.00000   0.00000   0.00000   0.00000   0.00000   0.00000
    X2        4.77718  -0.00233   0.00000   0.00000   0.00000   4.77718
    Y2        0.00000   0.00009   0.00000   0.00000   0.00000   0.00000
    Z2        0.00000   0.00000   0.00000   0.00000   0.00000   0.00000
    R1        2.85815  -0.00141   0.01329  -0.00466   0.00863   2.86678
    R2        2.85907  -0.00190   0.01825  -0.00583   0.01241   2.87149
    A1        1.92840  -0.00232  -0.04236  -0.03286  -0.07522   1.85318
    A2        2.23336  -0.00420  -0.07700  -0.05967  -0.13668   2.09668
    D1        3.14159   0.00000   0.00000   0.00000   0.00000   3.14159
         Item               Value     Threshold  Converged?
 Maximum Force            0.004201     0.000450     NO 
 RMS     Force            0.002393     0.000300     NO 
 Maximum Displacement     0.317305     0.001800     NO 
 RMS     Displacement     0.134736     0.001200     NO 
 Predicted change in Energy=-5.674519D-04
 Lowest energy point so far.  Saving SCF results.
 GradGradGradGradGradGradGradGradGradGradGradGradGradGradGradGradGradGrad

 Leave Link  103 at Mon Apr 21 20:44:01 2025, MaxMem=   536870912 cpu:               1.2 elap:               0.2
 (Enter /home/szhao/Apps/g16/l202.exe)
                          Input orientation:                          
 ---------------------------------------------------------------------
 Center     Atomic      Atomic             Coordinates (Angstroms)
 Number     Number       Type             X           Y           Z
 ---------------------------------------------------------------------
      1         14           0       -2.527975    0.000000    0.000000
      2         14           0        2.527975    0.000000    0.000000
      3          1           0       -2.950696   -1.456947    0.000000
      4          1           0        3.290741    1.314208   -0.000000
 ---------------------------------------------------------------------
                    Distance matrix (angstroms):
                    1          2          3          4
     1  Si   0.000000
     2  Si   5.055949   0.000000
     3  H    1.517033   5.669085   0.000000
     4  H    5.965283   1.519525   6.828971   0.000000
 Symmetry turned off by external request.
 Stoichiometry    H2Si2(1+,2)
 Framework group  CS[SG(H2Si2)]
 Deg. of freedom     5
 Full point group                 CS      NOp   2
 Rotational constants (GHZ):         137.4292809           1.3388570           1.3259395
 Leave Link  202 at Mon Apr 21 20:44:01 2025, MaxMem=   536870912 cpu:               0.1 elap:               0.2
 (Enter /home/szhao/Apps/g16/l301.exe)
 Standard basis: 6-311+G(d,p) (5D, 7F)
 Ernie: Thresh=  0.10000D-02 Tol=  0.10000D-05 Strict=F.
    72 basis functions,   116 primitive gaussians,    74 cartesian basis functions
    15 alpha electrons       14 beta electrons
       nuclear repulsion energy        32.8994977238 Hartrees.
 IExCor= 4336 DFT=T Ex+Corr=M062X ExCW=0 ScaHFX=  0.540000
[...]
 Gap=     0.234 Goal=   None    Shift=    0.000
 RMSDP=8.47D-09 MaxDP=1.69D-07 DE=-3.87D-12 OVMax= 4.01D-07

 SCF Done:  E(UM062X) =  -579.672596665     A.U. after    9 cycles
            NFock=  9  Conv=0.85D-08     -V/T= 2.0015
 <Sx>= 0.0000 <Sy>= 0.0000 <Sz>= 0.5000 <S**2>= 0.7571 S= 0.5035
 <L.S>=  0.00000000000    
 KE= 5.788151386322D+02 PE=-1.441423690489D+03 EE= 2.497855180929D+02
 Annihilation of the first spin contaminant:
 S**2 before annihilation     0.7571,   after     0.7500
 Leave Link  502 at Mon Apr 21 20:45:54 2025, MaxMem=   536870912 cpu:              35.8 elap:               4.7
 (Enter /home/szhao/Apps/g16/l701.exe)
 ... and contract with generalized density number  0.
 Compute integral first derivatives.
 Leave Link  701 at Mon Apr 21 20:45:55 2025, MaxMem=   536870912 cpu:               1.4 elap:               0.6
 (Enter /home/szhao/Apps/g16/l702.exe)
 L702 exits ... SP integral derivatives will be done elsewhere.
 Leave Link  702 at Mon Apr 21 20:45:55 2025, MaxMem=   536870912 cpu:               0.7 elap:               0.2
 (Enter /home/szhao/Apps/g16/l703.exe)
 Integral derivatives from FoFJK, PRISM(SPDF).
 Compute integral first derivatives, UseDBF=F ICtDFT=           0.
 Calling FoFJK, ICntrl=      2127 FMM=F ISym2X=0 I1Cent= 0 IOpClX= 1 NMat=1 NMatS=1 NMatT=0.
 FoFJK:  IHMeth= 1 ICntrl=    2127 DoSepK=F KAlg= 0 I1Cent=           0 FoldK=F
 IRaf=         0 NMat=       1 IRICut=       1 DoRegI=T DoRafI=F ISym2E= 0 IDoP0=0 IntGTp=1.
 FoFCou: FMM=F IPFlag=           0 FMFlag=      100000 FMFlg1=         800
         NFxFlg=           0 DoJE=F BraDBF=F KetDBF=F FulRan=T
         wScrn=  0.000000 ICntrl=      2127 IOpCl=  1 I1Cent=           0 NGrid=           0
         NMat0=    1 NMatS0=      1 NMatT0=    0 NMatD0=    1 NMtDS0=    0 NMtDT0=    0
 Symmetry not used in FoFCou.
 Leave Link  703 at Mon Apr 21 20:45:56 2025, MaxMem=   536870912 cpu:               5.0 elap:               0.7
 (Enter /home/szhao/Apps/g16/l716.exe)
 Dipole        =-2.62749929D-05 3.38500000D-05-8.33632089D-09
 -------------------------------------------------------------------
 Center     Atomic                   Forces (Hartrees/Bohr)
 Number     Number              X              Y              Z
 -------------------------------------------------------------------
      1       14          -0.000000000   -0.000000000   -0.000000000
      2       14          -0.000000000   -0.000000000   -0.000000000
      3        1           0.000001099    0.000002637   -0.000000000
      4        1           0.000000006    0.000000240   -0.000000000
 -------------------------------------------------------------------
 Cartesian Forces:  Max     0.000002637 RMS     0.000000828
 Leave Link  716 at Mon Apr 21 20:45:57 2025, MaxMem=   536870912 cpu:               0.6 elap:               0.1
 (Enter /home/szhao/Apps/g16/l103.exe)

 GradGradGradGradGradGradGradGradGradGradGradGradGradGradGradGradGradGrad
 Berny optimization.
 Using GEDIIS/GDIIS optimizer.
 FormGI is forming the generalized inverse of G from B-inverse, IUseBI=4.
 Internal  Forces:  Max     0.000002740 RMS     0.000001349
 Search for a local minimum.
 Step number  13 out of a maximum of   21
 All quantities printed in internal units (Hartrees-Bohrs-Radians)
 RMS Force = .16044D-05 SwitMx=.10000D-02 MixMth= 2
 Mixed Optimization -- En-DIIS/RFO-DIIS
 Swapping is turned off.
 Update second derivatives using D2CorX and points    4    5    6    7    8
                                                      9   10   11   12   13
 DE= -1.37D-07 DEPred=-1.28D-07 R= 1.06D+00
 Trust test= 1.06D+00 RLast= 4.49D-03 DXMaxT set to 7.91D-01
 The second derivative matrix:
                          X1        Y1        Z1        X2        Y2
           X1           0.50258
           Y1           0.00800   0.57017
           Z1           0.00000   0.00000   0.50000
           X2          -0.00276  -0.01217  -0.00000   0.50560
           Y2          -0.00941  -0.07957  -0.00000   0.01662   0.59332
           Z2           0.00000   0.00000   0.00000  -0.00000  -0.00000
           R1          -0.00910  -0.06490  -0.00000   0.01597   0.07205
           R2          -0.01046  -0.08588  -0.00000   0.01671   0.10323
           A1          -0.00332   0.00176   0.00000   0.00244  -0.00142
           A2          -0.00061   0.00403   0.00000   0.00398  -0.00007
           D1          -0.00000  -0.00000  -0.00000   0.00000   0.00000
                          Z2        R1        R2        A1        A2
           Z2           0.50000
           R1          -0.00000   0.17266
           R2          -0.00000  -0.00265   0.17331
           A1          -0.00000   0.00101  -0.00024   0.00748
           A2           0.00000  -0.00076   0.00030   0.00213   0.00715
           D1          -0.00000   0.00000   0.00000   0.00000  -0.00000
                          D1
           D1           0.00230
 ITU=  0  0  1  1  0  1  1  1  1  1  1  1
     Eigenvalues ---    0.00230   0.00517   0.00945   0.17033   0.17566
     Eigenvalues --- 1000.000001000.000001000.000001000.000001000.00000
     Eigenvalues --- 1000.00000
 En-DIIS/RFO-DIIS/Sim-DIIS IScMMF=       -3 using points:    13   12   11   10    9    8    7
 RFO step:  Lambda=-1.29318890D-10.
 NNeg= 0 NGDIIS= 7 SimSw=  2.50D-01 Rises=F DC= -1.37D-07 SmlDif=  1.00D-05
 NRisDI= 0 DoIntr=F SqrtH=F CThrHd= 10.0 CDAdj=  3.0
 RMS Error=  0.1036055873D-03 NUsed= 7 OKEnD=F EnDIS=F
 InvSVX:  RCond= 2.37D-20 Info=           9 Equed=N FErr=  0.00D+00 BErr=  0.00D+00
 DIIS inversion failure, remove point   7.
 InvSVX:  RCond= 3.56D-20 Info=           8 Equed=N FErr=  0.00D+00 BErr=  0.00D+00
 DIIS inversion failure, remove point   6.
 InvSVX:  RCond= 2.11D-10 Info=           0 Equed=N FErr=  1.02D-10 BErr=  8.31D-17
 DIIS inversion failure, remove point   5.
 InvSVX:  RCond= 2.92D-09 Info=           0 Equed=N FErr=  6.25D-13 BErr=  5.57D-17
 DIIS inversion failure, remove point   4.
 InvSVX:  RCond= 1.49D-06 Info=           0 Equed=N FErr=  1.73D-15 BErr=  1.03D-16
 RFO-DIIS uses    3 points instead of    7
 DidBck=F Rises=F RFO-DIIS coefs:    1.04595   -0.08211    0.03616    0.00000    0.00000
                  RFO-DIIS coefs:    0.00000    0.00000
 Iteration  1 RMS(Cart)=  0.00030071 RMS(Int)=  0.00000005
 Iteration  2 RMS(Cart)=  0.00000005 RMS(Int)=  0.00000000
 ITry= 1 IFail=0 DXMaxC= 9.57D-04 DCOld= 1.00D+10 DXMaxT= 7.91D-01 DXLimC= 3.00D+00 Rises=F
 Variable       Old X    -DE/DX   Delta X   Delta X   Delta X     New X
                                 (Linear)    (Quad)   (Total)
    X1       -4.77718   0.00000  -0.00000   0.00000   0.00000  -4.77718
    Y1        0.00000   0.00000   0.00000   0.00000   0.00000   0.00000
    Z1        0.00000  -0.00000   0.00000   0.00000   0.00000   0.00000
    X2        4.77718   0.00000   0.00000   0.00000   0.00000   4.77718
    Y2        0.00000   0.00000   0.00000   0.00000   0.00000   0.00000
    Z2        0.00000  -0.00000   0.00000   0.00000   0.00000   0.00000
    R1        2.85085  -0.00000  -0.00000  -0.00001  -0.00001   2.85084
    R2        2.85084   0.00000  -0.00002   0.00002   0.00000   2.85084
    A1        1.67918  -0.00000  -0.00034  -0.00000  -0.00034   1.67885
    A2        1.67876  -0.00000   0.00009   0.00000   0.00009   1.67885
    D1        3.14159  -0.00000   0.00000  -0.00000   0.00000   3.14159
         Item               Value     Threshold  Converged?
 Maximum Force            0.000003     0.000450     YES
 RMS     Force            0.000002     0.000300     YES
 Maximum Displacement     0.000957     0.001800     YES
 RMS     Displacement     0.000301     0.001200     YES
 Predicted change in Energy=-3.976136D-10
 Optimization completed.
    -- Stationary point found.
                           ----------------------------
                           !   Optimized Parameters   !
                           ! (Angstroms and Degrees)  !
 --------------------------                            --------------------------
 ! Name  Definition              Value          Derivative Info.                !
 --------------------------------------------------------------------------------
 ! X1    R(1,-1)                -2.528          -DE/DX =    0.0                 !
 ! Y1    R(1,-2)                 0.0            -DE/DX =    0.0                 !
 ! Z1    R(1,-3)                 0.0            -DE/DX =    0.0                 !
 ! X2    R(2,-1)                 2.528          -DE/DX =    0.0                 !
 ! Y2    R(2,-2)                 0.0            -DE/DX =    0.0                 !
 ! Z2    R(2,-3)                 0.0            -DE/DX =    0.0                 !
 ! R1    R(1,3)                  1.5086         -DE/DX =    0.0                 !
 ! R2    R(2,4)                  1.5086         -DE/DX =    0.0                 !
 ! A1    A(2,1,3)               96.2101         -DE/DX =    0.0                 !
 ! A2    A(1,2,4)               96.1857         -DE/DX =    0.0                 !
 ! D1    D(3,1,2,4)            180.0            -DE/DX =    0.0                 !
 --------------------------------------------------------------------------------
 Lowest energy point so far.  Saving SCF results.
 Largest change from initial coordinates is atom    4       0.914 Angstoms.
 GradGradGradGradGradGradGradGradGradGradGradGradGradGradGradGradGradGrad

 Leave Link  103 at Mon Apr 21 20:45:57 2025, MaxMem=   536870912 cpu:               0.3 elap:               0.1
 (Enter /home/szhao/Apps/g16/l202.exe)
                          Input orientation:                          
 ---------------------------------------------------------------------
 Center     Atomic      Atomic             Coordinates (Angstroms)
 Number     Number       Type             X           Y           Z
 ---------------------------------------------------------------------
      1         14           0       -2.527975    0.000000    0.000000
      2         14           0        2.527975    0.000000    0.000000
      3          1           0       -2.691168   -1.499753   -0.000000
      4          1           0        2.690528    1.499814   -0.000000
 ---------------------------------------------------------------------
                    Distance matrix (angstroms):
                    1          2          3          4
     1  Si   0.000000
     2  Si   5.055949   0.000000
     3  H    1.508605   5.430351   0.000000
     4  H    5.429752   1.508597   6.161173   0.000000
 Symmetry turned off by external request.
 Stoichiometry    H2Si2(1+,2)
 Framework group  C1[X(H2Si2)]
 Deg. of freedom     6
 Full point group                 C1      NOp   1
 Rotational constants (GHZ):         116.0722394           1.3572455           1.3415586
 Leave Link  202 at Mon Apr 21 20:45:57 2025, MaxMem=   536870912 cpu:               0.4 elap:               0.1
 (Enter /home/szhao/Apps/g16/l601.exe)
 Copying SCF densities to generalized density rwf, IOpCl= 1 IROHF=0.

 **********************************************************************

            Population analysis using the SCF density.

 **********************************************************************

 Alpha  occ. eigenvalues --  -67.25681 -67.25681  -5.79862  -5.79861  -4.10966
 Alpha  occ. eigenvalues --   -4.10966  -4.10875  -4.10875  -4.10229  -4.10229
 Alpha  occ. eigenvalues --   -0.74676  -0.74427  -0.51475  -0.51325  -0.38048
 Alpha virt. eigenvalues --   -0.30025  -0.26552  -0.26209  -0.10331  -0.08942
 Alpha virt. eigenvalues --   -0.08156  -0.07334  -0.07293  -0.06230  -0.05417
 Alpha virt. eigenvalues --   -0.05352  -0.04769  -0.02213   0.13431   0.14925
 Alpha virt. eigenvalues --    0.16389   0.16660   0.18455   0.20057   0.24552
 Alpha virt. eigenvalues --    0.25546   0.27487   0.28710   0.39461   0.39532
 Alpha virt. eigenvalues --    0.39676   0.39676   0.40088   0.40174   0.40968
 Alpha virt. eigenvalues --    0.41914   0.64810   0.64869   1.02057   1.02449
 Alpha virt. eigenvalues --    1.02490   1.03447   1.04127   1.05077   1.30097
 Alpha virt. eigenvalues --    1.30243   1.30251   1.30434   1.78475   1.78699
 Alpha virt. eigenvalues --    2.42303   2.43366   5.21605   5.23285  11.20878
 Alpha virt. eigenvalues --   11.21404  11.22571  11.22794  11.29322  11.30344
 Alpha virt. eigenvalues --  140.76130 140.78051
  Beta  occ. eigenvalues --  -67.25421 -67.25420  -5.79788  -5.79787  -4.10812
  Beta  occ. eigenvalues --   -4.10812  -4.10260  -4.10260  -4.10132  -4.10132
  Beta  occ. eigenvalues --   -0.72869  -0.72774  -0.50831  -0.50679
  Beta virt. eigenvalues --   -0.27254  -0.26336  -0.25808  -0.23979  -0.14709
  Beta virt. eigenvalues --   -0.10778  -0.09041  -0.08027  -0.07556  -0.06219
  Beta virt. eigenvalues --   -0.05716  -0.05155  -0.04895  -0.02253   0.09567
  Beta virt. eigenvalues --    0.13931   0.14571   0.15338   0.16229   0.16570
  Beta virt. eigenvalues --    0.24081   0.25305   0.26925   0.27778   0.40907
  Beta virt. eigenvalues --    0.40908   0.42083   0.42083   0.43698   0.43705
  Beta virt. eigenvalues --    0.43732   0.44396   0.65480   0.65633   1.01730
  Beta virt. eigenvalues --    1.01745   1.02353   1.03445   1.03509   1.05649
  Beta virt. eigenvalues --    1.30615   1.30620   1.30991   1.31314   1.79359
  Beta virt. eigenvalues --    1.79616   2.42723   2.43795   5.22480   5.24155
  Beta virt. eigenvalues --   11.21778  11.22808  11.22953  11.24811  11.29792
  Beta virt. eigenvalues --   11.30836 140.76576 140.78496
          Condensed to atoms (all electrons):
               1          2          3          4
     1  Si  13.158290   0.039785   0.216450  -0.000337
     2  Si   0.039785  13.158283  -0.000337   0.216434
     3  H    0.216450  -0.000337   0.869697   0.000010
     4  H   -0.000337   0.216434   0.000010   0.869721
          Atomic-Atomic Spin Densities.
               1          2          3          4
     1  Si   0.477333   0.034679  -0.003700  -0.000267
     2  Si   0.034679   0.477311  -0.000266  -0.003700
     3  H   -0.003700  -0.000266  -0.004066  -0.000001
     4  H   -0.000267  -0.003700  -0.000001  -0.004065
 Mulliken charges and spin densities:
               1          2
     1  Si   0.585813   0.508044
     2  Si   0.585836   0.508023
     3  H   -0.085820  -0.008034
     4  H   -0.085828  -0.008034
 Sum of Mulliken charges =   1.00000   1.00000
 Mulliken charges and spin densities with hydrogens summed into heavy atoms:
               1          2
     1  Si   0.499992   0.500010
     2  Si   0.500008   0.499990
 Electronic spatial extent (au):  <R**2>=            733.7125
 Charge=              1.0000 electrons
 Dipole moment (field-independent basis, Debye):
    X=             -0.0001    Y=              0.0001    Z=             -0.0000  Tot=              0.0001
 Quadrupole moment (field-independent basis, Debye-Ang):
   XX=             11.6074   YY=            -27.8175   ZZ=            -20.0158
   XY=              2.4326   XZ=             -0.0000   YZ=              0.0000
 Traceless Quadrupole moment (field-independent basis, Debye-Ang):
   XX=             23.6827   YY=            -15.7422   ZZ=             -7.9405
   XY=              2.4326   XZ=             -0.0000   YZ=              0.0000
 Octapole moment (field-independent basis, Debye-Ang**2):
  XXX=             -0.0001  YYY=             -0.0002  ZZZ=              0.0000  XYY=              0.0006
  XXY=              0.0045  XXZ=             -0.0000  XZZ=              0.0005  YZZ=              0.0001
  YYZ=              0.0000  XYZ=              0.0000
 Hexadecapole moment (field-independent basis, Debye-Ang**3):
 XXXX=           -699.1951 YYYY=            -75.0575 ZZZZ=            -26.2634 XXXY=             -3.7592
 XXXZ=              0.0000 YYYX=            -22.1975 YYYZ=              0.0000 ZZZX=              0.0000
 ZZZY=              0.0000 XXYY=           -195.8966 XXZZ=           -135.2162 YYZZ=            -16.8633
 XXYZ=              0.0000 YYXZ=              0.0000 ZZXY=             -4.2970
 N-N= 3.315043709910D+01 E-N=-1.441423689889D+03  KE= 5.788151386322D+02
                          Isotropic Fermi Contact Couplings
        Atom                 a.u.       MegaHertz       Gauss      10(-4) cm-1
     1  Si(29)             0.00737      -6.55287      -2.33823      -2.18580
     2  Si(29)             0.00736      -6.54365      -2.33494      -2.18273
     3  H(1)              -0.00214      -9.58333      -3.41957      -3.19665
     4  H(1)              -0.00214      -9.58259      -3.41931      -3.19641
 --------------------------------------------------------
       Center         ----  Spin Dipole Couplings  ----
                      3XX-RR        3YY-RR        3ZZ-RR
 --------------------------------------------------------
     1   Atom        0.923280     -0.420497     -0.502783
     2   Atom        0.923519     -0.420758     -0.502761
     3   Atom        0.004086      0.008570     -0.012655
     4   Atom        0.004086      0.008570     -0.012655
 --------------------------------------------------------
                        XY            XZ            YZ
 --------------------------------------------------------
     1   Atom       -0.310035     -0.000000      0.000000
     2   Atom       -0.309397      0.000000     -0.000000
     3   Atom        0.000569     -0.000000      0.000000
     4   Atom        0.000567      0.000000     -0.000000
 --------------------------------------------------------


 ---------------------------------------------------------------------------------
              Anisotropic Spin Dipole Couplings in Principal Axis System
 ---------------------------------------------------------------------------------

       Atom             a.u.   MegaHertz   Gauss  10(-4) cm-1        Axes

              Baa    -0.5028    53.337    19.032    17.791  0.0000 -0.0000  1.0000
     1 Si(29) Bbb    -0.4886    51.830    18.494    17.289  0.2145  0.9767  0.0000
              Bcc     0.9914  -105.168   -37.526   -35.080  0.9767 -0.2145 -0.0000
 
              Baa    -0.5028    53.335    19.031    17.791 -0.0000  0.0000  1.0000
     2 Si(29) Bbb    -0.4885    51.827    18.493    17.288  0.2140  0.9768 -0.0000
              Bcc     0.9913  -105.162   -37.525   -35.078  0.9768 -0.2140  0.0000
 
              Baa    -0.0127    -6.752    -2.409    -2.252  0.0000 -0.0000  1.0000
     3 H(1)   Bbb     0.0040     2.142     0.764     0.714  0.9923 -0.1240 -0.0000
              Bcc     0.0086     4.610     1.645     1.538  0.1240  0.9923  0.0000
 
              Baa    -0.0127    -6.752    -2.409    -2.252 -0.0000  0.0000  1.0000
     4 H(1)   Bbb     0.0040     2.142     0.764     0.715  0.9924 -0.1234  0.0000
              Bcc     0.0086     4.610     1.645     1.538  0.1234  0.9924 -0.0000
 

 ---------------------------------------------------------------------------------

 No NMR shielding tensors so no spin-rotation constants.
 Leave Link  601 at Mon Apr 21 20:45:58 2025, MaxMem=   536870912 cpu:               1.8 elap:               0.3
 (Enter /home/szhao/Apps/g16/l9999.exe)
 1\1\GINC-NODE05\FOpt\UM062X\6-311+G(d,p)\H2Si2(1+,2)\SZHAO\21-Apr-2025
 \0\\#p opt UM062X/6-311+G** nosymm int=superfine\\Title Card Required\
 \1,2\Si,-2.52797457,0.,0.\Si,2.52797457,0.,0.\H,-2.6911680181,-1.49975
 25057,-0.0000000305\H,2.6905278664,1.4998141526,-0.0000000307\\Version
 =ES64L-G16RevA.03\HF=-579.6725967\S2=0.757086\S2-1=0.\S2A=0.75002\RMSD
 =8.474e-09\RMSF=8.276e-07\Dipole=0.000014,0.00003,0.\Quadrupole=17.607
 5002,-11.7039371,-5.9035631,1.8086109,0.,0.\PG=C01 [X(H2Si2)]\\@


 "THE TIME HAS COME", THE WALRUS SAID,
 "TO TALK OF MANY THINGS,
 OF SHOES AND SHIPS AND SEALING WAX,
 OF CABBAGES AND KINGS,
 AND WHY THE SEA IS BOILING HOT,
 AND WHETHER PIGS HAVE WINGS."
 Job cpu time:       0 days  0 hours 13 minutes 13.8 seconds.
 Elapsed time:       0 days  0 hours  2 minutes  0.0 seconds.
 File lengths (MBytes):  RWF=     22 Int=      0 D2E=      0 Chk=      2 Scr=      2
 Normal termination of Gaussian 16 at Mon Apr 21 20:45:58 2025.
