Title Card Required                                                     
FOpt      UM062X                                                      6-311+G(d,p)        
Number of atoms                            I                1
Info1-9                                    I   N=           9
          10          10           0           0           0         100
           2          18        -502
Full Title                                 C   N=           2
Title Card Required     
Route                                      C   N=           4
#p opt UM062X/6-311+G** nosymm int=superfine    
Charge                                     I                1
Multiplicity                               I                3
Number of electrons                        I                6
Number of alpha electrons                  I                4
Number of beta electrons                   I                2
Number of basis functions                  I               22
Number of independent functions            I               22
Number of point charges in /Mol/           I                0
Number of translation vectors              I                0
Atomic numbers                             I   N=           1
           7
Nuclear charges                            R   N=           1
  7.00000000E+00
Current cartesian coordinates              R   N=           3
  0.00000000E+00  0.00000000E+00  0.00000000E+00
Number of symbols in /Mol/                 I                0
Force Field                                I                0
Atom Types                                 C   N=           1
            
Int Atom Types                             I   N=           1
           0
MM charges                                 R   N=           1
  0.00000000E+00
Integer atomic weights                     I   N=           1
          14
Real atomic weights                        R   N=           1
  1.40030740E+01
Atom fragment info                         I   N=           1
           0
Atom residue num                           I   N=           1
           0
Nuclear spins                              I   N=           1
           2
Nuclear ZEff                               R   N=           1
 -4.55000000E+00
Nuclear ZNuc                               R   N=           1
  7.00000000E+00
Nuclear QMom                               R   N=           1
  2.04400000E+00
Nuclear GFac                               R   N=           1
  4.03761000E-01
MicOpt                                     I   N=           1
          -1
Number of residues                         I                0
Number of secondary structures             I                0
Number of contracted shells                I                6
Number of primitive shells                 I               13
Pure/Cartesian d shells                    I                0
Pure/Cartesian f shells                    I                0
Highest angular momentum                   I                2
Largest degree of contraction              I                6
Shell types                                I   N=           6
           0          -1          -1          -1          -1          -2
Number of primitives per shell             I   N=           6
           6           3           1           1           1           1
Shell to atom map                          I   N=           6
           1           1           1           1           1           1
Primitive exponents                        R   N=          13
  6.29348000E+03  9.49044000E+02  2.18776000E+02  6.36916000E+01  1.88282000E+01
  2.72023000E+00  3.06331000E+01  7.02614000E+00  2.11205000E+00  6.84009000E-01
  2.00878000E-01  6.39000000E-02  9.13000000E-01
Contraction coefficients                   R   N=          13
  1.96978815E-03  1.49612859E-02  7.35005308E-02  2.48936766E-01  6.02459433E-01
  2.56201759E-01  1.11906080E-01  9.21666655E-01 -2.56919183E-03  1.00000000E+00
  1.00000000E+00  1.00000000E+00  1.00000000E+00
P(S=P) Contraction coefficients            R   N=          13
  0.00000000E+00  0.00000000E+00  0.00000000E+00  0.00000000E+00  0.00000000E+00
  0.00000000E+00  3.83119186E-02  2.37403116E-01  8.17592398E-01  1.00000000E+00
  1.00000000E+00  1.00000000E+00  0.00000000E+00
Coordinates of each shell                  R   N=          18
  0.00000000E+00  0.00000000E+00  0.00000000E+00  0.00000000E+00  0.00000000E+00
  0.00000000E+00  0.00000000E+00  0.00000000E+00  0.00000000E+00  0.00000000E+00
  0.00000000E+00  0.00000000E+00  0.00000000E+00  0.00000000E+00  0.00000000E+00
  0.00000000E+00  0.00000000E+00  0.00000000E+00
Num ILSW                                   I              100
ILSW                                       I   N=         100
           1           0           0           0           2           0
           0           0           0           0        4336          -1
           7           0           0           0           2           0
           0           0           0           0           1           0
           1           1           0           0           0           0
           0           0      100000           0          -1           0
           0           0           0           0           0           0
           0           0           0           1           0           0
           0 -2000000000           1           0           0           0
           0           0           4          52           0           0
           0           0          55           0           0           0
           0           0           0           1           0           1
           0           0           0           0           0           0
           0           0           0           0           0           0
           0           0           0           0           0           0
           0           0           0           0           0           0
           0           0           0           0
Num RLSW                                   I               52
RLSW                                       R   N=          52
  1.00000000E+00  1.00000000E+00  1.00000000E+00  1.00000000E+00  5.40000000E-01
  0.00000000E+00  0.00000000E+00  1.00000000E+00  0.00000000E+00  0.00000000E+00
  0.00000000E+00  0.00000000E+00  1.00000000E+00  0.00000000E+00  0.00000000E+00
  0.00000000E+00  0.00000000E+00  1.00000000E+00  0.00000000E+00  0.00000000E+00
  0.00000000E+00  0.00000000E+00  1.00000000E+00  0.00000000E+00  0.00000000E+00
  0.00000000E+00  0.00000000E+00  1.00000000E+00  0.00000000E+00  0.00000000E+00
  0.00000000E+00  0.00000000E+00  1.00000000E+00  0.00000000E+00  0.00000000E+00
  0.00000000E+00  0.00000000E+00  0.00000000E+00  1.00000000E+00  1.00000000E+00
  0.00000000E+00  1.00000000E+00  0.00000000E+00  0.00000000E+00  0.00000000E+00
  0.00000000E+00  0.00000000E+00  0.00000000E+00  0.00000000E+00  0.00000000E+00
  0.00000000E+00  0.00000000E+00
MxBond                                     I                1
NBond                                      I   N=           1
           0
IBond                                      I   N=           1
           0
RBond                                      R   N=           1
  0.00000000E+00
Virial Ratio                               R      2.001114779039562E+00
SCF Energy                                 R     -5.404875908423403E+01
Total Energy                               R     -5.404875908423403E+01
S**2                                       R      2.002095883356616E+00
S**2 after annihilation                    R      2.000000000809106E+00
RMS Force                                  R      2.689205160483421E-31
RMS Density                                R      2.295164432412339E-09
Job Status                                 I                1
Nuclear derivative order                   I                1
External E-field                           R   N=          35
  0.00000000E+00  0.00000000E+00  0.00000000E+00  0.00000000E+00  0.00000000E+00
  0.00000000E+00  0.00000000E+00  0.00000000E+00  0.00000000E+00  0.00000000E+00
  0.00000000E+00  0.00000000E+00  0.00000000E+00  0.00000000E+00  0.00000000E+00
  0.00000000E+00  0.00000000E+00  0.00000000E+00  0.00000000E+00  0.00000000E+00
  0.00000000E+00  0.00000000E+00  0.00000000E+00  0.00000000E+00  0.00000000E+00
  0.00000000E+00  0.00000000E+00  0.00000000E+00  0.00000000E+00  0.00000000E+00
  0.00000000E+00  0.00000000E+00  0.00000000E+00  0.00000000E+00  0.00000000E+00
IOpCl                                      I                1
IROHF                                      I                0
Alpha Orbital Energies                     R   N=          22
 -1.54994639E+01 -1.41359537E+00 -9.55182828E-01 -9.55182781E-01 -6.39055553E-01
 -1.68793805E-01 -1.12973732E-01 -1.12640024E-01 -1.12570331E-01  4.18288808E-01
  4.18308837E-01  4.38624746E-01  5.42706960E-01  1.43438975E+00  1.43438977E+00
  1.44137578E+00  1.44137578E+00  1.45266873E+00  3.21420706E+00  3.21420943E+00
  3.24570049E+00  3.45736064E+01
Beta Orbital Energies                      R   N=          22
 -1.54613188E+01 -1.24082534E+00 -5.84313363E-01 -5.31738823E-01 -5.31738796E-01
 -1.77799930E-01 -1.05190185E-01 -9.04801231E-02 -9.04754143E-02  4.17516184E-01
  4.30152702E-01  4.30155226E-01  5.60277126E-01  1.47717544E+00  1.48860024E+00
  1.48860024E+00  1.52429072E+00  1.52429072E+00  3.20958180E+00  3.28843302E+00
  3.28843330E+00  3.45903537E+01
Alpha MO coefficients                      R   N=         484
  5.57704321E-01  4.66869277E-01  4.04120776E-16 -1.09342545E-15 -9.85996560E-16
  9.84841912E-03 -6.46531617E-16  1.46149382E-15  1.12187241E-15 -4.39337257E-03
  5.26559431E-16 -9.81749667E-16 -5.67090918E-16  1.62799300E-03 -2.32698011E-16
  3.79784959E-16  1.67399810E-16  1.50013175E-04  5.62780384E-05 -5.25886046E-06
 -2.61237089E-04  4.92543571E-05 -1.38251939E-01 -2.27563140E-01  5.16166489E-16
  1.90662631E-16 -1.06514992E-16  7.26088126E-01 -7.43002075E-16 -1.23378926E-16
  2.10273389E-16  4.18064459E-01  5.05616526E-16  7.68522588E-17 -1.10832069E-16
 -3.14249632E-02 -1.68501699E-16 -6.09888945E-17  3.45619956E-17  1.68258995E-03
  6.31231257E-04 -5.89853981E-05 -2.93010712E-03  5.52450976E-04  4.02027940E-17
  9.69985181E-17  4.65591278E-02  3.24202994E-01  1.52309639E-01 -3.01699207E-16
  6.90726726E-02  4.80975888E-01  2.25961190E-01 -2.05335796E-16  3.95683779E-02
  2.75509305E-01  1.29433212E-01  5.66799896E-16 -1.81691959E-03 -1.26262500E-02
 -5.93131461E-03 -1.31018328E-16 -2.36831038E-16 -1.73594299E-16 -1.06635760E-16
  1.18491272E-16 -1.55012016E-17 -4.10910845E-17  2.01812660E-02 -1.55721140E-01
  3.25295439E-01  2.32671477E-16  2.99397094E-02 -2.31022380E-01  4.82597074E-01
 -2.36967456E-16  1.71514998E-02 -1.32332352E-01  2.76436455E-01  4.46713427E-18
 -7.88217922E-04  6.06421476E-03 -1.26667047E-02  1.71970205E-16  1.53102785E-16
  4.76557687E-17  1.09252272E-16  3.69818100E-17 -1.02715229E-16 -2.46477311E-16
  3.21586266E-01 -3.00514606E-02 -3.43364021E-02  1.49156142E-15  5.09232642E-01
 -4.75876241E-02 -5.43741746E-02 -3.79066131E-16  3.53486007E-01 -3.30293827E-02
 -3.77357028E-02 -1.76323988E-15  1.37038409E-02 -1.28648495E-03 -1.47596900E-03
 -5.33889762E-17 -2.83718533E-16 -7.80701375E-17 -1.01700487E-16  1.01268706E-16
  3.94137316E-02  6.62265602E-02  1.24482169E-16 -1.04984156E-16  4.29511461E-17
 -2.30553366E-01  1.29584965E-15 -2.45357014E-16 -2.54047907E-16 -7.13802316E-01
  2.65622963E-16 -7.57627541E-17  4.59627451E-17  1.45734206E+00  6.36566688E-16
  1.26393184E-16 -1.14048417E-16  1.65738474E-03  6.21758473E-04 -5.81081405E-05
 -2.88619540E-03  5.44166205E-04 -1.69578974E-17 -3.22210665E-17 -1.10705716E-01
  1.77266499E-02  3.99777622E-02  1.49636566E-16 -1.38028554E-01  2.05559834E-02
  4.39352458E-02  2.15855066E-16 -2.80910416E-01  4.48875224E-02  1.01124343E-01
 -5.84538363E-16  1.07315386E+00 -1.77509203E-01 -4.09219220E-01  5.50081490E-17
  3.91845399E-17  9.99889365E-17  2.78425893E-17  8.54297626E-18 -4.02352750E-18
 -6.30324379E-18  1.10549138E-02 -8.91310475E-02  6.50472825E-02  3.34536122E-18
  1.39642218E-02 -9.28345627E-02  6.73188656E-02  1.31228521E-16  2.79815661E-02
 -2.24536776E-01  1.63834946E-01 -1.88978317E-16 -1.06494228E-01  9.30990912E-01
 -6.81010772E-01 -4.91005502E-17 -1.47782366E-16 -1.09896620E-16 -4.06792291E-17
  1.16976972E-16 -8.09682820E-18 -1.70746398E-17 -4.34916330E-02 -6.35267643E-02
 -8.04337258E-02  3.89032290E-17 -5.09669120E-02 -6.54905224E-02 -8.29912894E-02
  1.68731885E-16 -1.09832020E-01 -1.59896517E-01 -2.02441752E-01 -2.91125112E-16
  4.33504080E-01  6.66000685E-01  8.42987897E-01 -6.07644231E-17 -1.54976603E-16
 -1.15564432E-16 -5.44087790E-17  3.85641528E-17 -7.70953029E-19  5.74826350E-18
 -6.27589355E-04 -1.99783570E-01  1.70831403E-01 -5.39118218E-17 -1.81478052E-03
 -5.68155751E-01  4.85823822E-01  1.32462465E-16  3.95980262E-03  1.27369820E+00
 -1.08910314E+00 -1.21858293E-16 -1.97261925E-03 -6.49063756E-01  5.54981889E-01
  1.09584674E-16  1.33672873E-17 -4.39773039E-17  4.30925103E-17 -1.06246923E-17
  6.66491533E-17  1.42831514E-16 -3.65541605E-02 -1.69102633E-01 -1.97897715E-01
 -1.17262212E-15 -1.03902131E-01 -4.80910598E-01 -5.62798733E-01  1.73358877E-15
  2.33144243E-01  1.07810783E+00  1.26168318E+00 -7.96072362E-16 -1.18915365E-01
 -5.49420761E-01 -6.42967388E-01  1.10748972E-16 -1.85470426E-16 -2.51229300E-16
 -4.49264684E-17  3.60864258E-17  7.05832982E-17  1.57671525E-16 -2.62058704E-01
  2.43975423E-02  2.75814487E-02 -1.16512143E-15 -7.84237277E-01  7.30236759E-02
  8.25992208E-02  1.81536046E-15  1.65278393E+00 -1.53846113E-01 -1.73863771E-01
 -9.73901247E-16 -8.41281144E-01  7.82790207E-02  8.83945275E-02  1.52957643E-16
  1.70175524E-17 -9.19361273E-17 -3.53538085E-17 -1.00388650E-16  1.14994498E-01
  2.36408956E-01  8.69696637E-16  2.85516810E-16 -3.12335168E-16 -1.80402221E+00
 -6.02601817E-16  2.65128316E-16  1.01158544E-15  2.58559800E+00 -8.78483421E-16
 -5.72729740E-16 -1.16858526E-15 -1.19101053E+00  2.18410282E-16  3.44951850E-16
  5.11546861E-16  3.40086773E-03  1.27587562E-03 -1.19227361E-04 -5.92237295E-03
  1.11664878E-03 -3.48002221E-09 -6.91741750E-09  2.89408495E-16 -2.48775131E-16
 -4.47643490E-16  5.70254555E-08 -8.57653669E-16  1.46780297E-16  7.64047882E-16
 -9.30874010E-08  5.81392825E-16  6.88825351E-18 -9.74395281E-18  5.70734101E-08
 -2.18282077E-16  1.15776158E-16 -5.92673568E-16 -9.87580750E-02  5.19708277E-01
 -1.37766232E-01  2.10815918E-01  8.10387107E-01 -2.23102127E-10 -6.26258699E-10
 -4.58265745E-16  4.04067887E-17  1.02233160E-15  7.69408763E-09  1.34471684E-16
 -9.64789668E-16 -2.05238068E-15 -2.07685522E-08 -2.58464454E-16  1.45235235E-15
  1.46297404E-15  1.92000327E-08 -2.40109730E-16 -9.85487775E-16  6.88766245E-17
 -1.52967462E-01  8.23117640E-01 -1.93298849E-02 -1.31438310E-02 -5.46380730E-01
  4.02626526E-10  6.88903321E-10 -1.53666313E-16 -3.86062377E-16 -2.49815426E-16
 -3.67310226E-09  2.37519093E-16  3.88608472E-16  3.76729271E-16 -1.32661753E-09
 -3.43028188E-17 -4.13684923E-16 -5.26385496E-16  7.37658194E-09 -1.82162704E-16
  5.88384857E-16  4.12962936E-16  1.99465100E-01  1.14356017E-01  9.60571986E-01
  1.34773757E-01  7.92077636E-02  5.38430140E-10  7.36195700E-10  2.67590604E-16
  5.29877560E-18 -1.55989209E-17 -9.57626965E-09  4.91370950E-16  6.51243666E-16
  4.06749651E-16  2.46608514E-08 -1.09395231E-15 -1.27323335E-15 -5.43360568E-16
 -2.18835378E-08  2.73790033E-16  7.47087098E-16  4.84317259E-16  8.32792970E-01
  8.02366064E-02 -2.40127667E-01  4.78605946E-01 -1.15295311E-01  8.70376111E-04
  9.97473321E-04 -7.21257330E-16  8.24672827E-16 -2.80806486E-17 -1.09206441E-02
  4.31755003E-16 -1.01200476E-15 -9.52822554E-17  1.71731963E-02  3.61789862E-17
  8.80995672E-16  1.97059091E-16 -3.48129056E-03 -9.25061294E-17 -3.11327127E-16
 -2.35615317E-17 -4.83218556E-01 -1.81281631E-01  1.69400040E-02  8.41489278E-01
 -1.58657194E-01  1.23325379E-16  2.09393869E-16 -2.05642068E-02 -1.05190138E+00
  7.28601915E-01 -9.03018991E-16  2.56380567E-02  1.31156491E+00 -9.08457951E-01
  6.96212739E-16 -1.48467337E-02 -7.59650176E-01  5.26172324E-01  1.26140143E-16
  5.19572293E-03  2.65963139E-01 -1.84218587E-01 -7.47733636E-16 -1.40858707E-15
 -5.43106453E-16  5.41654154E-16  5.19819720E-16 -2.90349764E-17 -1.23743800E-16
 -1.78498404E-01 -7.19212887E-01 -1.04338417E+00  1.83361487E-15  2.22566114E-01
  8.96752192E-01  1.30094589E+00 -3.46319630E-15 -1.28915539E-01 -5.19394969E-01
 -7.53501848E-01  2.81927516E-15  4.51416602E-02  1.81848531E-01  2.63812422E-01
 -9.92471725E-16  9.35227957E-16 -3.79262684E-16  3.91529718E-16 -1.56944129E-15
  2.94630464E-16  6.09018541E-16 -1.27556596E+00  1.19183170E-01  1.36068059E-01
 -4.64725178E-15  1.56286687E+00 -1.46026514E-01 -1.66709858E-01  7.03226377E-15
 -9.01810917E-01  8.42594344E-02  9.61889319E-02 -3.95839319E-15  3.17628079E-01
 -2.96755185E-02 -3.38723975E-02  7.53371575E-16 -4.35968072E-16 -3.98816537E-16
 -7.49378225E-16  1.36348323E-15 -2.14445535E+00  2.25380567E+00  2.25286501E-17
  2.99222366E-16  1.06170068E-16 -3.24663849E-01  2.29368261E-17 -5.57791324E-17
 -1.28079759E-16  2.77295966E-01 -2.91315304E-16  2.77397752E-17  4.53581146E-17
 -1.04726383E-01 -6.68583944E-17  3.00528928E-17 -1.27387280E-17 -5.27567585E-05
 -1.97919930E-05  1.84947809E-06  9.18721148E-05 -1.73219386E-05
Beta MO coefficients                       R   N=         484
  5.58903710E-01  4.66693435E-01 -2.96403453E-16  5.94604639E-17 -2.32412562E-16
  7.10463339E-03  1.66197143E-16  6.39141897E-17  2.10180186E-16 -3.90927815E-03
  7.67871156E-17 -1.80683421E-16 -2.55022301E-17  1.40693068E-03 -7.23525105E-17
  1.01402075E-16 -2.15847009E-17 -1.11632404E-04 -4.18794182E-05  3.91353600E-06
  1.94399573E-04 -3.66528509E-05 -1.34029155E-01 -2.15753636E-01  1.07095310E-16
 -6.42748578E-17 -6.96891719E-17  6.65716476E-01 -1.05423886E-16  3.40066119E-16
  2.30940615E-16  4.71907229E-01  1.98983662E-16 -7.84439086E-17 -4.01135480E-17
 -2.27284610E-02 -6.01674979E-17  1.10121725E-17  1.83736472E-17 -7.45034460E-03
 -2.79502964E-03  2.61190301E-04  1.29742208E-02 -2.44620919E-03  1.70021100E-17
 -2.35896980E-17  3.07064629E-01 -2.86946893E-02 -3.27864658E-02  5.34654998E-16
  4.62099464E-01 -4.31821820E-02 -4.93398738E-02 -2.11944641E-15  4.15765814E-01
 -3.88533859E-02 -4.43936421E-02  2.23899124E-15  2.75401138E-02 -2.57207322E-03
 -2.93908304E-03 -1.68285264E-17  3.21159817E-16  1.21790260E-16 -5.92530600E-17
 -1.33301870E-16  3.92469550E-18 -1.45402948E-18  1.54133409E-02 -1.34479405E-01
  2.62052299E-01 -1.62523747E-17  2.32047697E-02 -2.02457299E-01  3.94516858E-01
  5.18112390E-17  2.34097438E-02 -2.04250779E-01  3.98011955E-01 -7.16645635E-17
  2.43649771E-03 -2.12498871E-02  4.14080381E-02 -1.98198418E-17 -5.40311466E-17
  2.07956381E-16 -1.64617837E-17  6.21733948E-17 -1.33874987E-17 -3.19296049E-18
  3.84616688E-02  2.61082994E-01  1.31719757E-01  1.83241874E-16  5.79040974E-02
  3.93057415E-01  1.98302525E-01 -1.59313431E-16  5.84152289E-02  3.96540244E-01
  2.00059809E-01 -4.51782670E-16  6.08047733E-03  4.12538805E-02  2.08128727E-02
 -3.37162337E-16 -3.13528009E-17 -5.05746343E-18 -2.01432764E-16  1.43925713E-16
  4.55348220E-02  7.69800591E-02 -5.08099074E-16  8.61617676E-17  5.54609998E-16
 -2.84585744E-01  8.09600729E-17 -4.97882660E-17 -3.94638261E-16 -6.79904692E-01
 -4.82840953E-16  2.05928637E-16  4.77411735E-16  1.43615107E+00  2.46500026E-16
  5.76779314E-17 -2.43277504E-16  9.53462750E-04  3.57695709E-04 -3.34258479E-05
 -1.66038488E-03  3.13055258E-04 -1.75766960E-17 -2.93443474E-17 -1.36489832E-01
  1.26597571E-02  1.44818277E-02  1.17097230E-16 -2.02105953E-01  1.87386092E-02
  2.14368262E-02  1.54614343E-16 -2.60262766E-01  2.41170404E-02  2.75923354E-02
 -3.93836579E-16  1.12039849E+00 -1.03919544E-01 -1.18876486E-01 -4.18068326E-17
 -2.42151018E-16  9.22845361E-17 -6.09411699E-17  1.56132532E-16  4.91853260E-18
  7.02432730E-18 -6.56342736E-03  7.02290452E-02 -1.23248342E-01 -1.13792643E-17
 -1.08029215E-02  1.15564072E-01 -2.02808228E-01 -1.30620224E-16 -1.22073567E-02
  1.30533382E-01 -2.29077224E-01  2.07564042E-16  5.19344741E-02 -5.55688644E-01
  9.75204625E-01  1.40062995E-17 -5.81297657E-17 -4.86848841E-17  1.08465635E-18
  2.11417729E-17 -3.24261817E-18 -1.17098510E-17 -1.87000342E-02 -1.22732710E-01
 -6.89393706E-02 -6.08154975E-18 -3.07820375E-02 -2.01962696E-01 -1.13442552E-01
  2.15411354E-16 -3.47872421E-02 -2.28104925E-01 -1.28125614E-01 -2.20255491E-16
  1.47967768E-01  9.71111915E-01  5.45476571E-01 -7.17971948E-19 -3.83238014E-17
  8.21255509E-17  1.08783575E-17  7.52775628E-18 -1.22981077E-17 -2.10398472E-18
 -2.64269510E-01  2.45948546E-02  2.81208064E-02 -1.26292082E-17 -8.09086977E-01
  7.52666850E-02  8.60632030E-02  1.71391987E-16  1.65003768E+00 -1.53535015E-01
 -1.75551619E-01 -1.95187683E-16 -8.81341241E-01  8.20185654E-02  9.37779980E-02
 -3.68897396E-17 -4.03618812E-17  8.50550507E-17 -1.10077239E-16  5.62843828E-18
  2.61786856E-17  4.47376095E-17 -1.19043245E-02  1.23025647E-01 -2.19503675E-01
 -3.20379910E-16 -4.03197038E-02  4.16565023E-01 -7.43236567E-01  3.92999399E-16
  7.90325341E-02 -8.16651860E-01  1.45707603E+00 -1.29620458E-16 -4.26338473E-02
  4.40575520E-01 -7.86078956E-01  1.76550898E-16 -3.45697986E-16 -3.54446845E-16
  2.74233224E-17  1.36257375E-16  8.76717448E-17  1.75046758E-16 -3.31771533E-02
 -2.18597670E-01 -1.20718558E-01 -1.35045160E-15 -1.12382854E-01 -7.40165693E-01
 -4.08747224E-01  1.97013172E-15  2.20274842E-01  1.45106319E+00  8.01334023E-01
 -8.96370284E-16 -1.18823952E-01 -7.82841654E-01 -4.32316625E-01 -3.28284795E-17
 -2.66031744E-16  3.62430573E-16 -9.15833612E-17  1.68532378E-16  1.18231107E-01
  2.40678188E-01 -3.03508788E-16  2.94597456E-16  2.73111731E-17 -1.81936365E+00
  8.72516764E-17  3.85802713E-16  8.36626590E-16  2.58549726E+00 -3.17661120E-16
 -9.20300483E-16 -1.19380171E-15 -1.21666121E+00 -2.53877278E-16  5.09254713E-16
  5.64659690E-16  4.57321256E-04  1.71562005E-04 -1.60325342E-05 -7.96389284E-04
  1.50151836E-04  2.61897348E-03  3.09437187E-03 -9.41706582E-16  8.10427650E-16
 -5.93933148E-16 -1.24773682E-02  5.68113827E-16 -1.01413353E-15  5.67684615E-16
 -6.23227186E-03 -2.90299772E-16  7.28566814E-16 -1.42046167E-16  2.05603614E-03
  1.55440679E-17 -2.64152207E-16  8.65911165E-17 -4.83177867E-01 -1.81266219E-01
  1.69391172E-02  8.41417985E-01 -1.58644108E-01  3.49386680E-10  5.18359192E-10
 -5.81151222E-16  2.49597785E-16 -9.28773408E-17 -4.70366643E-09 -6.90935142E-16
 -1.26279110E-15 -4.04682222E-16  7.20812076E-09  1.28745294E-15  1.24346702E-15
  9.25721849E-16 -3.28523825E-09 -4.91160933E-16 -6.55286709E-16  1.27717641E-16
 -1.71675171E-01  9.21070049E-01 -5.06979176E-02  3.60166131E-02 -3.43933314E-01
  3.87107279E-10  5.81065569E-10 -5.27090190E-16  1.42303402E-16  1.21033088E-16
 -5.65987519E-09  8.59909882E-16  3.58466226E-17 -1.14375143E-16  9.19606068E-09
 -5.66920398E-16  9.55632814E-17  2.33758401E-16 -4.16888353E-09  5.67930301E-17
 -6.21617404E-17 -4.28266411E-16 -6.06633538E-02  3.15038284E-01 -1.29549390E-01
  2.08132234E-01  9.14859971E-01  2.85891747E-10  3.82163801E-10 -4.55159035E-16
 -1.99565205E-16  9.38922169E-16 -8.71348225E-10  5.60633743E-16 -4.95317071E-16
 -1.34147695E-15 -2.70550093E-09  3.83040349E-16 -2.68995979E-16 -2.10674417E-16
  1.38586759E-09 -8.20112783E-16  2.17909251E-16  3.47192676E-16  8.55020559E-01
  1.09652203E-01  4.53186006E-02  4.97154283E-01 -8.77501086E-02 -2.42744563E-10
 -3.22385412E-10 -2.58016116E-16 -1.16622611E-16  3.37027599E-16  5.88235186E-10
  6.53386768E-16  2.86582534E-16 -1.10029668E-15  2.71111393E-09 -8.39876114E-16
 -2.27525785E-15  1.58209653E-15 -1.32411608E-09  2.88504236E-16  1.95605331E-15
 -5.35109753E-16 -4.76438457E-02  8.65553193E-02  9.89093473E-01 -8.08548607E-03
  1.08935613E-01  1.45411645E-16  2.81268032E-16 -1.27686546E+00  1.19312539E-01
  1.36327780E-01 -1.78038723E-15  1.55862519E+00 -1.45641265E-01 -1.66411146E-01
  1.65097748E-15 -8.92340281E-01  8.33832455E-02  9.52743173E-02 -9.63028214E-17
  3.17271418E-01 -2.96478207E-02 -3.38756492E-02  7.05089716E-16 -7.97247631E-16
 -2.00494422E-16 -1.50976224E-15  9.89237445E-18 -1.11636752E-16 -3.03704603E-16
 -6.33734421E-02  6.19902509E-01 -1.13609571E+00  2.51734956E-15  7.61784064E-02
 -7.45159273E-01  1.36565392E+00 -3.73400974E-15 -4.28648211E-02  4.19297067E-01
 -7.68446135E-01  2.65918299E-15  1.52664516E-02 -1.49337081E-01  2.73690310E-01
  1.17037602E-15 -4.18385188E-16  6.12244309E-16 -2.27365803E-16  3.11075904E-17
 -4.67073009E-17 -7.19306466E-17 -1.70635559E-01 -1.13152941E+00 -6.07892585E-01
  8.43728905E-16  2.05113266E-01  1.36016519E+00  7.30722837E-01 -1.05891144E-15
 -1.15414866E-01 -7.65358137E-01 -4.11174160E-01  9.34579094E-16  4.11051484E-02
  2.72590934E-01  1.46444386E-01  1.80977044E-16  6.93885467E-16  1.93203201E-16
  8.02453721E-16 -4.49839583E-16 -2.14411249E+00  2.25420810E+00  2.18365158E-17
  3.01992103E-16  1.06819474E-16 -3.25607296E-01  2.36187640E-17 -5.54483754E-17
 -1.28397462E-16  2.77486686E-01 -2.91449267E-16  2.84679597E-17  4.54291410E-17
 -1.04903299E-01 -6.68815357E-17  2.99392013E-17 -1.28037397E-17 -1.08097346E-04
 -4.05531388E-05  3.78963050E-06  1.88243439E-04 -3.54921028E-05
Orthonormal basis                          R   N=         484
  2.37258796E-01  2.48792276E-01  0.00000000E+00  0.00000000E+00  0.00000000E+00
  3.14136421E-01  7.55130716E-20 -1.02708421E-20  6.39680561E-24  3.10357360E-01
  6.70523784E-20 -7.69291212E-21  4.81181027E-24  2.47131997E-01  4.49068655E-20
 -4.91236166E-21  3.06822212E-24  4.63819108E-35  0.00000000E+00  0.00000000E+00
  1.26945182E-17  0.00000000E+00 -2.48721325E-17  5.45910647E-18  2.58107962E-01
 -3.42786718E-02  2.96443694E-05  8.28624969E-17  3.72300318E-01 -4.94442725E-02
  4.27596577E-05 -7.97448524E-17  3.83008132E-01 -5.08663504E-02  4.39894780E-05
  1.02890753E-17  2.84720708E-01 -3.78130439E-02  3.27009123E-05  8.19250534E-33
  0.00000000E+00  0.00000000E+00  9.62092965E-17  0.00000000E+00 -1.98431522E-17
  3.07663908E-17  2.82521577E-02  2.12602469E-01 -1.47637239E-01 -3.31082810E-17
  4.07515026E-02  3.06662243E-01 -2.12955038E-01  2.43472331E-17  4.19235659E-02
  3.15482226E-01 -2.19079887E-01 -7.40749959E-19  3.11651538E-02  2.34523278E-01
 -1.62859676E-01  3.19216848E-21  0.00000000E+00  0.00000000E+00  6.49900828E-17
  0.00000000E+00 -9.31550195E-18  1.35960548E-17  1.94124652E-02  1.46355428E-01
  2.14471428E-01 -8.96168756E-18  2.80009454E-02  2.11106128E-01  3.09358068E-01
 -2.82894344E-18  2.88062869E-02  2.17177799E-01  3.18255586E-01  1.02048753E-17
  2.14140268E-02  1.61445702E-01  2.36584940E-01  6.09599510E-17  0.00000000E+00
  0.00000000E+00  3.40858629E-17  0.00000000E+00  4.42543018E-01  4.32319358E-01
  0.00000000E+00  0.00000000E+00  0.00000000E+00 -9.06604449E-02  2.96659564E-19
 -1.49915462E-20  3.39593634E-23 -3.14228116E-01  8.21614970E-19 -1.62547748E-19
  2.77541665E-22 -3.50226540E-01  8.65592862E-19 -1.77093532E-19  3.00528069E-22
 -2.40192456E-34  0.00000000E+00  0.00000000E+00 -2.49069134E-17  0.00000000E+00
  9.46343641E-17 -9.57883529E-17  5.72139500E-01 -1.84257206E-01 -7.44458513E-03
 -3.75022752E-17  2.98596525E-01 -9.61628439E-02 -3.88528890E-03  2.56489778E-17
 -2.82100523E-01  9.08503157E-02  3.67064563E-03  4.02948492E-17 -5.29622691E-01
  1.70564691E-01  6.89136339E-03  7.33616400E-18  0.00000000E+00  0.00000000E+00
  1.50327852E-16  0.00000000E+00 -2.80746849E-18  4.70527241E-18  2.55208059E-02
  5.50818247E-02  5.98050524E-01 -5.22168704E-18  1.33191712E-02  2.87469078E-02
  3.12119349E-01  1.68545863E-18 -1.25833520E-02 -2.71587813E-02 -2.94876277E-01
  2.63626824E-18 -2.36243047E-02 -5.09885862E-02 -5.53608215E-01 -3.82108474E-16
  0.00000000E+00  0.00000000E+00 -8.35232379E-17  0.00000000E+00  1.12869634E-17
 -1.57124192E-17  1.82633043E-01  5.69530528E-01 -6.02486274E-02  2.24543773E-17
  9.53152018E-02  2.97234917E-01 -3.14434343E-02 -5.00349124E-17 -9.00495017E-02
 -2.80814137E-01  2.97063379E-02  4.21601900E-17 -1.69061223E-01 -5.27207596E-01
  5.57714336E-02  2.96049827E-16  0.00000000E+00  0.00000000E+00  7.76525808E-16
  0.00000000E+00  0.00000000E+00  0.00000000E+00  0.00000000E+00  0.00000000E+00
  0.00000000E+00  0.00000000E+00  0.00000000E+00  0.00000000E+00  0.00000000E+00
  0.00000000E+00  0.00000000E+00  0.00000000E+00  0.00000000E+00  0.00000000E+00
  0.00000000E+00  0.00000000E+00  0.00000000E+00  0.00000000E+00  0.00000000E+00
  0.00000000E+00  0.00000000E+00  1.00000000E+00  0.00000000E+00  0.00000000E+00
  0.00000000E+00  0.00000000E+00  0.00000000E+00  0.00000000E+00  0.00000000E+00
  0.00000000E+00  0.00000000E+00  0.00000000E+00  0.00000000E+00  0.00000000E+00
  0.00000000E+00  0.00000000E+00  0.00000000E+00  0.00000000E+00  0.00000000E+00
  0.00000000E+00  0.00000000E+00  1.00000000E+00  0.00000000E+00  0.00000000E+00
  0.00000000E+00  0.00000000E+00  0.00000000E+00  0.00000000E+00  0.00000000E+00
  0.00000000E+00  0.00000000E+00  0.00000000E+00  0.00000000E+00  0.00000000E+00
  0.00000000E+00  0.00000000E+00  0.00000000E+00  0.00000000E+00  0.00000000E+00
  0.00000000E+00  0.00000000E+00  0.00000000E+00  1.00000000E+00  0.00000000E+00
  0.00000000E+00  0.00000000E+00  8.52384718E-18  1.62004990E-18 -5.55688196E-16
 -6.07084412E-16  1.31302375E-16  1.01902567E-18 -2.35922393E-16 -3.13984949E-16
  5.31208243E-17 -1.11538034E-17  7.92213680E-27  2.76688394E-16 -3.03212384E-17
 -4.85713389E-17  9.71445147E-17  4.19803081E-16 -9.80795331E-17  8.13576475E-03
  0.00000000E+00  0.00000000E+00  9.99966904E-01  0.00000000E+00 -6.93503107E-20
 -1.31807811E-20 -4.60228369E-17 -1.65783743E-16  2.52508153E-16 -8.29082749E-21
 -3.29597460E-17 -1.51964487E-16  1.59158629E-16  9.07477236E-20 -4.50182221E-29
  3.24379737E-17 -1.84709778E-16  3.95178066E-19  6.19621542E-17  9.63652443E-17
 -4.98036212E-16  9.99966904E-01  0.00000000E+00  0.00000000E+00 -8.13576475E-03
  0.00000000E+00 -3.08427338E-01 -1.57173734E-01 -1.55553492E-16  1.55553492E-16