 Entering Gaussian System, Link 0=g16
 Initial command:
 /home/szhao/Apps/g16/l1.exe "/home/szhao/tmp/Gau-101405.inp" -scrdir="/home/szhao/tmp/"
 Default is to use a total of  16 processors:
                               16 via shared-memory
                                1 via Linda
 Entering Link 1 = /home/szhao/Apps/g16/l1.exe PID=    101412.
  
 Copyright (c) 1988,1990,1992,1993,1995,1998,2003,2009,2016,
            Gaussian, Inc.  All Rights Reserved.
  
 This is part of the Gaussian(R) 16 program.  It is based on
 the Gaussian(R) 09 system (copyright 2009, Gaussian, Inc.),
 the Gaussian(R) 03 system (copyright 2003, Gaussian, Inc.),
 the Gaussian(R) 98 system (copyright 1998, Gaussian, Inc.),
 the Gaussian(R) 94 system (copyright 1995, Gaussian, Inc.),
 the Gaussian 92(TM) system (copyright 1992, Gaussian, Inc.),
 the Gaussian 90(TM) system (copyright 1990, Gaussian, Inc.),
 the Gaussian 88(TM) system (copyright 1988, Gaussian, Inc.),
 the Gaussian 86(TM) system (copyright 1986, Carnegie Mellon
 University), and the Gaussian 82(TM) system (copyright 1983,
 Carnegie Mellon University). Gaussian is a federally registered
 trademark of Gaussian, Inc.
  
 This software contains proprietary and confidential information,
 including trade secrets, belonging to Gaussian, Inc.
  
 This software is provided under written license and may be
 used, copied, transmitted, or stored only in accord with that
 written license.
  
 The following legend is applicable only to US Government
 contracts under FAR:
  
                    RESTRICTED RIGHTS LEGEND
  
 Use, reproduction and disclosure by the US Government is
 subject to restrictions as set forth in subparagraphs (a)
 and (c) of the Commercial Computer Software - Restricted
 Rights clause in FAR 52.227-19.
  
 Gaussian, Inc.
 340 Quinnipiac St., Bldg. 40, Wallingford CT 06492
  
  
 ---------------------------------------------------------------
 Warning -- This program may not be used in any manner that
 competes with the business of Gaussian, Inc. or will provide
 assistance to any competitor of Gaussian, Inc.  The licensee
 of this program is prohibited from giving any competitor of
 Gaussian, Inc. access to this program.  By using this program,
 the user acknowledges that Gaussian, Inc. is engaged in the
 business of creating and licensing software in the field of
 computational chemistry and represents and warrants to the
 licensee that it is not a competitor of Gaussian, Inc. and that
 it will not use this program in any manner prohibited above.
 ---------------------------------------------------------------
  

 Cite this work as:
 Gaussian 16, Revision A.03,
 M. J. Frisch, G. W. Trucks, H. B. Schlegel, G. E. Scuseria, 
 M. A. Robb, J. R. Cheeseman, G. Scalmani, V. Barone, 
 G. A. Petersson, H. Nakatsuji, X. Li, M. Caricato, A. V. Marenich, 
 J. Bloino, B. G. Janesko, R. Gomperts, B. Mennucci, H. P. Hratchian, 
 J. V. Ortiz, A. F. Izmaylov, J. L. Sonnenberg, D. Williams-Young, 
 F. Ding, F. Lipparini, F. Egidi, J. Goings, B. Peng, A. Petrone, 
 T. Henderson, D. Ranasinghe, V. G. Zakrzewski, J. Gao, N. Rega, 
 G. Zheng, W. Liang, M. Hada, M. Ehara, K. Toyota, R. Fukuda, 
 J. Hasegawa, M. Ishida, T. Nakajima, Y. Honda, O. Kitao, H. Nakai, 
 T. Vreven, K. Throssell, J. A. Montgomery, Jr., J. E. Peralta, 
 F. Ogliaro, M. J. Bearpark, J. J. Heyd, E. N. Brothers, K. N. Kudin, 
 V. N. Staroverov, T. A. Keith, R. Kobayashi, J. Normand, 
 K. Raghavachari, A. P. Rendell, J. C. Burant, S. S. Iyengar, 
 J. Tomasi, M. Cossi, J. M. Millam, M. Klene, C. Adamo, R. Cammi, 
 J. W. Ochterski, R. L. Martin, K. Morokuma, O. Farkas, 
 J. B. Foresman, and D. J. Fox, Gaussian, Inc., Wallingford CT, 2016.
 
 ******************************************
 Gaussian 16:  ES64L-G16RevA.03 25-Dec-2016
                21-Apr-2025 
 ******************************************
 %chk=force.chk
 %mem=4GB
 %nprocshared=8
 Will use up to    8 processors via shared memory.
 ---------------------------------------------------
 #p UM062X/6-311+G** force int=superfine pop=saveNBO
 ---------------------------------------------------
 1/10=7,30=1,38=1/1,3;
 2/12=2,17=6,18=5,40=1/2;
 3/5=4,6=6,7=111,11=2,25=1,30=1,71=1,74=-55,75=-7,116=2/1,2,3;
 4//1;
 5/5=2,38=5/2;
 6/7=2,8=2,9=2,10=2,28=1,40=1,73=1/1,7;
 7/29=1/1,2,3,16;
 1/10=7,30=1/3;
 99//99;
 Leave Link    1 at Mon Apr 21 19:59:33 2025, MaxMem=   536870912 cpu:               2.1 elap:               0.2
 (Enter /home/szhao/Apps/g16/l101.exe)
 -------------------
 Title Card Required
 -------------------
 Symbolic Z-matrix:
 Charge =  0 Multiplicity = 1
 O                    -1.14507   0.        0. 
 S                     1.14507   0.        0. 
 
 ITRead=  0  0
 MicOpt= -1 -1
 NAtoms=      2 NQM=        2 NQMF=       0 NMMI=      0 NMMIF=      0
                NMic=       0 NMicF=      0.
                    Isotopes and Nuclear Properties:
 (Nuclear quadrupole moments (NQMom) in fm**2, nuclear magnetic moments (NMagM)
  in nuclear magnetons)

  Atom         1           2
 IAtWgt=          16          32
 AtmWgt=  15.9949146  31.9720718
 NucSpn=           0           0
 AtZEff=  -0.0000000  -0.0000000
 NQMom=    0.0000000   0.0000000
 NMagM=    0.0000000   0.0000000
 AtZNuc=   8.0000000  16.0000000
 Leave Link  101 at Mon Apr 21 19:59:35 2025, MaxMem=   536870912 cpu:               1.5 elap:               0.3
 (Enter /home/szhao/Apps/g16/l103.exe)

 GradGradGradGradGradGradGradGradGradGradGradGradGradGradGradGradGradGrad
 Berny optimization.
 Initialization pass.
 Trust Radius=3.00D-01 FncErr=1.00D-07 GrdErr=1.00D-07 EigMax=2.50D+02 EigMin=1.00D-04
 Number of steps in this run=      2 maximum allowed number of steps=      2.
 GradGradGradGradGradGradGradGradGradGradGradGradGradGradGradGradGradGrad

 Leave Link  103 at Mon Apr 21 19:59:36 2025, MaxMem=   536870912 cpu:               0.3 elap:               0.2
 (Enter /home/szhao/Apps/g16/l202.exe)
                          Input orientation:                          
 ---------------------------------------------------------------------
 Center     Atomic      Atomic             Coordinates (Angstroms)
 Number     Number       Type             X           Y           Z
 ---------------------------------------------------------------------
      1          8           0       -1.145068    0.000000    0.000000
      2         16           0        1.145068    0.000000    0.000000
 ---------------------------------------------------------------------
 Stoichiometry    OS
 Framework group  C*V[C*(OS)]
 Deg. of freedom     1
 Full point group                 C*V     NOp   4
 Largest Abelian subgroup         C2V     NOp   4
 Largest concise Abelian subgroup C1      NOp   1
                         Standard orientation:                         
 ---------------------------------------------------------------------
 Center     Atomic      Atomic             Coordinates (Angstroms)
 Number     Number       Type             X           Y           Z
 ---------------------------------------------------------------------
      1          8           0        0.000000    0.000000   -1.526757
      2         16           0        0.000000    0.000000    0.763379
 ---------------------------------------------------------------------
 Rotational constants (GHZ):           0.0000000           9.0382506           9.0382506
 Leave Link  202 at Mon Apr 21 19:59:37 2025, MaxMem=   536870912 cpu:               0.3 elap:               0.4
 (Enter /home/szhao/Apps/g16/l301.exe)
 Standard basis: 6-311+G(d,p) (5D, 7F)
 Ernie: Thresh=  0.10000D-02 Tol=  0.10000D-05 Strict=F.
 There are    28 symmetry adapted cartesian basis functions of A1  symmetry.
 There are     2 symmetry adapted cartesian basis functions of A2  symmetry.
 There are    12 symmetry adapted cartesian basis functions of B1  symmetry.
 There are    12 symmetry adapted cartesian basis functions of B2  symmetry.
 There are    26 symmetry adapted basis functions of A1  symmetry.
 There are     2 symmetry adapted basis functions of A2  symmetry.
 There are    12 symmetry adapted basis functions of B1  symmetry.
 There are    12 symmetry adapted basis functions of B2  symmetry.
    52 basis functions,    86 primitive gaussians,    54 cartesian basis functions
    12 alpha electrons       12 beta electrons
       nuclear repulsion energy        29.5767076705 Hartrees.
 IExCor= 4336 DFT=T Ex+Corr=M062X ExCW=0 ScaHFX=  0.540000
 ScaDFX=  1.000000  1.000000  1.000000  1.000000 ScalE2=  1.000000  1.000000
 IRadAn=      7 IRanWt=     -1 IRanGd=            0 ICorTp=0 IEmpDi=  4
 NAtoms=    2 NActive=    2 NUniq=    2 SFac= 1.00D+00 NAtFMM=   60 NAOKFM=F Big=F
 Integral buffers will be    131072 words long.
 Raffenetti 2 integral format.
 Two-electron integral symmetry is turned on.
 Leave Link  301 at Mon Apr 21 19:59:38 2025, MaxMem=   536870912 cpu:               1.2 elap:               0.4
 (Enter /home/szhao/Apps/g16/l302.exe)
 NPDir=0 NMtPBC=     1 NCelOv=     1 NCel=       1 NClECP=     1 NCelD=      1
         NCelK=      1 NCelE2=     1 NClLst=     1 CellRange=     0.0.
 One-electron integrals computed using PRISM.
 One-electron integral symmetry used in STVInt
 NBasis=    52 RedAO= T EigKep=  2.10D-02  NBF=    26     2    12    12
 NBsUse=    52 1.00D-06 EigRej= -1.00D+00 NBFU=    26     2    12    12
 Precomputing XC quadrature grid using
 IXCGrd= 4 IRadAn=           7 IRanWt=          -1 IRanGd=           0 AccXCQ= 0.00D+00.
 Generated NRdTot=       0 NPtTot=           0 NUsed=           0 NTot=          32
 NSgBfM=    53    53    53    53    53 MxSgAt=     2 MxSgA2=     2.
 Leave Link  302 at Mon Apr 21 19:59:39 2025, MaxMem=   536870912 cpu:               1.2 elap:               0.6
 (Enter /home/szhao/Apps/g16/l303.exe)
 DipDrv:  MaxL=1.
 Leave Link  303 at Mon Apr 21 19:59:40 2025, MaxMem=   536870912 cpu:               1.0 elap:               0.2
 (Enter /home/szhao/Apps/g16/l401.exe)
 ExpMin= 4.05D-02 ExpMax= 9.34D+04 ExpMxC= 3.17D+03 IAcc=3 IRadAn=         7 AccDes= 0.00D+00
 Harris functional with IExCor= 1009 and IRadAn=       7 diagonalized for initial guess.
 HarFok:  IExCor= 1009 AccDes= 0.00D+00 IRadAn=         7 IDoV= 1 UseB2=F ITyADJ=14
 ICtDFT=  3500011 ScaDFX=  1.000000  1.000000  1.000000  1.000000
 FoFCou: FMM=F IPFlag=           0 FMFlag=      100000 FMFlg1=           0
         NFxFlg=           0 DoJE=T BraDBF=F KetDBF=T FulRan=T
         wScrn=  0.000000 ICntrl=       500 IOpCl=  0 I1Cent=   200000004 NGrid=           0
         NMat0=    1 NMatS0=      1 NMatT0=    0 NMatD0=    1 NMtDS0=    0 NMtDT0=    0
 Petite list used in FoFCou.
 Harris En= -472.992299736921    
 JPrj=0 DoOrth=F DoCkMO=F.
 Initial guess orbital symmetries:
 Alpha Orbitals:
       Occupied  (SG) (SG) (SG) (SG) (PI) (PI) (SG) (SG) (SG) (PI)
                 (PI) (PI)
       Virtual   (PI) (SG) (SG) (SG) (PI) (PI) (SG) (PI) (PI) (SG)
                 (PI) (PI) (SG) (SG) (DLTA) (DLTA) (SG) (PI) (PI)
                 (PI) (PI) (SG) (SG) (PI) (PI) (SG) (DLTA) (DLTA)
                 (PI) (PI) (SG) (PI) (PI) (SG) (SG) (PI) (PI) (SG)
                 (SG) (SG)
 Beta  Orbitals:
       Occupied  (SG) (SG) (SG) (SG) (PI) (PI) (SG) (SG) (SG) (PI)
                 (PI) (PI)
       Virtual   (PI) (SG) (SG) (SG) (PI) (PI) (SG) (PI) (PI) (SG)
                 (PI) (PI) (SG) (SG) (DLTA) (DLTA) (SG) (PI) (PI)
                 (PI) (PI) (SG) (SG) (PI) (PI) (SG) (DLTA) (DLTA)
                 (PI) (PI) (SG) (PI) (PI) (SG) (SG) (PI) (PI) (SG)
                 (SG) (SG)
 Initial guess <Sx>= 0.0000 <Sy>= 0.0000 <Sz>= 0.0000 <S**2>=-0.0000 S=-0.0000
 Leave Link  401 at Mon Apr 21 19:59:41 2025, MaxMem=   536870912 cpu:               2.2 elap:               0.6
 (Enter /home/szhao/Apps/g16/l502.exe)
 Keep R1 and R2 ints in memory in symmetry-blocked form, NReq=7997257.
 FoFCou: FMM=F IPFlag=           0 FMFlag=           0 FMFlg1=           0
         NFxFlg=           0 DoJE=F BraDBF=F KetDBF=F FulRan=T
         wScrn=  0.000000 ICntrl=       600 IOpCl=  0 I1Cent=           0 NGrid=           0
         NMat0=    1 NMatS0=   1378 NMatT0=    0 NMatD0=    1 NMtDS0=    0 NMtDT0=    0
 Petite list used in FoFCou.
 UHF open shell SCF:
 Using DIIS extrapolation, IDIIS=  1040.
 NGot=   536870912 LenX=   536333382 LenY=   536330025
 Requested convergence on RMS density matrix=1.00D-08 within 128 cycles.
 Requested convergence on MAX density matrix=1.00D-06.
 Requested convergence on             energy=1.00D-06.
 No special actions if energy rises.

 Cycle   1  Pass 1  IDiag  1:
 E= -472.612690160947    
 DIIS: error= 9.29D-02 at cycle   1 NSaved=   1.
 NSaved= 1 IEnMin= 1 EnMin= -472.612690160947     IErMin= 1 ErrMin= 9.29D-02
 ErrMax= 9.29D-02  0.00D+00 EMaxC= 1.00D-01 BMatC= 1.80D+00 BMatP= 1.80D+00
 IDIUse=3 WtCom= 7.06D-02 WtEn= 9.29D-01
 Coeff-Com:  0.100D+01
 Coeff-En:   0.100D+01
 Coeff:      0.100D+01
 Gap=     0.018 Goal=   None    Shift=    0.000
 Gap=     0.018 Goal=   None    Shift=    0.000
 GapD=    0.018 DampG=0.250 DampE=0.500 DampFc=0.2500 IDamp=-1.
 Damping current iteration by 2.50D-01
 RMSDP=4.62D-02 MaxDP=1.12D+00              OVMax= 5.62D-01

 Cycle   2  Pass 1  IDiag  1:
 E= -472.700953974668     Delta-E=       -0.088263813721 Rises=F Damp=T
 DIIS: error= 1.65D-02 at cycle   2 NSaved=   2.
 NSaved= 2 IEnMin= 2 EnMin= -472.700953974668     IErMin= 2 ErrMin= 1.65D-02
 ErrMax= 1.65D-02  0.00D+00 EMaxC= 1.00D-01 BMatC= 1.23D-01 BMatP= 1.80D+00
 IDIUse=3 WtCom= 8.35D-01 WtEn= 1.65D-01
 Coeff-Com:  0.489D-01 0.951D+00
 Coeff-En:   0.417D+00 0.583D+00
 Coeff:      0.110D+00 0.890D+00
 Gap=     0.021 Goal=   None    Shift=    0.000
 Gap=     0.021 Goal=   None    Shift=    0.000
 RMSDP=1.11D-02 MaxDP=2.79D-01 DE=-8.83D-02 OVMax= 8.83D-01

 Cycle   3  Pass 1  IDiag  1:
 E= -472.991147611250     Delta-E=       -0.290193636582 Rises=F Damp=F
 DIIS: error= 5.08D-02 at cycle   3 NSaved=   3.
 NSaved= 3 IEnMin= 3 EnMin= -472.991147611250     IErMin= 2 ErrMin= 1.65D-02
 ErrMax= 5.08D-02  0.00D+00 EMaxC= 1.00D-01 BMatC= 3.58D-01 BMatP= 1.23D-01
 IDIUse=2 WtCom= 0.00D+00 WtEn= 1.00D+00
 Coeff-En:   0.000D+00 0.000D+00 0.100D+01
 Coeff:      0.000D+00 0.000D+00 0.100D+01
 Gap=    -0.068 Goal=   None    Shift=    0.000
 Gap=    -0.068 Goal=   None    Shift=    0.000
 RMSDP=1.57D-02 MaxDP=3.25D-01 DE=-2.90D-01 OVMax= 7.88D-01

 Cycle   4  Pass 1  IDiag  1:
 E= -471.533690969147     Delta-E=        1.457456642103 Rises=F Damp=F
 DIIS: error= 1.50D-01 at cycle   4 NSaved=   4.
 NSaved= 4 IEnMin= 3 EnMin= -472.991147611250     IErMin= 2 ErrMin= 1.65D-02
 ErrMax= 1.50D-01  0.00D+00 EMaxC= 1.00D-01 BMatC= 4.22D+00 BMatP= 1.23D-01
 IDIUse=2 WtCom= 0.00D+00 WtEn= 1.00D+00
 Coeff-En:   0.000D+00 0.000D+00 0.856D+00 0.144D+00
 Coeff:      0.000D+00 0.000D+00 0.856D+00 0.144D+00
 Gap=     0.092 Goal=   None    Shift=    0.000
 Gap=     0.092 Goal=   None    Shift=    0.000
 RMSDP=8.50D-03 MaxDP=1.44D-01 DE= 1.46D+00 OVMax= 3.93D-01

 Cycle   5  Pass 1  IDiag  1:
 E= -472.812464440782     Delta-E=       -1.278773471634 Rises=F Damp=F
 DIIS: error= 9.81D-02 at cycle   5 NSaved=   5.
 NSaved= 5 IEnMin= 3 EnMin= -472.991147611250     IErMin= 2 ErrMin= 1.65D-02
 ErrMax= 9.81D-02  0.00D+00 EMaxC= 1.00D-01 BMatC= 1.14D+00 BMatP= 1.23D-01
 IDIUse=2 WtCom= 0.00D+00 WtEn= 1.00D+00
 Coeff-En:   0.000D+00 0.000D+00 0.645D+00 0.000D+00 0.355D+00
 Coeff:      0.000D+00 0.000D+00 0.645D+00 0.000D+00 0.355D+00
 Gap=     0.124 Goal=   None    Shift=    0.000
 Gap=     0.124 Goal=   None    Shift=    0.000
 RMSDP=4.74D-03 MaxDP=1.02D-01 DE=-1.28D+00 OVMax= 2.58D-01

 Cycle   6  Pass 1  IDiag  1:
 E= -473.097342274962     Delta-E=       -0.284877834180 Rises=F Damp=F
 DIIS: error= 9.41D-03 at cycle   6 NSaved=   6.
 NSaved= 6 IEnMin= 6 EnMin= -473.097342274962     IErMin= 6 ErrMin= 9.41D-03
 ErrMax= 9.41D-03  0.00D+00 EMaxC= 1.00D-01 BMatC= 1.59D-02 BMatP= 1.23D-01
 IDIUse=3 WtCom= 9.06D-01 WtEn= 9.41D-02
 Coeff-Com: -0.368D-01 0.481D-01 0.209D+00-0.311D-01 0.350D-01 0.775D+00
 Coeff-En:   0.000D+00 0.000D+00 0.348D-01 0.000D+00 0.000D+00 0.965D+00
 Coeff:     -0.333D-01 0.436D-01 0.193D+00-0.282D-01 0.317D-01 0.793D+00
 Gap=     0.142 Goal=   None    Shift=    0.000
 Gap=     0.142 Goal=   None    Shift=    0.000
 RMSDP=4.90D-04 MaxDP=6.49D-03 DE=-2.85D-01 OVMax= 1.47D-02

 Cycle   7  Pass 1  IDiag  1:
 E= -473.099400469604     Delta-E=       -0.002058194642 Rises=F Damp=F
 DIIS: error= 6.57D-03 at cycle   7 NSaved=   7.
 NSaved= 7 IEnMin= 7 EnMin= -473.099400469604     IErMin= 7 ErrMin= 6.57D-03
 ErrMax= 6.57D-03  0.00D+00 EMaxC= 1.00D-01 BMatC= 7.43D-03 BMatP= 1.59D-02
 IDIUse=3 WtCom= 9.34D-01 WtEn= 6.57D-02
 Coeff-Com:  0.940D-02-0.355D-03 0.271D-01-0.549D-02-0.534D-01 0.198D+00
 Coeff-Com:  0.825D+00
 Coeff-En:   0.000D+00 0.000D+00 0.000D+00 0.000D+00 0.000D+00 0.000D+00
 Coeff-En:   0.100D+01
 Coeff:      0.878D-02-0.332D-03 0.253D-01-0.513D-02-0.499D-01 0.185D+00
 Coeff:      0.836D+00
 Gap=     0.144 Goal=   None    Shift=    0.000
 Gap=     0.144 Goal=   None    Shift=    0.000
 RMSDP=3.38D-04 MaxDP=6.75D-03 DE=-2.06D-03 OVMax= 1.46D-02

 Cycle   8  Pass 1  IDiag  1:
 E= -473.100648193148     Delta-E=       -0.001247723543 Rises=F Damp=F
 DIIS: error= 4.29D-03 at cycle   8 NSaved=   8.
 NSaved= 8 IEnMin= 8 EnMin= -473.100648193148     IErMin= 8 ErrMin= 4.29D-03
 ErrMax= 4.29D-03  0.00D+00 EMaxC= 1.00D-01 BMatC= 2.91D-03 BMatP= 7.43D-03
 IDIUse=3 WtCom= 9.57D-01 WtEn= 4.29D-02
 Coeff-Com:  0.105D-02 0.472D-02 0.437D-01-0.421D-02-0.104D-01 0.402D-01
 Coeff-Com: -0.300D+00 0.123D+01
 Coeff-En:   0.000D+00 0.000D+00 0.000D+00 0.000D+00 0.000D+00 0.000D+00
 Coeff-En:   0.000D+00 0.100D+01
 Coeff:      0.100D-02 0.451D-02 0.418D-01-0.403D-02-0.999D-02 0.385D-01
 Coeff:     -0.287D+00 0.122D+01
 Gap=     0.143 Goal=   None    Shift=    0.000
 Gap=     0.143 Goal=   None    Shift=    0.000
 RMSDP=2.89D-04 MaxDP=5.94D-03 DE=-1.25D-03 OVMax= 1.41D-02

 Cycle   9  Pass 1  IDiag  1:
 E= -473.101232085035     Delta-E=       -0.000583891888 Rises=F Damp=F
 DIIS: error= 2.94D-03 at cycle   9 NSaved=   9.
 NSaved= 9 IEnMin= 9 EnMin= -473.101232085035     IErMin= 9 ErrMin= 2.94D-03
 ErrMax= 2.94D-03  0.00D+00 EMaxC= 1.00D-01 BMatC= 1.28D-03 BMatP= 2.91D-03
 IDIUse=3 WtCom= 9.71D-01 WtEn= 2.94D-02
 Coeff-Com: -0.570D-02 0.226D-02 0.237D-01-0.327D-02 0.241D-01 0.129D+00
 Coeff-Com: -0.524D+00-0.171D+01 0.306D+01
 Coeff-En:   0.000D+00 0.000D+00 0.000D+00 0.000D+00 0.000D+00 0.000D+00
 Coeff-En:   0.000D+00 0.000D+00 0.100D+01
 Coeff:     -0.553D-02 0.219D-02 0.230D-01-0.318D-02 0.234D-01 0.125D+00
 Coeff:     -0.508D+00-0.166D+01 0.300D+01
 Gap=     0.143 Goal=   None    Shift=    0.000
 Gap=     0.143 Goal=   None    Shift=    0.000
 RMSDP=7.20D-04 MaxDP=1.42D-02 DE=-5.84D-04 OVMax= 3.39D-02

 Cycle  10  Pass 1  IDiag  1:
 E= -473.101873885753     Delta-E=       -0.000641800718 Rises=F Damp=F
 DIIS: error= 5.37D-04 at cycle  10 NSaved=  10.
 NSaved=10 IEnMin=10 EnMin= -473.101873885753     IErMin=10 ErrMin= 5.37D-04
 ErrMax= 5.37D-04  0.00D+00 EMaxC= 1.00D-01 BMatC= 3.05D-05 BMatP= 1.28D-03
 IDIUse=3 WtCom= 9.95D-01 WtEn= 5.37D-03
 Coeff-Com: -0.168D-02 0.146D-02-0.183D-02-0.127D-02 0.103D-01-0.854D-02
 Coeff-Com:  0.174D+00 0.102D+00-0.113D+01 0.185D+01
 Coeff-En:   0.000D+00 0.000D+00 0.000D+00 0.000D+00 0.000D+00 0.000D+00
 Coeff-En:   0.000D+00 0.000D+00 0.000D+00 0.100D+01
 Coeff:     -0.167D-02 0.145D-02-0.182D-02-0.127D-02 0.102D-01-0.849D-02
 Coeff:      0.173D+00 0.101D+00-0.112D+01 0.185D+01
 Gap=     0.143 Goal=   None    Shift=    0.000
 Gap=     0.143 Goal=   None    Shift=    0.000
 RMSDP=4.90D-04 MaxDP=8.62D-03 DE=-6.42D-04 OVMax= 2.13D-02

 Cycle  11  Pass 1  IDiag  1:
 E= -473.101955550900     Delta-E=       -0.000081665147 Rises=F Damp=F
 DIIS: error= 1.36D-04 at cycle  11 NSaved=  11.
 NSaved=11 IEnMin=11 EnMin= -473.101955550900     IErMin=11 ErrMin= 1.36D-04
 ErrMax= 1.36D-04  0.00D+00 EMaxC= 1.00D-01 BMatC= 2.25D-06 BMatP= 3.05D-05
 IDIUse=3 WtCom= 9.99D-01 WtEn= 1.36D-03
 Coeff-Com:  0.141D-03-0.375D-03 0.399D-03 0.389D-04-0.539D-03 0.752D-02
 Coeff-Com: -0.437D-01-0.434D-01 0.274D+00-0.389D+00 0.119D+01
 Coeff-En:   0.000D+00 0.000D+00 0.000D+00 0.000D+00 0.000D+00 0.000D+00
 Coeff-En:   0.000D+00 0.000D+00 0.000D+00 0.000D+00 0.100D+01
 Coeff:      0.141D-03-0.374D-03 0.399D-03 0.389D-04-0.538D-03 0.751D-02
 Coeff:     -0.437D-01-0.434D-01 0.274D+00-0.388D+00 0.119D+01
 Gap=     0.143 Goal=   None    Shift=    0.000
 Gap=     0.143 Goal=   None    Shift=    0.000
 RMSDP=1.51D-05 MaxDP=3.48D-04 DE=-8.17D-05 OVMax= 7.82D-04

 Cycle  12  Pass 1  IDiag  1:
 E= -473.101955919074     Delta-E=       -0.000000368174 Rises=F Damp=F
 DIIS: error= 6.32D-05 at cycle  12 NSaved=  12.
 NSaved=12 IEnMin=12 EnMin= -473.101955919074     IErMin=12 ErrMin= 6.32D-05
 ErrMax= 6.32D-05  0.00D+00 EMaxC= 1.00D-01 BMatC= 6.07D-07 BMatP= 2.25D-06
 IDIUse=1 WtCom= 1.00D+00 WtEn= 0.00D+00
 Coeff-Com:  0.140D-03-0.213D-03-0.162D-03 0.886D-04-0.436D-03 0.985D-03
 Coeff-Com: -0.222D-02-0.104D-01 0.309D-01-0.563D-01 0.271D+00 0.767D+00
 Coeff:      0.140D-03-0.213D-03-0.162D-03 0.886D-04-0.436D-03 0.985D-03
 Coeff:     -0.222D-02-0.104D-01 0.309D-01-0.563D-01 0.271D+00 0.767D+00
 Gap=     0.143 Goal=   None    Shift=    0.000
 Gap=     0.143 Goal=   None    Shift=    0.000
 RMSDP=1.14D-05 MaxDP=2.31D-04 DE=-3.68D-07 OVMax= 5.60D-04

 Cycle  13  Pass 1  IDiag  1:
 E= -473.101956085120     Delta-E=       -0.000000166046 Rises=F Damp=F
 DIIS: error= 1.46D-05 at cycle  13 NSaved=  13.
 NSaved=13 IEnMin=13 EnMin= -473.101956085120     IErMin=13 ErrMin= 1.46D-05
 ErrMax= 1.46D-05  0.00D+00 EMaxC= 1.00D-01 BMatC= 2.15D-08 BMatP= 6.07D-07
 IDIUse=1 WtCom= 1.00D+00 WtEn= 0.00D+00
 Coeff-Com:  0.625D-04-0.659D-04-0.392D-05 0.381D-04-0.306D-03 0.312D-03
 Coeff-Com:  0.222D-02-0.473D-03-0.697D-03-0.851D-02 0.477D-01 0.205D+00
 Coeff-Com:  0.754D+00
 Coeff:      0.625D-04-0.659D-04-0.392D-05 0.381D-04-0.306D-03 0.312D-03
 Coeff:      0.222D-02-0.473D-03-0.697D-03-0.851D-02 0.477D-01 0.205D+00
 Coeff:      0.754D+00
 Gap=     0.143 Goal=   None    Shift=    0.000
 Gap=     0.143 Goal=   None    Shift=    0.000
 RMSDP=8.33D-07 MaxDP=1.87D-05 DE=-1.66D-07 OVMax= 5.04D-05

 Cycle  14  Pass 1  IDiag  1:
 E= -473.101956090061     Delta-E=       -0.000000004941 Rises=F Damp=F
 DIIS: error= 5.97D-06 at cycle  14 NSaved=  14.
 NSaved=14 IEnMin=14 EnMin= -473.101956090061     IErMin=14 ErrMin= 5.97D-06
 ErrMax= 5.97D-06  0.00D+00 EMaxC= 1.00D-01 BMatC= 4.38D-09 BMatP= 2.15D-08
 IDIUse=1 WtCom= 1.00D+00 WtEn= 0.00D+00
 Coeff-Com:  0.198D-05-0.329D-05 0.118D-04 0.232D-05-0.211D-04 0.145D-04
 Coeff-Com:  0.267D-03 0.283D-03-0.145D-02 0.177D-02-0.340D-02-0.452D-01
 Coeff-Com: -0.109D+00 0.116D+01
 Coeff:      0.198D-05-0.329D-05 0.118D-04 0.232D-05-0.211D-04 0.145D-04
 Coeff:      0.267D-03 0.283D-03-0.145D-02 0.177D-02-0.340D-02-0.452D-01
 Coeff:     -0.109D+00 0.116D+01
 Gap=     0.143 Goal=   None    Shift=    0.000
 Gap=     0.143 Goal=   None    Shift=    0.000
 RMSDP=5.02D-07 MaxDP=1.10D-05 DE=-4.94D-09 OVMax= 2.79D-05

 Cycle  15  Pass 1  IDiag  1:
 E= -473.101956091194     Delta-E=       -0.000000001134 Rises=F Damp=F
 DIIS: error= 3.51D-07 at cycle  15 NSaved=  15.
 NSaved=15 IEnMin=15 EnMin= -473.101956091194     IErMin=15 ErrMin= 3.51D-07
 ErrMax= 3.51D-07  0.00D+00 EMaxC= 1.00D-01 BMatC= 1.92D-11 BMatP= 4.38D-09
 IDIUse=1 WtCom= 1.00D+00 WtEn= 0.00D+00
 Coeff-Com:  0.435D-06-0.722D-06-0.837D-06 0.180D-06-0.642D-06 0.104D-04
 Coeff-Com: -0.847D-04-0.693D-04 0.340D-03-0.610D-03 0.124D-02 0.293D-02
 Coeff-Com: -0.140D-01-0.277D-01 0.104D+01
 Coeff:      0.435D-06-0.722D-06-0.837D-06 0.180D-06-0.642D-06 0.104D-04
 Coeff:     -0.847D-04-0.693D-04 0.340D-03-0.610D-03 0.124D-02 0.293D-02
 Coeff:     -0.140D-01-0.277D-01 0.104D+01
 Gap=     0.143 Goal=   None    Shift=    0.000
 Gap=     0.143 Goal=   None    Shift=    0.000
 RMSDP=1.01D-07 MaxDP=1.87D-06 DE=-1.13D-09 OVMax= 4.75D-06

 Cycle  16  Pass 1  IDiag  1:
 E= -473.101956091202     Delta-E=       -0.000000000007 Rises=F Damp=F
 DIIS: error= 6.16D-08 at cycle  16 NSaved=  16.
 NSaved=16 IEnMin=16 EnMin= -473.101956091202     IErMin=16 ErrMin= 6.16D-08
 ErrMax= 6.16D-08  0.00D+00 EMaxC= 1.00D-01 BMatC= 3.74D-13 BMatP= 1.92D-11
 IDIUse=1 WtCom= 1.00D+00 WtEn= 0.00D+00
 Coeff-Com: -0.928D-07 0.207D-06 0.131D-06-0.538D-07 0.383D-06-0.237D-06
 Coeff-Com: -0.229D-05 0.161D-04-0.337D-04 0.312D-04-0.901D-04 0.118D-02
 Coeff-Com:  0.940D-03-0.319D-01 0.992D-01 0.931D+00
 Coeff:     -0.928D-07 0.207D-06 0.131D-06-0.538D-07 0.383D-06-0.237D-06
 Coeff:     -0.229D-05 0.161D-04-0.337D-04 0.312D-04-0.901D-04 0.118D-02
 Coeff:      0.940D-03-0.319D-01 0.992D-01 0.931D+00
 Gap=     0.143 Goal=   None    Shift=    0.000
 Gap=     0.143 Goal=   None    Shift=    0.000
 RMSDP=5.24D-09 MaxDP=1.11D-07 DE=-7.28D-12 OVMax= 3.18D-07

 SCF Done:  E(UM062X) =  -473.101956091     A.U. after   16 cycles
            NFock= 16  Conv=0.52D-08     -V/T= 2.0025
 <Sx>= 0.0000 <Sy>= 0.0000 <Sz>= 0.0000 <S**2>=-0.0000 S=-0.0000
 <L.S>=  0.00000000000    
 KE= 4.719316946393D+02 PE=-1.183028691382D+03 EE= 2.084183329813D+02
 Annihilation of the first spin contaminant:
 S**2 before annihilation    -0.0000,   after    -0.0000
 Leave Link  502 at Mon Apr 21 19:59:43 2025, MaxMem=   536870912 cpu:              13.0 elap:               1.8
 (Enter /home/szhao/Apps/g16/l601.exe)
 Copying SCF densities to generalized density rwf, IOpCl= 1 IROHF=0.

 **********************************************************************

            Population analysis using the SCF density.

 **********************************************************************

 Orbital symmetries:
 Alpha Orbitals:
       Occupied  (SG) (SG) (SG) (PI) (SG) (PI) (SG) (SG) (SG) (?A)
                 (?A) (?A)
       Virtual   (?A) (SG) (SG) (PI) (PI) (SG) (SG) (PI) (PI) (SG)
                 (PI) (SG) (PI) (SG) (PI) (?B) (?B) (PI) (?B) (PI)
                 (PI) (SG) (SG) (PI) (PI) (SG) (PI) (?C) (?C) (PI)
                 (?C) (PI) (PI) (SG) (SG) (PI) (PI) (SG) (SG) (SG)
 Beta  Orbitals:
       Occupied  (SG) (SG) (SG) (PI) (SG) (PI) (SG) (SG) (SG) (?A)
                 (?A) (?A)
       Virtual   (?A) (SG) (SG) (PI) (PI) (SG) (SG) (PI) (PI) (SG)
                 (PI) (SG) (PI) (SG) (PI) (?B) (?B) (PI) (?B) (PI)
                 (PI) (SG) (SG) (PI) (PI) (SG) (PI) (?C) (?C) (PI)
                 (?C) (PI) (PI) (SG) (SG) (PI) (PI) (SG) (SG) (SG)
 Unable to determine electronic state:  an orbital has unidentified symmetry.
 Alpha  occ. eigenvalues --  -90.03452 -19.75425  -8.38933  -6.31002  -6.30951
 Alpha  occ. eigenvalues --   -6.30062  -1.05206  -0.80805  -0.43494  -0.43433
 Alpha  occ. eigenvalues --   -0.38341  -0.36618
 Alpha virt. eigenvalues --   -0.22359  -0.14947   0.02602   0.04688   0.05241
 Alpha virt. eigenvalues --    0.05660   0.18285   0.20200   0.20490   0.26902
 Alpha virt. eigenvalues --    0.32848   0.33714   0.33787   0.59216   0.74431
 Alpha virt. eigenvalues --    0.74725   0.75981   0.76811   0.76979   1.07205
 Alpha virt. eigenvalues --    1.08101   1.15863   1.41088   1.61676   1.61998
 Alpha virt. eigenvalues --    1.68406   2.82684   2.84382   2.85554   2.85851
 Alpha virt. eigenvalues --    2.91508   4.96749   5.00302   5.03157   7.68256
 Alpha virt. eigenvalues --   17.35555  17.35572  17.39939  49.75706 188.92420
  Beta  occ. eigenvalues --  -90.03452 -19.75425  -8.38933  -6.31002  -6.30951
  Beta  occ. eigenvalues --   -6.30062  -1.05206  -0.80805  -0.43494  -0.43433
  Beta  occ. eigenvalues --   -0.38341  -0.36618
  Beta virt. eigenvalues --   -0.22359  -0.14947   0.02602   0.04688   0.05241
  Beta virt. eigenvalues --    0.05660   0.18285   0.20200   0.20490   0.26902
  Beta virt. eigenvalues --    0.32848   0.33714   0.33787   0.59216   0.74431
  Beta virt. eigenvalues --    0.74725   0.75981   0.76811   0.76979   1.07205
  Beta virt. eigenvalues --    1.08101   1.15863   1.41088   1.61676   1.61998
  Beta virt. eigenvalues --    1.68406   2.82684   2.84382   2.85554   2.85851
  Beta virt. eigenvalues --    2.91508   4.96749   5.00302   5.03157   7.68256
  Beta virt. eigenvalues --   17.35555  17.35572  17.39939  49.75706 188.92420
          Condensed to atoms (all electrons):
               1          2
     1  O    8.055558   0.179555
     2  S    0.179555  15.585331
          Atomic-Atomic Spin Densities.
               1          2
     1  O    0.000000   0.000000
     2  S    0.000000   0.000000
 Mulliken charges and spin densities:
               1          2
     1  O   -0.235113   0.000000
     2  S    0.235113   0.000000
 Sum of Mulliken charges =  -0.00000   0.00000
 Mulliken charges and spin densities with hydrogens summed into heavy atoms:
               1          2
     1  O   -0.235113   0.000000
     2  S    0.235113   0.000000
 Electronic spatial extent (au):  <R**2>=            141.5945
 Charge=             -0.0000 electrons
 Dipole moment (field-independent basis, Debye):
    X=              0.0000    Y=              0.0000    Z=              2.6117  Tot=              2.6117
 Quadrupole moment (field-independent basis, Debye-Ang):
   XX=            -17.1045   YY=            -20.5820   ZZ=            -18.4084
   XY=              0.0000   XZ=              0.0000   YZ=              0.0000
 Traceless Quadrupole moment (field-independent basis, Debye-Ang):
   XX=              1.5938   YY=             -1.8838   ZZ=              0.2899
   XY=              0.0000   XZ=              0.0000   YZ=              0.0000
 Octapole moment (field-independent basis, Debye-Ang**2):
  XXX=              0.0000  YYY=              0.0000  ZZZ=              3.3007  XYY=              0.0000
  XXY=              0.0000  XXZ=             -0.0238  XZZ=              0.0000  YZZ=              0.0000
  YYZ=             -1.1969  XYZ=              0.0000
 Hexadecapole moment (field-independent basis, Debye-Ang**3):
 XXXX=            -19.7028 YYYY=            -26.3884 ZZZZ=           -136.7079 XXXY=              0.0000
 XXXZ=              0.0000 YYYX=              0.0000 YYYZ=              0.0000 ZZZX=              0.0000
 ZZZY=              0.0000 XXYY=             -7.6818 XXZZ=            -25.4836 YYZZ=            -30.6350
 XXYZ=              0.0000 YYXZ=              0.0000 ZZXY=              0.0000
 N-N= 2.957670767053D+01 E-N=-1.183028691585D+03  KE= 4.719316946393D+02
 Symmetry A1   KE= 3.883344881394D+02
 Symmetry A2   KE= 2.976186414916D-35
 Symmetry B1   KE= 3.928668429972D+01
 Symmetry B2   KE= 4.431052220020D+01
 Symmetry A1   SP= 3.071458310346D-15
 Symmetry A2   SP= 1.981159326165D-48
 Symmetry B1   SP=-9.966962536761D-16
 Symmetry B2   SP= 5.251427216513D-15
                          Isotropic Fermi Contact Couplings
        Atom                 a.u.       MegaHertz       Gauss      10(-4) cm-1
     1  O(17)             -0.00000       0.00000       0.00000       0.00000
     2  S(33)              0.00000       0.00000       0.00000       0.00000
 --------------------------------------------------------
       Center         ----  Spin Dipole Couplings  ----
                      3XX-RR        3YY-RR        3ZZ-RR
 --------------------------------------------------------
     1   Atom        0.000000      0.000000      0.000000
     2   Atom        0.000000      0.000000      0.000000
 --------------------------------------------------------
                        XY            XZ            YZ
 --------------------------------------------------------
     1   Atom        0.000000      0.000000      0.000000
     2   Atom        0.000000      0.000000      0.000000
 --------------------------------------------------------


 ---------------------------------------------------------------------------------
              Anisotropic Spin Dipole Couplings in Principal Axis System
 ---------------------------------------------------------------------------------

       Atom             a.u.   MegaHertz   Gauss  10(-4) cm-1        Axes

              Baa     0.0000    -0.000    -0.000    -0.000  1.0000  0.0000  0.0000
     1 O(17)  Bbb     0.0000    -0.000    -0.000    -0.000 -0.0000  1.0000  0.0000
              Bcc     0.0000    -0.000    -0.000    -0.000  0.0000  0.0000  1.0000
 
              Baa     0.0000     0.000     0.000     0.000  1.0000  0.0000  0.0000
     2 S(33)  Bbb     0.0000     0.000     0.000     0.000 -0.0000  1.0000  0.0000
              Bcc     0.0000     0.000     0.000     0.000  0.0000  0.0000  1.0000
 

 ---------------------------------------------------------------------------------

 No NMR shielding tensors so no spin-rotation constants.
 Leave Link  601 at Mon Apr 21 19:59:44 2025, MaxMem=   536870912 cpu:               1.9 elap:               0.3
 (Enter /home/szhao/Apps/g16/l607.exe)
 ******************************Gaussian NBO Version 3.1******************************
             N A T U R A L   A T O M I C   O R B I T A L   A N D
          N A T U R A L   B O N D   O R B I T A L   A N A L Y S I S
 ******************************Gaussian NBO Version 3.1******************************
       /RESON  / : Allow strongly delocalized NBO set

 Analyzing the SCF density

 Job title: Title Card Required                                             

 Storage needed:      8530 in NPA,     11006 in NBO ( 536870884 available)
 GSVD:  LWork=         400 too small for GESVD, short by        3920 words or        3920 for optimal perf.


 NATURAL POPULATIONS:  Natural atomic orbital occupancies 
                                                          
   NAO  Atom  No  lang   Type(AO)    Occupancy
 --------------------------------------------
     1    O    1  S      Cor( 1S)     2.00000
     2    O    1  S      Val( 2S)     1.98438
     3    O    1  S      Ryd( 3S)     0.00045
     4    O    1  S      Ryd( 4S)     0.00003
     5    O    1  S      Ryd( 5S)     0.00000
     6    O    1  px     Val( 2p)     1.13268
     7    O    1  px     Ryd( 3p)     0.00067
     8    O    1  px     Ryd( 4p)     0.00001
     9    O    1  px     Ryd( 5p)     0.00000
    10    O    1  py     Val( 2p)     1.99886
    11    O    1  py     Ryd( 3p)     0.00058
    12    O    1  py     Ryd( 4p)     0.00017
    13    O    1  py     Ryd( 5p)     0.00001
    14    O    1  pz     Val( 2p)     1.21764
    15    O    1  pz     Ryd( 4p)     0.00004
    16    O    1  pz     Ryd( 3p)     0.00049
    17    O    1  pz     Ryd( 5p)     0.00000
    18    O    1  dxy    Ryd( 3d)     0.00000
    19    O    1  dxz    Ryd( 3d)     0.00011
    20    O    1  dyz    Ryd( 3d)     0.00006
    21    O    1  dx2y2  Ryd( 3d)     0.00006
    22    O    1  dz2    Ryd( 3d)     0.00027
 
    23    S    2  S      Cor( 1S)     2.00000
    24    S    2  S      Cor( 2S)     1.99999
    25    S    2  S      Val( 3S)     1.96813
    26    S    2  S      Ryd( 4S)     0.00040
    27    S    2  S      Ryd( 5S)     0.00000
    28    S    2  S      Ryd( 6S)     0.00000
    29    S    2  S      Ryd( 7S)     0.00000
    30    S    2  px     Cor( 2p)     1.99999
    31    S    2  px     Val( 3p)     0.86573
    32    S    2  px     Ryd( 4p)     0.00007
    33    S    2  px     Ryd( 5p)     0.00003
    34    S    2  px     Ryd( 6p)     0.00001
    35    S    2  px     Ryd( 7p)     0.00000
    36    S    2  py     Cor( 2p)     2.00000
    37    S    2  py     Val( 3p)     1.99929
    38    S    2  py     Ryd( 4p)     0.00054
    39    S    2  py     Ryd( 5p)     0.00006
    40    S    2  py     Ryd( 6p)     0.00002
    41    S    2  py     Ryd( 7p)     0.00000
    42    S    2  pz     Cor( 2p)     1.99999
    43    S    2  pz     Val( 3p)     0.82503
    44    S    2  pz     Ryd( 4p)     0.00122
    45    S    2  pz     Ryd( 6p)     0.00001
    46    S    2  pz     Ryd( 5p)     0.00001
    47    S    2  pz     Ryd( 7p)     0.00000
    48    S    2  dxy    Ryd( 3d)     0.00000
    49    S    2  dxz    Ryd( 3d)     0.00070
    50    S    2  dyz    Ryd( 3d)     0.00042
    51    S    2  dx2y2  Ryd( 3d)     0.00031
    52    S    2  dz2    Ryd( 3d)     0.00155


 Summary of Natural Population Analysis:                  
                                                          
                                       Natural Population 
                Natural  -----------------------------------------------
    Atom  No    Charge         Core      Valence    Rydberg      Total
 -----------------------------------------------------------------------
      O    1   -0.33652      2.00000     6.33357    0.00295     8.33652
      S    2    0.33652      9.99997     5.65817    0.00534    15.66348
 =======================================================================
   * Total *   -0.00000     11.99997    11.99174    0.00829    24.00000

                                 Natural Population      
 --------------------------------------------------------
   Core                      11.99997 ( 99.9997% of  12)
   Valence                   11.99174 ( 99.9312% of  12)
   Natural Minimal Basis     23.99171 ( 99.9655% of  24)
   Natural Rydberg Basis      0.00829 (  0.0345% of  24)
 --------------------------------------------------------

    Atom  No          Natural Electron Configuration
 ----------------------------------------------------------------------------
      O    1      [core]2S( 1.98)2p( 4.35)
      S    2      [core]3S( 1.97)3p( 3.69)


 ***************************************************
 *******         Alpha spin orbitals         *******
 ***************************************************


 NATURAL POPULATIONS:  Natural atomic orbital occupancies 
                                                          
   NAO  Atom  No  lang   Type(AO)    Occupancy      Energy
 ----------------------------------------------------------
     1    O    1  S      Cor( 1S)     1.00000     -19.67539
     2    O    1  S      Val( 2S)     0.99219      -1.11129
     3    O    1  S      Ryd( 3S)     0.00022       0.40608
     4    O    1  S      Ryd( 4S)     0.00001       1.28831
     5    O    1  S      Ryd( 5S)     0.00000      49.64580
     6    O    1  px     Val( 2p)     0.56634      -0.31250
     7    O    1  px     Ryd( 3p)     0.00033       0.34494
     8    O    1  px     Ryd( 4p)     0.00000       0.97637
     9    O    1  px     Ryd( 5p)     0.00000       4.89675
    10    O    1  py     Val( 2p)     0.99943      -0.42655
    11    O    1  py     Ryd( 3p)     0.00029       0.34434
    12    O    1  py     Ryd( 4p)     0.00009       0.98361
    13    O    1  py     Ryd( 5p)     0.00000       4.93712
    14    O    1  pz     Val( 2p)     0.60882      -0.33127
    15    O    1  pz     Ryd( 3p)     0.00002       0.36184
    16    O    1  pz     Ryd( 4p)     0.00025       1.00060
    17    O    1  pz     Ryd( 5p)     0.00000       4.96840
    18    O    1  dxy    Ryd( 3d)     0.00000       2.85553
    19    O    1  dxz    Ryd( 3d)     0.00006       2.82604
    20    O    1  dyz    Ryd( 3d)     0.00003       2.85783
    21    O    1  dx2y2  Ryd( 3d)     0.00003       2.84699
    22    O    1  dz2    Ryd( 3d)     0.00014       2.87063
 
    23    S    2  S      Cor( 1S)     1.00000     -89.09304
    24    S    2  S      Cor( 2S)     0.99999      -9.28122
    25    S    2  S      Val( 3S)     0.98406      -0.84550
    26    S    2  S      Ryd( 4S)     0.00020       0.15011
    27    S    2  S      Ryd( 6S)     0.00000       9.84747
    28    S    2  S      Ryd( 5S)     0.00000       1.60882
    29    S    2  S      Ryd( 7S)     0.00000     185.72012
    30    S    2  px     Cor( 2p)     1.00000      -6.30994
    31    S    2  px     Val( 3p)     0.43286      -0.29206
    32    S    2  px     Ryd( 4p)     0.00003       0.24457
    33    S    2  px     Ryd( 6p)     0.00002       1.12822
    34    S    2  px     Ryd( 5p)     0.00000       0.66722
    35    S    2  px     Ryd( 7p)     0.00000      17.32625
    36    S    2  py     Cor( 2p)     1.00000      -6.30058
    37    S    2  py     Val( 3p)     0.99965      -0.37301
    38    S    2  py     Ryd( 4p)     0.00027       0.25668
    39    S    2  py     Ryd( 6p)     0.00003       1.13181
    40    S    2  py     Ryd( 5p)     0.00001       0.67056
    41    S    2  py     Ryd( 7p)     0.00000      17.32635
    42    S    2  pz     Cor( 2p)     1.00000      -6.30929
    43    S    2  pz     Val( 3p)     0.41251      -0.27442
    44    S    2  pz     Ryd( 4p)     0.00061       0.27197
    45    S    2  pz     Ryd( 6p)     0.00000       1.16868
    46    S    2  pz     Ryd( 5p)     0.00000       0.67424
    47    S    2  pz     Ryd( 7p)     0.00000      17.36330
    48    S    2  dxy    Ryd( 3d)     0.00000       0.75981
    49    S    2  dxz    Ryd( 3d)     0.00035       0.74749
    50    S    2  dyz    Ryd( 3d)     0.00021       0.77224
    51    S    2  dx2y2  Ryd( 3d)     0.00016       0.75526
    52    S    2  dz2    Ryd( 3d)     0.00077       0.82875

 WARNING:  Population inversion found on atom  O    1
           Population inversion found on atom  S    2


 Summary of Natural Population Analysis:                  
                                                          
                                       Natural Population 
                Natural  -----------------------------------------------
    Atom  No    Charge         Core      Valence    Rydberg      Total
 -----------------------------------------------------------------------
      O    1   -0.16826      1.00000     3.16678    0.00148     4.16826
      S    2    0.16826      4.99999     2.82909    0.00267     7.83174
 =======================================================================
   * Total *   -0.00000      5.99998     5.99587    0.00415    12.00000

                                 Natural Population      
 --------------------------------------------------------
   Core                       5.99998 ( 99.9997% of   6)
   Valence                    5.99587 ( 99.9312% of   6)
   Natural Minimal Basis     11.99585 ( 99.9655% of  12)
   Natural Rydberg Basis      0.00415 (  0.0345% of  12)
 --------------------------------------------------------

    Atom  No          Natural Electron Configuration
 ----------------------------------------------------------------------------
      O    1      [core]2S( 0.99)2p( 2.17)
      S    2      [core]3S( 0.98)3p( 1.85)


 NATURAL BOND ORBITAL ANALYSIS, alpha spin orbitals:

                       Occupancies       Lewis Structure    Low   High
           Occ.    -------------------  -----------------   occ   occ
  Cycle   Thresh.   Lewis   Non-Lewis     CR  BD  3C  LP    (L)   (NL)   Dev
 =============================================================================
   1(1)    0.90    11.99938   0.00062      6   2   0   4     0      0    0.00
 -----------------------------------------------------------------------------

 Structure accepted: No low occupancy Lewis orbitals

 --------------------------------------------------------
   Core                      5.99998 (100.000% of   6)
   Valence Lewis             5.99940 ( 99.990% of   6)
  ==================       ============================
   Total Lewis              11.99938 ( 99.995% of  12)
  -----------------------------------------------------
   Valence non-Lewis         0.00000 (  0.000% of  12)
   Rydberg non-Lewis         0.00061 (  0.005% of  12)
  ==================       ============================
   Total non-Lewis           0.00062 (  0.005% of  12)
 --------------------------------------------------------


       (Occupancy)   Bond orbital/ Coefficients/ Hybrids
 ---------------------------------------------------------------------------------
     1. (1.00000) BD ( 1) O   1 - S   2  
                ( 56.67%)   0.7528* O   1 s(  0.00%)p 1.00( 99.99%)d 0.00(  0.01%)
                                            0.0000  0.0000  0.0000  0.0000  0.0000
                                            0.9997  0.0242 -0.0027 -0.0013  0.0000
                                            0.0000  0.0000  0.0000  0.0000  0.0000
                                            0.0000  0.0000  0.0000  0.0100  0.0000
                                            0.0000  0.0000
                ( 43.33%)   0.6582* S   2 s(  0.00%)p 1.00( 99.92%)d 0.00(  0.08%)
                                            0.0000  0.0000  0.0000  0.0000  0.0000
                                            0.0000  0.0000  0.0000  0.9995  0.0087
                                           -0.0061  0.0028  0.0001  0.0000  0.0000
                                            0.0000  0.0000  0.0000  0.0000  0.0000
                                            0.0000  0.0000  0.0000  0.0000  0.0000
                                            0.0000 -0.0285  0.0000  0.0000  0.0000
     2. (1.00000) BD ( 2) O   1 - S   2  
                ( 60.17%)   0.7757* O   1 s(  1.96%)p49.94( 98.02%)d 0.01(  0.02%)
                                           -0.0000  0.1388 -0.0189 -0.0008 -0.0000
                                            0.0000  0.0000  0.0000  0.0000  0.0000
                                            0.0000  0.0000  0.0000  0.9898 -0.0047
                                            0.0192  0.0006  0.0000  0.0000  0.0000
                                            0.0012  0.0147
                ( 39.83%)   0.6311* S   2 s(  2.65%)p36.65( 97.16%)d 0.07(  0.19%)
                                            0.0000  0.0000  0.1614 -0.0213  0.0002
                                            0.0001  0.0000  0.0000  0.0000  0.0000
                                            0.0000  0.0000  0.0000  0.0000  0.0000
                                            0.0000  0.0000  0.0000  0.0000 -0.0000
                                           -0.9849  0.0385  0.0020  0.0017  0.0001
                                            0.0000  0.0000  0.0000  0.0020  0.0439
     3. (1.00000) CR ( 1) O   1           s(100.00%)
                                            1.0000 -0.0000 -0.0000 -0.0000 -0.0000
                                            0.0000  0.0000  0.0000  0.0000  0.0000
                                            0.0000  0.0000  0.0000  0.0000 -0.0000
                                           -0.0000  0.0000  0.0000  0.0000  0.0000
                                           -0.0000 -0.0000
     4. (1.00000) CR ( 1) S   2           s(100.00%)
                                            1.0000  0.0000  0.0000  0.0000 -0.0000
                                           -0.0000 -0.0000  0.0000  0.0000  0.0000
                                            0.0000  0.0000  0.0000  0.0000  0.0000
                                            0.0000  0.0000  0.0000  0.0000  0.0000
                                            0.0000 -0.0000 -0.0000  0.0000 -0.0000
                                            0.0000  0.0000  0.0000  0.0000  0.0000
     5. (0.99999) CR ( 2) S   2           s(100.00%)
                                            0.0000  1.0000 -0.0000 -0.0000  0.0000
                                            0.0000  0.0000  0.0000  0.0000  0.0000
                                            0.0000  0.0000  0.0000  0.0000  0.0000
                                            0.0000  0.0000  0.0000  0.0000 -0.0000
                                           -0.0000  0.0000  0.0000 -0.0000  0.0000
                                            0.0000  0.0000  0.0000 -0.0000 -0.0000
     6. (1.00000) CR ( 3) S   2           s(  0.00%)p 1.00(100.00%)
                                            0.0000  0.0000  0.0000  0.0000  0.0000
                                            0.0000  0.0000  1.0000  0.0000  0.0000
                                            0.0000  0.0000  0.0000  0.0000  0.0000
                                            0.0000  0.0000  0.0000  0.0000  0.0000
                                            0.0000  0.0000  0.0000  0.0000  0.0000
                                            0.0000  0.0000  0.0000  0.0000  0.0000
     7. (1.00000) CR ( 4) S   2           s(  0.00%)p 1.00(100.00%)
                                            0.0000  0.0000  0.0000  0.0000  0.0000
                                            0.0000  0.0000  0.0000  0.0000  0.0000
                                            0.0000  0.0000  0.0000  1.0000 -0.0000
                                           -0.0000 -0.0000  0.0000 -0.0000  0.0000
                                            0.0000  0.0000  0.0000  0.0000  0.0000
                                            0.0000  0.0000 -0.0000  0.0000  0.0000
     8. (1.00000) CR ( 5) S   2           s(  0.00%)p 1.00(100.00%)
                                            0.0000 -0.0000 -0.0000 -0.0000  0.0000
                                            0.0000  0.0000  0.0000  0.0000  0.0000
                                            0.0000  0.0000  0.0000  0.0000  0.0000
                                            0.0000  0.0000  0.0000  0.0000  1.0000
                                           -0.0000  0.0000  0.0000 -0.0000  0.0000
                                            0.0000  0.0000  0.0000 -0.0000 -0.0000
     9. (0.99996) LP ( 1) O   1           s( 98.06%)p 0.02(  1.93%)d 0.00(  0.00%)
                                            0.0000  0.9903  0.0016  0.0001  0.0000
                                            0.0000  0.0000  0.0000  0.0000  0.0000
                                            0.0000  0.0000  0.0000 -0.1390  0.0006
                                            0.0043 -0.0001  0.0000  0.0000  0.0000
                                            0.0055  0.0020
    10. (0.99965) LP ( 2) O   1           s(  0.00%)p 1.00(100.00%)d 0.00(  0.00%)
                                            0.0000  0.0000  0.0000  0.0000  0.0000
                                            0.0000  0.0000  0.0000  0.0000  0.9999
                                           -0.0108 -0.0093  0.0004  0.0000  0.0000
                                            0.0000  0.0000  0.0000  0.0000  0.0044
                                            0.0000  0.0000
    11. (0.99997) LP ( 1) S   2           s( 97.37%)p 0.03(  2.61%)d 0.00(  0.02%)
                                           -0.0000  0.0000  0.9868  0.0014 -0.0000
                                           -0.0000 -0.0000  0.0000  0.0000  0.0000
                                            0.0000  0.0000  0.0000  0.0000  0.0000
                                            0.0000  0.0000  0.0000  0.0000  0.0000
                                            0.1616 -0.0031 -0.0001  0.0006 -0.0000
                                            0.0000  0.0000  0.0000  0.0124  0.0004
    12. (0.99981) LP ( 2) S   2           s(  0.00%)p 1.00(100.00%)d 0.00(  0.00%)
                                            0.0000  0.0000  0.0000  0.0000  0.0000
                                            0.0000  0.0000  0.0000  0.0000  0.0000
                                            0.0000  0.0000  0.0000  0.0000  0.9999
                                            0.0118  0.0034 -0.0007  0.0000  0.0000
                                            0.0000  0.0000  0.0000  0.0000  0.0000
                                            0.0000  0.0000  0.0040  0.0000  0.0000
    13. (0.00019) RY*( 1) O   1           s(  0.00%)p 1.00( 95.30%)d 0.05(  4.70%)
                                            0.0000  0.0000  0.0000  0.0000  0.0000
                                            0.0000  0.0000  0.0000  0.0000  0.0109
                                            0.9658 -0.0535  0.1312  0.0000  0.0000
                                            0.0000  0.0000  0.0000  0.0000 -0.2169
                                            0.0000  0.0000
    14. (0.00003) RY*( 2) O   1           s( 66.90%)p 0.36( 24.24%)d 0.13(  8.86%)
    15. (0.00000) RY*( 3) O   1           s(100.00%)
    16. (0.00000) RY*( 4) O   1           s(  0.00%)p 1.00(100.00%)d 0.00(  0.00%)
    17. (0.00000) RY*( 5) O   1           s(  0.00%)p 1.00(100.00%)
    18. (0.00000) RY*( 6) O   1           s(  0.00%)p 1.00(100.00%)
    19. (0.00000) RY*( 7) O   1           s( 92.90%)p 0.03(  2.88%)d 0.05(  4.23%)
    20. (0.00000) RY*( 8) O   1           s(  0.00%)p 1.00(100.00%)
    21. (0.00000) RY*( 9) O   1           s(  0.00%)p 1.00(100.00%)
    22. (0.00001) RY*(10) O   1           s(  0.14%)p99.99( 99.84%)d 0.14(  0.02%)
    23. (0.00000) RY*(11) O   1           s( 14.65%)p 5.70( 83.41%)d 0.13(  1.94%)
    24. (0.00000) RY*(12) O   1           s( 12.17%)p 7.21( 87.83%)d 0.00(  0.00%)
    25. (0.00000) RY*(13) O   1           s(  0.00%)p 0.00(  0.00%)d 1.00(100.00%)
    26. (0.00000) RY*(14) O   1           s(  0.00%)p 1.00(  0.01%)d99.99( 99.99%)
    27. (0.00000) RY*(15) O   1           s(  0.00%)p 1.00(  4.70%)d20.25( 95.30%)
    28. (0.00000) RY*(16) O   1           s(  0.08%)p 0.35(  0.03%)d99.99( 99.90%)
    29. (0.00000) RY*(17) O   1           s( 13.14%)p 0.14(  1.82%)d 6.47( 85.03%)
    30. (0.00035) RY*( 1) S   2           s(  0.00%)p 1.00( 44.01%)d 1.27( 55.99%)
                                            0.0000  0.0000  0.0000  0.0000  0.0000
                                            0.0000  0.0000  0.0000  0.0000  0.0000
                                            0.0000  0.0000  0.0000 -0.0000 -0.0096
                                            0.6124 -0.2080 -0.1474 -0.0053  0.0000
                                            0.0000  0.0000  0.0000  0.0000  0.0000
                                            0.0000  0.0000  0.7483  0.0000  0.0000
    31. (0.00004) RY*( 2) S   2           s( 43.49%)p 0.84( 36.38%)d 0.46( 20.13%)
    32. (0.00000) RY*( 3) S   2           s( 99.95%)p 0.00(  0.03%)d 0.00(  0.02%)
    33. (0.00000) RY*( 4) S   2           s(100.00%)p 0.00(  0.00%)d 0.00(  0.00%)
    34. (0.00000) RY*( 5) S   2           s(  0.00%)p 1.00(100.00%)d 0.00(  0.00%)
    35. (0.00000) RY*( 6) S   2           s(  0.00%)p 1.00(100.00%)d 0.00(  0.00%)
    36. (0.00000) RY*( 7) S   2           s(  0.00%)p 1.00(100.00%)
    37. (0.00000) RY*( 8) S   2           s(  0.00%)p 1.00(100.00%)
    38. (0.00000) RY*( 9) S   2           s(  0.00%)p 1.00( 55.99%)d 0.79( 44.01%)
    39. (0.00000) RY*(10) S   2           s(  0.00%)p 1.00(100.00%)d 0.00(  0.00%)
    40. (0.00000) RY*(11) S   2           s(  0.00%)p 1.00(100.00%)d 0.00(  0.00%)
    41. (0.00000) RY*(12) S   2           s(  0.00%)p 1.00(100.00%)d 0.00(  0.00%)
    42. (0.00000) RY*(13) S   2           s( 38.53%)p 1.60( 61.47%)d 0.00(  0.00%)
    43. (0.00000) RY*(14) S   2           s(  1.10%)p89.79( 98.40%)d 0.46(  0.51%)
    44. (0.00000) RY*(15) S   2           s(  3.23%)p29.46( 95.27%)d 0.46(  1.49%)
    45. (0.00000) RY*(16) S   2           s(  0.24%)p99.99( 99.64%)d 0.46(  0.11%)
    46. (0.00000) RY*(17) S   2           s(  0.00%)p 0.00(  0.00%)d 1.00(100.00%)
    47. (0.00000) RY*(18) S   2           s(  0.00%)p 1.00(  0.08%)d99.99( 99.92%)
    48. (0.00000) RY*(19) S   2           s( 99.82%)p 0.00(  0.11%)d 0.00(  0.08%)
    49. (0.00000) RY*(20) S   2           s(  0.06%)p 0.61(  0.03%)d99.99( 99.91%)
    50. (0.00000) RY*(21) S   2           s( 13.56%)p 0.66(  8.90%)d 5.72( 77.54%)
    51. (0.00000) BD*( 1) O   1 - S   2  
                ( 43.33%)   0.6582* O   1 s(  0.00%)p 1.00( 99.99%)d 0.00(  0.01%)
                ( 56.67%)  -0.7528* S   2 s(  0.00%)p 1.00( 99.92%)d 0.00(  0.08%)
    52. (0.00000) BD*( 2) O   1 - S   2  
                ( 39.83%)   0.6311* O   1 s(  1.96%)p49.94( 98.02%)d 0.01(  0.02%)
                ( 60.17%)  -0.7757* S   2 s(  2.65%)p36.65( 97.16%)d 0.07(  0.19%)


 NHO Directionality and "Bond Bending" (deviations from line of nuclear centers)

         [Thresholds for printing:  angular deviation  >  1.0 degree]
                                    hybrid p-character > 25.0%
                                    orbital occupancy  >  0.10e

                                Line of Centers        Hybrid 1              Hybrid 2
                                ---------------  -------------------   ------------------
                NBO               Theta   Phi    Theta   Phi    Dev    Theta   Phi    Dev
 ========================================================================================
     1. BD (   1) O   1 - S   2     0.0    0.0    90.0    0.0  90.0     90.0    0.0  90.0
    10. LP (   2) O   1             --     --     90.0   90.0   --       --     --    --
    12. LP (   2) S   2             --     --     90.0   90.0   --       --     --    --


 Second Order Perturbation Theory Analysis of Fock Matrix in NBO Basis

     Threshold for printing:   0.25 kcal/mol
                                                                              E(2)  E(j)-E(i) F(i,j)
         Donor NBO (i)                     Acceptor NBO (j)                 kcal/mol   a.u.    a.u. 
 ===================================================================================================

 within unit  1
       None above threshold


 Natural Bond Orbitals (Summary):

                                                            Principal Delocalizations
           NBO                        Occupancy    Energy   (geminal,vicinal,remote)
 ====================================================================================
 Molecular unit  1  (OS)
     1. BD (   1) O   1 - S   2          1.00000    -0.38347   
     2. BD (   2) O   1 - S   2          1.00000    -0.48611   
     3. CR (   1) O   1                  1.00000   -19.67539   
     4. CR (   1) S   2                  1.00000   -89.09304   
     5. CR (   2) S   2                  0.99999    -9.28122   
     6. CR (   3) S   2                  1.00000    -6.30994   
     7. CR (   4) S   2                  1.00000    -6.30058   
     8. CR (   5) S   2                  1.00000    -6.30929   
     9. LP (   1) O   1                  0.99996    -1.09634   
    10. LP (   2) O   1                  0.99965    -0.42692   
    11. LP (   1) S   2                  0.99997    -0.84105   
    12. LP (   2) S   2                  0.99981    -0.37314   
    13. RY*(   1) O   1                  0.00019     0.39386   
    14. RY*(   2) O   1                  0.00003     1.18054   
    15. RY*(   3) O   1                  0.00000    49.64564   
    16. RY*(   4) O   1                  0.00000     0.34562   
    17. RY*(   5) O   1                  0.00000     0.97633   
    18. RY*(   6) O   1                  0.00000     4.89679   
    19. RY*(   7) O   1                  0.00000     1.10921   
    20. RY*(   8) O   1                  0.00000     1.01628   
    21. RY*(   9) O   1                  0.00000     4.97358   
    22. RY*(  10) O   1                  0.00001     0.36343   
    23. RY*(  11) O   1                  0.00000     0.96972   
    24. RY*(  12) O   1                  0.00000     4.56753   
    25. RY*(  13) O   1                  0.00000     2.85553   
    26. RY*(  14) O   1                  0.00000     2.82610   
    27. RY*(  15) O   1                  0.00000     2.73954   
    28. RY*(  16) O   1                  0.00000     2.84538   
    29. RY*(  17) O   1                  0.00000     2.70770   
    30. RY*(   1) S   2                  0.00035     0.55709   
    31. RY*(   2) S   2                  0.00004     0.48436   
    32. RY*(   3) S   2                  0.00000     1.60736   
    33. RY*(   4) S   2                  0.00000   185.71982   
    34. RY*(   5) S   2                  0.00000     0.24479   
    35. RY*(   6) S   2                  0.00000     1.12829   
    36. RY*(   7) S   2                  0.00000     0.66724   
    37. RY*(   8) S   2                  0.00000    17.32625   
    38. RY*(   9) S   2                  0.00000     0.52857   
    39. RY*(  10) S   2                  0.00000     1.08344   
    40. RY*(  11) S   2                  0.00000     0.66252   
    41. RY*(  12) S   2                  0.00000    17.32615   
    42. RY*(  13) S   2                  0.00000     0.15040   
    43. RY*(  14) S   2                  0.00000     1.16883   
    44. RY*(  15) S   2                  0.00000     0.66381   
    45. RY*(  16) S   2                  0.00000    17.31135   
    46. RY*(  17) S   2                  0.00000     0.75981   
    47. RY*(  18) S   2                  0.00000     0.74678   
    48. RY*(  19) S   2                  0.00000     9.85115   
    49. RY*(  20) S   2                  0.00000     0.75482   
    50. RY*(  21) S   2                  0.00000     0.67336   
    51. BD*(   1) O   1 - S   2          0.00000    -0.22142   
    52. BD*(   2) O   1 - S   2          0.00000    -0.13600   
       -------------------------------
              Total Lewis   11.99938  ( 99.9949%)
        Valence non-Lewis    0.00000  (  0.0000%)
        Rydberg non-Lewis    0.00061  (  0.0051%)
       -------------------------------
            Total unit  1   12.00000  (100.0000%)
           Charge unit  1    0.00000
 Sorting of NBOs:                    4    3    5    6    8    7    9   11    2   10
 Sorting of NBOs:                    1   12   51   52   42   34   16   22   13   31
 Sorting of NBOs:                   38   30   40   44   36   50   47   49   46   23
 Sorting of NBOs:                   17   20   39   19   35   43   14   32   29   27
 Sorting of NBOs:                   26   28   25   24   18   21   48   45   41   37
 Sorting of NBOs:                   15   33
 Reordering of NBOs for storage:     4    3    5    6    8    7    9   11    2   10
 Reordering of NBOs for storage:     1   12   51   52   42   34   16   22   13   31
 Reordering of NBOs for storage:    38   30   40   44   36   50   47   49   46   23
 Reordering of NBOs for storage:    17   20   39   19   35   43   14   32   29   27
 Reordering of NBOs for storage:    26   28   25   24   18   21   48   45   41   37
 Reordering of NBOs for storage:    15   33
 Labels of output orbitals:  CR  CR  CR  CR  CR  CR  LP  LP  BD  LP  BD  LP  BD* BD* RY* RY* RY* RY* RY* RY* 
 Labels of output orbitals:  RY* RY* RY* RY* RY* RY* RY* RY* RY* RY* RY* RY* RY* RY* RY* RY* RY* RY* RY* RY* 
 Labels of output orbitals:  RY* RY* RY* RY* RY* RY* RY* RY* RY* RY* RY* RY* 
 GSVD:  LWork=       -1920 too small for GESVD, short by        8600 words or        8600 for optimal perf.


 ***************************************************
 *******         Beta  spin orbitals         *******
 ***************************************************


 NATURAL POPULATIONS:  Natural atomic orbital occupancies 
                                                          
   NAO  Atom  No  lang   Type(AO)    Occupancy      Energy
 ----------------------------------------------------------
     1    O    1  S      Cor( 1S)     1.00000     -19.67539
     2    O    1  S      Val( 2S)     0.99219      -1.11129
     3    O    1  S      Ryd( 3S)     0.00022       0.40608
     4    O    1  S      Ryd( 4S)     0.00001       1.28831
     5    O    1  S      Ryd( 5S)     0.00000      49.64580
     6    O    1  px     Val( 2p)     0.56634      -0.31250
     7    O    1  px     Ryd( 3p)     0.00033       0.34494
     8    O    1  px     Ryd( 4p)     0.00000       0.97637
     9    O    1  px     Ryd( 5p)     0.00000       4.89675
    10    O    1  py     Val( 2p)     0.99943      -0.42655
    11    O    1  py     Ryd( 3p)     0.00029       0.34434
    12    O    1  py     Ryd( 4p)     0.00009       0.98361
    13    O    1  py     Ryd( 5p)     0.00000       4.93712
    14    O    1  pz     Val( 2p)     0.60882      -0.33127
    15    O    1  pz     Ryd( 3p)     0.00002       0.36184
    16    O    1  pz     Ryd( 4p)     0.00025       1.00060
    17    O    1  pz     Ryd( 5p)     0.00000       4.96840
    18    O    1  dxy    Ryd( 3d)     0.00000       2.85553
    19    O    1  dxz    Ryd( 3d)     0.00006       2.82604
    20    O    1  dyz    Ryd( 3d)     0.00003       2.85783
    21    O    1  dx2y2  Ryd( 3d)     0.00003       2.84699
    22    O    1  dz2    Ryd( 3d)     0.00014       2.87063
 
    23    S    2  S      Cor( 1S)     1.00000     -89.09304
    24    S    2  S      Cor( 2S)     0.99999      -9.28122
    25    S    2  S      Val( 3S)     0.98406      -0.84550
    26    S    2  S      Ryd( 4S)     0.00020       0.15011
    27    S    2  S      Ryd( 6S)     0.00000       9.84747
    28    S    2  S      Ryd( 5S)     0.00000       1.60882
    29    S    2  S      Ryd( 7S)     0.00000     185.72012
    30    S    2  px     Cor( 2p)     1.00000      -6.30994
    31    S    2  px     Val( 3p)     0.43286      -0.29206
    32    S    2  px     Ryd( 4p)     0.00003       0.24457
    33    S    2  px     Ryd( 6p)     0.00002       1.12822
    34    S    2  px     Ryd( 5p)     0.00000       0.66722
    35    S    2  px     Ryd( 7p)     0.00000      17.32625
    36    S    2  py     Cor( 2p)     1.00000      -6.30058
    37    S    2  py     Val( 3p)     0.99965      -0.37301
    38    S    2  py     Ryd( 4p)     0.00027       0.25668
    39    S    2  py     Ryd( 6p)     0.00003       1.13181
    40    S    2  py     Ryd( 5p)     0.00001       0.67056
    41    S    2  py     Ryd( 7p)     0.00000      17.32635
    42    S    2  pz     Cor( 2p)     1.00000      -6.30929
    43    S    2  pz     Val( 3p)     0.41251      -0.27442
    44    S    2  pz     Ryd( 4p)     0.00061       0.27197
    45    S    2  pz     Ryd( 6p)     0.00000       1.16868
    46    S    2  pz     Ryd( 5p)     0.00000       0.67424
    47    S    2  pz     Ryd( 7p)     0.00000      17.36330
    48    S    2  dxy    Ryd( 3d)     0.00000       0.75981
    49    S    2  dxz    Ryd( 3d)     0.00035       0.74749
    50    S    2  dyz    Ryd( 3d)     0.00021       0.77224
    51    S    2  dx2y2  Ryd( 3d)     0.00016       0.75526
    52    S    2  dz2    Ryd( 3d)     0.00077       0.82875

 WARNING:  Population inversion found on atom  O    1
           Population inversion found on atom  S    2


 Summary of Natural Population Analysis:                  
                                                          
                                       Natural Population 
                Natural  -----------------------------------------------
    Atom  No    Charge         Core      Valence    Rydberg      Total
 -----------------------------------------------------------------------
      O    1   -0.16826      1.00000     3.16678    0.00148     4.16826
      S    2    0.16826      4.99999     2.82909    0.00267     7.83174
 =======================================================================
   * Total *    0.00000      5.99998     5.99587    0.00415    12.00000

                                 Natural Population      
 --------------------------------------------------------
   Core                       5.99998 ( 99.9997% of   6)
   Valence                    5.99587 ( 99.9312% of   6)
   Natural Minimal Basis     11.99585 ( 99.9655% of  12)
   Natural Rydberg Basis      0.00415 (  0.0345% of  12)
 --------------------------------------------------------

    Atom  No          Natural Electron Configuration
 ----------------------------------------------------------------------------
      O    1      [core]2S( 0.99)2p( 2.17)
      S    2      [core]3S( 0.98)3p( 1.85)


 NATURAL BOND ORBITAL ANALYSIS, beta spin orbitals:

                       Occupancies       Lewis Structure    Low   High
           Occ.    -------------------  -----------------   occ   occ
  Cycle   Thresh.   Lewis   Non-Lewis     CR  BD  3C  LP    (L)   (NL)   Dev
 =============================================================================
   1(1)    0.90    11.99938   0.00062      6   2   0   4     0      0    0.00
 -----------------------------------------------------------------------------

 Structure accepted: No low occupancy Lewis orbitals

 --------------------------------------------------------
   Core                      5.99998 (100.000% of   6)
   Valence Lewis             5.99940 ( 99.990% of   6)
  ==================       ============================
   Total Lewis              11.99938 ( 99.995% of  12)
  -----------------------------------------------------
   Valence non-Lewis         0.00000 (  0.000% of  12)
   Rydberg non-Lewis         0.00061 (  0.005% of  12)
  ==================       ============================
   Total non-Lewis           0.00062 (  0.005% of  12)
 --------------------------------------------------------


       (Occupancy)   Bond orbital/ Coefficients/ Hybrids
 ---------------------------------------------------------------------------------
     1. (1.00000) BD ( 1) O   1 - S   2  
                ( 56.67%)   0.7528* O   1 s(  0.00%)p 1.00( 99.99%)d 0.00(  0.01%)
                                            0.0000  0.0000  0.0000  0.0000  0.0000
                                            0.9997  0.0242 -0.0027 -0.0013  0.0000
                                            0.0000  0.0000  0.0000  0.0000  0.0000
                                            0.0000  0.0000  0.0000  0.0100  0.0000
                                            0.0000  0.0000
                ( 43.33%)   0.6582* S   2 s(  0.00%)p 1.00( 99.92%)d 0.00(  0.08%)
                                            0.0000  0.0000  0.0000  0.0000  0.0000
                                            0.0000  0.0000  0.0000  0.9995  0.0087
                                           -0.0061  0.0028  0.0001  0.0000  0.0000
                                            0.0000  0.0000  0.0000  0.0000  0.0000
                                            0.0000  0.0000  0.0000  0.0000  0.0000
                                            0.0000 -0.0285  0.0000  0.0000  0.0000
     2. (1.00000) BD ( 2) O   1 - S   2  
                ( 60.17%)   0.7757* O   1 s(  1.96%)p49.94( 98.02%)d 0.01(  0.02%)
                                           -0.0000  0.1388 -0.0189 -0.0008 -0.0000
                                            0.0000  0.0000  0.0000  0.0000  0.0000
                                            0.0000  0.0000  0.0000  0.9898 -0.0047
                                            0.0192  0.0006  0.0000  0.0000  0.0000
                                            0.0012  0.0147
                ( 39.83%)   0.6311* S   2 s(  2.65%)p36.65( 97.16%)d 0.07(  0.19%)
                                            0.0000  0.0000  0.1614 -0.0213  0.0002
                                            0.0001  0.0000  0.0000  0.0000  0.0000
                                            0.0000  0.0000  0.0000  0.0000  0.0000
                                            0.0000  0.0000  0.0000  0.0000 -0.0000
                                           -0.9849  0.0385  0.0020  0.0017  0.0001
                                            0.0000  0.0000  0.0000  0.0020  0.0439
     3. (1.00000) CR ( 1) O   1           s(100.00%)
                                            1.0000 -0.0000 -0.0000 -0.0000 -0.0000
                                            0.0000  0.0000  0.0000  0.0000  0.0000
                                            0.0000  0.0000  0.0000  0.0000 -0.0000
                                           -0.0000  0.0000  0.0000  0.0000  0.0000
                                           -0.0000 -0.0000
     4. (1.00000) CR ( 1) S   2           s(100.00%)
                                            1.0000  0.0000  0.0000  0.0000 -0.0000
                                           -0.0000 -0.0000  0.0000  0.0000  0.0000
                                            0.0000  0.0000  0.0000  0.0000  0.0000
                                            0.0000  0.0000  0.0000  0.0000  0.0000
                                            0.0000 -0.0000 -0.0000  0.0000 -0.0000
                                            0.0000  0.0000  0.0000  0.0000  0.0000
     5. (0.99999) CR ( 2) S   2           s(100.00%)
                                            0.0000  1.0000 -0.0000 -0.0000  0.0000
                                            0.0000  0.0000  0.0000  0.0000  0.0000
                                            0.0000  0.0000  0.0000  0.0000  0.0000
                                            0.0000  0.0000  0.0000  0.0000 -0.0000
                                           -0.0000  0.0000  0.0000 -0.0000  0.0000
                                            0.0000  0.0000  0.0000 -0.0000 -0.0000
     6. (1.00000) CR ( 3) S   2           s(  0.00%)p 1.00(100.00%)
                                            0.0000  0.0000  0.0000  0.0000  0.0000
                                            0.0000  0.0000  1.0000  0.0000  0.0000
                                            0.0000  0.0000  0.0000  0.0000  0.0000
                                            0.0000  0.0000  0.0000  0.0000  0.0000
                                            0.0000  0.0000  0.0000  0.0000  0.0000
                                            0.0000  0.0000  0.0000  0.0000  0.0000
     7. (1.00000) CR ( 4) S   2           s(  0.00%)p 1.00(100.00%)
                                            0.0000  0.0000  0.0000  0.0000  0.0000
                                            0.0000  0.0000  0.0000  0.0000  0.0000
                                            0.0000  0.0000  0.0000  1.0000 -0.0000
                                           -0.0000 -0.0000  0.0000 -0.0000  0.0000
                                            0.0000  0.0000  0.0000  0.0000  0.0000
                                            0.0000  0.0000 -0.0000  0.0000  0.0000
     8. (1.00000) CR ( 5) S   2           s(  0.00%)p 1.00(100.00%)
                                            0.0000 -0.0000 -0.0000 -0.0000  0.0000
                                            0.0000  0.0000  0.0000  0.0000  0.0000
                                            0.0000  0.0000  0.0000  0.0000  0.0000
                                            0.0000  0.0000  0.0000  0.0000  1.0000
                                           -0.0000  0.0000  0.0000 -0.0000  0.0000
                                            0.0000  0.0000  0.0000 -0.0000 -0.0000
     9. (0.99996) LP ( 1) O   1           s( 98.06%)p 0.02(  1.93%)d 0.00(  0.00%)
                                            0.0000  0.9903  0.0016  0.0001  0.0000
                                            0.0000  0.0000  0.0000  0.0000  0.0000
                                            0.0000  0.0000  0.0000 -0.1390  0.0006
                                            0.0043 -0.0001  0.0000  0.0000  0.0000
                                            0.0055  0.0020
    10. (0.99965) LP ( 2) O   1           s(  0.00%)p 1.00(100.00%)d 0.00(  0.00%)
                                            0.0000  0.0000  0.0000  0.0000  0.0000
                                            0.0000  0.0000  0.0000  0.0000  0.9999
                                           -0.0108 -0.0093  0.0004  0.0000  0.0000
                                            0.0000  0.0000  0.0000  0.0000  0.0044
                                            0.0000  0.0000
    11. (0.99997) LP ( 1) S   2           s( 97.37%)p 0.03(  2.61%)d 0.00(  0.02%)
                                           -0.0000  0.0000  0.9868  0.0014 -0.0000
                                           -0.0000 -0.0000  0.0000  0.0000  0.0000
                                            0.0000  0.0000  0.0000  0.0000  0.0000
                                            0.0000  0.0000  0.0000  0.0000  0.0000
                                            0.1616 -0.0031 -0.0001  0.0006 -0.0000
                                            0.0000  0.0000  0.0000  0.0124  0.0004
    12. (0.99981) LP ( 2) S   2           s(  0.00%)p 1.00(100.00%)d 0.00(  0.00%)
                                            0.0000  0.0000  0.0000  0.0000  0.0000
                                            0.0000  0.0000  0.0000  0.0000  0.0000
                                            0.0000  0.0000  0.0000  0.0000  0.9999
                                            0.0118  0.0034 -0.0007  0.0000  0.0000
                                            0.0000  0.0000  0.0000  0.0000  0.0000
                                            0.0000  0.0000  0.0040  0.0000  0.0000
    13. (0.00019) RY*( 1) O   1           s(  0.00%)p 1.00( 95.30%)d 0.05(  4.70%)
                                            0.0000  0.0000  0.0000  0.0000  0.0000
                                            0.0000  0.0000  0.0000  0.0000  0.0109
                                            0.9658 -0.0535  0.1312  0.0000  0.0000
                                            0.0000  0.0000  0.0000  0.0000 -0.2169
                                            0.0000  0.0000
    14. (0.00003) RY*( 2) O   1           s( 66.90%)p 0.36( 24.24%)d 0.13(  8.86%)
    15. (0.00000) RY*( 3) O   1           s(100.00%)
    16. (0.00000) RY*( 4) O   1           s(  0.00%)p 1.00(100.00%)d 0.00(  0.00%)
    17. (0.00000) RY*( 5) O   1           s(  0.00%)p 1.00(100.00%)
    18. (0.00000) RY*( 6) O   1           s(  0.00%)p 1.00(100.00%)
    19. (0.00000) RY*( 7) O   1           s( 92.90%)p 0.03(  2.88%)d 0.05(  4.23%)
    20. (0.00000) RY*( 8) O   1           s(  0.00%)p 1.00(100.00%)
    21. (0.00000) RY*( 9) O   1           s(  0.00%)p 1.00(100.00%)
    22. (0.00001) RY*(10) O   1           s(  0.14%)p99.99( 99.84%)d 0.14(  0.02%)
    23. (0.00000) RY*(11) O   1           s( 14.65%)p 5.70( 83.41%)d 0.13(  1.94%)
    24. (0.00000) RY*(12) O   1           s( 12.17%)p 7.21( 87.83%)d 0.00(  0.00%)
    25. (0.00000) RY*(13) O   1           s(  0.00%)p 0.00(  0.00%)d 1.00(100.00%)
    26. (0.00000) RY*(14) O   1           s(  0.00%)p 1.00(  0.01%)d99.99( 99.99%)
    27. (0.00000) RY*(15) O   1           s(  0.00%)p 1.00(  4.70%)d20.25( 95.30%)
    28. (0.00000) RY*(16) O   1           s(  0.08%)p 0.35(  0.03%)d99.99( 99.90%)
    29. (0.00000) RY*(17) O   1           s( 13.14%)p 0.14(  1.82%)d 6.47( 85.03%)
    30. (0.00035) RY*( 1) S   2           s(  0.00%)p 1.00( 44.01%)d 1.27( 55.99%)
                                            0.0000  0.0000  0.0000  0.0000  0.0000
                                            0.0000  0.0000  0.0000  0.0000  0.0000
                                            0.0000  0.0000  0.0000 -0.0000 -0.0096
                                            0.6124 -0.2080 -0.1474 -0.0053  0.0000
                                            0.0000  0.0000  0.0000  0.0000  0.0000
                                            0.0000  0.0000  0.7483  0.0000  0.0000
    31. (0.00004) RY*( 2) S   2           s( 43.49%)p 0.84( 36.38%)d 0.46( 20.13%)
    32. (0.00000) RY*( 3) S   2           s( 99.95%)p 0.00(  0.03%)d 0.00(  0.02%)
    33. (0.00000) RY*( 4) S   2           s(100.00%)p 0.00(  0.00%)d 0.00(  0.00%)
    34. (0.00000) RY*( 5) S   2           s(  0.00%)p 1.00(100.00%)d 0.00(  0.00%)
    35. (0.00000) RY*( 6) S   2           s(  0.00%)p 1.00(100.00%)d 0.00(  0.00%)
    36. (0.00000) RY*( 7) S   2           s(  0.00%)p 1.00(100.00%)
    37. (0.00000) RY*( 8) S   2           s(  0.00%)p 1.00(100.00%)
    38. (0.00000) RY*( 9) S   2           s(  0.00%)p 1.00( 55.99%)d 0.79( 44.01%)
    39. (0.00000) RY*(10) S   2           s(  0.00%)p 1.00(100.00%)d 0.00(  0.00%)
    40. (0.00000) RY*(11) S   2           s(  0.00%)p 1.00(100.00%)d 0.00(  0.00%)
    41. (0.00000) RY*(12) S   2           s(  0.00%)p 1.00(100.00%)d 0.00(  0.00%)
    42. (0.00000) RY*(13) S   2           s( 38.53%)p 1.60( 61.47%)d 0.00(  0.00%)
    43. (0.00000) RY*(14) S   2           s(  1.10%)p89.79( 98.40%)d 0.46(  0.51%)
    44. (0.00000) RY*(15) S   2           s(  3.23%)p29.46( 95.27%)d 0.46(  1.49%)
    45. (0.00000) RY*(16) S   2           s(  0.24%)p99.99( 99.64%)d 0.46(  0.11%)
    46. (0.00000) RY*(17) S   2           s(  0.00%)p 0.00(  0.00%)d 1.00(100.00%)
    47. (0.00000) RY*(18) S   2           s(  0.00%)p 1.00(  0.08%)d99.99( 99.92%)
    48. (0.00000) RY*(19) S   2           s( 99.82%)p 0.00(  0.11%)d 0.00(  0.08%)
    49. (0.00000) RY*(20) S   2           s(  0.06%)p 0.61(  0.03%)d99.99( 99.91%)
    50. (0.00000) RY*(21) S   2           s( 13.56%)p 0.66(  8.90%)d 5.72( 77.54%)
    51. (0.00000) BD*( 1) O   1 - S   2  
                ( 43.33%)   0.6582* O   1 s(  0.00%)p 1.00( 99.99%)d 0.00(  0.01%)
                ( 56.67%)  -0.7528* S   2 s(  0.00%)p 1.00( 99.92%)d 0.00(  0.08%)
    52. (0.00000) BD*( 2) O   1 - S   2  
                ( 39.83%)   0.6311* O   1 s(  1.96%)p49.94( 98.02%)d 0.01(  0.02%)
                ( 60.17%)  -0.7757* S   2 s(  2.65%)p36.65( 97.16%)d 0.07(  0.19%)


 NHO Directionality and "Bond Bending" (deviations from line of nuclear centers)

         [Thresholds for printing:  angular deviation  >  1.0 degree]
                                    hybrid p-character > 25.0%
                                    orbital occupancy  >  0.10e

                                Line of Centers        Hybrid 1              Hybrid 2
                                ---------------  -------------------   ------------------
                NBO               Theta   Phi    Theta   Phi    Dev    Theta   Phi    Dev
 ========================================================================================
     1. BD (   1) O   1 - S   2     0.0    0.0    90.0    0.0  90.0     90.0    0.0  90.0
    10. LP (   2) O   1             --     --     90.0   90.0   --       --     --    --
    12. LP (   2) S   2             --     --     90.0   90.0   --       --     --    --


 Second Order Perturbation Theory Analysis of Fock Matrix in NBO Basis

     Threshold for printing:   0.25 kcal/mol
                                                                              E(2)  E(j)-E(i) F(i,j)
         Donor NBO (i)                     Acceptor NBO (j)                 kcal/mol   a.u.    a.u. 
 ===================================================================================================

 within unit  1
       None above threshold


 Natural Bond Orbitals (Summary):

                                                            Principal Delocalizations
           NBO                        Occupancy    Energy   (geminal,vicinal,remote)
 ====================================================================================
 Molecular unit  1  (OS)
     1. BD (   1) O   1 - S   2          1.00000    -0.38347   
     2. BD (   2) O   1 - S   2          1.00000    -0.48611   
     3. CR (   1) O   1                  1.00000   -19.67539   
     4. CR (   1) S   2                  1.00000   -89.09304   
     5. CR (   2) S   2                  0.99999    -9.28122   
     6. CR (   3) S   2                  1.00000    -6.30994   
     7. CR (   4) S   2                  1.00000    -6.30058   
     8. CR (   5) S   2                  1.00000    -6.30929   
     9. LP (   1) O   1                  0.99996    -1.09634   
    10. LP (   2) O   1                  0.99965    -0.42692   
    11. LP (   1) S   2                  0.99997    -0.84105   
    12. LP (   2) S   2                  0.99981    -0.37314   
    13. RY*(   1) O   1                  0.00019     0.39386   
    14. RY*(   2) O   1                  0.00003     1.18054   
    15. RY*(   3) O   1                  0.00000    49.64564   
    16. RY*(   4) O   1                  0.00000     0.34562   
    17. RY*(   5) O   1                  0.00000     0.97633   
    18. RY*(   6) O   1                  0.00000     4.89679   
    19. RY*(   7) O   1                  0.00000     1.10921   
    20. RY*(   8) O   1                  0.00000     1.01628   
    21. RY*(   9) O   1                  0.00000     4.97358   
    22. RY*(  10) O   1                  0.00001     0.36343   
    23. RY*(  11) O   1                  0.00000     0.96972   
    24. RY*(  12) O   1                  0.00000     4.56753   
    25. RY*(  13) O   1                  0.00000     2.85553   
    26. RY*(  14) O   1                  0.00000     2.82610   
    27. RY*(  15) O   1                  0.00000     2.73954   
    28. RY*(  16) O   1                  0.00000     2.84538   
    29. RY*(  17) O   1                  0.00000     2.70770   
    30. RY*(   1) S   2                  0.00035     0.55709   
    31. RY*(   2) S   2                  0.00004     0.48436   
    32. RY*(   3) S   2                  0.00000     1.60736   
    33. RY*(   4) S   2                  0.00000   185.71982   
    34. RY*(   5) S   2                  0.00000     0.24479   
    35. RY*(   6) S   2                  0.00000     1.12829   
    36. RY*(   7) S   2                  0.00000     0.66724   
    37. RY*(   8) S   2                  0.00000    17.32625   
    38. RY*(   9) S   2                  0.00000     0.52857   
    39. RY*(  10) S   2                  0.00000     1.08344   
    40. RY*(  11) S   2                  0.00000     0.66252   
    41. RY*(  12) S   2                  0.00000    17.32615   
    42. RY*(  13) S   2                  0.00000     0.15040   
    43. RY*(  14) S   2                  0.00000     1.16883   
    44. RY*(  15) S   2                  0.00000     0.66381   
    45. RY*(  16) S   2                  0.00000    17.31135   
    46. RY*(  17) S   2                  0.00000     0.75981   
    47. RY*(  18) S   2                  0.00000     0.74678   
    48. RY*(  19) S   2                  0.00000     9.85115   
    49. RY*(  20) S   2                  0.00000     0.75482   
    50. RY*(  21) S   2                  0.00000     0.67336   
    51. BD*(   1) O   1 - S   2          0.00000    -0.22142   
    52. BD*(   2) O   1 - S   2          0.00000    -0.13600   
       -------------------------------
              Total Lewis   11.99938  ( 99.9949%)
        Valence non-Lewis    0.00000  (  0.0000%)
        Rydberg non-Lewis    0.00061  (  0.0051%)
       -------------------------------
            Total unit  1   12.00000  (100.0000%)
           Charge unit  1    0.00000
 Sorting of NBOs:                    4    3    5    6    8    7    9   11    2   10
 Sorting of NBOs:                    1   12   51   52   42   34   16   22   13   31
 Sorting of NBOs:                   38   30   40   44   36   50   47   49   46   23
 Sorting of NBOs:                   17   20   39   19   35   43   14   32   29   27
 Sorting of NBOs:                   26   28   25   24   18   21   48   45   41   37
 Sorting of NBOs:                   15   33
 Reordering of NBOs for storage:     4    3    5    6    8    7    9   11    2   10
 Reordering of NBOs for storage:     1   12   51   52   42   34   16   22   13   31
 Reordering of NBOs for storage:    38   30   40   44   36   50   47   49   46   23
 Reordering of NBOs for storage:    17   20   39   19   35   43   14   32   29   27
 Reordering of NBOs for storage:    26   28   25   24   18   21   48   45   41   37
 Reordering of NBOs for storage:    15   33
 Labels of output orbitals:  CR  CR  CR  CR  CR  CR  LP  LP  BD  LP  BD  LP  BD* BD* RY* RY* RY* RY* RY* RY* 
 Labels of output orbitals:  RY* RY* RY* RY* RY* RY* RY* RY* RY* RY* RY* RY* RY* RY* RY* RY* RY* RY* RY* RY* 
 Labels of output orbitals:  RY* RY* RY* RY* RY* RY* RY* RY* RY* RY* RY* RY* 
 GSVD:  LWork=       -1920 too small for GESVD, short by        8600 words or        8600 for optimal perf.
 Leave Link  607 at Mon Apr 21 19:59:46 2025, MaxMem=   536870912 cpu:               7.2 elap:               1.1
 (Enter /home/szhao/Apps/g16/l701.exe)
 ... and contract with generalized density number  0.
 Compute integral first derivatives.
 Leave Link  701 at Mon Apr 21 19:59:47 2025, MaxMem=   536870912 cpu:               0.9 elap:               0.2
 (Enter /home/szhao/Apps/g16/l702.exe)
 L702 exits ... SP integral derivatives will be done elsewhere.
 Leave Link  702 at Mon Apr 21 19:59:48 2025, MaxMem=   536870912 cpu:               0.9 elap:               0.2
 (Enter /home/szhao/Apps/g16/l703.exe)
 Integral derivatives from FoFJK, PRISM(SPDF).
 Compute integral first derivatives, UseDBF=F ICtDFT=           0.
 Calling FoFJK, ICntrl=      2127 FMM=F ISym2X=1 I1Cent= 0 IOpClX= 1 NMat=1 NMatS=1 NMatT=0.
 FoFJK:  IHMeth= 1 ICntrl=    2127 DoSepK=F KAlg= 0 I1Cent=           0 FoldK=F
 IRaf=         0 NMat=       1 IRICut=       1 DoRegI=T DoRafI=F ISym2E= 1 IDoP0=0 IntGTp=1.
 FoFCou: FMM=F IPFlag=           0 FMFlag=      100000 FMFlg1=         800
         NFxFlg=           0 DoJE=F BraDBF=F KetDBF=F FulRan=T
         wScrn=  0.000000 ICntrl=      2127 IOpCl=  1 I1Cent=           0 NGrid=           0
         NMat0=    1 NMatS0=      1 NMatT0=    0 NMatD0=    1 NMtDS0=    0 NMtDT0=    0
 Petite list used in FoFCou.
 Leave Link  703 at Mon Apr 21 19:59:49 2025, MaxMem=   536870912 cpu:               2.8 elap:               0.5
 (Enter /home/szhao/Apps/g16/l716.exe)
 Dipole        = 0.00000000D+00 0.00000000D+00 1.02753297D+00
 ***** Axes restored to original set *****
 -------------------------------------------------------------------
 Center     Atomic                   Forces (Hartrees/Bohr)
 Number     Number              X              Y              Z
 -------------------------------------------------------------------
      1        8           0.130026610   -0.000000000   -0.000000000
      2       16          -0.130026610   -0.000000000   -0.000000000
 -------------------------------------------------------------------
 Cartesian Forces:  Max     0.130026610 RMS     0.075070898
 Z-matrix is all fixed cartesians, so copy forces.
 Force constants in Cartesian coordinates: 
                1             2             3             4             5 
      1  0.100000D+01
      2  0.000000D+00  0.100000D+01
      3  0.000000D+00  0.000000D+00  0.100000D+01
      4  0.000000D+00  0.000000D+00  0.000000D+00  0.100000D+01
      5  0.000000D+00  0.000000D+00  0.000000D+00  0.000000D+00  0.100000D+01
      6  0.000000D+00  0.000000D+00  0.000000D+00  0.000000D+00  0.000000D+00
                6 
      6  0.100000D+01
 Leave Link  716 at Mon Apr 21 19:59:50 2025, MaxMem=   536870912 cpu:               0.5 elap:               0.4
 (Enter /home/szhao/Apps/g16/l103.exe)

 GradGradGradGradGradGradGradGradGradGradGradGradGradGradGradGradGradGrad
 Berny optimization.
 Search for a local minimum.
 Step number   1 out of a maximum of    2
 All quantities printed in internal units (Hartrees-Bohrs-Radians)
 Second derivative matrix not updated -- first step.
 The second derivative matrix:
                          X1        Y1        Z1        X2        Y2
           X1           1.00000
           Y1           0.00000   1.00000
           Z1           0.00000   0.00000   1.00000
           X2           0.00000   0.00000   0.00000   1.00000
           Y2           0.00000   0.00000   0.00000   0.00000   1.00000
           Z2           0.00000   0.00000   0.00000   0.00000   0.00000
                          Z2
           Z2           1.00000
 ITU=  0
     Eigenvalues ---    1.00000   1.00000   1.00000   1.00000   1.00000
     Eigenvalues ---    1.00000
 Angle between quadratic step and forces=   0.00 degrees.
 ClnCor:  largest displacement from symmetrization is 0.00D+00 for atom     0.
 Linear search not attempted -- first point.
 ClnCor:  largest displacement from symmetrization is 0.00D+00 for atom     0.
 B after Tr=     0.000000    0.000000    0.000000
         Rot=    1.000000    0.000000    0.000000    0.000000 Ang=   0.00 deg.
 Variable       Old X    -DE/DX   Delta X   Delta X   Delta X     New X
                                 (Linear)    (Quad)   (Total)
    X1       -2.16386   0.13003   0.00000   0.13003   0.13003  -2.03384
    Y1        0.00000  -0.00000   0.00000   0.00000   0.00000   0.00000
    Z1        0.00000  -0.00000   0.00000   0.00000   0.00000   0.00000
    X2        2.16386  -0.13003   0.00000  -0.13003  -0.13003   2.03384
    Y2        0.00000  -0.00000   0.00000   0.00000   0.00000   0.00000
    Z2        0.00000  -0.00000   0.00000   0.00000   0.00000   0.00000
         Item               Value     Threshold  Converged?
 Maximum Force            0.130027     0.000450     NO 
 RMS     Force            0.075071     0.000300     NO 
 Maximum Displacement     0.130027     0.001800     NO 
 RMS     Displacement     0.075071     0.001200     NO 
 Predicted change in Energy=-1.690692D-02
 GradGradGradGradGradGradGradGradGradGradGradGradGradGradGradGradGradGrad

 Leave Link  103 at Mon Apr 21 19:59:51 2025, MaxMem=   536870912 cpu:               0.7 elap:               0.5
 (Enter /home/szhao/Apps/g16/l9999.exe)
 1\1\GINC-NODE06\Force\UM062X\6-311+G(d,p)\O1S1\SZHAO\21-Apr-2025\0\\#p
  UM062X/6-311+G** force int=superfine pop=saveNBO\\Title Card Required
 \\0,1\O,-1.145068,0.,0.\S,1.145068,0.,0.\\Version=ES64L-G16RevA.03\HF=
 -473.1019561\S2=0.\S2-1=0.\S2A=0.\RMSD=5.238e-09\RMSF=7.507e-02\Dipole
 =1.027533,0.,0.\Quadrupole=0.2155519,-1.4005299,1.184978,0.,0.,0.\PG=C
 *V [C*(O1S1)]\\@


 Age does not diminish the extreme disappointment of
 having a scoop of ice cream fall from the cone.
 -- Jim Fiebig
 Job cpu time:       0 days  0 hours  0 minutes 40.1 seconds.
 Elapsed time:       0 days  0 hours  0 minutes  8.6 seconds.
 File lengths (MBytes):  RWF=     17 Int=      0 D2E=      0 Chk=      2 Scr=      2
 Normal termination of Gaussian 16 at Mon Apr 21 19:59:52 2025.
