 Entering Gaussian System, Link 0=g16
 Initial command:
 /home/szhao/Apps/g16/l1.exe "/home/szhao/tmp/Gau-72478.inp" -scrdir="/home/szhao/tmp/"
 Default is to use a total of  16 processors:
                               16 via shared-memory
                                1 via Linda
 Entering Link 1 = /home/szhao/Apps/g16/l1.exe PID=     72479.
  
 Copyright (c) 1988,1990,1992,1993,1995,1998,2003,2009,2016,
            Gaussian, Inc.  All Rights Reserved.
  
 This is part of the Gaussian(R) 16 program.  It is based on
 the Gaussian(R) 09 system (copyright 2009, Gaussian, Inc.),
 the Gaussian(R) 03 system (copyright 2003, Gaussian, Inc.),
 the Gaussian(R) 98 system (copyright 1998, Gaussian, Inc.),
 the Gaussian(R) 94 system (copyright 1995, Gaussian, Inc.),
 the Gaussian 92(TM) system (copyright 1992, Gaussian, Inc.),
 the Gaussian 90(TM) system (copyright 1990, Gaussian, Inc.),
 the Gaussian 88(TM) system (copyright 1988, Gaussian, Inc.),
 the Gaussian 86(TM) system (copyright 1986, Carnegie Mellon
 University), and the Gaussian 82(TM) system (copyright 1983,
 Carnegie Mellon University). Gaussian is a federally registered
 trademark of Gaussian, Inc.
  
 This software contains proprietary and confidential information,
 including trade secrets, belonging to Gaussian, Inc.
  
 This software is provided under written license and may be
 used, copied, transmitted, or stored only in accord with that
 written license.
  
 The following legend is applicable only to US Government
 contracts under FAR:
  
                    RESTRICTED RIGHTS LEGEND
  
 Use, reproduction and disclosure by the US Government is
 subject to restrictions as set forth in subparagraphs (a)
 and (c) of the Commercial Computer Software - Restricted
 Rights clause in FAR 52.227-19.
  
 Gaussian, Inc.
 340 Quinnipiac St., Bldg. 40, Wallingford CT 06492
  
  
 ---------------------------------------------------------------
 Warning -- This program may not be used in any manner that
 competes with the business of Gaussian, Inc. or will provide
 assistance to any competitor of Gaussian, Inc.  The licensee
 of this program is prohibited from giving any competitor of
 Gaussian, Inc. access to this program.  By using this program,
 the user acknowledges that Gaussian, Inc. is engaged in the
 business of creating and licensing software in the field of
 computational chemistry and represents and warrants to the
 licensee that it is not a competitor of Gaussian, Inc. and that
 it will not use this program in any manner prohibited above.
 ---------------------------------------------------------------
  

 Cite this work as:
 Gaussian 16, Revision A.03,
 M. J. Frisch, G. W. Trucks, H. B. Schlegel, G. E. Scuseria, 
 M. A. Robb, J. R. Cheeseman, G. Scalmani, V. Barone, 
 G. A. Petersson, H. Nakatsuji, X. Li, M. Caricato, A. V. Marenich, 
 J. Bloino, B. G. Janesko, R. Gomperts, B. Mennucci, H. P. Hratchian, 
 J. V. Ortiz, A. F. Izmaylov, J. L. Sonnenberg, D. Williams-Young, 
 F. Ding, F. Lipparini, F. Egidi, J. Goings, B. Peng, A. Petrone, 
 T. Henderson, D. Ranasinghe, V. G. Zakrzewski, J. Gao, N. Rega, 
 G. Zheng, W. Liang, M. Hada, M. Ehara, K. Toyota, R. Fukuda, 
 J. Hasegawa, M. Ishida, T. Nakajima, Y. Honda, O. Kitao, H. Nakai, 
 T. Vreven, K. Throssell, J. A. Montgomery, Jr., J. E. Peralta, 
 F. Ogliaro, M. J. Bearpark, J. J. Heyd, E. N. Brothers, K. N. Kudin, 
 V. N. Staroverov, T. A. Keith, R. Kobayashi, J. Normand, 
 K. Raghavachari, A. P. Rendell, J. C. Burant, S. S. Iyengar, 
 J. Tomasi, M. Cossi, J. M. Millam, M. Klene, C. Adamo, R. Cammi, 
 J. W. Ochterski, R. L. Martin, K. Morokuma, O. Farkas, 
 J. B. Foresman, and D. J. Fox, Gaussian, Inc., Wallingford CT, 2016.
 
 ******************************************
 Gaussian 16:  ES64L-G16RevA.03 25-Dec-2016
                21-Apr-2025 
 ******************************************
 %chk=opt.chk
 %mem=4GB
 %nprocshared=8
 Will use up to    8 processors via shared memory.
 --------------------------------------------
 #p opt UM062X/6-311+G** nosymm int=superfine
 --------------------------------------------
 1/18=20,19=15,26=5,38=1/1,3;
 2/9=110,12=2,15=1,17=6,18=5,40=1/2;
 3/5=4,6=6,7=111,11=2,25=1,30=1,71=1,74=-55,75=-7,116=2/1,2,3;
 4//1;
 5/5=2,38=5/2;
 6/7=2,8=2,9=2,10=2,28=1/1;
 7/30=1/1,2,3,16;
 1/18=20,19=15,26=5/3(2);
 2/9=110,15=1/2;
 99//99;
 2/9=110,15=1/2;
 3/5=4,6=6,7=111,11=2,25=1,30=1,71=1,74=-55,75=-7,116=2/1,2,3;
 4/5=5,16=3,69=1/1;
 5/5=2,38=5/2;
 7/30=1/1,2,3,16;
 1/18=20,19=15,26=5/3(-5);
 2/9=110,15=1/2;
 6/7=2,8=2,9=2,10=2,19=2,28=1/1;
 99/9=1/99;
 Leave Link    1 at Mon Apr 21 19:36:48 2025, MaxMem=   536870912 cpu:               1.1 elap:               0.2
 (Enter /home/szhao/Apps/g16/l101.exe)
 -------------------
 Title Card Required
 -------------------
 Symbolic Z-matrix:
 Charge =  0 Multiplicity = 1
 C                    -1   -2.13522   0.        0. 
 S                    -1    2.13522   0.        0. 
 H                    0     2.28977  -1.33223   0. 
 H                    0    -2.43939   1.04536   0.00292 
 H                    0    -2.53023  -0.47662  -0.89491 
 H                    0    -2.53015  -0.48142   0.89237 
 
 Add virtual bond connecting atoms S2         and C1         Dist= 8.07D+00.
 ITRead=  2  2  0  0  0  0
 MicOpt= -2 -2 -1 -1 -1 -1
 NAtoms=      6 NQM=        4 NQMF=       2 NMMI=      0 NMMIF=      0
                NMic=       0 NMicF=      0.
                    Isotopes and Nuclear Properties:
 (Nuclear quadrupole moments (NQMom) in fm**2, nuclear magnetic moments (NMagM)
  in nuclear magnetons)

  Atom         1           2           3           4           5           6
 IAtWgt=          12          32           1           1           1           1
 AtmWgt=  12.0000000  31.9720718   1.0078250   1.0078250   1.0078250   1.0078250
 NucSpn=           0           0           1           1           1           1
 AtZEff=  -0.0000000  -0.0000000  -0.0000000  -0.0000000  -0.0000000  -0.0000000
 NQMom=    0.0000000   0.0000000   0.0000000   0.0000000   0.0000000   0.0000000
 NMagM=    0.0000000   0.0000000   2.7928460   2.7928460   2.7928460   2.7928460
 AtZNuc=   6.0000000  16.0000000   1.0000000   1.0000000   1.0000000   1.0000000
 Leave Link  101 at Mon Apr 21 19:36:49 2025, MaxMem=   536870912 cpu:               2.5 elap:               0.4
 (Enter /home/szhao/Apps/g16/l103.exe)

 GradGradGradGradGradGradGradGradGradGradGradGradGradGradGradGradGradGrad
 Berny optimization.
 Initialization pass.
                           ----------------------------
                           !    Initial Parameters    !
                           ! (Angstroms and Degrees)  !
 --------------------------                            --------------------------
 ! Name  Definition              Value          Derivative Info.                !
 --------------------------------------------------------------------------------
 ! X1    R(1,-1)                -2.1352         Frozen                          !
 ! Y1    R(1,-2)                 0.0            Frozen                          !
 ! Z1    R(1,-3)                 0.0            Frozen                          !
 ! X2    R(2,-1)                 2.1352         Frozen                          !
 ! Y2    R(2,-2)                 0.0            Frozen                          !
 ! Z2    R(2,-3)                 0.0            Frozen                          !
 ! R1    R(1,4)                  1.0887         estimate D2E/DX2                !
 ! R2    R(1,5)                  1.0881         estimate D2E/DX2                !
 ! R3    R(1,6)                  1.0881         estimate D2E/DX2                !
 ! R4    R(2,3)                  1.3412         estimate D2E/DX2                !
 ! A1    A(2,1,4)              106.2234         estimate D2E/DX2                !
 ! A2    A(2,1,5)              111.2854         estimate D2E/DX2                !
 ! A3    A(2,1,6)              111.2806         estimate D2E/DX2                !
 ! A4    A(4,1,5)              108.7444         estimate D2E/DX2                !
 ! A5    A(4,1,6)              108.7362         estimate D2E/DX2                !
 ! A6    A(5,1,6)              110.4209         estimate D2E/DX2                !
 ! A7    A(1,2,3)               96.6171         estimate D2E/DX2                !
 ! D1    D(4,1,2,3)            179.8401         estimate D2E/DX2                !
 ! D2    D(5,1,2,3)            -61.9609         estimate D2E/DX2                !
 ! D3    D(6,1,2,3)             61.6537         estimate D2E/DX2                !
 --------------------------------------------------------------------------------
 Trust Radius=3.00D-01 FncErr=1.00D-07 GrdErr=1.00D-07 EigMax=2.50D+02 EigMin=1.00D-04
 Number of steps in this run=     30 maximum allowed number of steps=    100.
 GradGradGradGradGradGradGradGradGradGradGradGradGradGradGradGradGradGrad

 Leave Link  103 at Mon Apr 21 19:36:49 2025, MaxMem=   536870912 cpu:               0.3 elap:               0.1
 (Enter /home/szhao/Apps/g16/l202.exe)
                          Input orientation:                          
 ---------------------------------------------------------------------
 Center     Atomic      Atomic             Coordinates (Angstroms)
 Number     Number       Type             X           Y           Z
 ---------------------------------------------------------------------
      1          6           0       -2.135220    0.000000    0.000000
      2         16           0        2.135220    0.000000    0.000000
      3          1           0        2.289766   -1.332230    0.000000
      4          1           0       -2.439389    1.045359    0.002916
      5          1           0       -2.530230   -0.476615   -0.894907
      6          1           0       -2.530145   -0.481421    0.892366
 ---------------------------------------------------------------------
                    Distance matrix (angstroms):
                    1          2          3          4          5
     1  C    0.000000
     2  S    4.270439   0.000000
     3  H    4.621183   1.341164   0.000000
     4  H    1.088716   4.692529   5.293189   0.000000
     5  H    1.088142   4.774352   4.976475   1.769391   0.000000
     6  H    1.088140   4.774276   4.975112   1.769298   1.787279
                    6
     6  H    0.000000
 Symmetry turned off by external request.
 Stoichiometry    CH4S
 Framework group  C1[X(CH4S)]
 Deg. of freedom    12
 Full point group                 C1      NOp   1
 Rotational constants (GHZ):         103.0601484           2.5632037           2.5414921
 Leave Link  202 at Mon Apr 21 19:36:49 2025, MaxMem=   536870912 cpu:               0.1 elap:               0.3
 (Enter /home/szhao/Apps/g16/l301.exe)
 Standard basis: 6-311+G(d,p) (5D, 7F)
 Ernie: Thresh=  0.10000D-02 Tol=  0.10000D-05 Strict=F.
    76 basis functions,   118 primitive gaussians,    78 cartesian basis functions
    13 alpha electrons       13 beta electrons
       nuclear repulsion energy        34.2062456986 Hartrees.
 IExCor= 4336 DFT=T Ex+Corr=M062X ExCW=0 ScaHFX=  0.540000
 ScaDFX=  1.000000  1.000000  1.000000  1.000000 ScalE2=  1.000000  1.000000
 IRadAn=      7 IRanWt=     -1 IRanGd=            0 ICorTp=0 IEmpDi=  4
 NAtoms=    6 NActive=    6 NUniq=    6 SFac= 1.00D+00 NAtFMM=   60 NAOKFM=F Big=F
 Integral buffers will be    131072 words long.
 Raffenetti 2 integral format.
 Two-electron integral symmetry is turned off.
 Leave Link  301 at Mon Apr 21 19:36:50 2025, MaxMem=   536870912 cpu:               0.8 elap:               0.2
 (Enter /home/szhao/Apps/g16/l302.exe)
 NPDir=0 NMtPBC=     1 NCelOv=     1 NCel=       1 NClECP=     1 NCelD=      1
         NCelK=      1 NCelE2=     1 NClLst=     1 CellRange=     0.0.
 One-electron integrals computed using PRISM.
 NBasis=    76 RedAO= T EigKep=  9.89D-03  NBF=    76
 NBsUse=    76 1.00D-06 EigRej= -1.00D+00 NBFU=    76
 Precomputing XC quadrature grid using
 IXCGrd= 4 IRadAn=           7 IRanWt=          -1 IRanGd=           0 AccXCQ= 0.00D+00.
 Generated NRdTot=       0 NPtTot=           0 NUsed=           0 NTot=          32
 NSgBfM=    77    77    77    77    77 MxSgAt=     6 MxSgA2=     6.
 Leave Link  302 at Mon Apr 21 19:36:51 2025, MaxMem=   536870912 cpu:               2.8 elap:               0.4
 (Enter /home/szhao/Apps/g16/l303.exe)
 DipDrv:  MaxL=1.
 Leave Link  303 at Mon Apr 21 19:36:51 2025, MaxMem=   536870912 cpu:               0.5 elap:               0.1
 (Enter /home/szhao/Apps/g16/l401.exe)
 ExpMin= 4.05D-02 ExpMax= 9.34D+04 ExpMxC= 3.17D+03 IAcc=3 IRadAn=         7 AccDes= 0.00D+00
 Harris functional with IExCor= 1009 and IRadAn=       7 diagonalized for initial guess.
 HarFok:  IExCor= 1009 AccDes= 0.00D+00 IRadAn=         7 IDoV= 1 UseB2=F ITyADJ=14
 ICtDFT=  3500011 ScaDFX=  1.000000  1.000000  1.000000  1.000000
 FoFCou: FMM=F IPFlag=           0 FMFlag=      100000 FMFlg1=           0
         NFxFlg=           0 DoJE=T BraDBF=F KetDBF=T FulRan=T
         wScrn=  0.000000 ICntrl=       500 IOpCl=  0 I1Cent=   200000004 NGrid=           0
         NMat0=    1 NMatS0=      1 NMatT0=    0 NMatD0=    1 NMtDS0=    0 NMtDT0=    0
 Symmetry not used in FoFCou.
 Harris En= -438.338464855339    
 JPrj=0 DoOrth=F DoCkMO=F.
 Initial guess <Sx>= 0.0000 <Sy>= 0.0000 <Sz>= 0.0000 <S**2>=-0.0000 S=-0.0000
 Leave Link  401 at Mon Apr 21 19:36:51 2025, MaxMem=   536870912 cpu:               3.3 elap:               0.5
 (Enter /home/szhao/Apps/g16/l502.exe)
 Keep R1 and R2 ints in memory in canonical form, NReq=15806772.
 FoFCou: FMM=F IPFlag=           0 FMFlag=           0 FMFlg1=           0
         NFxFlg=           0 DoJE=F BraDBF=F KetDBF=F FulRan=T
         wScrn=  0.000000 ICntrl=       600 IOpCl=  0 I1Cent=           0 NGrid=           0
         NMat0=    1 NMatS0=   2926 NMatT0=    0 NMatD0=    1 NMtDS0=    0 NMtDT0=    0
 Symmetry not used in FoFCou.
 Two-electron integral symmetry not used.
 UHF open shell SCF:
 Using DIIS extrapolation, IDIIS=  1040.
 NGot=   536870912 LenX=   528292970 LenY=   528286445
 Requested convergence on RMS density matrix=1.00D-08 within 128 cycles.
 Requested convergence on MAX density matrix=1.00D-06.
 Requested convergence on             energy=1.00D-06.
 No special actions if energy rises.

 Cycle   1  Pass 1  IDiag  1:
 E= -438.005778807918    
 DIIS: error= 8.20D-02 at cycle   1 NSaved=   1.
 NSaved= 1 IEnMin= 1 EnMin= -438.005778807918     IErMin= 1 ErrMin= 8.20D-02
 ErrMax= 8.20D-02  0.00D+00 EMaxC= 1.00D-01 BMatC= 1.09D+00 BMatP= 1.09D+00
 IDIUse=3 WtCom= 1.80D-01 WtEn= 8.20D-01
 Coeff-Com:  0.100D+01
 Coeff-En:   0.100D+01
 Coeff:      0.100D+01
 Gap=     0.179 Goal=   None    Shift=    0.000
 Gap=     0.179 Goal=   None    Shift=    0.000
 GapD=    0.179 DampG=1.000 DampE=0.500 DampFc=0.5000 IDamp=-1.
 Damping current iteration by 5.00D-01
 RMSDP=1.51D-02 MaxDP=4.11D-01              OVMax= 9.76D-01

 Cycle   2  Pass 1  IDiag  1:
 E= -438.192939033561     Delta-E=       -0.187160225643 Rises=F Damp=T
 DIIS: error= 3.27D-02 at cycle   2 NSaved=   2.
 NSaved= 2 IEnMin= 2 EnMin= -438.192939033561     IErMin= 2 ErrMin= 3.27D-02
 ErrMax= 3.27D-02  0.00D+00 EMaxC= 1.00D-01 BMatC= 2.07D-01 BMatP= 1.09D+00
 IDIUse=3 WtCom= 6.73D-01 WtEn= 3.27D-01
 Coeff-Com:  0.243D+00 0.757D+00
 Coeff-En:   0.333D+00 0.667D+00
 Coeff:      0.272D+00 0.728D+00
 Gap=     0.352 Goal=   None    Shift=    0.000
 Gap=     0.352 Goal=   None    Shift=    0.000
 RMSDP=6.51D-03 MaxDP=1.20D-01 DE=-1.87D-01 OVMax= 3.92D-01

 Cycle   3  Pass 1  IDiag  1:
 E= -438.303962194866     Delta-E=       -0.111023161305 Rises=F Damp=F
 DIIS: error= 4.98D-02 at cycle   3 NSaved=   3.
 NSaved= 3 IEnMin= 3 EnMin= -438.303962194866     IErMin= 2 ErrMin= 3.27D-02
 ErrMax= 4.98D-02  0.00D+00 EMaxC= 1.00D-01 BMatC= 2.88D-01 BMatP= 2.07D-01
 IDIUse=2 WtCom= 0.00D+00 WtEn= 1.00D+00
 Coeff-En:   0.343D+00 0.000D+00 0.657D+00
 Coeff:      0.343D+00 0.000D+00 0.657D+00
 Gap=     0.015 Goal=   None    Shift=    0.000
 Gap=     0.015 Goal=   None    Shift=    0.000
 RMSDP=6.35D-03 MaxDP=2.15D-01 DE=-1.11D-01 OVMax= 6.03D-01

 Cycle   4  Pass 1  IDiag  1:
 E= -438.412530365217     Delta-E=       -0.108568170351 Rises=F Damp=F
 DIIS: error= 3.56D-02 at cycle   4 NSaved=   4.
 NSaved= 4 IEnMin= 4 EnMin= -438.412530365217     IErMin= 2 ErrMin= 3.27D-02
 ErrMax= 3.56D-02  0.00D+00 EMaxC= 1.00D-01 BMatC= 1.20D-01 BMatP= 2.07D-01
 IDIUse=3 WtCom= 6.44D-01 WtEn= 3.56D-01
 Coeff-Com:  0.458D-01-0.629D-01 0.460D+00 0.558D+00
 Coeff-En:   0.000D+00 0.000D+00 0.337D+00 0.663D+00
 Coeff:      0.295D-01-0.405D-01 0.416D+00 0.595D+00
 Gap=     0.067 Goal=   None    Shift=    0.000
 Gap=     0.067 Goal=   None    Shift=    0.000
 RMSDP=2.76D-03 MaxDP=9.06D-02 DE=-1.09D-01 OVMax= 2.61D-01

 Cycle   5  Pass 1  IDiag  1:
 E= -438.467303444180     Delta-E=       -0.054773078963 Rises=F Damp=F
 DIIS: error= 6.28D-03 at cycle   5 NSaved=   5.
 NSaved= 5 IEnMin= 5 EnMin= -438.467303444180     IErMin= 5 ErrMin= 6.28D-03
 ErrMax= 6.28D-03  0.00D+00 EMaxC= 1.00D-01 BMatC= 4.77D-03 BMatP= 1.20D-01
 IDIUse=3 WtCom= 9.37D-01 WtEn= 6.28D-02
 Coeff-Com: -0.687D-02-0.188D-01 0.619D-01 0.213D+00 0.751D+00
 Coeff-En:   0.000D+00 0.000D+00 0.000D+00 0.804D-01 0.920D+00
 Coeff:     -0.644D-02-0.176D-01 0.580D-01 0.204D+00 0.762D+00
 Gap=     0.087 Goal=   None    Shift=    0.000
 Gap=     0.087 Goal=   None    Shift=    0.000
 RMSDP=7.83D-04 MaxDP=2.50D-02 DE=-5.48D-02 OVMax= 7.09D-02

 Cycle   6  Pass 1  IDiag  1:
 E= -438.468380386117     Delta-E=       -0.001076941937 Rises=F Damp=F
 DIIS: error= 4.90D-03 at cycle   6 NSaved=   6.
 NSaved= 6 IEnMin= 6 EnMin= -438.468380386117     IErMin= 6 ErrMin= 4.90D-03
 ErrMax= 4.90D-03  0.00D+00 EMaxC= 1.00D-01 BMatC= 2.63D-03 BMatP= 4.77D-03
 IDIUse=3 WtCom= 9.51D-01 WtEn= 4.90D-02
 Coeff-Com: -0.307D-02-0.432D-02 0.247D-01-0.777D-01 0.127D+00 0.933D+00
 Coeff-En:   0.000D+00 0.000D+00 0.000D+00 0.000D+00 0.384D+00 0.616D+00
 Coeff:     -0.292D-02-0.411D-02 0.235D-01-0.739D-01 0.140D+00 0.917D+00
 Gap=     0.090 Goal=   None    Shift=    0.000
 Gap=     0.090 Goal=   None    Shift=    0.000
 RMSDP=1.33D-04 MaxDP=4.08D-03 DE=-1.08D-03 OVMax= 1.02D-02

 Cycle   7  Pass 1  IDiag  1:
 E= -438.469022619788     Delta-E=       -0.000642233670 Rises=F Damp=F
 DIIS: error= 3.14D-03 at cycle   7 NSaved=   7.
 NSaved= 7 IEnMin= 7 EnMin= -438.469022619788     IErMin= 7 ErrMin= 3.14D-03
 ErrMax= 3.14D-03  0.00D+00 EMaxC= 1.00D-01 BMatC= 9.94D-04 BMatP= 2.63D-03
 IDIUse=3 WtCom= 9.69D-01 WtEn= 3.14D-02
 Coeff-Com:  0.486D-03-0.494D-02 0.225D-01-0.715D-01 0.219D-01 0.145D+00
 Coeff-Com:  0.886D+00
 Coeff-En:   0.000D+00 0.000D+00 0.000D+00 0.000D+00 0.236D+00 0.000D+00
 Coeff-En:   0.764D+00
 Coeff:      0.471D-03-0.478D-02 0.218D-01-0.693D-01 0.286D-01 0.141D+00
 Coeff:      0.883D+00
 Gap=     0.090 Goal=   None    Shift=    0.000
 Gap=     0.090 Goal=   None    Shift=    0.000
 RMSDP=8.08D-05 MaxDP=2.64D-03 DE=-6.42D-04 OVMax= 7.65D-03

 Cycle   8  Pass 1  IDiag  1:
 E= -438.469302647086     Delta-E=       -0.000280027298 Rises=F Damp=F
 DIIS: error= 1.82D-03 at cycle   8 NSaved=   8.
 NSaved= 8 IEnMin= 8 EnMin= -438.469302647086     IErMin= 8 ErrMin= 1.82D-03
 ErrMax= 1.82D-03  0.00D+00 EMaxC= 1.00D-01 BMatC= 3.39D-04 BMatP= 9.94D-04
 IDIUse=3 WtCom= 9.82D-01 WtEn= 1.82D-02
 Coeff-Com:  0.419D-03-0.690D-03 0.623D-02-0.181D-01 0.291D-01-0.115D+00
 Coeff-Com: -0.303D+00 0.140D+01
 Coeff-En:   0.000D+00 0.000D+00 0.000D+00 0.000D+00 0.900D-01 0.000D+00
 Coeff-En:   0.000D+00 0.910D+00
 Coeff:      0.411D-03-0.678D-03 0.612D-02-0.178D-01 0.302D-01-0.112D+00
 Coeff:     -0.297D+00 0.139D+01
 Gap=     0.091 Goal=   None    Shift=    0.000
 Gap=     0.091 Goal=   None    Shift=    0.000
 RMSDP=8.50D-05 MaxDP=2.80D-03 DE=-2.80D-04 OVMax= 7.86D-03

 Cycle   9  Pass 1  IDiag  1:
 E= -438.469437319850     Delta-E=       -0.000134672764 Rises=F Damp=F
 DIIS: error= 4.60D-04 at cycle   9 NSaved=   9.
 NSaved= 9 IEnMin= 9 EnMin= -438.469437319850     IErMin= 9 ErrMin= 4.60D-04
 ErrMax= 4.60D-04  0.00D+00 EMaxC= 1.00D-01 BMatC= 2.13D-05 BMatP= 3.39D-04
 IDIUse=3 WtCom= 9.95D-01 WtEn= 4.60D-03
 Coeff-Com:  0.838D-04-0.200D-03 0.136D-02-0.262D-02 0.563D-02-0.110D-01
 Coeff-Com: -0.139D+00 0.103D+00 0.104D+01
 Coeff-En:   0.000D+00 0.000D+00 0.000D+00 0.000D+00 0.000D+00 0.000D+00
 Coeff-En:   0.000D+00 0.000D+00 0.100D+01
 Coeff:      0.835D-04-0.199D-03 0.136D-02-0.260D-02 0.560D-02-0.110D-01
 Coeff:     -0.139D+00 0.103D+00 0.104D+01
 Gap=     0.091 Goal=   None    Shift=    0.000
 Gap=     0.091 Goal=   None    Shift=    0.000
 RMSDP=2.23D-05 MaxDP=7.26D-04 DE=-1.35D-04 OVMax= 2.05D-03

 Cycle  10  Pass 1  IDiag  1:
 E= -438.469445951310     Delta-E=       -0.000008631459 Rises=F Damp=F
 DIIS: error= 1.06D-04 at cycle  10 NSaved=  10.
 NSaved=10 IEnMin=10 EnMin= -438.469445951310     IErMin=10 ErrMin= 1.06D-04
 ErrMax= 1.06D-04  0.00D+00 EMaxC= 1.00D-01 BMatC= 1.11D-06 BMatP= 2.13D-05
 IDIUse=3 WtCom= 9.99D-01 WtEn= 1.06D-03
 Coeff-Com: -0.156D-04-0.709D-04 0.103D-03 0.376D-03-0.123D-02 0.795D-02
 Coeff-Com: -0.270D-02-0.111D+00 0.116D+00 0.991D+00
 Coeff-En:   0.000D+00 0.000D+00 0.000D+00 0.000D+00 0.000D+00 0.000D+00
 Coeff-En:   0.000D+00 0.000D+00 0.000D+00 0.100D+01
 Coeff:     -0.156D-04-0.708D-04 0.103D-03 0.376D-03-0.123D-02 0.794D-02
 Coeff:     -0.270D-02-0.111D+00 0.116D+00 0.991D+00
 Gap=     0.091 Goal=   None    Shift=    0.000
 Gap=     0.091 Goal=   None    Shift=    0.000
 RMSDP=6.32D-06 MaxDP=2.05D-04 DE=-8.63D-06 OVMax= 5.77D-04

 Cycle  11  Pass 1  IDiag  1:
 E= -438.469446419956     Delta-E=       -0.000000468647 Rises=F Damp=F
 DIIS: error= 3.89D-06 at cycle  11 NSaved=  11.
 NSaved=11 IEnMin=11 EnMin= -438.469446419956     IErMin=11 ErrMin= 3.89D-06
 ErrMax= 3.89D-06  0.00D+00 EMaxC= 1.00D-01 BMatC= 1.90D-09 BMatP= 1.11D-06
 IDIUse=1 WtCom= 1.00D+00 WtEn= 0.00D+00
 Coeff-Com: -0.328D-05 0.184D-05 0.154D-04-0.800D-04 0.541D-05 0.758D-03
 Coeff-Com:  0.715D-02 0.132D-02-0.681D-01 0.279D-01 0.103D+01
 Coeff:     -0.328D-05 0.184D-05 0.154D-04-0.800D-04 0.541D-05 0.758D-03
 Coeff:      0.715D-02 0.132D-02-0.681D-01 0.279D-01 0.103D+01
 Gap=     0.091 Goal=   None    Shift=    0.000
 Gap=     0.091 Goal=   None    Shift=    0.000
 RMSDP=4.16D-07 MaxDP=5.28D-06 DE=-4.69D-07 OVMax= 2.82D-05

 Cycle  12  Pass 1  IDiag  1:
 E= -438.469446420534     Delta-E=       -0.000000000577 Rises=F Damp=F
 DIIS: error= 3.79D-06 at cycle  12 NSaved=  12.
 NSaved=12 IEnMin=12 EnMin= -438.469446420534     IErMin=12 ErrMin= 3.79D-06
 ErrMax= 3.79D-06  0.00D+00 EMaxC= 1.00D-01 BMatC= 1.28D-09 BMatP= 1.90D-09
 IDIUse=1 WtCom= 1.00D+00 WtEn= 0.00D+00
 Coeff-Com:  0.985D-06 0.329D-05-0.321D-05-0.183D-04 0.118D-03-0.683D-03
 Coeff-Com: -0.129D-02 0.832D-02-0.865D-02-0.611D-01-0.938D-01 0.116D+01
 Coeff:      0.985D-06 0.329D-05-0.321D-05-0.183D-04 0.118D-03-0.683D-03
 Coeff:     -0.129D-02 0.832D-02-0.865D-02-0.611D-01-0.938D-01 0.116D+01
 Gap=     0.091 Goal=   None    Shift=    0.000
 Gap=     0.091 Goal=   None    Shift=    0.000
 RMSDP=2.52D-07 MaxDP=7.72D-06 DE=-5.77D-10 OVMax= 2.07D-05

 Cycle  13  Pass 1  IDiag  1:
 E= -438.469446421124     Delta-E=       -0.000000000590 Rises=F Damp=F
 DIIS: error= 1.53D-07 at cycle  13 NSaved=  13.
 NSaved=13 IEnMin=13 EnMin= -438.469446421124     IErMin=13 ErrMin= 1.53D-07
 ErrMax= 1.53D-07  0.00D+00 EMaxC= 1.00D-01 BMatC= 4.64D-12 BMatP= 1.28D-09
 IDIUse=1 WtCom= 1.00D+00 WtEn= 0.00D+00
 Coeff-Com:  0.433D-07-0.457D-08-0.209D-05 0.158D-05 0.841D-05-0.447D-04
 Coeff-Com: -0.360D-03 0.344D-03 0.262D-02-0.498D-02-0.786D-01 0.904D-01
 Coeff-Com:  0.991D+00
 Coeff:      0.433D-07-0.457D-08-0.209D-05 0.158D-05 0.841D-05-0.447D-04
 Coeff:     -0.360D-03 0.344D-03 0.262D-02-0.498D-02-0.786D-01 0.904D-01
 Coeff:      0.991D+00
 Gap=     0.091 Goal=   None    Shift=    0.000
 Gap=     0.091 Goal=   None    Shift=    0.000
 RMSDP=3.05D-08 MaxDP=4.79D-07 DE=-5.90D-10 OVMax= 2.36D-06

 Cycle  14  Pass 1  IDiag  1:
 E= -438.469446421123     Delta-E=        0.000000000001 Rises=F Damp=F
 DIIS: error= 2.95D-07 at cycle  14 NSaved=  14.
 NSaved=14 IEnMin=13 EnMin= -438.469446421124     IErMin=13 ErrMin= 1.53D-07
 ErrMax= 2.95D-07  0.00D+00 EMaxC= 1.00D-01 BMatC= 9.46D-12 BMatP= 4.64D-12
 IDIUse=1 WtCom= 1.00D+00 WtEn= 0.00D+00
 Coeff-Com:  0.204D-08-0.146D-06-0.175D-06 0.451D-06-0.601D-05 0.324D-04
 Coeff-Com:  0.118D-03-0.408D-03 0.554D-03 0.327D-02-0.412D-03-0.418D-01
 Coeff-Com:  0.104D+00 0.935D+00
 Coeff:      0.204D-08-0.146D-06-0.175D-06 0.451D-06-0.601D-05 0.324D-04
 Coeff:      0.118D-03-0.408D-03 0.554D-03 0.327D-02-0.412D-03-0.418D-01
 Coeff:      0.104D+00 0.935D+00
 Gap=     0.091 Goal=   None    Shift=    0.000
 Gap=     0.091 Goal=   None    Shift=    0.000
 RMSDP=1.67D-08 MaxDP=5.37D-07 DE= 7.96D-13 OVMax= 1.50D-06

 Cycle  15  Pass 1  IDiag  1:
 E= -438.469446421127     Delta-E=       -0.000000000004 Rises=F Damp=F
 DIIS: error= 3.98D-08 at cycle  15 NSaved=  15.
 NSaved=15 IEnMin=15 EnMin= -438.469446421127     IErMin=15 ErrMin= 3.98D-08
 ErrMax= 3.98D-08  0.00D+00 EMaxC= 1.00D-01 BMatC= 1.65D-13 BMatP= 4.64D-12
 IDIUse=1 WtCom= 1.00D+00 WtEn= 0.00D+00
 Coeff-Com:  0.997D-08 0.955D-08 0.699D-07-0.370D-06-0.764D-06 0.446D-05
 Coeff-Com:  0.442D-04-0.387D-04-0.783D-04 0.461D-03 0.269D-02-0.898D-02
 Coeff-Com: -0.232D-01 0.116D+00 0.913D+00
 Coeff:      0.997D-08 0.955D-08 0.699D-07-0.370D-06-0.764D-06 0.446D-05
 Coeff:      0.442D-04-0.387D-04-0.783D-04 0.461D-03 0.269D-02-0.898D-02
 Coeff:     -0.232D-01 0.116D+00 0.913D+00
 Gap=     0.091 Goal=   None    Shift=    0.000
 Gap=     0.091 Goal=   None    Shift=    0.000
 RMSDP=3.42D-09 MaxDP=1.05D-07 DE=-4.09D-12 OVMax= 3.08D-07

 SCF Done:  E(UM062X) =  -438.469446421     A.U. after   15 cycles
            NFock= 15  Conv=0.34D-08     -V/T= 2.0017
 <Sx>= 0.0000 <Sy>= 0.0000 <Sz>= 0.0000 <S**2>=-0.0000 S=-0.0000
 <L.S>=  0.00000000000    
 KE= 4.377189473772D+02 PE=-1.108727402341D+03 EE= 1.983327628439D+02
 Annihilation of the first spin contaminant:
 S**2 before annihilation    -0.0000,   after    -0.0000
 Leave Link  502 at Mon Apr 21 19:37:03 2025, MaxMem=   536870912 cpu:              84.0 elap:              11.0
 (Enter /home/szhao/Apps/g16/l601.exe)
 Copying SCF densities to generalized density rwf, IOpCl= 1 IROHF=0.

 **********************************************************************

            Population analysis using the SCF density.

 **********************************************************************

 Alpha  occ. eigenvalues --  -89.89454 -10.62990  -8.25757  -6.17833  -6.17710
 Alpha  occ. eigenvalues --   -6.17151  -0.82046  -0.77097  -0.51998  -0.51578
 Alpha  occ. eigenvalues --   -0.43459  -0.29375  -0.27275
 Alpha virt. eigenvalues --   -0.18201   0.00926   0.04351   0.04878   0.05026
 Alpha virt. eigenvalues --    0.07336   0.08186   0.08430   0.10546   0.13588
 Alpha virt. eigenvalues --    0.15856   0.16183   0.22113   0.34219   0.36337
 Alpha virt. eigenvalues --    0.37528   0.41138   0.41666   0.43947   0.49217
 Alpha virt. eigenvalues --    0.60476   0.60803   0.61572   0.64172   0.76467
 Alpha virt. eigenvalues --    0.77147   0.78011   0.85911   0.86433   1.01988
 Alpha virt. eigenvalues --    1.02604   1.03536   1.33415   1.45620   1.50748
 Alpha virt. eigenvalues --    1.51080   1.51714   1.52171   1.67234   1.67825
 Alpha virt. eigenvalues --    1.70322   1.72133   1.72389   1.94794   2.14166
 Alpha virt. eigenvalues --    2.14520   2.15016   2.35705   2.43843   2.45053
 Alpha virt. eigenvalues --    2.50756   2.51116   2.58071   2.68010   2.90142
 Alpha virt. eigenvalues --    3.70465   3.72517   7.89278  17.48685  17.49411
 Alpha virt. eigenvalues --   17.53501  23.90556 189.15655
  Beta  occ. eigenvalues --  -89.89454 -10.62990  -8.25757  -6.17833  -6.17710
  Beta  occ. eigenvalues --   -6.17151  -0.82046  -0.77097  -0.51998  -0.51578
  Beta  occ. eigenvalues --   -0.43459  -0.29375  -0.27275
  Beta virt. eigenvalues --   -0.18201   0.00926   0.04351   0.04878   0.05026
  Beta virt. eigenvalues --    0.07336   0.08186   0.08430   0.10546   0.13588
  Beta virt. eigenvalues --    0.15856   0.16183   0.22113   0.34219   0.36337
  Beta virt. eigenvalues --    0.37528   0.41138   0.41666   0.43947   0.49217
  Beta virt. eigenvalues --    0.60476   0.60803   0.61572   0.64172   0.76467
  Beta virt. eigenvalues --    0.77147   0.78011   0.85911   0.86433   1.01988
  Beta virt. eigenvalues --    1.02604   1.03536   1.33415   1.45620   1.50748
  Beta virt. eigenvalues --    1.51080   1.51714   1.52171   1.67234   1.67825
  Beta virt. eigenvalues --    1.70322   1.72133   1.72389   1.94794   2.14166
  Beta virt. eigenvalues --    2.14520   2.15016   2.35705   2.43843   2.45053
  Beta virt. eigenvalues --    2.50756   2.51116   2.58071   2.68010   2.90142
  Beta virt. eigenvalues --    3.70465   3.72517   7.89278  17.48685  17.49411
  Beta virt. eigenvalues --   17.53501  23.90556 189.15655
          Condensed to atoms (all electrons):
               1          2          3          4          5          6
     1  C    5.179263   0.065869  -0.000009   0.383105   0.379643   0.379630
     2  S    0.065869  15.906758   0.249579  -0.000695  -0.000969  -0.000971
     3  H   -0.000009   0.249579   0.690506   0.000009  -0.000000  -0.000000
     4  H    0.383105  -0.000695   0.000009   0.493440  -0.029188  -0.029195
     5  H    0.379643  -0.000969  -0.000000  -0.029188   0.496109  -0.027916
     6  H    0.379630  -0.000971  -0.000000  -0.029195  -0.027916   0.496140
          Atomic-Atomic Spin Densities.
               1          2          3          4          5          6
     1  C   -0.000000  -0.000000  -0.000000   0.000000   0.000000   0.000000
     2  S   -0.000000   0.000000   0.000000   0.000000  -0.000000  -0.000000
     3  H   -0.000000   0.000000  -0.000000   0.000000   0.000000   0.000000
     4  H    0.000000   0.000000   0.000000   0.000000  -0.000000  -0.000000
     5  H    0.000000  -0.000000   0.000000  -0.000000   0.000000  -0.000000
     6  H    0.000000  -0.000000   0.000000  -0.000000  -0.000000   0.000000
 Mulliken charges and spin densities:
               1          2
     1  C   -0.387501  -0.000000
     2  S   -0.219570   0.000000
     3  H    0.059915  -0.000000
     4  H    0.182524   0.000000
     5  H    0.182321   0.000000
     6  H    0.182311   0.000000
 Sum of Mulliken charges =  -0.00000  -0.00000
 Mulliken charges and spin densities with hydrogens summed into heavy atoms:
               1          2
     1  C    0.159655  -0.000000
     2  S   -0.159655   0.000000
 Electronic spatial extent (au):  <R**2>=            506.4425
 Charge=             -0.0000 electrons
 Dipole moment (field-independent basis, Debye):
    X=             -4.1488    Y=             -0.9187    Z=              0.0003  Tot=              4.2494
 Quadrupole moment (field-independent basis, Debye-Ang):
   XX=            -16.6177   YY=            -19.9830   ZZ=            -23.8990
   XY=             -2.5654   XZ=             -0.0003   YZ=             -0.0000
 Traceless Quadrupole moment (field-independent basis, Debye-Ang):
   XX=              3.5488   YY=              0.1836   ZZ=             -3.7325
   XY=             -2.5654   XZ=             -0.0003   YZ=             -0.0000
 Octapole moment (field-independent basis, Debye-Ang**2):
  XXX=            -63.1723  YYY=              2.0422  ZZZ=             -0.0070  XYY=            -11.8288
  XXY=             -5.0464  XXZ=              0.0003  XZZ=            -20.8172  YZZ=             -0.0249
  YYZ=              0.0068  XYZ=              0.0003
 Hexadecapole moment (field-independent basis, Debye-Ang**3):
 XXXX=           -610.1035 YYYY=            -37.5553 ZZZZ=            -41.4452 XXXY=             -7.8696
 XXXZ=              0.0037 YYYX=             -0.0671 YYYZ=              0.0011 ZZZX=              0.0187
 ZZZY=             -0.0008 XXYY=           -101.5265 XXZZ=           -119.4595 YYZZ=            -13.7989
 XXYZ=             -0.0013 YYXZ=             -0.0182 ZZXY=              3.9861
 N-N= 3.420624569860D+01 E-N=-1.108727400239D+03  KE= 4.377189473772D+02
                          Isotropic Fermi Contact Couplings
        Atom                 a.u.       MegaHertz       Gauss      10(-4) cm-1
     1  C(13)             -0.00000      -0.00000      -0.00000      -0.00000
     2  S(33)             -0.00000      -0.00000      -0.00000      -0.00000
     3  H(1)              -0.00000      -0.00000      -0.00000      -0.00000
     4  H(1)              -0.00000      -0.00000      -0.00000      -0.00000
     5  H(1)              -0.00000      -0.00000      -0.00000      -0.00000
     6  H(1)              -0.00000      -0.00000      -0.00000      -0.00000
 --------------------------------------------------------
       Center         ----  Spin Dipole Couplings  ----
                      3XX-RR        3YY-RR        3ZZ-RR
 --------------------------------------------------------
     1   Atom       -0.000000      0.000000      0.000000
     2   Atom        0.000000     -0.000000     -0.000000
     3   Atom        0.000000      0.000000     -0.000000
     4   Atom        0.000000     -0.000000      0.000000
     5   Atom       -0.000000      0.000000     -0.000000
     6   Atom       -0.000000      0.000000     -0.000000
 --------------------------------------------------------
                        XY            XZ            YZ
 --------------------------------------------------------
     1   Atom        0.000000      0.000000     -0.000000
     2   Atom        0.000000      0.000000     -0.000000
     3   Atom       -0.000000      0.000000      0.000000
     4   Atom        0.000000      0.000000     -0.000000
     5   Atom       -0.000000     -0.000000     -0.000000
     6   Atom       -0.000000      0.000000      0.000000
 --------------------------------------------------------


 ---------------------------------------------------------------------------------
              Anisotropic Spin Dipole Couplings in Principal Axis System
 ---------------------------------------------------------------------------------

       Atom             a.u.   MegaHertz   Gauss  10(-4) cm-1        Axes

              Baa    -0.0000    -0.000    -0.000    -0.000  0.9983 -0.0577 -0.0002
     1 C(13)  Bbb     0.0000     0.000     0.000     0.000  0.0577  0.9982 -0.0172
              Bcc     0.0000     0.000     0.000     0.000  0.0012  0.0171  0.9999
 
              Baa    -0.0000    -0.000    -0.000    -0.000 -0.1068  0.9943  0.0005
     2 S(33)  Bbb    -0.0000    -0.000    -0.000    -0.000  0.0000 -0.0005  1.0000
              Bcc     0.0000     0.000     0.000     0.000  0.9943  0.1068  0.0000
 
              Baa    -0.0000    -0.000    -0.000    -0.000 -0.0000 -0.0000  1.0000
     3 H(1)   Bbb     0.0000     0.000     0.000     0.000  0.9987  0.0501  0.0000
              Bcc     0.0000     0.000     0.000     0.000 -0.0501  0.9987  0.0000
 
              Baa    -0.0000    -0.000    -0.000    -0.000 -0.2466  0.9691  0.0027
     4 H(1)   Bbb     0.0000     0.000     0.000     0.000  0.9691  0.2466  0.0006
              Bcc     0.0000     0.000     0.000     0.000  0.0001 -0.0028  1.0000
 
              Baa    -0.0000    -0.000    -0.000    -0.000  0.3238  0.4461  0.8343
     5 H(1)   Bbb     0.0000     0.000     0.000     0.000  0.9445 -0.2035 -0.2578
              Bcc     0.0000     0.000     0.000     0.000  0.0548  0.8715 -0.4873
 
              Baa    -0.0000    -0.000    -0.000    -0.000 -0.3237 -0.4506  0.8319
     6 H(1)   Bbb     0.0000     0.000     0.000     0.000  0.9446 -0.2049  0.2566
              Bcc     0.0000     0.000     0.000     0.000  0.0548  0.8689  0.4920
 

 ---------------------------------------------------------------------------------

 No NMR shielding tensors so no spin-rotation constants.
 Leave Link  601 at Mon Apr 21 19:37:03 2025, MaxMem=   536870912 cpu:               1.8 elap:               0.3
 (Enter /home/szhao/Apps/g16/l701.exe)
 ... and contract with generalized density number  0.
 Compute integral first derivatives.
 Leave Link  701 at Mon Apr 21 19:37:04 2025, MaxMem=   536870912 cpu:               1.3 elap:               0.2
 (Enter /home/szhao/Apps/g16/l702.exe)
 L702 exits ... SP integral derivatives will be done elsewhere.
 Leave Link  702 at Mon Apr 21 19:37:04 2025, MaxMem=   536870912 cpu:               0.4 elap:               0.1
 (Enter /home/szhao/Apps/g16/l703.exe)
 Integral derivatives from FoFJK, PRISM(SPDF).
 Compute integral first derivatives, UseDBF=F ICtDFT=           0.
 Calling FoFJK, ICntrl=      2127 FMM=F ISym2X=0 I1Cent= 0 IOpClX= 1 NMat=1 NMatS=1 NMatT=0.
 FoFJK:  IHMeth= 1 ICntrl=    2127 DoSepK=F KAlg= 0 I1Cent=           0 FoldK=F
 IRaf=         0 NMat=       1 IRICut=       1 DoRegI=T DoRafI=F ISym2E= 0 IDoP0=0 IntGTp=1.
 FoFCou: FMM=F IPFlag=           0 FMFlag=      100000 FMFlg1=         800
         NFxFlg=           0 DoJE=F BraDBF=F KetDBF=F FulRan=T
         wScrn=  0.000000 ICntrl=      2127 IOpCl=  1 I1Cent=           0 NGrid=           0
         NMat0=    1 NMatS0=      1 NMatT0=    0 NMatD0=    1 NMtDS0=    0 NMtDT0=    0
 Symmetry not used in FoFCou.
 Leave Link  703 at Mon Apr 21 19:37:06 2025, MaxMem=   536870912 cpu:               9.3 elap:               1.4
 (Enter /home/szhao/Apps/g16/l716.exe)
 Dipole        =-1.63228324D+00-3.61457959D-01 1.07903944D-04
 -------------------------------------------------------------------
 Center     Atomic                   Forces (Hartrees/Bohr)
 Number     Number              X              Y              Z
 -------------------------------------------------------------------
      1        6          -0.000000000   -0.000000000   -0.000000000
      2       16          -0.000000000   -0.000000000   -0.000000000
      3        1          -0.000928156   -0.002172985   -0.000000072
      4        1           0.021576124    0.006929795    0.000010192
      5        1           0.020396152   -0.006539915   -0.006333497
      6        1           0.020395638   -0.006582858    0.006296009
 -------------------------------------------------------------------
 Cartesian Forces:  Max     0.021576124 RMS     0.009180224
 Leave Link  716 at Mon Apr 21 19:37:06 2025, MaxMem=   536870912 cpu:               0.6 elap:               0.1
 (Enter /home/szhao/Apps/g16/l103.exe)

 GradGradGradGradGradGradGradGradGradGradGradGradGradGradGradGradGradGrad
 Berny optimization.
 FormGI is forming the generalized inverse of G from B-inverse, IUseBI=4.
 Internal  Forces:  Max     0.062367914 RMS     0.018861022
 Search for a local minimum.
 Step number   1 out of a maximum of   30
 All quantities printed in internal units (Hartrees-Bohrs-Radians)
 RMS Force = .15080D-01 SwitMx=.10000D-02 MixMth= 1
 Mixed Optimization -- RFO/linear search
 Second derivative matrix not updated -- first step.
 The second derivative matrix:
                          X1        Y1        Z1        X2        Y2
           X1           0.50000
           Y1           0.00000   0.50000
           Z1           0.00000   0.00000   0.50000
           X2           0.00000   0.00000   0.00000   0.50000
           Y2           0.00000   0.00000   0.00000   0.00000   0.50000
           Z2           0.00000   0.00000   0.00000   0.00000   0.00000
           R1           0.00000   0.00000   0.00000   0.00000   0.00000
           R2           0.00000   0.00000   0.00000   0.00000   0.00000
           R3           0.00000   0.00000   0.00000   0.00000   0.00000
           R4           0.00000   0.00000   0.00000   0.00000   0.00000
           A1           0.00000   0.00000   0.00000   0.00000   0.00000
           A2           0.00000   0.00000   0.00000   0.00000   0.00000
           A3           0.00000   0.00000   0.00000   0.00000   0.00000
           A4           0.00000   0.00000   0.00000   0.00000   0.00000
           A5           0.00000   0.00000   0.00000   0.00000   0.00000
           A6           0.00000   0.00000   0.00000   0.00000   0.00000
           A7           0.00000   0.00000   0.00000   0.00000   0.00000
           D1           0.00000   0.00000   0.00000   0.00000   0.00000
           D2           0.00000   0.00000   0.00000   0.00000   0.00000
           D3           0.00000   0.00000   0.00000   0.00000   0.00000
                          Z2        R1        R2        R3        R4
           Z2           0.50000
           R1           0.00000   0.34961
           R2           0.00000   0.00000   0.35028
           R3           0.00000   0.00000   0.00000   0.35028
           R4           0.00000   0.00000   0.00000   0.00000   0.26329
           A1           0.00000   0.00000   0.00000   0.00000   0.00000
           A2           0.00000   0.00000   0.00000   0.00000   0.00000
           A3           0.00000   0.00000   0.00000   0.00000   0.00000
           A4           0.00000   0.00000   0.00000   0.00000   0.00000
           A5           0.00000   0.00000   0.00000   0.00000   0.00000
           A6           0.00000   0.00000   0.00000   0.00000   0.00000
           A7           0.00000   0.00000   0.00000   0.00000   0.00000
           D1           0.00000   0.00000   0.00000   0.00000   0.00000
           D2           0.00000   0.00000   0.00000   0.00000   0.00000
           D3           0.00000   0.00000   0.00000   0.00000   0.00000
                          A1        A2        A3        A4        A5
           A1           0.16000
           A2           0.00000   0.16000
           A3           0.00000   0.00000   0.16000
           A4           0.00000   0.00000   0.00000   0.16000
           A5           0.00000   0.00000   0.00000   0.00000   0.16000
           A6           0.00000   0.00000   0.00000   0.00000   0.00000
           A7           0.00000   0.00000   0.00000   0.00000   0.00000
           D1           0.00000   0.00000   0.00000   0.00000   0.00000
           D2           0.00000   0.00000   0.00000   0.00000   0.00000
           D3           0.00000   0.00000   0.00000   0.00000   0.00000
                          A6        A7        D1        D2        D3
           A6           0.16000
           A7           0.00000   0.16000
           D1           0.00000   0.00000   0.00230
           D2           0.00000   0.00000   0.00000   0.00230
           D3           0.00000   0.00000   0.00000   0.00000   0.00230
 ITU=  0
     Eigenvalues ---    0.00230   0.09535   0.10226   0.16000   0.16000
     Eigenvalues ---    0.16000   0.16000   0.26329   0.34961   0.35028
     Eigenvalues ---    0.350281000.000001000.000001000.000001000.00000
     Eigenvalues --- 1000.000001000.000001000.000001000.000001000.00000
 RFO step:  Lambda=-1.79683496D-02 EMin= 2.30000000D-03
 Linear search not attempted -- first point.
 Maximum step size (   0.300) exceeded in Quadratic search.
    -- Step size scaled by   0.945
 Iteration  1 RMS(Cart)=  0.09781742 RMS(Int)=  0.00913354
 Iteration  2 RMS(Cart)=  0.00928690 RMS(Int)=  0.00553100
 Iteration  3 RMS(Cart)=  0.00017017 RMS(Int)=  0.00553005
 Iteration  4 RMS(Cart)=  0.00000375 RMS(Int)=  0.00553005
 Iteration  5 RMS(Cart)=  0.00000008 RMS(Int)=  0.00553005
 ITry= 1 IFail=0 DXMaxC= 2.57D-01 DCOld= 1.00D+10 DXMaxT= 3.00D-01 DXLimC= 3.00D+00 Rises=F
 Variable       Old X    -DE/DX   Delta X   Delta X   Delta X     New X
                                 (Linear)    (Quad)   (Total)
    X1       -4.03498   0.06237   0.00000   0.00000   0.00000  -4.03498
    Y1        0.00000  -0.00584   0.00000   0.00000   0.00000   0.00000
    Z1        0.00000  -0.00003   0.00000   0.00000   0.00000   0.00000
    X2        4.03498  -0.00093   0.00000   0.00000   0.00000   4.03498
    Y2        0.00000  -0.00253   0.00000   0.00000   0.00000   0.00000
    Z2        0.00000   0.00000   0.00000   0.00000   0.00000   0.00000
    R1        2.05738   0.00063   0.00000   0.00161   0.00161   2.05898
    R2        2.05629   0.00067   0.00000   0.00172   0.00172   2.05801
    R3        2.05629   0.00067   0.00000   0.00173   0.00173   2.05801
    R4        2.53443   0.00205   0.00000   0.00689   0.00689   2.54132
    A1        1.85395  -0.02302   0.00000  -0.11739  -0.12504   1.72891
    A2        1.94230  -0.02273   0.00000  -0.12323  -0.13153   1.81076
    A3        1.94221  -0.02273   0.00000  -0.12320  -0.13150   1.81071
    A4        1.89795   0.02368   0.00000   0.13052   0.11937   2.01732
    A5        1.89780   0.02369   0.00000   0.13062   0.11947   2.01728
    A6        1.92721   0.02175   0.00000   0.10699   0.09418   2.02139
    A7        1.68629  -0.00297   0.00000  -0.01577  -0.01577   1.67051
    D1        3.13880   0.00001   0.00000   0.00006   0.00005   3.13886
    D2       -1.08142   0.00242   0.00000   0.02018   0.01906  -1.06236
    D3        1.07606  -0.00243   0.00000  -0.02023  -0.01911   1.05695
         Item               Value     Threshold  Converged?
 Maximum Force            0.023686     0.000450     NO 
 RMS     Force            0.015080     0.000300     NO 
 Maximum Displacement     0.257333     0.001800     NO 
 RMS     Displacement     0.104111     0.001200     NO 
 Predicted change in Energy=-9.679581D-03
 Lowest energy point so far.  Saving SCF results.
 GradGradGradGradGradGradGradGradGradGradGradGradGradGradGradGradGradGrad

 Leave Link  103 at Mon Apr 21 19:37:06 2025, MaxMem=   536870912 cpu:               0.4 elap:               0.1
 (Enter /home/szhao/Apps/g16/l202.exe)
                          Input orientation:                          
 ---------------------------------------------------------------------
 Center     Atomic      Atomic             Coordinates (Angstroms)
 Number     Number       Type             X           Y           Z
 ---------------------------------------------------------------------
      1          6           0       -2.135220    0.000000    0.000000
      2         16           0        2.135220    0.000000    0.000000
      3          1           0        2.269097   -1.338130    0.000008
      4          1           0       -2.306774    1.075973    0.002936
      5          1           0       -2.394055   -0.514980   -0.924030
      6          1           0       -2.393999   -0.519962    0.921256
 ---------------------------------------------------------------------
                    Distance matrix (angstroms):
                    1          2          3          4          5
     1  C    0.000000
     2  S    4.270439   0.000000
     3  H    4.603107   1.344811   0.000000
     4  H    1.089567   4.570452   5.173635   0.000000
     5  H    1.089051   4.651168   4.824563   1.843371   0.000000
     6  H    1.089055   4.651118   4.823128   1.843347   1.845292
                    6
     6  H    0.000000
 Symmetry turned off by external request.
 Stoichiometry    CH4S
 Framework group  C1[X(CH4S)]
 Deg. of freedom    12
 Full point group                 C1      NOp   1
 Rotational constants (GHZ):          97.7610702           2.5972544           2.5742640
 Leave Link  202 at Mon Apr 21 19:37:06 2025, MaxMem=   536870912 cpu:               0.3 elap:               0.1
 (Enter /home/szhao/Apps/g16/l301.exe)
 Standard basis: 6-311+G(d,p) (5D, 7F)
 Ernie: Thresh=  0.10000D-02 Tol=  0.10000D-05 Strict=F.
    76 basis functions,   118 primitive gaussians,    78 cartesian basis functions
    13 alpha electrons       13 beta electrons
       nuclear repulsion energy        34.3024672985 Hartrees.
 IExCor= 4336 DFT=T Ex+Corr=M062X ExCW=0 ScaHFX=  0.540000
 ScaDFX=  1.000000  1.000000  1.000000  1.000000 ScalE2=  1.000000  1.000000
 IRadAn=      7 IRanWt=     -1 IRanGd=            0 ICorTp=0 IEmpDi=  4
 NAtoms=    6 NActive=    6 NUniq=    6 SFac= 1.00D+00 NAtFMM=   60 NAOKFM=F Big=F
 Integral buffers will be    131072 words long.
 Raffenetti 2 integral format.
 Two-electron integral symmetry is turned off.
 Leave Link  301 at Mon Apr 21 19:37:07 2025, MaxMem=   536870912 cpu:               0.6 elap:               0.1
 (Enter /home/szhao/Apps/g16/l302.exe)
 NPDir=0 NMtPBC=     1 NCelOv=     1 NCel=       1 NClECP=     1 NCelD=      1
         NCelK=      1 NCelE2=     1 NClLst=     1 CellRange=     0.0.
 One-electron integrals computed using PRISM.
 NBasis=    76 RedAO= T EigKep=  9.81D-03  NBF=    76
 NBsUse=    76 1.00D-06 EigRej= -1.00D+00 NBFU=    76
 Precomputing XC quadrature grid using
 IXCGrd= 4 IRadAn=           7 IRanWt=          -1 IRanGd=           0 AccXCQ= 0.00D+00.
 Generated NRdTot=       0 NPtTot=           0 NUsed=           0 NTot=          32
 NSgBfM=    77    77    77    77    77 MxSgAt=     6 MxSgA2=     6.
 Leave Link  302 at Mon Apr 21 19:37:07 2025, MaxMem=   536870912 cpu:               2.2 elap:               0.3
 (Enter /home/szhao/Apps/g16/l303.exe)
 DipDrv:  MaxL=1.
 Leave Link  303 at Mon Apr 21 19:37:07 2025, MaxMem=   536870912 cpu:               0.5 elap:               0.1
 (Enter /home/szhao/Apps/g16/l401.exe)
 Initial guess from the checkpoint file:  "opt.chk"
 B after Tr=     0.027864   -0.004648   -0.000023
         Rot=    1.000000    0.000005    0.000003   -0.000364 Ang=   0.04 deg.
 Guess basis will be translated and rotated to current coordinates.
 JPrj=2 DoOrth=T DoCkMO=T.
 Initial guess <Sx>= 0.0000 <Sy>= 0.0000 <Sz>= 0.0000 <S**2>=-0.0000 S=-0.0000
 Generating alternative initial guess.
 ExpMin= 4.05D-02 ExpMax= 9.34D+04 ExpMxC= 3.17D+03 IAcc=3 IRadAn=         5 AccDes= 0.00D+00
 Harris functional with IExCor= 1009 and IRadAn=       5 diagonalized for initial guess.
 HarFok:  IExCor= 1009 AccDes= 0.00D+00 IRadAn=         5 IDoV= 1 UseB2=F ITyADJ=14
 ICtDFT=  3500011 ScaDFX=  1.000000  1.000000  1.000000  1.000000
 FoFCou: FMM=F IPFlag=           0 FMFlag=      100000 FMFlg1=           0
         NFxFlg=           0 DoJE=T BraDBF=F KetDBF=T FulRan=T
         wScrn=  0.000000 ICntrl=       500 IOpCl=  0 I1Cent=   200000004 NGrid=           0
         NMat0=    1 NMatS0=      1 NMatT0=    0 NMatD0=    1 NMtDS0=    0 NMtDT0=    0
 Symmetry not used in FoFCou.
 Harris En= -438.336110927804    
 Leave Link  401 at Mon Apr 21 19:37:08 2025, MaxMem=   536870912 cpu:               2.6 elap:               0.3
 (Enter /home/szhao/Apps/g16/l502.exe)
 Keep R1 and R2 ints in memory in canonical form, NReq=15806772.
 FoFCou: FMM=F IPFlag=           0 FMFlag=           0 FMFlg1=           0
         NFxFlg=           0 DoJE=F BraDBF=F KetDBF=F FulRan=T
         wScrn=  0.000000 ICntrl=       600 IOpCl=  0 I1Cent=           0 NGrid=           0
         NMat0=    1 NMatS0=   2926 NMatT0=    0 NMatD0=    1 NMtDS0=    0 NMtDT0=    0
 Symmetry not used in FoFCou.
 Two-electron integral symmetry not used.
 UHF open shell SCF:
 Using DIIS extrapolation, IDIIS=  1040.
 NGot=   536870912 LenX=   528292970 LenY=   528286445
 Requested convergence on RMS density matrix=1.00D-08 within 128 cycles.
 Requested convergence on MAX density matrix=1.00D-06.
 Requested convergence on             energy=1.00D-06.
 No special actions if energy rises.

 Cycle   1  Pass 1  IDiag  1:
 E= -438.480251678295    
 DIIS: error= 5.61D-03 at cycle   1 NSaved=   1.
 NSaved= 1 IEnMin= 1 EnMin= -438.480251678295     IErMin= 1 ErrMin= 5.61D-03
 ErrMax= 5.61D-03  0.00D+00 EMaxC= 1.00D-01 BMatC= 7.55D-03 BMatP= 7.55D-03
 IDIUse=3 WtCom= 9.44D-01 WtEn= 5.61D-02
 Coeff-Com:  0.100D+01
 Coeff-En:   0.100D+01
 Coeff:      0.100D+01
 Gap=     0.442 Goal=   None    Shift=    0.000
 Gap=     0.442 Goal=   None    Shift=    0.000
 GapD=    0.442 DampG=2.000 DampE=1.000 DampFc=2.0000 IDamp=-1.
 RMSDP=6.78D-04 MaxDP=1.05D-02              OVMax= 4.00D-02

 Cycle   2  Pass 1  IDiag  1:
 E= -438.482763138319     Delta-E=       -0.002511460024 Rises=F Damp=F
 DIIS: error= 2.95D-03 at cycle   2 NSaved=   2.
 NSaved= 2 IEnMin= 2 EnMin= -438.482763138319     IErMin= 2 ErrMin= 2.95D-03
 ErrMax= 2.95D-03  0.00D+00 EMaxC= 1.00D-01 BMatC= 1.00D-03 BMatP= 7.55D-03
 IDIUse=3 WtCom= 9.71D-01 WtEn= 2.95D-02
 Coeff-Com:  0.466D-01 0.953D+00
 Coeff-En:   0.000D+00 0.100D+01
 Coeff:      0.452D-01 0.955D+00
 Gap=     0.086 Goal=   None    Shift=    0.000
 Gap=     0.086 Goal=   None    Shift=    0.000
 RMSDP=1.00D-03 MaxDP=3.35D-02 DE=-2.51D-03 OVMax= 9.53D-02

 Cycle   3  Pass 1  IDiag  1:
 E= -438.475310692208     Delta-E=        0.007452446111 Rises=F Damp=F
 DIIS: error= 1.38D-02 at cycle   3 NSaved=   3.
 NSaved= 3 IEnMin= 2 EnMin= -438.482763138319     IErMin= 2 ErrMin= 2.95D-03
 ErrMax= 1.38D-02  0.00D+00 EMaxC= 1.00D-01 BMatC= 1.89D-02 BMatP= 1.00D-03
 IDIUse=2 WtCom= 0.00D+00 WtEn= 1.00D+00
 Coeff-En:   0.000D+00 0.887D+00 0.113D+00
 Coeff:      0.000D+00 0.887D+00 0.113D+00
 Gap=     0.089 Goal=   None    Shift=    0.000
 Gap=     0.089 Goal=   None    Shift=    0.000
 RMSDP=5.33D-04 MaxDP=1.77D-02 DE= 7.45D-03 OVMax= 5.19D-02

 Cycle   4  Pass 1  IDiag  1:
 E= -438.482263547602     Delta-E=       -0.006952855395 Rises=F Damp=F
 DIIS: error= 4.73D-03 at cycle   4 NSaved=   4.
 NSaved= 4 IEnMin= 2 EnMin= -438.482763138319     IErMin= 2 ErrMin= 2.95D-03
 ErrMax= 4.73D-03  0.00D+00 EMaxC= 1.00D-01 BMatC= 2.20D-03 BMatP= 1.00D-03
 IDIUse=3 WtCom= 1.27D-01 WtEn= 8.73D-01
 Coeff-Com: -0.239D-01 0.193D+00-0.371D+00 0.120D+01
 Coeff-En:   0.000D+00 0.625D+00 0.000D+00 0.375D+00
 Coeff:     -0.303D-02 0.570D+00-0.471D-01 0.480D+00
 Gap=     0.090 Goal=   None    Shift=    0.000
 Gap=     0.090 Goal=   None    Shift=    0.000
 RMSDP=2.92D-04 MaxDP=9.74D-03 DE=-6.95D-03 OVMax= 2.83D-02

 Cycle   5  Pass 1  IDiag  1:
 E= -438.483208904836     Delta-E=       -0.000945357233 Rises=F Damp=F
 DIIS: error= 2.30D-04 at cycle   5 NSaved=   5.
 NSaved= 5 IEnMin= 5 EnMin= -438.483208904836     IErMin= 5 ErrMin= 2.30D-04
 ErrMax= 2.30D-04  0.00D+00 EMaxC= 1.00D-01 BMatC= 6.14D-06 BMatP= 1.00D-03
 IDIUse=3 WtCom= 9.98D-01 WtEn= 2.30D-03
 Coeff-Com: -0.147D-01 0.325D-01 0.109D+00-0.274D+00 0.115D+01
 Coeff-En:   0.000D+00 0.000D+00 0.000D+00 0.000D+00 0.100D+01
 Coeff:     -0.147D-01 0.324D-01 0.109D+00-0.274D+00 0.115D+01
 Gap=     0.090 Goal=   None    Shift=    0.000
 Gap=     0.090 Goal=   None    Shift=    0.000
 RMSDP=2.81D-05 MaxDP=6.75D-04 DE=-9.45D-04 OVMax= 8.90D-04

 Cycle   6  Pass 1  IDiag  1:
 E= -438.483211233018     Delta-E=       -0.000002328182 Rises=F Damp=F
 DIIS: error= 1.06D-04 at cycle   6 NSaved=   6.
 NSaved= 6 IEnMin= 6 EnMin= -438.483211233018     IErMin= 6 ErrMin= 1.06D-04
 ErrMax= 1.06D-04  0.00D+00 EMaxC= 1.00D-01 BMatC= 1.10D-06 BMatP= 6.14D-06
 IDIUse=3 WtCom= 9.99D-01 WtEn= 1.06D-03
 Coeff-Com:  0.161D-02-0.233D-01 0.524D-02-0.800D-02 0.902D-03 0.102D+01
 Coeff-En:   0.000D+00 0.000D+00 0.000D+00 0.000D+00 0.000D+00 0.100D+01
 Coeff:      0.161D-02-0.233D-01 0.524D-02-0.799D-02 0.901D-03 0.102D+01
 Gap=     0.090 Goal=   None    Shift=    0.000
 Gap=     0.090 Goal=   None    Shift=    0.000
 RMSDP=9.93D-06 MaxDP=2.18D-04 DE=-2.33D-06 OVMax= 6.20D-04

 Cycle   7  Pass 1  IDiag  1:
 E= -438.483211749391     Delta-E=       -0.000000516374 Rises=F Damp=F
 DIIS: error= 5.70D-06 at cycle   7 NSaved=   7.
 NSaved= 7 IEnMin= 7 EnMin= -438.483211749391     IErMin= 7 ErrMin= 5.70D-06
 ErrMax= 5.70D-06  0.00D+00 EMaxC= 1.00D-01 BMatC= 1.84D-08 BMatP= 1.10D-06
 IDIUse=1 WtCom= 1.00D+00 WtEn= 0.00D+00
 Coeff-Com:  0.884D-03-0.859D-02 0.859D-02-0.263D-01-0.704D-03 0.208D+00
 Coeff-Com:  0.818D+00
 Coeff:      0.884D-03-0.859D-02 0.859D-02-0.263D-01-0.704D-03 0.208D+00
 Coeff:      0.818D+00
 Gap=     0.090 Goal=   None    Shift=    0.000
 Gap=     0.090 Goal=   None    Shift=    0.000
 RMSDP=1.36D-06 MaxDP=2.53D-05 DE=-5.16D-07 OVMax= 5.69D-05

 Cycle   8  Pass 1  IDiag  1:
 E= -438.483211755950     Delta-E=       -0.000000006559 Rises=F Damp=F
 DIIS: error= 3.64D-06 at cycle   8 NSaved=   8.
 NSaved= 8 IEnMin= 8 EnMin= -438.483211755950     IErMin= 8 ErrMin= 3.64D-06
 ErrMax= 3.64D-06  0.00D+00 EMaxC= 1.00D-01 BMatC= 1.51D-09 BMatP= 1.84D-08
 IDIUse=1 WtCom= 1.00D+00 WtEn= 0.00D+00
 Coeff-Com: -0.238D-03 0.289D-02-0.158D-03 0.465D-03 0.520D-02-0.113D+00
 Coeff-Com: -0.227D-02 0.111D+01
 Coeff:     -0.238D-03 0.289D-02-0.158D-03 0.465D-03 0.520D-02-0.113D+00
 Coeff:     -0.227D-02 0.111D+01
 Gap=     0.090 Goal=   None    Shift=    0.000
 Gap=     0.090 Goal=   None    Shift=    0.000
 RMSDP=6.28D-07 MaxDP=1.10D-05 DE=-6.56D-09 OVMax= 3.50D-05

 Cycle   9  Pass 1  IDiag  1:
 E= -438.483211757005     Delta-E=       -0.000000001055 Rises=F Damp=F
 DIIS: error= 1.75D-06 at cycle   9 NSaved=   9.
 NSaved= 9 IEnMin= 9 EnMin= -438.483211757005     IErMin= 9 ErrMin= 1.75D-06
 ErrMax= 1.75D-06  0.00D+00 EMaxC= 1.00D-01 BMatC= 4.15D-10 BMatP= 1.51D-09
 IDIUse=1 WtCom= 1.00D+00 WtEn= 0.00D+00
 Coeff-Com:  0.271D-05-0.809D-04-0.338D-03 0.571D-03 0.986D-06 0.839D-02
 Coeff-Com: -0.249D-01-0.149D+00 0.117D+01
 Coeff:      0.271D-05-0.809D-04-0.338D-03 0.571D-03 0.986D-06 0.839D-02
 Coeff:     -0.249D-01-0.149D+00 0.117D+01
 Gap=     0.090 Goal=   None    Shift=    0.000
 Gap=     0.090 Goal=   None    Shift=    0.000
 RMSDP=1.94D-07 MaxDP=5.31D-06 DE=-1.05D-09 OVMax= 1.57D-05

 Cycle  10  Pass 1  IDiag  1:
 E= -438.483211757210     Delta-E=       -0.000000000205 Rises=F Damp=F
 DIIS: error= 6.05D-07 at cycle  10 NSaved=  10.
 NSaved=10 IEnMin=10 EnMin= -438.483211757210     IErMin=10 ErrMin= 6.05D-07
 ErrMax= 6.05D-07  0.00D+00 EMaxC= 1.00D-01 BMatC= 2.91D-11 BMatP= 4.15D-10
 IDIUse=1 WtCom= 1.00D+00 WtEn= 0.00D+00
 Coeff-Com:  0.137D-04-0.178D-03-0.137D-03 0.464D-03-0.900D-03 0.832D-02
 Coeff-Com: -0.712D-02-0.815D-01 0.125D+00 0.956D+00
 Coeff:      0.137D-04-0.178D-03-0.137D-03 0.464D-03-0.900D-03 0.832D-02
 Coeff:     -0.712D-02-0.815D-01 0.125D+00 0.956D+00
 Gap=     0.090 Goal=   None    Shift=    0.000
 Gap=     0.090 Goal=   None    Shift=    0.000
 RMSDP=3.99D-08 MaxDP=1.62D-06 DE=-2.05D-10 OVMax= 4.42D-06

 Cycle  11  Pass 1  IDiag  1:
 E= -438.483211757225     Delta-E=       -0.000000000015 Rises=F Damp=F
 DIIS: error= 2.60D-07 at cycle  11 NSaved=  11.
 NSaved=11 IEnMin=11 EnMin= -438.483211757225     IErMin=11 ErrMin= 2.60D-07
 ErrMax= 2.60D-07  0.00D+00 EMaxC= 1.00D-01 BMatC= 2.44D-12 BMatP= 2.91D-11
 IDIUse=1 WtCom= 1.00D+00 WtEn= 0.00D+00
 Coeff-Com:  0.681D-05-0.844D-04-0.625D-04 0.232D-03-0.491D-03 0.387D-02
 Coeff-Com: -0.326D-02-0.318D-01 0.352D-01 0.417D+00 0.579D+00
 Coeff:      0.681D-05-0.844D-04-0.625D-04 0.232D-03-0.491D-03 0.387D-02
 Coeff:     -0.326D-02-0.318D-01 0.352D-01 0.417D+00 0.579D+00
 Gap=     0.090 Goal=   None    Shift=    0.000
 Gap=     0.090 Goal=   None    Shift=    0.000
 RMSDP=3.27D-08 MaxDP=1.17D-06 DE=-1.55D-11 OVMax= 3.51D-06

 Cycle  12  Pass 1  IDiag  1:
 E= -438.483211757235     Delta-E=       -0.000000000010 Rises=F Damp=F
 DIIS: error= 3.36D-07 at cycle  12 NSaved=  12.
 NSaved=12 IEnMin=12 EnMin= -438.483211757235     IErMin=11 ErrMin= 2.60D-07
 ErrMax= 3.36D-07  0.00D+00 EMaxC= 1.00D-01 BMatC= 4.37D-12 BMatP= 2.44D-12
 IDIUse=1 WtCom= 1.00D+00 WtEn= 0.00D+00
 Coeff-Com:  0.434D-05-0.460D-04-0.203D-04 0.137D-03-0.395D-03 0.182D-02
 Coeff-Com: -0.912D-03-0.702D-03-0.567D-01 0.184D+00 0.180D+01-0.926D+00
 Coeff:      0.434D-05-0.460D-04-0.203D-04 0.137D-03-0.395D-03 0.182D-02
 Coeff:     -0.912D-03-0.702D-03-0.567D-01 0.184D+00 0.180D+01-0.926D+00
 Gap=     0.090 Goal=   None    Shift=    0.000
 Gap=     0.090 Goal=   None    Shift=    0.000
 RMSDP=6.07D-08 MaxDP=2.08D-06 DE=-9.66D-12 OVMax= 6.26D-06

 Cycle  13  Pass 1  IDiag  1:
 E= -438.483211757222     Delta-E=        0.000000000013 Rises=F Damp=F
 DIIS: error= 4.51D-08 at cycle  13 NSaved=  13.
 NSaved=13 IEnMin=12 EnMin= -438.483211757235     IErMin=13 ErrMin= 4.51D-08
 ErrMax= 4.51D-08  0.00D+00 EMaxC= 1.00D-01 BMatC= 8.69D-14 BMatP= 2.44D-12
 IDIUse=1 WtCom= 1.00D+00 WtEn= 0.00D+00
 Coeff-Com:  0.719D-06-0.440D-05-0.245D-05 0.119D-04-0.567D-04 0.183D-03
 Coeff-Com: -0.814D-04 0.254D-03-0.138D-01-0.253D-01 0.325D+00-0.247D+00
 Coeff-Com:  0.961D+00
 Coeff:      0.719D-06-0.440D-05-0.245D-05 0.119D-04-0.567D-04 0.183D-03
 Coeff:     -0.814D-04 0.254D-03-0.138D-01-0.253D-01 0.325D+00-0.247D+00
 Coeff:      0.961D+00
 Gap=     0.090 Goal=   None    Shift=    0.000
 Gap=     0.090 Goal=   None    Shift=    0.000
 RMSDP=6.58D-09 MaxDP=2.44D-07 DE= 1.31D-11 OVMax= 7.49D-07

 SCF Done:  E(UM062X) =  -438.483211757     A.U. after   13 cycles
            NFock= 13  Conv=0.66D-08     -V/T= 2.0018
 <Sx>= 0.0000 <Sy>= 0.0000 <Sz>= 0.0000 <S**2>=-0.0000 S=-0.0000
 <L.S>=  0.00000000000    
 KE= 4.377022700216D+02 PE=-1.109008192532D+03 EE= 1.985202434543D+02
 Annihilation of the first spin contaminant:
 S**2 before annihilation    -0.0000,   after     0.0000
 Leave Link  502 at Mon Apr 21 19:37:18 2025, MaxMem=   536870912 cpu:              74.0 elap:               9.9
 (Enter /home/szhao/Apps/g16/l701.exe)
 ... and contract with generalized density number  0.
 Compute integral first derivatives.
 Leave Link  701 at Mon Apr 21 19:37:18 2025, MaxMem=   536870912 cpu:               1.2 elap:               0.2
 (Enter /home/szhao/Apps/g16/l702.exe)
 L702 exits ... SP integral derivatives will be done elsewhere.
 Leave Link  702 at Mon Apr 21 19:37:18 2025, MaxMem=   536870912 cpu:               0.8 elap:               0.1
 (Enter /home/szhao/Apps/g16/l703.exe)
 Integral derivatives from FoFJK, PRISM(SPDF).
 Compute integral first derivatives, UseDBF=F ICtDFT=           0.
 Calling FoFJK, ICntrl=      2127 FMM=F ISym2X=0 I1Cent= 0 IOpClX= 1 NMat=1 NMatS=1 NMatT=0.
 FoFJK:  IHMeth= 1 ICntrl=    2127 DoSepK=F KAlg= 0 I1Cent=           0 FoldK=F
 IRaf=         0 NMat=       1 IRICut=       1 DoRegI=T DoRafI=F ISym2E= 0 IDoP0=0 IntGTp=1.
 FoFCou: FMM=F IPFlag=           0 FMFlag=      100000 FMFlg1=         800
         NFxFlg=           0 DoJE=F BraDBF=F KetDBF=F FulRan=T
         wScrn=  0.000000 ICntrl=      2127 IOpCl=  1 I1Cent=           0 NGrid=           0
         NMat0=    1 NMatS0=      1 NMatT0=    0 NMatD0=    1 NMtDS0=    0 NMtDT0=    0
 Symmetry not used in FoFCou.
 Leave Link  703 at Mon Apr 21 19:37:20 2025, MaxMem=   536870912 cpu:               9.1 elap:               1.2
 (Enter /home/szhao/Apps/g16/l716.exe)
 Dipole        =-1.96544813D+00-3.63797818D-01 6.07291015D-05
 -------------------------------------------------------------------
 Center     Atomic                   Forces (Hartrees/Bohr)
 Number     Number              X              Y              Z
 -------------------------------------------------------------------
      1        6          -0.000000000   -0.000000000   -0.000000000
      2       16          -0.000000000   -0.000000000   -0.000000000
      3        1          -0.000953320   -0.000091254   -0.000000071
      4        1           0.012586352   -0.001874512   -0.000007339
      5        1           0.012615906   -0.000377732    0.000712034
      6        1           0.012615222   -0.000374514   -0.000717562
 -------------------------------------------------------------------
 Cartesian Forces:  Max     0.012615906 RMS     0.005177178
 Leave Link  716 at Mon Apr 21 19:37:20 2025, MaxMem=   536870912 cpu:               0.7 elap:               0.1
 (Enter /home/szhao/Apps/g16/l103.exe)

 GradGradGradGradGradGradGradGradGradGradGradGradGradGradGradGradGradGrad
 Berny optimization.
 Using GEDIIS/GDIIS optimizer.
 FormGI is forming the generalized inverse of G from B-inverse, IUseBI=4.
 Internal  Forces:  Max     0.037817481 RMS     0.011739787
 Search for a local minimum.
 Step number   2 out of a maximum of   30
 All quantities printed in internal units (Hartrees-Bohrs-Radians)
 RMS Force = .97093D-02 SwitMx=.10000D-02 MixMth= 1
 Mixed Optimization -- RFO/linear search
 Update second derivatives using D2CorX and points    1    2
 DE= -1.38D-02 DEPred=-9.68D-03 R= 1.42D+00
 TightC=F SS=  1.41D+00  RLast= 2.98D-01 DXNew= 5.0454D-01 8.9326D-01
 Trust test= 1.42D+00 RLast= 2.98D-01 DXMaxT set to 5.05D-01
 The second derivative matrix:
                          X1        Y1        Z1        X2        Y2
           X1           0.59748
           Y1          -0.01392   0.50199
           Z1          -0.00006   0.00001   0.50000
           X2           0.00010  -0.00001  -0.00000   0.50000
           Y2          -0.00850   0.00121   0.00001  -0.00001   0.50074
           Z2          -0.00000   0.00000   0.00000  -0.00000   0.00000
           R1           0.01770  -0.00253  -0.00001   0.00002  -0.00154
           R2           0.01625  -0.00232  -0.00001   0.00002  -0.00142
           R3           0.01628  -0.00232  -0.00001   0.00002  -0.00142
           R4           0.00816  -0.00117  -0.00000   0.00001  -0.00071
           A1          -0.02410   0.00344   0.00001  -0.00002   0.00210
           A2          -0.02277   0.00325   0.00001  -0.00002   0.00199
           A3          -0.02278   0.00325   0.00001  -0.00002   0.00199
           A4           0.04755  -0.00679  -0.00003   0.00005  -0.00415
           A5           0.04758  -0.00680  -0.00003   0.00005  -0.00415
           A6           0.04015  -0.00573  -0.00002   0.00004  -0.00350
           A7          -0.00213   0.00030   0.00000  -0.00000   0.00019
           D1           0.00002  -0.00000  -0.00000   0.00000  -0.00000
           D2           0.00601  -0.00086  -0.00000   0.00001  -0.00052
           D3          -0.00603   0.00086   0.00000  -0.00001   0.00053
                          Z2        R1        R2        R3        R4
           Z2           0.50000
           R1          -0.00000   0.35281
           R2          -0.00000   0.00293   0.35297
           R3          -0.00000   0.00293   0.00269   0.35298
           R4          -0.00000   0.00141   0.00128   0.00128   0.26374
           A1           0.00000  -0.00358  -0.00316  -0.00316   0.00056
           A2           0.00000  -0.00330  -0.00290  -0.00290   0.00081
           A3           0.00000  -0.00330  -0.00290  -0.00290   0.00080
           A4          -0.00000   0.00787   0.00711   0.00712   0.00152
           A5          -0.00000   0.00788   0.00712   0.00712   0.00152
           A6          -0.00000   0.00669   0.00605   0.00606   0.00142
           A7           0.00000  -0.00029  -0.00025  -0.00025   0.00015
           D1          -0.00000   0.00000   0.00000   0.00000   0.00000
           D2          -0.00000   0.00109   0.00100   0.00100   0.00050
           D3           0.00000  -0.00109  -0.00100  -0.00101  -0.00050
                          A1        A2        A3        A4        A5
           A1           0.13753
           A2          -0.02428   0.13386
           A3          -0.02427  -0.02614   0.13387
           A4           0.01539   0.01745   0.01744   0.15728
           A5           0.01540   0.01746   0.01746  -0.00273   0.15727
           A6           0.01149   0.01315   0.01314  -0.00086  -0.00087
           A7          -0.00306  -0.00327  -0.00327   0.00238   0.00239
           D1          -0.00000  -0.00000  -0.00000   0.00001   0.00001
           D2          -0.00142  -0.00134  -0.00134   0.00287   0.00287
           D3           0.00143   0.00134   0.00134  -0.00288  -0.00288
                          A6        A7        D1        D2        D3
           A6           0.16040
           A7           0.00182   0.15959
           D1           0.00001  -0.00000   0.00230
           D2           0.00243  -0.00012   0.00000   0.00267
           D3          -0.00244   0.00012  -0.00000  -0.00037   0.00267
 ITU=  1  0
 Use linear search instead of GDIIS.
     Eigenvalues ---    0.00230   0.06306   0.11046   0.11323   0.16000
     Eigenvalues ---    0.16000   0.16017   0.26369   0.34985   0.35028
     Eigenvalues ---    0.360011000.000001000.000001000.000001000.00000
     Eigenvalues --- 1000.000001000.000001000.000001000.000001000.00000
 RFO step:  Lambda=-9.42904246D-04 EMin= 2.30000000D-03
 Quartic linear search produced a step of  1.27944.
 Iteration  1 RMS(Cart)=  0.16055758 RMS(Int)=  0.03550795
 Iteration  2 RMS(Cart)=  0.01750710 RMS(Int)=  0.03157853
 Iteration  3 RMS(Cart)=  0.00215201 RMS(Int)=  0.03156566
 Iteration  4 RMS(Cart)=  0.00060049 RMS(Int)=  0.03156466
 Iteration  5 RMS(Cart)=  0.00016787 RMS(Int)=  0.03156458
 Iteration  6 RMS(Cart)=  0.00004692 RMS(Int)=  0.03156458
 Iteration  7 RMS(Cart)=  0.00001311 RMS(Int)=  0.03156458
 Iteration  8 RMS(Cart)=  0.00000367 RMS(Int)=  0.03156458
 Iteration  9 RMS(Cart)=  0.00000102 RMS(Int)=  0.03156458
 Iteration 10 RMS(Cart)=  0.00000029 RMS(Int)=  0.03156458
 ITry= 1 IFail=0 DXMaxC= 3.97D-01 DCOld= 1.00D+10 DXMaxT= 5.05D-01 DXLimC= 3.00D+00 Rises=F
 Variable       Old X    -DE/DX   Delta X   Delta X   Delta X     New X
                                 (Linear)    (Quad)   (Total)
    X1       -4.03498   0.03782   0.00000   0.00000   0.00000  -4.03498
    Y1        0.00000  -0.00233   0.00000   0.00000   0.00000   0.00000
    Z1        0.00000  -0.00001   0.00000   0.00000   0.00000   0.00000
    X2        4.03498  -0.00095   0.00000   0.00000   0.00000   4.03498
    Y2        0.00000  -0.00039   0.00000   0.00000   0.00000   0.00000
    Z2        0.00000   0.00000   0.00000   0.00000   0.00000   0.00000
    R1        2.05898  -0.00383   0.00206  -0.02802  -0.02597   2.03302
    R2        2.05801  -0.00342   0.00220  -0.02540  -0.02320   2.03481
    R3        2.05801  -0.00343   0.00221  -0.02542  -0.02321   2.03480
    R4        2.54132  -0.00000   0.00882  -0.01034  -0.00153   2.53980
    A1        1.72891  -0.01695  -0.15998  -0.02265  -0.18827   1.54064
    A2        1.81076  -0.01699  -0.16829  -0.02030  -0.19445   1.61631
    A3        1.81071  -0.01699  -0.16825  -0.02029  -0.19441   1.61630
    A4        2.01732   0.01170   0.15273   0.00449   0.07696   2.09428
    A5        2.01728   0.01170   0.15286   0.00438   0.07699   2.09427
    A6        2.02139   0.01164   0.12050   0.03386   0.07111   2.09250
    A7        1.67051  -0.00243  -0.02018  -0.00988  -0.03006   1.64045
    D1        3.13886   0.00000   0.00007  -0.00009  -0.00003   3.13883
    D2       -1.06236   0.00091   0.02439  -0.01012   0.01155  -1.05080
    D3        1.05695  -0.00091  -0.02444   0.01005  -0.01167   1.04529
         Item               Value     Threshold  Converged?
 Maximum Force            0.016992     0.000450     NO 
 RMS     Force            0.009709     0.000300     NO 
 Maximum Displacement     0.396543     0.001800     NO 
 RMS     Displacement     0.153660     0.001200     NO 
 Predicted change in Energy=-8.642971D-03
 Lowest energy point so far.  Saving SCF results.
 GradGradGradGradGradGradGradGradGradGradGradGradGradGradGradGradGradGrad

 Leave Link  103 at Mon Apr 21 19:37:20 2025, MaxMem=   536870912 cpu:               1.2 elap:               0.2
 (Enter /home/szhao/Apps/g16/l202.exe)
                          Input orientation:                          
 ---------------------------------------------------------------------
 Center     Atomic      Atomic             Coordinates (Angstroms)
 Number     Number       Type             X           Y           Z
 ---------------------------------------------------------------------
      1          6           0       -2.135220    0.000000    0.000000
      2         16           0        2.135220    0.000000    0.000000
      3          1           0        2.228763   -1.340743    0.000070
      4          1           0       -2.102778    1.075333    0.002915
      5          1           0       -2.184214   -0.534516   -0.933454
      6          1           0       -2.184203   -0.539559    0.930544
 ---------------------------------------------------------------------
                    Distance matrix (angstroms):
                    1          2          3          4          5
     1  C    0.000000
     2  S    4.270439   0.000000
     3  H    4.565297   1.344002   0.000000
     4  H    1.075826   4.372296   4.959806   0.000000
     5  H    1.076775   4.451354   4.582122   1.864144   0.000000
     6  H    1.076771   4.451342   4.580606   1.864135   1.864005
                    6
     6  H    0.000000
 Symmetry turned off by external request.
 Stoichiometry    CH4S
 Framework group  C1[X(CH4S)]
 Deg. of freedom    12
 Full point group                 C1      NOp   1
 Rotational constants (GHZ):          96.2099619           2.6507469           2.6266213
 Leave Link  202 at Mon Apr 21 19:37:21 2025, MaxMem=   536870912 cpu:               0.1 elap:               0.0
 (Enter /home/szhao/Apps/g16/l301.exe)
 Standard basis: 6-311+G(d,p) (5D, 7F)
 Ernie: Thresh=  0.10000D-02 Tol=  0.10000D-05 Strict=F.
    76 basis functions,   118 primitive gaussians,    78 cartesian basis functions
    13 alpha electrons       13 beta electrons
       nuclear repulsion energy        34.6697962499 Hartrees.
 IExCor= 4336 DFT=T Ex+Corr=M062X ExCW=0 ScaHFX=  0.540000
 ScaDFX=  1.000000  1.000000  1.000000  1.000000 ScalE2=  1.000000  1.000000
 IRadAn=      7 IRanWt=     -1 IRanGd=            0 ICorTp=0 IEmpDi=  4
 NAtoms=    6 NActive=    6 NUniq=    6 SFac= 1.00D+00 NAtFMM=   60 NAOKFM=F Big=F
 Integral buffers will be    131072 words long.
 Raffenetti 2 integral format.
 Two-electron integral symmetry is turned off.
 Leave Link  301 at Mon Apr 21 19:37:21 2025, MaxMem=   536870912 cpu:               0.9 elap:               0.1
 (Enter /home/szhao/Apps/g16/l302.exe)
 NPDir=0 NMtPBC=     1 NCelOv=     1 NCel=       1 NClECP=     1 NCelD=      1
         NCelK=      1 NCelE2=     1 NClLst=     1 CellRange=     0.0.
 One-electron integrals computed using PRISM.
 NBasis=    76 RedAO= T EigKep=  8.88D-03  NBF=    76
 NBsUse=    76 1.00D-06 EigRej= -1.00D+00 NBFU=    76
 Precomputing XC quadrature grid using
 IXCGrd= 4 IRadAn=           7 IRanWt=          -1 IRanGd=           0 AccXCQ= 0.00D+00.
 Generated NRdTot=       0 NPtTot=           0 NUsed=           0 NTot=          32
 NSgBfM=    77    77    77    77    77 MxSgAt=     6 MxSgA2=     6.
 Leave Link  302 at Mon Apr 21 19:37:22 2025, MaxMem=   536870912 cpu:               1.8 elap:               0.3
 (Enter /home/szhao/Apps/g16/l303.exe)
 DipDrv:  MaxL=1.
 Leave Link  303 at Mon Apr 21 19:37:22 2025, MaxMem=   536870912 cpu:               0.7 elap:               0.1
 (Enter /home/szhao/Apps/g16/l401.exe)
 Initial guess from the checkpoint file:  "opt.chk"
 B after Tr=     0.042370   -0.003407   -0.000014
         Rot=    1.000000    0.000007    0.000003   -0.000136 Ang=   0.02 deg.
 Guess basis will be translated and rotated to current coordinates.
 JPrj=2 DoOrth=T DoCkMO=T.
 Initial guess <Sx>= 0.0000 <Sy>= 0.0000 <Sz>= 0.0000 <S**2>= 0.0000 S= 0.0000
 Generating alternative initial guess.
 ExpMin= 4.05D-02 ExpMax= 9.34D+04 ExpMxC= 3.17D+03 IAcc=3 IRadAn=         5 AccDes= 0.00D+00
 Harris functional with IExCor= 1009 and IRadAn=       5 diagonalized for initial guess.
 HarFok:  IExCor= 1009 AccDes= 0.00D+00 IRadAn=         5 IDoV= 1 UseB2=F ITyADJ=14
 ICtDFT=  3500011 ScaDFX=  1.000000  1.000000  1.000000  1.000000
 FoFCou: FMM=F IPFlag=           0 FMFlag=      100000 FMFlg1=           0
         NFxFlg=           0 DoJE=T BraDBF=F KetDBF=T FulRan=T
         wScrn=  0.000000 ICntrl=       500 IOpCl=  0 I1Cent=   200000004 NGrid=           0
         NMat0=    1 NMatS0=      1 NMatT0=    0 NMatD0=    1 NMtDS0=    0 NMtDT0=    0
 Symmetry not used in FoFCou.
 Harris En= -438.338126301909    
 Leave Link  401 at Mon Apr 21 19:37:23 2025, MaxMem=   536870912 cpu:               3.7 elap:               0.6
 (Enter /home/szhao/Apps/g16/l502.exe)
 Keep R1 and R2 ints in memory in canonical form, NReq=15806772.
 FoFCou: FMM=F IPFlag=           0 FMFlag=           0 FMFlg1=           0
         NFxFlg=           0 DoJE=F BraDBF=F KetDBF=F FulRan=T
         wScrn=  0.000000 ICntrl=       600 IOpCl=  0 I1Cent=           0 NGrid=           0
         NMat0=    1 NMatS0=   2926 NMatT0=    0 NMatD0=    1 NMtDS0=    0 NMtDT0=    0
 Symmetry not used in FoFCou.
 Two-electron integral symmetry not used.
 UHF open shell SCF:
 Using DIIS extrapolation, IDIIS=  1040.
 NGot=   536870912 LenX=   528292970 LenY=   528286445
 Requested convergence on RMS density matrix=1.00D-08 within 128 cycles.
 Requested convergence on MAX density matrix=1.00D-06.
 Requested convergence on             energy=1.00D-06.
 No special actions if energy rises.

 Cycle   1  Pass 1  IDiag  1:
 E= -438.483627493215    
 DIIS: error= 9.26D-03 at cycle   1 NSaved=   1.
 NSaved= 1 IEnMin= 1 EnMin= -438.483627493215     IErMin= 1 ErrMin= 9.26D-03
 ErrMax= 9.26D-03  0.00D+00 EMaxC= 1.00D-01 BMatC= 1.77D-02 BMatP= 1.77D-02
 IDIUse=3 WtCom= 9.07D-01 WtEn= 9.26D-02
 Coeff-Com:  0.100D+01
 Coeff-En:   0.100D+01
 Coeff:      0.100D+01
 Gap=     0.426 Goal=   None    Shift=    0.000
 Gap=     0.426 Goal=   None    Shift=    0.000
 GapD=    0.426 DampG=2.000 DampE=1.000 DampFc=2.0000 IDamp=-1.
 RMSDP=9.88D-04 MaxDP=1.98D-02              OVMax= 3.92D-02

 Cycle   2  Pass 1  IDiag  1:
 E= -438.490228806371     Delta-E=       -0.006601313155 Rises=F Damp=F
 DIIS: error= 2.22D-03 at cycle   2 NSaved=   2.
 NSaved= 2 IEnMin= 2 EnMin= -438.490228806371     IErMin= 2 ErrMin= 2.22D-03
 ErrMax= 2.22D-03  0.00D+00 EMaxC= 1.00D-01 BMatC= 7.42D-04 BMatP= 1.77D-02
 IDIUse=3 WtCom= 9.78D-01 WtEn= 2.22D-02
 Coeff-Com: -0.103D-01 0.101D+01
 Coeff-En:   0.000D+00 0.100D+01
 Coeff:     -0.101D-01 0.101D+01
 Gap=     0.091 Goal=   None    Shift=    0.000
 Gap=     0.091 Goal=   None    Shift=    0.000
 RMSDP=6.57D-04 MaxDP=1.65D-02 DE=-6.60D-03 OVMax= 5.21D-02

 Cycle   3  Pass 1  IDiag  1:
 E= -438.488628510318     Delta-E=        0.001600296053 Rises=F Damp=F
 DIIS: error= 6.26D-03 at cycle   3 NSaved=   3.
 NSaved= 3 IEnMin= 2 EnMin= -438.490228806371     IErMin= 2 ErrMin= 2.22D-03
 ErrMax= 6.26D-03  0.00D+00 EMaxC= 1.00D-01 BMatC= 4.70D-03 BMatP= 7.42D-04
 IDIUse=3 WtCom= 1.12D-01 WtEn= 8.88D-01
 Coeff-Com: -0.461D-01 0.796D+00 0.250D+00
 Coeff-En:   0.000D+00 0.840D+00 0.160D+00
 Coeff:     -0.518D-02 0.835D+00 0.170D+00
 Gap=     0.088 Goal=   None    Shift=    0.000
 Gap=     0.088 Goal=   None    Shift=    0.000
 RMSDP=3.96D-04 MaxDP=1.31D-02 DE= 1.60D-03 OVMax= 3.87D-02

 Cycle   4  Pass 1  IDiag  1:
 E= -438.490576954023     Delta-E=       -0.001948443705 Rises=F Damp=F
 DIIS: error= 6.03D-04 at cycle   4 NSaved=   4.
 NSaved= 4 IEnMin= 4 EnMin= -438.490576954023     IErMin= 4 ErrMin= 6.03D-04
 ErrMax= 6.03D-04  0.00D+00 EMaxC= 1.00D-01 BMatC= 4.95D-05 BMatP= 7.42D-04
 IDIUse=3 WtCom= 9.94D-01 WtEn= 6.03D-03
 Coeff-Com: -0.283D-01 0.131D+00-0.228D-01 0.920D+00
 Coeff-En:   0.000D+00 0.000D+00 0.000D+00 0.100D+01
 Coeff:     -0.281D-01 0.130D+00-0.226D-01 0.921D+00
 Gap=     0.088 Goal=   None    Shift=    0.000
 Gap=     0.088 Goal=   None    Shift=    0.000
 RMSDP=6.27D-05 MaxDP=1.64D-03 DE=-1.95D-03 OVMax= 1.94D-03

 Cycle   5  Pass 1  IDiag  1:
 E= -438.490594591055     Delta-E=       -0.000017637032 Rises=F Damp=F
 DIIS: error= 1.81D-04 at cycle   5 NSaved=   5.
 NSaved= 5 IEnMin= 5 EnMin= -438.490594591055     IErMin= 5 ErrMin= 1.81D-04
 ErrMax= 1.81D-04  0.00D+00 EMaxC= 1.00D-01 BMatC= 4.73D-06 BMatP= 4.95D-05
 IDIUse=3 WtCom= 9.98D-01 WtEn= 1.81D-03
 Coeff-Com: -0.650D-03-0.229D-01-0.370D-01 0.106D+00 0.954D+00
 Coeff-En:   0.000D+00 0.000D+00 0.000D+00 0.000D+00 0.100D+01
 Coeff:     -0.649D-03-0.229D-01-0.369D-01 0.106D+00 0.954D+00
 Gap=     0.088 Goal=   None    Shift=    0.000
 Gap=     0.088 Goal=   None    Shift=    0.000
 RMSDP=2.78D-05 MaxDP=6.81D-04 DE=-1.76D-05 OVMax= 1.01D-03

 Cycle   6  Pass 1  IDiag  1:
 E= -438.490596590060     Delta-E=       -0.000001999005 Rises=F Damp=F
 DIIS: error= 7.00D-05 at cycle   6 NSaved=   6.
 NSaved= 6 IEnMin= 6 EnMin= -438.490596590060     IErMin= 6 ErrMin= 7.00D-05
 ErrMax= 7.00D-05  0.00D+00 EMaxC= 1.00D-01 BMatC= 5.93D-07 BMatP= 4.73D-06
 IDIUse=1 WtCom= 1.00D+00 WtEn= 0.00D+00
 Coeff-Com:  0.174D-02-0.186D-01-0.181D-01-0.202D-01 0.349D+00 0.707D+00
 Coeff:      0.174D-02-0.186D-01-0.181D-01-0.202D-01 0.349D+00 0.707D+00
 Gap=     0.088 Goal=   None    Shift=    0.000
 Gap=     0.088 Goal=   None    Shift=    0.000
 RMSDP=6.12D-06 MaxDP=1.38D-04 DE=-2.00D-06 OVMax= 2.22D-04

 Cycle   7  Pass 1  IDiag  1:
 E= -438.490596776099     Delta-E=       -0.000000186039 Rises=F Damp=F
 DIIS: error= 1.92D-05 at cycle   7 NSaved=   7.
[...]
                          A1        A2        A3        A4        A5
           A1           0.03465
           A2           0.02788   0.06033
           A3           0.01862  -0.01576   0.07642
           A4          -0.01322  -0.03099   0.01011   0.12238
           A5          -0.01412  -0.03177   0.00974  -0.03797   0.12165
           A6          -0.01675  -0.02881  -0.00820   0.00880   0.00778
           A7           0.00080  -0.00595   0.00614   0.00214   0.00237
           D1          -0.00029  -0.00114   0.00126   0.00072   0.00068
           D2          -0.00054  -0.00456   0.00729   0.01342   0.01345
           D3           0.00022   0.00240  -0.00485  -0.01220  -0.01232
                          A6        A7        D1        D2        D3
           A6           0.04854
           A7           0.00268   0.01778
           D1           0.00002   0.00021   0.00170
           D2          -0.00979   0.00014  -0.00034   0.01029
           D3           0.01003   0.00018  -0.00087  -0.00882   0.00952
 ITU=  0  0  0  1 -1 -1  0 -1  0  0  0  0  0  0  0  0  0  0  0  1
 ITU=  1
     Eigenvalues ---    0.00038   0.00782   0.01691   0.05445   0.06752
     Eigenvalues ---    0.08933   0.12055   0.26770   0.34990   0.35029
     Eigenvalues ---    0.433191000.000001000.000001000.000001000.00000
     Eigenvalues --- 1000.000001000.000001000.000001000.000001000.00000
 En-DIIS/RFO-DIIS/Sim-DIIS IScMMF=       -3 using points:    26   25   24   23   22   21   20   19   18   17
 RFO step:  Lambda=-4.68273305D-09.
 NNeg= 0 NGDIIS=10 SimSw=  2.50D-03 Rises=F DC= -1.19D-08 SmlDif=  1.00D-05
 NRisDI= 0 DoIntr=F SqrtH=F CThrHd= 10.0 CDAdj=  3.0
 RMS Error=  0.1564329883D-03 NUsed=10 OKEnD=F EnDIS=F
 InvSVX:  RCond= 1.39D-13 Info=           0 Equed=N FErr=  3.63D-07 BErr=  8.16D-17
 DIIS inversion failure, remove point  10.
 InvSVX:  RCond= 4.88D-13 Info=           0 Equed=N FErr=  1.12D-07 BErr=  1.01D-16
 DIIS inversion failure, remove point   9.
 InvSVX:  RCond= 7.87D-13 Info=           0 Equed=N FErr=  7.07D-08 BErr=  3.55D-17
 DIIS inversion failure, remove point   8.
 InvSVX:  RCond= 1.40D-10 Info=           0 Equed=N FErr=  1.83D-10 BErr=  5.86D-17
 DIIS inversion failure, remove point   7.
 InvSVX:  RCond= 1.38D-09 Info=           0 Equed=N FErr=  1.65D-12 BErr=  1.03D-16
 DIIS inversion failure, remove point   6.
 InvSVX:  RCond= 1.03D-07 Info=           0 Equed=N FErr=  2.47D-14 BErr=  4.02D-17
 RFO-DIIS uses    5 points instead of   10
 DidBck=F Rises=F RFO-DIIS coefs:    1.21125   -0.07664   -0.06688   -0.09387    0.02614
                  RFO-DIIS coefs:    0.00000    0.00000    0.00000    0.00000    0.00000
 Iteration  1 RMS(Cart)=  0.00023873 RMS(Int)=  0.00000035
 Iteration  2 RMS(Cart)=  0.00000003 RMS(Int)=  0.00000035
 ITry= 1 IFail=0 DXMaxC= 6.72D-04 DCOld= 1.00D+10 DXMaxT= 1.06D-01 DXLimC= 3.00D+00 Rises=F
 Variable       Old X    -DE/DX   Delta X   Delta X   Delta X     New X
                                 (Linear)    (Quad)   (Total)
    X1       -4.03498  -0.00000   0.00000   0.00000   0.00000  -4.03498
    Y1        0.00000  -0.00000   0.00000   0.00000   0.00000   0.00000
    Z1        0.00000   0.00000   0.00000   0.00000   0.00000   0.00000
    X2        4.03498   0.00000   0.00000   0.00000   0.00000   4.03498
    Y2        0.00000   0.00000   0.00000   0.00000   0.00000   0.00000
    Z2        0.00000  -0.00000   0.00000   0.00000   0.00000   0.00000
    R1        2.04305  -0.00000   0.00005  -0.00004   0.00001   2.04306
    R2        2.04307  -0.00001   0.00007  -0.00005   0.00002   2.04310
    R3        2.04308  -0.00001   0.00007  -0.00005   0.00002   2.04311
    R4        2.54133  -0.00000  -0.00000  -0.00001  -0.00001   2.54132
    A1        1.54543   0.00000  -0.00016   0.00005  -0.00011   1.54532
    A2        1.60283   0.00002   0.00012   0.00016   0.00028   1.60311
    A3        1.60036  -0.00002  -0.00003  -0.00011  -0.00013   1.60023
    A4        2.09306   0.00000   0.00006  -0.00003   0.00002   2.09308
    A5        2.09316  -0.00000   0.00006  -0.00004   0.00002   2.09318
    A6        2.09621  -0.00000  -0.00011   0.00006  -0.00005   2.09617
    A7        1.54315   0.00000   0.00017  -0.00003   0.00015   1.54329
    D1       -3.07868  -0.00000   0.00035  -0.00000   0.00035  -3.07833
    D2       -0.98608   0.00000   0.00040  -0.00004   0.00036  -0.98572
    D3        1.11178  -0.00000   0.00030   0.00003   0.00033   1.11210
         Item               Value     Threshold  Converged?
 Maximum Force            0.000018     0.000450     YES
 RMS     Force            0.000007     0.000300     YES
 Maximum Displacement     0.000672     0.001800     YES
 RMS     Displacement     0.000239     0.001200     YES
 Predicted change in Energy=-4.060625D-09
 Optimization completed.
    -- Stationary point found.
                           ----------------------------
                           !   Optimized Parameters   !
                           ! (Angstroms and Degrees)  !
 --------------------------                            --------------------------
 ! Name  Definition              Value          Derivative Info.                !
 --------------------------------------------------------------------------------
 ! X1    R(1,-1)                -2.1352         -DE/DX =    0.0                 !
 ! Y1    R(1,-2)                 0.0            -DE/DX =    0.0                 !
 ! Z1    R(1,-3)                 0.0            -DE/DX =    0.0                 !
 ! X2    R(2,-1)                 2.1352         -DE/DX =    0.0                 !
 ! Y2    R(2,-2)                 0.0            -DE/DX =    0.0                 !
 ! Z2    R(2,-3)                 0.0            -DE/DX =    0.0                 !
 ! R1    R(1,4)                  1.0811         -DE/DX =    0.0                 !
 ! R2    R(1,5)                  1.0811         -DE/DX =    0.0                 !
 ! R3    R(1,6)                  1.0812         -DE/DX =    0.0                 !
 ! R4    R(2,3)                  1.3448         -DE/DX =    0.0                 !
 ! A1    A(2,1,4)               88.5465         -DE/DX =    0.0                 !
 ! A2    A(2,1,5)               91.8352         -DE/DX =    0.0                 !
 ! A3    A(2,1,6)               91.694          -DE/DX =    0.0                 !
 ! A4    A(4,1,5)              119.9233         -DE/DX =    0.0                 !
 ! A5    A(4,1,6)              119.929          -DE/DX =    0.0                 !
 ! A6    A(5,1,6)              120.104          -DE/DX =    0.0                 !
 ! A7    A(1,2,3)               88.4159         -DE/DX =    0.0                 !
 ! D1    D(4,1,2,3)           -176.3954         -DE/DX =    0.0                 !
 ! D2    D(5,1,2,3)            -56.4983         -DE/DX =    0.0                 !
 ! D3    D(6,1,2,3)             63.7001         -DE/DX =    0.0                 !
 --------------------------------------------------------------------------------
 Lowest energy point so far.  Saving SCF results.
 Largest change from initial coordinates is atom    5       0.369 Angstoms.
 GradGradGradGradGradGradGradGradGradGradGradGradGradGradGradGradGradGrad

 Leave Link  103 at Mon Apr 21 19:42:58 2025, MaxMem=   536870912 cpu:               0.8 elap:               0.2
 (Enter /home/szhao/Apps/g16/l202.exe)
                          Input orientation:                          
 ---------------------------------------------------------------------
 Center     Atomic      Atomic             Coordinates (Angstroms)
 Number     Number       Type             X           Y           Z
 ---------------------------------------------------------------------
      1          6           0       -2.135220    0.000000    0.000000
      2         16           0        2.135220    0.000000    0.000000
      3          1           0        2.098043   -1.342602   -0.067554
      4          1           0       -2.107796    1.080702   -0.013659
      5          1           0       -2.169843   -0.550411   -0.929909
      6          1           0       -2.167181   -0.526897    0.943530
 ---------------------------------------------------------------------
                    Distance matrix (angstroms):
                    1          2          3          4          5
     1  C    0.000000
     2  S    4.270439   0.000000
     3  H    4.441582   1.344814   0.000000
     4  H    1.081136   4.378503   4.854316   0.000000
     5  H    1.081148   4.438609   4.425615   1.871869   0.000000
     6  H    1.081152   4.436048   4.458677   1.871927   1.873588
                    6
     6  H    0.000000
 Symmetry turned off by external request.
 Stoichiometry    CH4S
 Framework group  C1[X(CH4S)]
 Deg. of freedom    12
 Full point group                 C1      NOp   1
 Rotational constants (GHZ):          95.3805587           2.6577612           2.6333766
 Leave Link  202 at Mon Apr 21 19:42:58 2025, MaxMem=   536870912 cpu:               0.3 elap:               0.1
 (Enter /home/szhao/Apps/g16/l601.exe)
 Copying SCF densities to generalized density rwf, IOpCl= 1 IROHF=0.

 **********************************************************************

            Population analysis using the SCF density.

 **********************************************************************

 Alpha  occ. eigenvalues --  -89.87403 -10.65170  -8.23725  -6.15764  -6.15707
 Alpha  occ. eigenvalues --   -6.15154  -0.83623  -0.75319  -0.55684  -0.55617
 Alpha  occ. eigenvalues --   -0.41867  -0.27810  -0.25965
 Alpha virt. eigenvalues --   -0.17119   0.00854   0.03619   0.03930   0.05520
 Alpha virt. eigenvalues --    0.07477   0.08369   0.08427   0.10679   0.13337
 Alpha virt. eigenvalues --    0.15355   0.15447   0.20119   0.34850   0.36285
 Alpha virt. eigenvalues --    0.37893   0.39921   0.40494   0.44911   0.46484
 Alpha virt. eigenvalues --    0.57129   0.60567   0.60636   0.64671   0.73887
 Alpha virt. eigenvalues --    0.78513   0.79689   0.87699   0.88668   1.04335
 Alpha virt. eigenvalues --    1.04405   1.04806   1.38711   1.41346   1.41424
 Alpha virt. eigenvalues --    1.49842   1.52034   1.52455   1.63657   1.71852
 Alpha virt. eigenvalues --    1.73823   1.74989   1.89769   1.89830   1.92683
 Alpha virt. eigenvalues --    1.92749   2.15172   2.39980   2.42465   2.42522
 Alpha virt. eigenvalues --    2.59269   2.61102   2.61114   2.70076   2.75784
 Alpha virt. eigenvalues --    3.69859   3.69972   7.90995  17.50658  17.51675
 Alpha virt. eigenvalues --   17.55348  23.89798 189.17380
  Beta  occ. eigenvalues --  -89.87403 -10.65170  -8.23725  -6.15764  -6.15707
  Beta  occ. eigenvalues --   -6.15154  -0.83623  -0.75319  -0.55684  -0.55617
  Beta  occ. eigenvalues --   -0.41867  -0.27810  -0.25965
  Beta virt. eigenvalues --   -0.17119   0.00854   0.03619   0.03930   0.05520
  Beta virt. eigenvalues --    0.07477   0.08369   0.08427   0.10679   0.13337
  Beta virt. eigenvalues --    0.15355   0.15447   0.20119   0.34850   0.36285
  Beta virt. eigenvalues --    0.37893   0.39921   0.40494   0.44911   0.46484
  Beta virt. eigenvalues --    0.57129   0.60567   0.60636   0.64671   0.73887
  Beta virt. eigenvalues --    0.78513   0.79689   0.87699   0.88668   1.04335
  Beta virt. eigenvalues --    1.04405   1.04806   1.38711   1.41346   1.41424
  Beta virt. eigenvalues --    1.49842   1.52034   1.52455   1.63657   1.71852
  Beta virt. eigenvalues --    1.73823   1.74989   1.89769   1.89830   1.92683
  Beta virt. eigenvalues --    1.92749   2.15172   2.39980   2.42465   2.42522
  Beta virt. eigenvalues --    2.59269   2.61102   2.61114   2.70076   2.75784
  Beta virt. eigenvalues --    3.69859   3.69972   7.90995  17.50658  17.51675
  Beta virt. eigenvalues --   17.55348  23.89798 189.17380
          Condensed to atoms (all electrons):
               1          2          3          4          5          6
     1  C    5.128901   0.071382   0.000139   0.390119   0.388390   0.388415
     2  S    0.071382  15.983214   0.246228  -0.000927  -0.001363  -0.001357
     3  H    0.000139   0.246228   0.703431   0.000021   0.000001   0.000001
     4  H    0.390119  -0.000927   0.000021   0.444044  -0.020002  -0.019942
     5  H    0.388390  -0.001363   0.000001  -0.020002   0.450005  -0.020656
     6  H    0.388415  -0.001357   0.000001  -0.019942  -0.020656   0.449506
          Atomic-Atomic Spin Densities.
               1          2          3          4          5          6
     1  C    0.000000   0.000000  -0.000000   0.000000   0.000000  -0.000000
     2  S    0.000000  -0.000000  -0.000000   0.000000   0.000000  -0.000000
     3  H   -0.000000  -0.000000   0.000000   0.000000   0.000000  -0.000000
     4  H    0.000000   0.000000   0.000000   0.000000  -0.000000   0.000000
     5  H    0.000000   0.000000   0.000000  -0.000000   0.000000   0.000000
     6  H   -0.000000  -0.000000  -0.000000   0.000000   0.000000  -0.000000
 Mulliken charges and spin densities:
               1          2
     1  C   -0.367347   0.000000
     2  S   -0.297177  -0.000000
     3  H    0.050179   0.000000
     4  H    0.206687   0.000000
     5  H    0.203625   0.000000
     6  H    0.204032  -0.000000
 Sum of Mulliken charges =  -0.00000   0.00000
 Mulliken charges and spin densities with hydrogens summed into heavy atoms:
               1          2
     1  C    0.246997   0.000000
     2  S   -0.246997  -0.000000
 Electronic spatial extent (au):  <R**2>=            490.1458
 Charge=             -0.0000 electrons
 Dipole moment (field-independent basis, Debye):
    X=             -5.4672    Y=             -0.9567    Z=             -0.0483  Tot=              5.5505
 Quadrupole moment (field-independent basis, Debye-Ang):
   XX=            -21.0266   YY=            -19.6358   ZZ=            -23.6667
   XY=             -2.0708   XZ=             -0.1065   YZ=              0.2032
 Traceless Quadrupole moment (field-independent basis, Debye-Ang):
   XX=              0.4164   YY=              1.8073   ZZ=             -2.2237
   XY=             -2.0708   XZ=             -0.1065   YZ=              0.2032
 Octapole moment (field-independent basis, Debye-Ang**2):
  XXX=            -66.8328  YYY=              2.5897  ZZZ=              0.1706  XYY=            -14.2923
  XXY=             -4.0173  XXZ=             -0.1961  XZZ=            -22.9741  YZZ=             -0.4236
  YYZ=             -0.0614  XYZ=              0.4315
 Hexadecapole moment (field-independent basis, Debye-Ang**3):
 XXXX=           -649.1167 YYYY=            -37.9618 ZZZZ=            -41.9674 XXXY=             -3.8290
 XXXZ=             -0.2233 YYYX=             -0.0343 YYYZ=              0.1772 ZZZX=              0.1428
 ZZZY=              0.0237 XXYY=           -100.3527 XXZZ=           -118.3200 YYZZ=            -13.8326
 XXYZ=              0.9352 YYXZ=              0.0668 ZZXY=              4.2773
 N-N= 3.466202523572D+01 E-N=-1.109793970597D+03  KE= 4.377325818138D+02
                          Isotropic Fermi Contact Couplings
        Atom                 a.u.       MegaHertz       Gauss      10(-4) cm-1
     1  C(13)              0.00000       0.00000       0.00000       0.00000
     2  S(33)              0.00000       0.00000       0.00000       0.00000
     3  H(1)               0.00000       0.00000       0.00000       0.00000
     4  H(1)               0.00000       0.00000       0.00000       0.00000
     5  H(1)               0.00000       0.00000       0.00000       0.00000
     6  H(1)              -0.00000      -0.00000      -0.00000      -0.00000
 --------------------------------------------------------
       Center         ----  Spin Dipole Couplings  ----
                      3XX-RR        3YY-RR        3ZZ-RR
 --------------------------------------------------------
     1   Atom        0.000000     -0.000000     -0.000000
     2   Atom       -0.000000      0.000000     -0.000000
     3   Atom        0.000000      0.000000     -0.000000
     4   Atom       -0.000000      0.000000     -0.000000
     5   Atom       -0.000000     -0.000000      0.000000
     6   Atom        0.000000     -0.000000     -0.000000
 --------------------------------------------------------
                        XY            XZ            YZ
 --------------------------------------------------------
     1   Atom        0.000000     -0.000000      0.000000
     2   Atom       -0.000003      0.000057     -0.000002
     3   Atom       -0.000000      0.000000     -0.000000
     4   Atom       -0.000000     -0.000000     -0.000000
     5   Atom        0.000000      0.000000     -0.000000
     6   Atom       -0.000000      0.000000     -0.000000
 --------------------------------------------------------


 ---------------------------------------------------------------------------------
              Anisotropic Spin Dipole Couplings in Principal Axis System
 ---------------------------------------------------------------------------------

       Atom             a.u.   MegaHertz   Gauss  10(-4) cm-1        Axes

              Baa    -0.0000    -0.000    -0.000    -0.000  0.6941 -0.0531  0.7179
     1 C(13)  Bbb    -0.0000    -0.000    -0.000    -0.000  0.0226  0.9984  0.0520
              Bcc     0.0000     0.000     0.000     0.000  0.7195  0.0198 -0.6942
 
              Baa    -0.0001    -0.002    -0.001    -0.001 -0.7064 -0.0049  0.7077
     2 S(33)  Bbb     0.0000     0.000     0.000     0.000  0.0434  0.9978  0.0502
              Bcc     0.0001     0.002     0.001     0.001  0.7064 -0.0662  0.7047
 
              Baa    -0.0000    -0.000    -0.000    -0.000 -0.7028  0.0428  0.7101
     3 H(1)   Bbb    -0.0000    -0.000    -0.000    -0.000  0.1108  0.9926  0.0499
              Bcc     0.0000     0.000     0.000     0.000  0.7027 -0.1137  0.7023
 
              Baa    -0.0000    -0.000    -0.000    -0.000  0.6599  0.3179  0.6808
     4 H(1)   Bbb     0.0000     0.000     0.000     0.000 -0.2916  0.9434 -0.1580
              Bcc     0.0000     0.000     0.000     0.000 -0.6925 -0.0943  0.7152
 
              Baa    -0.0000    -0.000    -0.000    -0.000  0.7173 -0.4773 -0.5076
     5 H(1)   Bbb     0.0000     0.000     0.000     0.000  0.0763  0.7780 -0.6236
              Bcc     0.0000     0.000     0.000     0.000  0.6926  0.4085  0.5945
 
              Baa    -0.0000    -0.000    -0.000    -0.000  0.7022  0.3793 -0.6025
     6 H(1)   Bbb    -0.0000    -0.000    -0.000    -0.000  0.0549  0.8149  0.5770
              Bcc     0.0000     0.000     0.000     0.000  0.7099 -0.4383  0.5514
 

 ---------------------------------------------------------------------------------

 No NMR shielding tensors so no spin-rotation constants.
 Leave Link  601 at Mon Apr 21 19:42:59 2025, MaxMem=   536870912 cpu:               2.0 elap:               0.4
 (Enter /home/szhao/Apps/g16/l9999.exe)
 1\1\GINC-NODE06\FOpt\UM062X\6-311+G(d,p)\C1H4S1\SZHAO\21-Apr-2025\0\\#
 p opt UM062X/6-311+G** nosymm int=superfine\\Title Card Required\\0,1\
 C,-2.13521951,0.,0.\S,2.13521951,0.,0.\H,2.0980426206,-1.3426017342,-0
 .0675543506\H,-2.1077961176,1.0807016737,-0.0136586214\H,-2.1698434051
 ,-0.5504109736,-0.9299085427\H,-2.1671808663,-0.5268967822,0.943529863
 1\\Version=ES64L-G16RevA.03\HF=-438.4907369\S2=0.\S2-1=0.\S2A=0.\RMSD=
 9.419e-09\RMSF=3.543e-06\Dipole=-2.1509729,-0.3763994,-0.0190119\Quadr
 upole=0.3095878,1.3436512,-1.6532391,-1.5395677,-0.0791618,0.1511107\P
 G=C01 [X(C1H4S1)]\\@


 TIME IS IN FACT THE HERO OF THE PLOT. THE TIME
 WITH WHICH WE HAVE TO DEAL IS OF THE ORDER OF TWO
 BILLION YEARS...GIVEN SO MUCH TIME, THE "IMPOSSIBLE"
 BECOMES POSSIBLE, THE POSSIBLE PROBABLE, THE PROBABLE
 VIRTUALLY CERTAIN.  ONE HAS ONLY TO WAIT, TIME
 ITSELF PERFORMS THE MIRACLES.
 "ORIGIN OF LIFE" LECTURES, GEORGE WALD, 1954
 Job cpu time:       0 days  0 hours 37 minutes 60.0 seconds.
 Elapsed time:       0 days  0 hours  5 minutes 16.5 seconds.
 File lengths (MBytes):  RWF=     22 Int=      0 D2E=      0 Chk=      2 Scr=      2
 Normal termination of Gaussian 16 at Mon Apr 21 19:43:00 2025.
