Title Card Required                                                     
FOpt      UM062X                                                      6-311+G(d,p)        
Number of atoms                            I                4
Info1-9                                    I   N=           9
          13          13           0           0           0         110
           2          18        -502
Full Title                                 C   N=           2
Title Card Required     
Route                                      C   N=           4
#p opt UM062X/6-311+G** nosymm int=superfine    
Charge                                     I                0
Multiplicity                               I                1
Number of electrons                        I               14
Number of alpha electrons                  I                7
Number of beta electrons                   I                7
Number of basis functions                  I               56
Number of independent functions            I               56
Number of point charges in /Mol/           I                0
Number of translation vectors              I                0
Atomic numbers                             I   N=           4
           6           6           1           1
Nuclear charges                            R   N=           4
  6.00000000E+00  6.00000000E+00  1.00000000E+00  1.00000000E+00
Current cartesian coordinates              R   N=          12
 -2.89624150E+00  0.00000000E+00  0.00000000E+00  2.89624150E+00  0.00000000E+00
  0.00000000E+00 -2.67851537E+00 -8.34438719E-01  1.92641909E+00  2.67818738E+00
  1.49688082E+00 -1.47191735E+00
Number of symbols in /Mol/                 I                0
Force Field                                I                0
Atom Types                                 C   N=           4
                                                
Int Atom Types                             I   N=           4
           0           0           0           0
MM charges                                 R   N=           4
  0.00000000E+00  0.00000000E+00  0.00000000E+00  0.00000000E+00
Integer atomic weights                     I   N=           4
          12          12           1           1
Real atomic weights                        R   N=           4
  1.20000000E+01  1.20000000E+01  1.00782504E+00  1.00782504E+00
Atom fragment info                         I   N=           4
           0           0           0           0
Atom residue num                           I   N=           4
           0           0           0           0
Nuclear spins                              I   N=           4
           0           0           1           1
Nuclear ZEff                               R   N=           4
 -3.60000000E+00 -3.60000000E+00 -1.00000000E+00 -1.00000000E+00
Nuclear ZNuc                               R   N=           4
  6.00000000E+00  6.00000000E+00  1.00000000E+00  1.00000000E+00
Nuclear QMom                               R   N=           4
  0.00000000E+00  0.00000000E+00  0.00000000E+00  0.00000000E+00
Nuclear GFac                               R   N=           4
  0.00000000E+00  0.00000000E+00  2.79284600E+00  2.79284600E+00
MicOpt                                     I   N=           4
          -2          -2          -1          -1
Number of residues                         I                0
Number of secondary structures             I                0
Redundant internal dimensions              I   N=           4
          11           8           2           1
Redundant internal coordinate indices      I   N=          44
           1          -1           0           0           1          -2
           0           0           1          -3           0           0
           2          -1           0           0           2          -2
           0           0           2          -3           0           0
           1           3           0           0           2           4
           0           0           2           1           3           0
           1           2           4           0           3           1
           2           4
Redundant internal coordinates             R   N=          11
 -2.89624150E+00  0.00000000E+00  0.00000000E+00  2.89624150E+00  0.00000000E+00
  0.00000000E+00  2.11063572E+00  2.11062562E+00  1.46745583E+00  1.46729910E+00
 -2.75654404E+00
ZRed-IntVec                                I   N=          11
          -1          -1          -1          -1          -1          -1
           0           0           0           0           0
ZRed-FPVec                                 R   N=          11
  0.00000000E+00  0.00000000E+00  0.00000000E+00  0.00000000E+00  0.00000000E+00
  0.00000000E+00  0.00000000E+00  0.00000000E+00  0.00000000E+00  0.00000000E+00
  0.00000000E+00
ZRed-Constraint1                           R   N=          11
 -2.89624150E+00  0.00000000E+00  0.00000000E+00  2.89624150E+00  0.00000000E+00
  0.00000000E+00  2.11079913E+00  2.11070705E+00  1.67217611E+00  1.67276462E+00
 -1.65242814E+00
ZRed-Constraint2                           R   N=          11
 -2.89624150E+00  0.00000000E+00  0.00000000E+00  2.89624150E+00  0.00000000E+00
  0.00000000E+00  0.00000000E+00  0.00000000E+00  0.00000000E+00  0.00000000E+00
  0.00000000E+00
Number of contracted shells                I               20
Number of primitive shells                 I               38
Pure/Cartesian d shells                    I                0
Pure/Cartesian f shells                    I                0
Highest angular momentum                   I                2
Largest degree of contraction              I                6
Shell types                                I   N=          20
           0          -1          -1          -1          -1          -2
           0          -1          -1          -1          -1          -2
           0           0           0           1           0           0
           0           1
Number of primitives per shell             I   N=          20
           6           3           1           1           1           1
           6           3           1           1           1           1
           3           1           1           1           3           1
           1           1
Shell to atom map                          I   N=          20
           1           1           1           1           1           1
           2           2           2           2           2           2
           3           3           3           3           4           4
           4           4
Primitive exponents                        R   N=          38
  4.56324000E+03  6.82024000E+02  1.54973000E+02  4.44553000E+01  1.30290000E+01
  1.82773000E+00  2.09642000E+01  4.80331000E+00  1.45933000E+00  4.83456000E-01
  1.45585000E-01  4.38000000E-02  6.26000000E-01  4.56324000E+03  6.82024000E+02
  1.54973000E+02  4.44553000E+01  1.30290000E+01  1.82773000E+00  2.09642000E+01
  4.80331000E+00  1.45933000E+00  4.83456000E-01  1.45585000E-01  4.38000000E-02
  6.26000000E-01  3.38650000E+01  5.09479000E+00  1.15879000E+00  3.25840000E-01
  1.02741000E-01  7.50000000E-01  3.38650000E+01  5.09479000E+00  1.15879000E+00
  3.25840000E-01  1.02741000E-01  7.50000000E-01
Contraction coefficients                   R   N=          38
  1.96665025E-03  1.52306019E-02  7.61269097E-02  2.60801033E-01  6.16462078E-01
  2.21006028E-01  1.14660081E-01  9.19999648E-01 -3.03068213E-03  1.00000000E+00
  1.00000000E+00  1.00000000E+00  1.00000000E+00  1.96665025E-03  1.52306019E-02
  7.61269097E-02  2.60801033E-01  6.16462078E-01  2.21006028E-01  1.14660081E-01
  9.19999648E-01 -3.03068213E-03  1.00000000E+00  1.00000000E+00  1.00000000E+00
  1.00000000E+00  2.54938145E-02  1.90373109E-01  8.52161486E-01  1.00000000E+00
  1.00000000E+00  1.00000000E+00  2.54938145E-02  1.90373109E-01  8.52161486E-01
  1.00000000E+00  1.00000000E+00  1.00000000E+00
P(S=P) Contraction coefficients            R   N=          38
  0.00000000E+00  0.00000000E+00  0.00000000E+00  0.00000000E+00  0.00000000E+00
  0.00000000E+00  4.02486927E-02  2.37593957E-01  8.15853851E-01  1.00000000E+00
  1.00000000E+00  1.00000000E+00  0.00000000E+00  0.00000000E+00  0.00000000E+00
  0.00000000E+00  0.00000000E+00  0.00000000E+00  0.00000000E+00  4.02486927E-02
  2.37593957E-01  8.15853851E-01  1.00000000E+00  1.00000000E+00  1.00000000E+00
  0.00000000E+00  0.00000000E+00  0.00000000E+00  0.00000000E+00  0.00000000E+00
  0.00000000E+00  0.00000000E+00  0.00000000E+00  0.00000000E+00  0.00000000E+00
  0.00000000E+00  0.00000000E+00  0.00000000E+00
Coordinates of each shell                  R   N=          60
 -2.89624150E+00  0.00000000E+00  0.00000000E+00 -2.89624150E+00  0.00000000E+00
  0.00000000E+00 -2.89624150E+00  0.00000000E+00  0.00000000E+00 -2.89624150E+00
  0.00000000E+00  0.00000000E+00 -2.89624150E+00  0.00000000E+00  0.00000000E+00
 -2.89624150E+00  0.00000000E+00  0.00000000E+00  2.89624150E+00  0.00000000E+00
  0.00000000E+00  2.89624150E+00  0.00000000E+00  0.00000000E+00  2.89624150E+00
  0.00000000E+00  0.00000000E+00  2.89624150E+00  0.00000000E+00  0.00000000E+00
  2.89624150E+00  0.00000000E+00  0.00000000E+00  2.89624150E+00  0.00000000E+00
  0.00000000E+00 -2.67851537E+00 -8.34438719E-01  1.92641909E+00 -2.67851537E+00
 -8.34438719E-01  1.92641909E+00 -2.67851537E+00 -8.34438719E-01  1.92641909E+00
 -2.67851537E+00 -8.34438719E-01  1.92641909E+00  2.67818738E+00  1.49688082E+00
 -1.47191735E+00  2.67818738E+00  1.49688082E+00 -1.47191735E+00  2.67818738E+00
  1.49688082E+00 -1.47191735E+00  2.67818738E+00  1.49688082E+00 -1.47191735E+00
Num ILSW                                   I              100
ILSW                                       I   N=         100
           1           0           0           1           2           0
           0           0           0           0        4336          -1
           7           0           0           0           2           0
           0           0           0           0           1           0
           1           1           0           0           0           0
           0           0      100000           0          -1           0
           0           0           0           0           0           0
           0           0           0           1           0           0
           0 -2000000000           1           0           0           0
           0           0           4          52           0           0
           0           0          55           0           0           0
           0           0           0           4           0           1
           0           0           0           0           0           0
           0           0           0           0           0           0
           0           0           0           0           0           0
           0           0           0           0           0           0
           0           0           0           0
Num RLSW                                   I               52
RLSW                                       R   N=          52
  1.00000000E+00  1.00000000E+00  1.00000000E+00  1.00000000E+00  5.40000000E-01
  0.00000000E+00  0.00000000E+00  1.00000000E+00  0.00000000E+00  0.00000000E+00
  0.00000000E+00  0.00000000E+00  1.00000000E+00  0.00000000E+00  0.00000000E+00
  0.00000000E+00  0.00000000E+00  1.00000000E+00  0.00000000E+00  0.00000000E+00
  0.00000000E+00  0.00000000E+00  1.00000000E+00  0.00000000E+00  0.00000000E+00
  0.00000000E+00  0.00000000E+00  1.00000000E+00  0.00000000E+00  0.00000000E+00
  0.00000000E+00  0.00000000E+00  1.00000000E+00  0.00000000E+00  0.00000000E+00
  0.00000000E+00  0.00000000E+00  0.00000000E+00  1.00000000E+00  1.00000000E+00
  0.00000000E+00  1.00000000E+00  0.00000000E+00  0.00000000E+00  0.00000000E+00
  0.00000000E+00  0.00000000E+00  0.00000000E+00  0.00000000E+00  0.00000000E+00
  0.00000000E+00  0.00000000E+00
MxBond                                     I                2
NBond                                      I   N=           4
           2           2           1           1
IBond                                      I   N=           8
           2           3           1           4           1           0
           2           0
RBond                                      R   N=           8
  1.00000000E-01  1.00000000E+00  1.00000000E-01  1.00000000E+00  1.00000000E+00
  0.00000000E+00  1.00000000E+00  0.00000000E+00
Virial Ratio                               R      2.005905939883069E+00
SCF Energy                                 R     -7.691033813659122E+01
Total Energy                               R     -7.691033813659122E+01
S**2                                       R      5.965006266706041E-12
S**2 after annihilation                    R      1.643130076450132E-13
RMS Force                                  R      6.666044680780131E-07
RMS Density                                R      1.287286010653793E-09
Job Status                                 I                1
Nuclear derivative order                   I                1
External E-field                           R   N=          35
  0.00000000E+00  0.00000000E+00  0.00000000E+00  0.00000000E+00  0.00000000E+00
  0.00000000E+00  0.00000000E+00  0.00000000E+00  0.00000000E+00  0.00000000E+00
  0.00000000E+00  0.00000000E+00  0.00000000E+00  0.00000000E+00  0.00000000E+00
  0.00000000E+00  0.00000000E+00  0.00000000E+00  0.00000000E+00  0.00000000E+00
  0.00000000E+00  0.00000000E+00  0.00000000E+00  0.00000000E+00  0.00000000E+00
  0.00000000E+00  0.00000000E+00  0.00000000E+00  0.00000000E+00  0.00000000E+00
  0.00000000E+00  0.00000000E+00  0.00000000E+00  0.00000000E+00  0.00000000E+00
IOpCl                                      I                1
IROHF                                      I                0
Alpha Orbital Energies                     R   N=          56
 -1.06729128E+01 -1.06728889E+01 -7.30773392E-01 -7.15610773E-01 -3.89832155E-01
 -3.84261229E-01 -2.56953341E-01 -1.05505041E-01 -9.66058893E-02 -8.68109897E-02
  3.35625637E-02  4.98277436E-02  7.30684935E-02  7.47401755E-02  9.55761847E-02
  1.00054479E-01  1.07611348E-01  1.45276024E-01  1.80147126E-01  1.98178112E-01
  4.44534019E-01  4.53699157E-01  5.51474792E-01  5.61362519E-01  5.96748100E-01
  6.09871879E-01  6.18818490E-01  6.48865082E-01  6.66666879E-01  8.10453240E-01
  1.13042774E+00  1.13099684E+00  1.14062030E+00  1.15409293E+00  1.33339745E+00
  1.34151562E+00  1.35336916E+00  1.40082852E+00  1.57876478E+00  1.61726331E+00
  1.85086679E+00  1.85959241E+00  1.86613523E+00  1.89660761E+00  2.38892297E+00
  2.41671518E+00  2.49609493E+00  2.54327662E+00  2.69482319E+00  2.71905483E+00
  2.74295401E+00  2.76329728E+00  3.18162249E+00  3.19334251E+00  2.35057092E+01
  2.35232352E+01
Beta Orbital Energies                      R   N=          56
 -1.06729128E+01 -1.06728889E+01 -7.30773392E-01 -7.15610773E-01 -3.89832156E-01
 -3.84261229E-01 -2.56953341E-01 -1.05505042E-01 -9.66058814E-02 -8.68109971E-02
  3.35625609E-02  4.98277449E-02  7.30684933E-02  7.47401759E-02  9.55761847E-02
  1.00054479E-01  1.07611349E-01  1.45276023E-01  1.80147126E-01  1.98178111E-01
  4.44534021E-01  4.53699156E-01  5.51474791E-01  5.61362521E-01  5.96748098E-01
  6.09871880E-01  6.18818490E-01  6.48865081E-01  6.66666879E-01  8.10453241E-01
  1.13042773E+00  1.13099684E+00  1.14062030E+00  1.15409293E+00  1.33339745E+00
  1.34151562E+00  1.35336917E+00  1.40082852E+00  1.57876478E+00  1.61726331E+00
  1.85086679E+00  1.85959241E+00  1.86613523E+00  1.89660761E+00  2.38892297E+00
  2.41671518E+00  2.49609493E+00  2.54327662E+00  2.69482319E+00  2.71905483E+00
  2.74295401E+00  2.76329728E+00  3.18162249E+00  3.19334251E+00  2.35057092E+01
  2.35232352E+01
Alpha MO coefficients                      R   N=        3136
  3.81578770E-01  3.14343525E-01  6.03185270E-04 -4.30178332E-04  9.95297140E-04
  6.32350647E-03 -1.54362852E-04 -4.11684815E-04  9.67303326E-04 -2.42417013E-03
  2.66130121E-04 -7.03894206E-05  1.26161084E-04  1.29548281E-04 -1.77751621E-04
  2.36613750E-04 -4.90625274E-04  5.92834051E-04  1.39980673E-04 -4.82769177E-04
 -1.16397887E-04 -6.57359328E-05  4.15375402E-01  3.42183401E-01 -6.48908351E-04
  8.44669444E-04 -8.29082494E-04  6.90194853E-03  1.48134035E-04  8.07335758E-04
 -7.84661773E-04 -2.71053332E-03 -2.37823870E-04  8.89538882E-05 -1.07030784E-04
  2.61549509E-04  1.21310430E-04 -3.92911612E-04  4.15870889E-04  2.03360763E-04
  1.17222242E-04 -7.09681842E-04 -3.79626982E-04 -1.12658637E-04  2.43976788E-04
 -2.14791647E-03  1.61081694E-03  1.32765427E-04 -5.42402014E-04  1.26000064E-03
  2.58627346E-04 -2.27408034E-03  1.71367920E-03 -1.48647256E-04  1.05613295E-03
 -1.03440810E-03  4.15376723E-01  3.42165522E-01  5.64615086E-04 -4.82829512E-04
  1.11990378E-03  7.10072741E-03  6.37522938E-05 -3.68820558E-04  8.48579343E-04
 -3.48566018E-03 -3.22930419E-04  2.71419788E-05 -4.96338180E-05  1.56468592E-03
  6.59715995E-04  1.27380247E-04 -3.23696472E-04  5.44943790E-04  8.94405302E-05
 -4.19575654E-04 -1.58587793E-04 -3.82110291E-05 -3.81580160E-01 -3.14324132E-01
  5.11608781E-04 -8.02375725E-04  7.86150422E-04 -6.53986078E-03  7.68084586E-05
 -5.92703231E-04  5.85250238E-04  3.26788816E-03 -3.44350474E-04  4.42227977E-05
 -5.24483201E-05 -1.54812481E-03  6.72359791E-04  2.23643559E-04 -2.00816402E-04
 -1.80469433E-04 -5.82718989E-05  5.16346042E-04  3.28456911E-04  6.05531399E-05
  1.83454199E-04 -1.58044602E-03  1.28296129E-03  1.90612171E-04 -5.24950310E-04
  1.20732738E-03 -1.62132045E-04  1.39291468E-03 -1.14191807E-03  1.78857140E-04
 -8.51073105E-04  8.39797730E-04 -7.66610335E-02 -1.23928857E-01  9.71984951E-03
 -2.01562657E-02  4.73826038E-02  3.52537476E-01  1.42759300E-02 -3.05476009E-02
  7.18006307E-02  2.46830802E-01  9.73944203E-03 -1.09102176E-02  2.76674926E-02
 -5.85187115E-04 -7.32974240E-04 -4.12009947E-05  3.00840779E-04  7.72523401E-03
  1.94015338E-03 -5.13936268E-03 -3.46962161E-03 -7.81060926E-04 -7.66671442E-02
 -1.23938667E-01 -9.72829135E-03  3.69536942E-02 -3.58640657E-02  3.52565069E-01
 -1.42873089E-02  5.59958984E-02 -5.43501977E-02  2.46850421E-01 -9.74366165E-03
  2.18873866E-02 -2.01396239E-02 -5.87010112E-04  7.33719783E-04  2.65576930E-04
 -1.46753404E-04  3.24390248E-03  1.42959556E-03 -7.13648131E-03 -6.05719911E-03
 -1.53148804E-03  1.00110554E-01  1.22873888E-01  1.54526678E-02 -1.81162278E-03
  6.02898333E-03 -1.36611576E-02  1.00120234E-01  1.22884615E-01  1.54545783E-02
  1.81430825E-03 -1.05758104E-02  1.05431206E-02 -7.71818151E-02 -1.24826994E-01
  9.70486826E-04 -2.24009915E-02  5.18513526E-02  3.55988756E-01 -6.46353284E-04
 -3.40104173E-02  7.88456306E-02  2.50005240E-01 -1.36395973E-03 -1.31054645E-02
  3.13241176E-02 -1.10448130E-02 -6.37151169E-03 -8.29707149E-05  8.45102850E-05
  9.48876582E-03  1.69213203E-03 -5.68565977E-03 -5.47707674E-03 -8.53214310E-04
  7.71755982E-02  1.24816857E-01  9.79077713E-04 -4.03083583E-02  3.95608414E-02
 -3.55959423E-01 -6.34313392E-04 -6.13121324E-02  6.01075164E-02 -2.49985919E-01
 -1.35965050E-03 -2.45054679E-02  2.35012215E-02  1.10447799E-02 -6.37136470E-03
 -4.88771483E-05  1.07752066E-04 -4.53521682E-03 -1.40762852E-03  7.89145251E-03
  8.33553973E-03  1.27414450E-03  1.04323658E-01  1.28922175E-01  1.81236383E-02
 -3.01981696E-03  6.07381414E-03 -1.37734673E-02 -1.04315498E-01 -1.28911039E-01
 -1.81213503E-02 -3.02226654E-03  1.06626769E-02 -1.06235732E-02  4.35401449E-02
  7.18442632E-02  2.49023123E-02 -6.11457205E-02  1.38054829E-01 -2.12843191E-01
  3.66614631E-02 -8.77061703E-02  1.97747243E-01 -2.90654487E-01  3.11476351E-02
 -6.11868477E-02  1.34833755E-01 -4.65003550E-02  6.84660752E-04 -4.66615233E-03
  8.90311028E-03  1.68361044E-02  6.22427178E-03 -1.60033753E-02  9.54603036E-04
 -3.01332777E-03 -4.35474551E-02 -7.18563542E-02  2.49301253E-02 -1.06805111E-01
  1.06755706E-01  2.12878934E-01  3.67019831E-02 -1.52941065E-01  1.53028358E-01
  2.90705212E-01  3.11758161E-02 -1.03782288E-01  1.05631587E-01  4.65085246E-02
  6.85290815E-04 -6.62627200E-03  7.55715553E-03 -3.44313755E-03 -5.05559151E-03
  2.19726342E-02  6.77725987E-03  4.72672102E-03  9.18388585E-02  1.63621829E-01
  1.08937154E-01  2.12599775E-04  2.69916086E-03 -6.09510863E-03 -9.18527862E-02
 -1.63646890E-01 -1.08957227E-01  2.11574911E-04  4.71561566E-03 -4.71305480E-03
 -3.99360250E-02 -6.58320603E-02 -6.16520720E-03  6.21325992E-02 -1.45981055E-01
  1.91958418E-01 -9.15651727E-03  8.88583862E-02 -2.08753072E-01  2.87703422E-01
  5.50890361E-03  5.83569035E-02 -1.39320111E-01  4.09122103E-02 -6.18923478E-04
  4.18737422E-03 -1.06519423E-02 -1.85386910E-02 -3.60555280E-03  1.60843289E-02
  1.61952327E-03  1.01465951E-03 -3.99284921E-02 -6.58196585E-02  6.18297665E-03
 -1.13814181E-01  1.10500680E-01  1.91921379E-01  9.18208360E-03 -1.62750600E-01
  1.58023711E-01  2.87656490E-01 -5.49523533E-03 -1.08959276E-01  1.04580988E-01
  4.09005983E-02  6.22327775E-04 -8.42959214E-03  7.73980820E-03 -4.90982371E-03
 -2.24727461E-03  2.21520959E-02  9.48614600E-03  3.00179427E-03 -9.84963851E-02
 -1.80931731E-01 -1.09378380E-01  3.26599952E-03 -3.59821515E-03  7.64400788E-03
 -9.84830635E-02 -1.80907244E-01 -1.09359865E-01 -3.26818078E-03  5.83557437E-03
 -6.10789552E-03  9.75026552E-03  1.65556407E-02  1.79596035E-01  7.72574378E-03
 -6.84719807E-03 -5.71413064E-02  2.69484573E-01  1.11919484E-02 -9.98208167E-03
 -4.11608854E-02  3.07597469E-01  1.05024735E-02 -4.89659144E-03 -6.09880135E-04
  6.02134429E-02  1.07497638E-02 -1.12233478E-02 -3.44025263E-03  1.37698512E-02
 -7.73690660E-04  8.46837392E-03 -5.49537889E-03  9.74931307E-03  1.65539730E-02
 -1.79591625E-01 -3.62489705E-03  9.69997159E-03 -5.71357804E-02 -2.69479862E-01
 -5.31072787E-03  1.40759365E-02 -4.11508019E-02 -3.07588875E-01 -8.16601169E-04
  1.16040889E-02 -6.28212035E-04 -6.02002407E-02 -6.60856985E-03  1.40792027E-02
 -4.88446269E-03  1.00823574E-02 -1.41305689E-03  7.63890241E-03 -1.08676861E-02
 -4.21706415E-04 -9.48113639E-03  1.29289339E-03  1.68092570E-02 -8.87735719E-05
  1.13908904E-03 -4.24631140E-04 -9.48661013E-03  1.28859733E-03 -1.68098988E-02
  1.02973337E-03 -4.91038570E-04 -2.74620126E-04 -4.48293946E-04 -4.92867518E-03
  1.55516804E-01  6.32297867E-02  9.19739447E-04 -7.80889370E-03  2.44230416E-01
  9.91401382E-02  4.99582635E-03 -8.54269451E-03  2.68031240E-01  1.15037172E-01
  1.48902886E-02  1.63639229E-04  1.28085423E-01  6.05189037E-02  7.86210231E-03
  1.99760093E-03  9.73996503E-03  4.60139925E-03  3.70053699E-03 -2.76768705E-04
 -4.51792363E-04  4.89162283E-03  1.14971500E-01  1.22337177E-01  9.30615419E-04
  7.75387057E-03  1.80408981E-01  1.92180457E-01  5.00864252E-03  8.47879582E-03
  2.03807297E-01  2.08667307E-01  1.48911215E-02 -1.90534721E-04  1.02563198E-01
  9.77173202E-02 -1.15364539E-02 -2.73251908E-03  1.09761839E-03 -6.59923974E-03
 -3.19912879E-03 -2.86320630E-03 -3.12817286E-03 -1.64906541E-02  3.66101582E-04
  1.47180907E-02  6.90199425E-03 -2.86213526E-03 -3.12782421E-03 -1.64853143E-02
 -3.69271732E-04  1.17374664E-02  1.12477051E-02 -1.15078680E-02 -1.90212089E-02
  1.96615022E-01  3.51215578E-02 -1.03689464E-02  6.02011583E-02  2.95408622E-01
  5.27935987E-02 -1.16945052E-02  7.15207722E-02  3.42798253E-01  6.49819967E-02
 -2.39233752E-02  1.66015432E-02  1.61600386E-01  2.95567585E-02 -2.21637034E-02
  2.14711444E-03  1.45405022E-02  2.56893508E-03 -2.34527353E-03 -5.94687252E-03
  1.15073942E-02  1.90204621E-02  1.96613658E-01 -2.93051045E-03 -3.64961627E-02
 -6.01993224E-02  2.95406363E-01 -8.03471450E-03 -5.34562843E-02 -7.15149535E-02
  3.42797276E-01 -1.00015792E-03 -6.92350304E-02 -1.65885243E-02  1.61589821E-01
  1.00769014E-02 -3.55501441E-02  3.82332921E-04 -1.07828328E-02 -1.44314995E-03
  3.80186895E-03  1.14245519E-02  5.72144317E-03 -1.53221716E-03  2.12652230E-02
  1.59498481E-02  3.40067286E-03 -1.30832496E-03 -5.72515083E-03  1.52966967E-03
 -2.12856467E-02  1.59484874E-02  5.54136080E-07 -3.64336832E-03  2.56070035E-03
  4.23783635E-03 -3.01783869E-02  1.60725873E-01  7.83197574E-02 -1.33360314E-02
 -4.57031571E-02  2.52685969E-01  1.22016017E-01 -1.83779607E-02 -5.23223041E-02
  2.81715505E-01  1.36481136E-01 -4.86848619E-03 -2.76783673E-02  1.51584688E-01
  7.13202577E-02  9.42105918E-03 -2.82835118E-03  9.11955268E-03  5.42021359E-03
  1.22254259E-03 -2.56032892E-03 -4.23728351E-03 -3.01831609E-02 -1.30929386E-01
 -1.21756014E-01  1.33348159E-02 -4.57108469E-02 -2.04801324E-01 -1.91821403E-01
  1.83725342E-02 -5.23321663E-02 -2.28749056E-01 -2.13696561E-01  4.86640154E-03
 -2.76830636E-02 -1.21109481E-01 -1.15745962E-01  1.22690498E-02  2.16003204E-03
  5.44487354E-04  7.10358209E-03 -2.19744602E-03  1.52724988E-03  1.94373583E-03
  4.34103687E-03 -3.37710088E-03  1.50749639E-02  6.73439191E-03 -1.52669188E-03
 -1.94194909E-03 -4.33725656E-03 -3.37774847E-03 -1.17095586E-02 -1.16397585E-02
  2.60976226E-02  4.22456997E-02  1.44866959E-03 -1.35263402E-03 -2.50279038E-02
 -9.64000185E-02 -6.02872131E-03  1.57050592E-02 -7.14765856E-02 -5.53487698E-01
 -3.32101478E-03 -1.93692747E-02 -4.65401725E-02  1.06232972E+00 -9.09532955E-02
 -1.57530775E-01  4.31179596E-01 -1.14419213E-02 -3.15723369E-03  8.86233739E-03
  1.16979478E-03  1.57918861E-03  2.60958669E-02  4.22427906E-02 -1.44282398E-03
 -2.38345692E-02  7.74545548E-03 -9.63926147E-02  6.03990876E-03 -6.10263172E-02
  4.03769421E-02 -5.53450171E-01  3.33794798E-03 -5.03881037E-02 -1.31988481E-03
  1.06226963E+00  9.08744338E-02  3.45550095E-01 -3.02177771E-01 -2.53917533E-03
 -2.61311529E-03  1.28273372E-02  6.30814879E-03  2.38048360E-03 -1.15232621E-02
  1.29838022E-01 -3.75324293E-01 -1.51886162E-03  8.19091736E-04 -2.12902197E-03
 -1.15227450E-02  1.29827184E-01 -3.75301149E-01  1.51990763E-03 -1.69148145E-03
  1.53068988E-03 -8.19115713E-03 -1.35662669E-02 -4.66720693E-02 -3.28442319E-02
  5.05090692E-02  3.15614659E-02 -4.67661961E-02 -4.92410172E-02  8.31614080E-02
  1.98439309E-01 -1.67093042E-01 -9.46619802E-02  1.35155825E-01 -1.21002465E+00
 -6.44135354E-02  3.05407786E-01 -6.80436422E-01  1.31153678E-02 -1.15483119E-03
 -1.19747402E-02 -1.60548587E-03  8.57882551E-04  8.19407851E-03  1.35709212E-02
 -4.66685884E-02 -3.53036821E-02  4.88255178E-02 -3.15715580E-02 -4.67571152E-02
 -5.98695209E-02  7.58809935E-02 -1.98507242E-01 -1.67084445E-01 -9.20217458E-02
  1.36961627E-01  1.21009082E+00 -6.45036446E-02  5.24860119E-01 -5.29822306E-01
 -4.16690264E-03  1.21321670E-03  1.59610137E-02  6.77134709E-03 -7.65541672E-04
  2.35619089E-02 -1.13258762E-01  5.64755927E-01 -8.86670066E-04  1.74913439E-03
 -3.81198504E-03 -2.35588439E-02  1.13265926E-01 -5.64765203E-01 -8.86637362E-04
  2.92607320E-03 -3.00355213E-03 -1.52766380E-02 -2.48464153E-02 -6.61421118E-02
  2.37774636E-02 -1.74540810E-02  6.32326002E-02 -5.85661407E-02  2.07874099E-02
 -7.60234839E-03  3.08557740E-01 -2.66781112E-01  9.35966892E-02 -7.02640271E-02
  5.15139935E-01  1.11743396E+00 -2.75785347E-01  3.67714354E-01 -4.31747751E-03
 -5.43969446E-03  5.70942238E-03 -5.31139616E-04  2.37845317E-03  1.52797982E-02
  2.48514178E-02 -6.61419481E-02  7.73496246E-03 -2.84561521E-02 -6.32433660E-02
 -5.85639713E-02 -3.81999626E-04 -2.21175581E-02 -3.08629214E-01 -2.66784332E-01
  3.19040922E-02 -1.12578243E-01 -5.15055460E-01  1.11750518E+00 -2.43890416E-01
  3.89625357E-01  1.59963291E-03  4.17800077E-03 -6.92022978E-03 -1.03698017E-03
 -4.21975563E-03 -1.79426498E-02  1.14751478E-02 -2.87818979E-01  1.88963098E-03
 -1.26445011E-03  2.70696438E-03  1.79462405E-02 -1.14793325E-02  2.87859421E-01
  1.89010140E-03 -2.07132607E-03  2.15496461E-03 -4.89824989E-03 -7.82218440E-03
 -3.98756488E-03 -9.27129779E-02 -5.12181330E-02  1.74838906E-02 -1.83008848E-03
 -9.86860256E-02 -4.87887954E-02  1.15871330E-01 -2.37290627E-02 -3.65011800E-01
 -2.03752038E-01 -9.70068334E-02  7.67973789E-02  5.69326389E-01  4.34657932E-01
 -6.72883141E-03 -5.83853600E-04 -4.02255342E-03 -3.28765360E-03 -4.81782395E-05
 -4.89589397E-03 -7.81837782E-03  3.97472647E-03 -8.11555556E-02 -6.80641157E-02
  1.74743456E-02  1.81687336E-03 -8.10410728E-02 -7.45099858E-02  1.15824766E-01
  2.36791479E-02 -3.21471397E-01 -2.67213075E-01 -9.70690083E-02 -7.66346458E-02
  6.10401828E-01  3.74742037E-01  6.87468617E-03 -1.64114539E-04  2.03692685E-03
  4.56591043E-03  5.62238061E-04 -5.96218116E-03  4.16261306E-03 -1.00108485E-01
  2.07027397E-04 -4.16528130E-04  1.69745645E-03 -5.95927854E-03  4.16180493E-03
 -1.00075276E-01 -2.06861672E-04  1.43351876E-03 -9.99230378E-04  1.22100786E-02
  1.90394611E-02 -3.45603536E-03 -3.59758443E-02  2.94245866E-02 -3.48976344E-02
 -8.74917966E-03 -2.80808533E-02  1.52351552E-02 -3.54635947E-01  4.63541233E-05
 -1.63310813E-01  1.36885297E-01  5.38175153E-02 -8.45881103E-02  7.29526097E-01
 -1.04522019E+00  8.50254225E-03  5.49522298E-03 -9.87149537E-03 -1.54927067E-03
 -3.60462753E-03  1.22094601E-02  1.90384496E-02  3.46735499E-03  1.45053532E-02
 -4.41496321E-02 -3.48959030E-02  8.76165145E-03  4.10909164E-03 -3.16762892E-02
 -3.54619966E-01 -3.07868970E-06  6.89368821E-02 -2.01610128E-01  5.37170971E-02
  8.46007226E-02 -7.12628325E-01  1.05683454E+00  4.31055708E-03  5.34250551E-03
 -1.17393257E-02 -3.96932327E-03 -3.83098459E-03  2.80138571E-02 -3.04511811E-02
  5.03010321E-01  4.40271861E-03  2.15982438E-03 -5.12371795E-03  2.80167172E-02
 -3.04501400E-02  5.03054255E-01 -4.40192930E-03 -4.00192283E-03  3.85839561E-03
 -8.99724481E-04 -1.51549643E-03 -4.94922005E-03 -8.11459292E-02 -4.08347045E-02
  5.81633691E-03 -2.71540853E-03 -7.43831931E-02 -4.00941212E-02  3.37668059E-03
 -2.60509431E-02 -3.70349263E-01 -1.77658761E-01  3.15501472E-01  2.44530202E-01
  9.90027361E-01  6.53913954E-01 -5.87657162E-03 -4.13983008E-03 -3.32301223E-03
 -2.80435694E-03 -4.71149734E-03  8.98944324E-04  1.51430689E-03 -4.94961185E-03
  6.73067342E-02  6.10116366E-02 -5.81457633E-03 -2.71627189E-03  6.41813154E-02