Title Card Required                                                     
Force     UM062X                                                      6-311+G(d,p)        
Number of atoms                            I                4
Info1-9                                    I   N=           9
          13          13           0           0           0         100
           5          18        -502
Full Title                                 C   N=           2
Title Card Required     
Route                                      C   N=           4
#p UM062X/6-311+G** force int=superfine         
Charge                                     I                1
Multiplicity                               I                2
Number of electrons                        I               13
Number of alpha electrons                  I                7
Number of beta electrons                   I                6
Number of basis functions                  I               56
Number of independent functions            I               56
Number of point charges in /Mol/           I                0
Number of translation vectors              I                0
Atomic numbers                             I   N=           4
           6           6           1           1
Nuclear charges                            R   N=           4
  6.00000000E+00  6.00000000E+00  1.00000000E+00  1.00000000E+00
Current cartesian coordinates              R   N=          12
  1.12512959E-22  7.98612073E-23 -1.59686528E+00  1.25723575E-22  6.02628121E-24
  1.59687014E+00 -9.76829291E-22  1.04334836E-22 -3.66795787E+00 -8.23166830E-22
 -3.73246672E-23  3.66792871E+00
Number of symbols in /Mol/                 I                0
Force Field                                I                0
Atom Types                                 C   N=           4
                                                
Int Atom Types                             I   N=           4
           0           0           0           0
MM charges                                 R   N=           4
  0.00000000E+00  0.00000000E+00  0.00000000E+00  0.00000000E+00
Integer atomic weights                     I   N=           4
          12          12           1           1
Real atomic weights                        R   N=           4
  1.20000000E+01  1.20000000E+01  1.00782504E+00  1.00782504E+00
Atom fragment info                         I   N=           4
           0           0           0           0
Atom residue num                           I   N=           4
           0           0           0           0
Nuclear spins                              I   N=           4
           0           0           1           1
Nuclear ZEff                               R   N=           4
 -3.60000000E+00 -3.60000000E+00 -1.00000000E+00 -1.00000000E+00
Nuclear ZNuc                               R   N=           4
  6.00000000E+00  6.00000000E+00  1.00000000E+00  1.00000000E+00
Nuclear QMom                               R   N=           4
  0.00000000E+00  0.00000000E+00  0.00000000E+00  0.00000000E+00
Nuclear GFac                               R   N=           4
  0.00000000E+00  0.00000000E+00  2.79284600E+00  2.79284600E+00
MicOpt                                     I   N=           4
          -1          -1          -1          -1
Number of residues                         I                0
Number of secondary structures             I                0
SymInf integers                            I   N=          26
           1           4           1           1           1          -1
          -1           1          -1           1           1           1
          -1           1           0           0           0           0
           0           0           0           0           0           0
           0           0
RotTr to input orientation                 R   N=          12
  1.20525351E-07 -1.20526280E-07 -1.00000000E+00 -1.20526280E-07  1.00000000E+00
 -1.20526295E-07  1.00000000E+00  1.20526295E-07  1.20525337E-07 -2.42964787E-06
  1.21482394E-06  1.48478481E-06
Number of contracted shells                I               20
Number of primitive shells                 I               38
Pure/Cartesian d shells                    I                0
Pure/Cartesian f shells                    I                0
Highest angular momentum                   I                2
Largest degree of contraction              I                6
Shell types                                I   N=          20
           0          -1          -1          -1          -1          -2
           0          -1          -1          -1          -1          -2
           0           0           0           1           0           0
           0           1
Number of primitives per shell             I   N=          20
           6           3           1           1           1           1
           6           3           1           1           1           1
           3           1           1           1           3           1
           1           1
Shell to atom map                          I   N=          20
           1           1           1           1           1           1
           2           2           2           2           2           2
           3           3           3           3           4           4
           4           4
Primitive exponents                        R   N=          38
  4.56324000E+03  6.82024000E+02  1.54973000E+02  4.44553000E+01  1.30290000E+01
  1.82773000E+00  2.09642000E+01  4.80331000E+00  1.45933000E+00  4.83456000E-01
  1.45585000E-01  4.38000000E-02  6.26000000E-01  4.56324000E+03  6.82024000E+02
  1.54973000E+02  4.44553000E+01  1.30290000E+01  1.82773000E+00  2.09642000E+01
  4.80331000E+00  1.45933000E+00  4.83456000E-01  1.45585000E-01  4.38000000E-02
  6.26000000E-01  3.38650000E+01  5.09479000E+00  1.15879000E+00  3.25840000E-01
  1.02741000E-01  7.50000000E-01  3.38650000E+01  5.09479000E+00  1.15879000E+00
  3.25840000E-01  1.02741000E-01  7.50000000E-01
Contraction coefficients                   R   N=          38
  1.96665025E-03  1.52306019E-02  7.61269097E-02  2.60801033E-01  6.16462078E-01
  2.21006028E-01  1.14660081E-01  9.19999648E-01 -3.03068213E-03  1.00000000E+00
  1.00000000E+00  1.00000000E+00  1.00000000E+00  1.96665025E-03  1.52306019E-02
  7.61269097E-02  2.60801033E-01  6.16462078E-01  2.21006028E-01  1.14660081E-01
  9.19999648E-01 -3.03068213E-03  1.00000000E+00  1.00000000E+00  1.00000000E+00
  1.00000000E+00  2.54938145E-02  1.90373109E-01  8.52161486E-01  1.00000000E+00
  1.00000000E+00  1.00000000E+00  2.54938145E-02  1.90373109E-01  8.52161486E-01
  1.00000000E+00  1.00000000E+00  1.00000000E+00
P(S=P) Contraction coefficients            R   N=          38
  0.00000000E+00  0.00000000E+00  0.00000000E+00  0.00000000E+00  0.00000000E+00
  0.00000000E+00  4.02486927E-02  2.37593957E-01  8.15853851E-01  1.00000000E+00
  1.00000000E+00  1.00000000E+00  0.00000000E+00  0.00000000E+00  0.00000000E+00
  0.00000000E+00  0.00000000E+00  0.00000000E+00  0.00000000E+00  4.02486927E-02
  2.37593957E-01  8.15853851E-01  1.00000000E+00  1.00000000E+00  1.00000000E+00
  0.00000000E+00  0.00000000E+00  0.00000000E+00  0.00000000E+00  0.00000000E+00
  0.00000000E+00  0.00000000E+00  0.00000000E+00  0.00000000E+00  0.00000000E+00
  0.00000000E+00  0.00000000E+00  0.00000000E+00
Coordinates of each shell                  R   N=          60
  1.05879118E-22  0.00000000E+00 -1.59686528E+00  1.05879118E-22  0.00000000E+00
 -1.59686528E+00  1.05879118E-22  0.00000000E+00 -1.59686528E+00  1.05879118E-22
  0.00000000E+00 -1.59686528E+00  1.05879118E-22  0.00000000E+00 -1.59686528E+00
  1.05879118E-22  0.00000000E+00 -1.59686528E+00  1.58818678E-22  0.00000000E+00
  1.59687014E+00  1.58818678E-22  0.00000000E+00  1.59687014E+00  1.58818678E-22
  0.00000000E+00  1.59687014E+00  1.58818678E-22  0.00000000E+00  1.59687014E+00
  1.58818678E-22  0.00000000E+00  1.59687014E+00  1.58818678E-22  0.00000000E+00
  1.59687014E+00 -8.47032947E-22  0.00000000E+00 -3.66795787E+00 -8.47032947E-22
  0.00000000E+00 -3.66795787E+00 -8.47032947E-22  0.00000000E+00 -3.66795787E+00
 -8.47032947E-22  0.00000000E+00 -3.66795787E+00 -8.47032947E-22  0.00000000E+00
  3.66792871E+00 -8.47032947E-22  0.00000000E+00  3.66792871E+00 -8.47032947E-22
  0.00000000E+00  3.66792871E+00 -8.47032947E-22  0.00000000E+00  3.66792871E+00
Num ILSW                                   I              100
ILSW                                       I   N=         100
           1           0           0           0           2           0
           0           0           0           0        4336          -1
           7           0           0           0           2           0
           0           0           0           0           1           0
           1           0           0           0           0           0
           0           0      100000           0          -1           0
           0           0           0           0           0           0
           0           0           0           1           0           0
           0 -2000000000           1           0           0           0
           0           0           4          52           0           0
           0           0          55           0           0           0
           0           0           0           4           0           1
           0           0           0           0           0           0
           0           0           0           0           0           0
           0           0           0           0           0           0
           0           0           0           0           0           0
           0           0           0           0
Num RLSW                                   I               52
RLSW                                       R   N=          52
  1.00000000E+00  1.00000000E+00  1.00000000E+00  1.00000000E+00  5.40000000E-01
  0.00000000E+00  0.00000000E+00  1.00000000E+00  0.00000000E+00  0.00000000E+00
  0.00000000E+00  0.00000000E+00  1.00000000E+00  0.00000000E+00  0.00000000E+00
  0.00000000E+00  0.00000000E+00  1.00000000E+00  0.00000000E+00  0.00000000E+00
  0.00000000E+00  0.00000000E+00  1.00000000E+00  0.00000000E+00  0.00000000E+00
  0.00000000E+00  0.00000000E+00  1.00000000E+00  0.00000000E+00  0.00000000E+00
  0.00000000E+00  0.00000000E+00  1.00000000E+00  0.00000000E+00  0.00000000E+00
  0.00000000E+00  0.00000000E+00  0.00000000E+00  1.00000000E+00  1.00000000E+00
  0.00000000E+00  1.00000000E+00  0.00000000E+00  0.00000000E+00  0.00000000E+00
  0.00000000E+00  0.00000000E+00  0.00000000E+00  0.00000000E+00  0.00000000E+00
  0.00000000E+00  0.00000000E+00
MxBond                                     I                2
NBond                                      I   N=           4
           2           2           1           1
IBond                                      I   N=           8
           2           3           1           4           1           0
           2           0
RBond                                      R   N=           8
  1.00000000E+00  1.00000000E+00  1.00000000E+00  1.00000000E+00  1.00000000E+00
  0.00000000E+00  1.00000000E+00  0.00000000E+00
Virial Ratio                               R      2.014336371263300E+00
SCF Energy                                 R     -7.673456050392024E+01
Total Energy                               R     -7.673456050392024E+01
S**2                                       R      7.524211849242350E-01
S**2 after annihilation                    R      7.500038201769896E-01
RMS Force                                  R      1.079015842125945E-01
RMS Density                                R      3.319744905704633E-09
Job Status                                 I                1
Nuclear derivative order                   I                1
External E-field                           R   N=          35
  0.00000000E+00  0.00000000E+00  0.00000000E+00  0.00000000E+00  0.00000000E+00
  0.00000000E+00  0.00000000E+00  0.00000000E+00  0.00000000E+00  0.00000000E+00
  0.00000000E+00  0.00000000E+00  0.00000000E+00  0.00000000E+00  0.00000000E+00
  0.00000000E+00  0.00000000E+00  0.00000000E+00  0.00000000E+00  0.00000000E+00
  0.00000000E+00  0.00000000E+00  0.00000000E+00  0.00000000E+00  0.00000000E+00
  0.00000000E+00  0.00000000E+00  0.00000000E+00  0.00000000E+00  0.00000000E+00
  0.00000000E+00  0.00000000E+00  0.00000000E+00  0.00000000E+00  0.00000000E+00
IOpCl                                      I                1
IROHF                                      I                0
Alpha Orbital Energies                     R   N=          56
 -1.09993825E+01 -1.09990207E+01 -1.10222644E+00 -9.92080323E-01 -8.42799245E-01
 -6.35873122E-01 -6.14690601E-01 -3.62643326E-01 -3.42717971E-01 -2.78449952E-01
 -1.41952177E-01 -1.12586883E-01 -1.05704111E-01 -9.08454020E-02 -8.84881091E-02
 -5.31386320E-02 -4.99986192E-02  1.38038551E-02  3.76553799E-02  7.58049667E-02
  2.26137391E-01  3.14164745E-01  3.28533211E-01  3.56531238E-01  3.57216267E-01
  3.63845937E-01  4.36755801E-01  5.13519607E-01  5.49750043E-01  6.98433408E-01
  7.10327851E-01  7.51952138E-01  9.53189033E-01  9.54643733E-01  1.05418779E+00
  1.06140367E+00  1.10320188E+00  1.10437577E+00  1.24844498E+00  1.44004501E+00
  1.44835153E+00  1.55720054E+00  1.82936801E+00  1.84510697E+00  2.08106642E+00
  2.28856988E+00  2.37057827E+00  2.39692090E+00  2.44595262E+00  2.44842014E+00
  2.47650395E+00  2.80106853E+00  2.95678529E+00  3.17405061E+00  2.32065251E+01
  2.34256422E+01
Beta Orbital Energies                      R   N=          56
 -1.09968775E+01 -1.09966279E+01 -1.06382118E+00 -9.74380394E-01 -8.34033185E-01
 -5.94935559E-01 -4.07971148E-01 -3.25521004E-01 -2.81044814E-01 -2.57253119E-01
 -1.52342550E-01 -1.15736466E-01 -1.10200619E-01 -9.45866621E-02 -9.28565569E-02
 -5.25392009E-02 -4.95849781E-02  4.95768214E-03  3.86720611E-02  7.89141412E-02
  2.33226481E-01  3.13023242E-01  3.28312641E-01  3.41986128E-01  3.60833654E-01
  3.63515442E-01  4.23222765E-01  5.17350451E-01  5.60909449E-01  7.25280493E-01
  7.26337400E-01  7.31839254E-01  9.84923082E-01  1.00787345E+00  1.06764495E+00
  1.07751297E+00  1.12994977E+00  1.15269391E+00  1.26909728E+00  1.45129277E+00
  1.46104952E+00  1.57135295E+00  1.84925912E+00  1.85702289E+00  2.11003545E+00
  2.30402814E+00  2.40468317E+00  2.41310391E+00  2.46356753E+00  2.48508569E+00
  2.49591331E+00  2.86711477E+00  2.98613713E+00  3.19059661E+00  2.32171507E+01
  2.34376193E+01
Alpha MO coefficients                      R   N=        3136
  3.99841061E-01  3.28816771E-01  0.00000000E+00  0.00000000E+00  8.54069633E-04
  7.13701326E-03  0.00000000E+00  0.00000000E+00 -2.08511926E-03 -3.40306346E-03
  0.00000000E+00  0.00000000E+00  6.56829465E-04 -4.06431313E-04  0.00000000E+00
  0.00000000E+00  1.40825909E-03  7.93690711E-04  0.00000000E+00  0.00000000E+00
  3.57904967E-05  0.00000000E+00  3.98339080E-01  3.27581943E-01  0.00000000E+00
  0.00000000E+00 -8.52194548E-04  7.10878694E-03  0.00000000E+00  0.00000000E+00
  2.07842271E-03 -3.38095458E-03  0.00000000E+00  0.00000000E+00 -6.76769381E-04
 -4.22656106E-04  0.00000000E+00  0.00000000E+00 -1.40181055E-03  7.87820907E-04
  0.00000000E+00  0.00000000E+00  3.56479292E-05  0.00000000E+00  1.25139475E-04
 -2.53405277E-03  3.01400598E-03  0.00000000E+00  0.00000000E+00 -1.55001762E-03
  1.24453983E-04 -2.51772090E-03  3.01310235E-03  0.00000000E+00  0.00000000E+00
  1.54260418E-03 -3.98381894E-01 -3.27517843E-01  0.00000000E+00  0.00000000E+00
 -4.97954283E-04 -7.52872989E-03  0.00000000E+00  0.00000000E+00  1.82202003E-03
  5.86016424E-03  0.00000000E+00  0.00000000E+00  5.30399870E-03 -4.18747930E-03
  0.00000000E+00  0.00000000E+00 -1.67873019E-03 -1.58165259E-03  0.00000000E+00
  0.00000000E+00 -3.77685987E-05  0.00000000E+00  3.99883707E-01  3.28752871E-01
  0.00000000E+00  0.00000000E+00 -5.01169197E-04  7.55570435E-03  0.00000000E+00
  0.00000000E+00  1.83006116E-03 -5.87279103E-03  0.00000000E+00  0.00000000E+00
  5.30152732E-03  4.18588186E-03  0.00000000E+00  0.00000000E+00 -1.68401157E-03
  1.58472303E-03  0.00000000E+00  0.00000000E+00  3.79028394E-05  0.00000000E+00
 -1.71425831E-04  4.40272919E-03 -2.71206159E-04  0.00000000E+00  0.00000000E+00
  2.00004643E-03  1.71840495E-04 -4.41252145E-03  2.82578901E-04  0.00000000E+00
  0.00000000E+00  2.00599477E-03 -8.59149316E-02 -1.40446123E-01  0.00000000E+00
  0.00000000E+00  1.56722799E-02  4.01381698E-01  0.00000000E+00  0.00000000E+00
  3.28474748E-02  2.52475328E-01  0.00000000E+00  0.00000000E+00  6.91459142E-03
 -2.23116925E-03  0.00000000E+00  0.00000000E+00 -1.97398104E-02  1.87681293E-02
  0.00000000E+00  0.00000000E+00  4.52097934E-03  0.00000000E+00 -8.59170239E-02
 -1.40449531E-01  0.00000000E+00  0.00000000E+00 -1.56692093E-02  4.01390931E-01
  0.00000000E+00  0.00000000E+00 -3.28439081E-02  2.52481414E-01  0.00000000E+00
  0.00000000E+00 -6.91456950E-03 -2.23166752E-03  0.00000000E+00  0.00000000E+00
  1.97400291E-02  1.87685911E-02  0.00000000E+00  0.00000000E+00  4.52107508E-03
  0.00000000E+00  6.47408406E-02  7.82868555E-02 -2.24671798E-02  0.00000000E+00
  0.00000000E+00  1.12125063E-02  6.47455159E-02  7.82916194E-02 -2.24675707E-02
  0.00000000E+00  0.00000000E+00 -1.12131637E-02 -7.20663428E-02 -1.18124543E-01
  0.00000000E+00  0.00000000E+00 -8.45573468E-02  3.41758228E-01  0.00000000E+00
  0.00000000E+00 -1.17457385E-01  2.48387521E-01  0.00000000E+00  0.00000000E+00
 -4.02533069E-02 -1.54835765E-01  0.00000000E+00  0.00000000E+00 -5.68297476E-02
  9.92636121E-03  0.00000000E+00  0.00000000E+00  3.68222598E-03  0.00000000E+00
  7.20637954E-02  1.18120306E-01  0.00000000E+00  0.00000000E+00 -8.45638573E-02
 -3.41745286E-01  0.00000000E+00  0.00000000E+00 -1.17466381E-01 -2.48376860E-01
  0.00000000E+00  0.00000000E+00 -4.02556343E-02  1.54835669E-01  0.00000000E+00
  0.00000000E+00 -5.68285882E-02 -9.92577299E-03  0.00000000E+00  0.00000000E+00
 -3.68206328E-03  0.00000000E+00  1.17590801E-01  1.47635188E-01 -9.86293520E-03
  0.00000000E+00  0.00000000E+00  1.96329297E-02 -1.17594296E-01 -1.47637406E-01
  9.86183843E-03  0.00000000E+00  0.00000000E+00  1.96331823E-02 -4.36337143E-03
 -7.73099671E-03  0.00000000E+00  0.00000000E+00  1.82175636E-01  2.74323265E-02
  0.00000000E+00  0.00000000E+00  2.74431180E-01  5.24253388E-03  0.00000000E+00
  0.00000000E+00  1.27667409E-01 -7.01081801E-03  0.00000000E+00  0.00000000E+00
 -5.97987152E-04  5.59939093E-03  0.00000000E+00  0.00000000E+00  5.64911716E-04
  0.00000000E+00 -4.36553815E-03 -7.73464352E-03  0.00000000E+00  0.00000000E+00
 -1.82174125E-01  2.74434878E-02  0.00000000E+00  0.00000000E+00 -2.74427963E-01
  5.25358001E-03  0.00000000E+00  0.00000000E+00 -1.27664933E-01 -7.01940101E-03
  0.00000000E+00  0.00000000E+00  6.01383722E-04  5.59937879E-03  0.00000000E+00
  0.00000000E+00  5.65044959E-04  0.00000000E+00 -1.21056392E-01 -1.62958850E-01
 -7.39739396E-03  0.00000000E+00  0.00000000E+00 -1.86712606E-02 -1.21054422E-01
 -1.62953767E-01 -7.39779255E-03  0.00000000E+00  0.00000000E+00  1.86706202E-02
  0.00000000E+00  0.00000000E+00  1.97128364E-01  0.00000000E+00  0.00000000E+00
  0.00000000E+00  3.20933494E-01  0.00000000E+00  0.00000000E+00  0.00000000E+00
  2.51874860E-01  0.00000000E+00  0.00000000E+00  0.00000000E+00 -2.63442110E-03
  0.00000000E+00  0.00000000E+00  0.00000000E+00  2.24532553E-02  0.00000000E+00
  0.00000000E+00  0.00000000E+00  0.00000000E+00  0.00000000E+00  1.97128821E-01
  0.00000000E+00  0.00000000E+00  0.00000000E+00  3.20934422E-01  0.00000000E+00
  0.00000000E+00  0.00000000E+00  2.51875238E-01  0.00000000E+00  0.00000000E+00
  0.00000000E+00 -2.63458906E-03  0.00000000E+00  0.00000000E+00  0.00000000E+00
 -2.24531825E-02  0.00000000E+00  0.00000000E+00  0.00000000E+00  0.00000000E+00
  0.00000000E+00  0.00000000E+00  1.44556783E-02  0.00000000E+00  0.00000000E+00
  0.00000000E+00  0.00000000E+00  0.00000000E+00  1.44560715E-02  0.00000000E+00
  0.00000000E+00  0.00000000E+00  0.00000000E+00  0.00000000E+00  1.95484092E-01
  0.00000000E+00  0.00000000E+00  0.00000000E+00  3.19957384E-01  0.00000000E+00
  0.00000000E+00  0.00000000E+00  2.51111830E-01  0.00000000E+00  0.00000000E+00
  0.00000000E+00  1.48027754E-03  0.00000000E+00  0.00000000E+00  0.00000000E+00
  2.26073037E-02  0.00000000E+00  0.00000000E+00  0.00000000E+00  0.00000000E+00
  0.00000000E+00  1.95484590E-01  0.00000000E+00  0.00000000E+00  0.00000000E+00
  3.19958297E-01  0.00000000E+00  0.00000000E+00  0.00000000E+00  2.51112279E-01
  0.00000000E+00  0.00000000E+00  0.00000000E+00  1.48009244E-03  0.00000000E+00
  0.00000000E+00  0.00000000E+00 -2.26072606E-02  0.00000000E+00  0.00000000E+00
  0.00000000E+00  0.00000000E+00  0.00000000E+00  0.00000000E+00  1.58094143E-02
  0.00000000E+00  0.00000000E+00  0.00000000E+00  0.00000000E+00  0.00000000E+00
  1.58098432E-02  0.00000000E+00  0.00000000E+00  0.00000000E+00  2.20752956E-01
  0.00000000E+00  0.00000000E+00  0.00000000E+00  3.47301011E-01  0.00000000E+00
  0.00000000E+00  0.00000000E+00  3.74746880E-01  0.00000000E+00  0.00000000E+00
  0.00000000E+00  6.49574552E-02  0.00000000E+00  0.00000000E+00  0.00000000E+00
 -2.21183766E-02  0.00000000E+00  0.00000000E+00  0.00000000E+00  0.00000000E+00
  0.00000000E+00 -2.20752510E-01  0.00000000E+00  0.00000000E+00  0.00000000E+00
 -3.47300525E-01  0.00000000E+00  0.00000000E+00  0.00000000E+00 -3.74745988E-01
  0.00000000E+00  0.00000000E+00  0.00000000E+00 -6.49571561E-02  0.00000000E+00
  0.00000000E+00  0.00000000E+00 -2.21185102E-02  0.00000000E+00  0.00000000E+00
  0.00000000E+00  0.00000000E+00  0.00000000E+00  0.00000000E+00  2.29013429E-02
  0.00000000E+00  0.00000000E+00  0.00000000E+00  0.00000000E+00  0.00000000E+00
 -2.29014843E-02  0.00000000E+00  0.00000000E+00  0.00000000E+00  0.00000000E+00
  0.00000000E+00  2.17805427E-01  0.00000000E+00  0.00000000E+00  0.00000000E+00
  3.41140984E-01  0.00000000E+00  0.00000000E+00  0.00000000E+00  3.80659282E-01
  0.00000000E+00  0.00000000E+00  0.00000000E+00  8.52591108E-02  0.00000000E+00
  0.00000000E+00  0.00000000E+00 -2.29902842E-02  0.00000000E+00  0.00000000E+00
  0.00000000E+00  0.00000000E+00  0.00000000E+00 -2.17805002E-01  0.00000000E+00
  0.00000000E+00  0.00000000E+00 -3.41140436E-01  0.00000000E+00  0.00000000E+00
  0.00000000E+00 -3.80658403E-01  0.00000000E+00  0.00000000E+00  0.00000000E+00
 -8.52587300E-02  0.00000000E+00  0.00000000E+00  0.00000000E+00 -2.29903933E-02
  0.00000000E+00  0.00000000E+00  0.00000000E+00  0.00000000E+00  0.00000000E+00
  0.00000000E+00  2.44106915E-02  0.00000000E+00  0.00000000E+00  0.00000000E+00
  0.00000000E+00  0.00000000E+00 -2.44108439E-02  0.00000000E+00  6.96640900E-02
  1.18529851E-01  0.00000000E+00  0.00000000E+00 -1.17753625E-01 -3.67993450E-01
  0.00000000E+00  0.00000000E+00 -1.69691003E-01 -8.22358421E-01  0.00000000E+00
  0.00000000E+00 -2.25908990E-01 -1.05844807E+00  0.00000000E+00  0.00000000E+00
 -3.79460851E-01  4.74921810E-02  0.00000000E+00  0.00000000E+00 -5.68821574E-03
  0.00000000E+00 -6.96631390E-02 -1.18528322E-01  0.00000000E+00  0.00000000E+00
 -1.17757736E-01  3.67988841E-01  0.00000000E+00  0.00000000E+00 -1.69696664E-01
  8.22351169E-01  0.00000000E+00  0.00000000E+00 -2.25914558E-01  1.05845025E+00
  0.00000000E+00  0.00000000E+00 -3.79456121E-01 -4.74914629E-02  0.00000000E+00
  0.00000000E+00  5.68816027E-03  0.00000000E+00  1.15902751E-01  2.74833895E-01
  2.95612081E-01  0.00000000E+00  0.00000000E+00 -4.41348762E-03 -1.15899598E-01
 -2.74825065E-01 -2.95600147E-01  0.00000000E+00  0.00000000E+00 -4.41300045E-03
  2.59184301E-02  4.53097814E-02  0.00000000E+00  0.00000000E+00  4.05755704E-02
 -1.63467677E-01  0.00000000E+00  0.00000000E+00  7.27838274E-02 -3.65336645E-01
  0.00000000E+00  0.00000000E+00  8.47234415E-02  9.20041639E-01  0.00000000E+00
  0.00000000E+00 -5.35713314E-01 -1.58133706E-02  0.00000000E+00  0.00000000E+00
  3.81177805E-04  0.00000000E+00  2.59195343E-02  4.53117319E-02  0.00000000E+00
  0.00000000E+00 -4.05711012E-02 -1.63474091E-01  0.00000000E+00  0.00000000E+00
 -7.27781720E-02 -3.65355160E-01  0.00000000E+00  0.00000000E+00 -8.47054017E-02
  9.20085803E-01  0.00000000E+00  0.00000000E+00  5.35692699E-01 -1.58126990E-02
  0.00000000E+00  0.00000000E+00  3.81067947E-04  0.00000000E+00 -1.17402936E-02
  7.70548017E-02 -1.90192831E-01  0.00000000E+00  0.00000000E+00 -1.10138850E-02
 -1.17391818E-02  7.70589155E-02 -1.90195399E-01  0.00000000E+00  0.00000000E+00
  1.10130458E-02  1.46049356E-03  1.87472481E-03  0.00000000E+00  0.00000000E+00
 -8.87520035E-02  1.44672703E-02  0.00000000E+00  0.00000000E+00 -1.43638958E-01
 -1.28586888E-01  0.00000000E+00  0.00000000E+00 -1.78012544E-01  3.12343567E+00
  0.00000000E+00  0.00000000E+00  1.95414033E+00  2.29017238E-02  0.00000000E+00
  0.00000000E+00 -1.65307846E-03  0.00000000E+00 -1.46054831E-03 -1.87466729E-03
  0.00000000E+00  0.00000000E+00 -8.87398173E-02 -1.44717727E-02  0.00000000E+00
  0.00000000E+00 -1.43620059E-01  1.28615678E-01  0.00000000E+00  0.00000000E+00
 -1.77968204E-01 -3.12337725E+00  0.00000000E+00  0.00000000E+00  1.95406458E+00
 -2.29078564E-02  0.00000000E+00  0.00000000E+00  1.65349117E-03  0.00000000E+00
  4.32204366E-02  3.70340508E-02  2.97059224E-01  0.00000000E+00  0.00000000E+00
  1.61202529E-02 -4.32287120E-02 -3.70607892E-02 -2.97148615E-01  0.00000000E+00
  0.00000000E+00  1.61171971E-02  1.40898689E-03  1.40773701E-03  0.00000000E+00
  0.00000000E+00  9.37949240E-02  2.33919453E-02  0.00000000E+00  0.00000000E+00
  1.46409061E-01 -1.82290130E-01  0.00000000E+00  0.00000000E+00  3.20246638E-01
 -4.14554904E-01  0.00000000E+00  0.00000000E+00 -6.23231843E-01  4.58647727E-02
  0.00000000E+00  0.00000000E+00 -3.09269107E-03  0.00000000E+00  1.41032891E-03
  1.41012741E-03  0.00000000E+00  0.00000000E+00 -9.37990193E-02  2.33821897E-02
  0.00000000E+00  0.00000000E+00 -1.46416731E-01 -1.82307658E-01  0.00000000E+00
  0.00000000E+00 -3.20249073E-01 -4.14996163E-01  0.00000000E+00  0.00000000E+00
  6.23507381E-01  4.58631702E-02  0.00000000E+00  0.00000000E+00 -3.09262410E-03
  0.00000000E+00  5.73878735E-02  2.02237099E-01  6.83638465E-01  0.00000000E+00
  0.00000000E+00 -2.14927460E-02  5.73819176E-02  2.02234011E-01  6.83593145E-01
  0.00000000E+00  0.00000000E+00  2.14946583E-02  0.00000000E+00  0.00000000E+00
 -7.63965471E-02  0.00000000E+00  0.00000000E+00  0.00000000E+00 -8.87978739E-02
  0.00000000E+00  0.00000000E+00  0.00000000E+00 -2.40654766E-01  0.00000000E+00
  0.00000000E+00  0.00000000E+00  6.41327996E-01  0.00000000E+00  0.00000000E+00
  0.00000000E+00 -1.07319895E-02  0.00000000E+00  0.00000000E+00  0.00000000E+00
  0.00000000E+00  0.00000000E+00 -7.63955199E-02  0.00000000E+00  0.00000000E+00
  0.00000000E+00 -8.87965121E-02  0.00000000E+00  0.00000000E+00  0.00000000E+00
 -2.40652066E-01  0.00000000E+00  0.00000000E+00  0.00000000E+00  6.41311082E-01
  0.00000000E+00  0.00000000E+00  0.00000000E+00  1.07318730E-02  0.00000000E+00
  0.00000000E+00  0.00000000E+00  0.00000000E+00  0.00000000E+00  0.00000000E+00
  5.57193280E-03  0.00000000E+00  0.00000000E+00  0.00000000E+00  0.00000000E+00
  0.00000000E+00  5.57148639E-03  0.00000000E+00  0.00000000E+00  0.00000000E+00
  0.00000000E+00  0.00000000E+00 -7.57762307E-02  0.00000000E+00  0.00000000E+00
  0.00000000E+00 -9.54022912E-02  0.00000000E+00  0.00000000E+00  0.00000000E+00
 -2.38644727E-01  0.00000000E+00  0.00000000E+00  0.00000000E+00  6.39911188E-01
  0.00000000E+00  0.00000000E+00  0.00000000E+00 -1.10132220E-02  0.00000000E+00
  0.00000000E+00  0.00000000E+00  0.00000000E+00  0.00000000E+00 -7.57751339E-02
  0.00000000E+00  0.00000000E+00  0.00000000E+00 -9.54007787E-02  0.00000000E+00
  0.00000000E+00  0.00000000E+00 -2.38641709E-01  0.00000000E+00  0.00000000E+00
  0.00000000E+00  6.39893253E-01  0.00000000E+00  0.00000000E+00  0.00000000E+00
  1.10131275E-02  0.00000000E+00  0.00000000E+00  0.00000000E+00  0.00000000E+00
  0.00000000E+00  0.00000000E+00  4.97046267E-03  0.00000000E+00  0.00000000E+00
  0.00000000E+00  0.00000000E+00  0.00000000E+00  4.97002793E-03  0.00000000E+00
  0.00000000E+00  0.00000000E+00  7.81853771E-02  0.00000000E+00  0.00000000E+00
  0.00000000E+00  9.44280067E-02  0.00000000E+00  0.00000000E+00  0.00000000E+00
  2.73097821E-01  0.00000000E+00  0.00000000E+00  0.00000000E+00 -1.75992881E+00
  0.00000000E+00  0.00000000E+00  0.00000000E+00  4.93018249E-03  0.00000000E+00
  0.00000000E+00  0.00000000E+00  0.00000000E+00  0.00000000E+00 -7.81859878E-02
  0.00000000E+00  0.00000000E+00  0.00000000E+00 -9.44287749E-02  0.00000000E+00
  0.00000000E+00  0.00000000E+00 -2.73100183E-01  0.00000000E+00  0.00000000E+00
  0.00000000E+00  1.75993520E+00  0.00000000E+00  0.00000000E+00  0.00000000E+00
  4.93004207E-03  0.00000000E+00  0.00000000E+00  0.00000000E+00  0.00000000E+00
  0.00000000E+00  0.00000000E+00 -1.21368069E-02  0.00000000E+00  0.00000000E+00
  0.00000000E+00  0.00000000E+00  0.00000000E+00  1.21364009E-02  0.00000000E+00
  0.00000000E+00  0.00000000E+00  0.00000000E+00  0.00000000E+00  8.04315973E-02
  0.00000000E+00  0.00000000E+00  0.00000000E+00  1.04513818E-01  0.00000000E+00
  0.00000000E+00  0.00000000E+00  2.71281101E-01  0.00000000E+00  0.00000000E+00
  0.00000000E+00 -1.75391176E+00  0.00000000E+00  0.00000000E+00  0.00000000E+00
  3.43795594E-03  0.00000000E+00  0.00000000E+00  0.00000000E+00  0.00000000E+00
  0.00000000E+00 -8.04322628E-02  0.00000000E+00  0.00000000E+00  0.00000000E+00
 -1.04514751E-01  0.00000000E+00  0.00000000E+00  0.00000000E+00 -2.71283448E-01
  0.00000000E+00  0.00000000E+00  0.00000000E+00  1.75391845E+00  0.00000000E+00
  0.00000000E+00  0.00000000E+00  3.43783790E-03  0.00000000E+00  0.00000000E+00
  0.00000000E+00  0.00000000E+00  0.00000000E+00  0.00000000E+00 -1.08409227E-02