 Entering Gaussian System, Link 0=g16
 Initial command:
 /home/szhao/Apps/g16/l1.exe "/home/szhao/tmp/Gau-157169.inp" -scrdir="/home/szhao/tmp/"
 Default is to use a total of  16 processors:
                               16 via shared-memory
                                1 via Linda
 Entering Link 1 = /home/szhao/Apps/g16/l1.exe PID=    157170.
  
 Copyright (c) 1988,1990,1992,1993,1995,1998,2003,2009,2016,
            Gaussian, Inc.  All Rights Reserved.
  
 This is part of the Gaussian(R) 16 program.  It is based on
 the Gaussian(R) 09 system (copyright 2009, Gaussian, Inc.),
 the Gaussian(R) 03 system (copyright 2003, Gaussian, Inc.),
 the Gaussian(R) 98 system (copyright 1998, Gaussian, Inc.),
 the Gaussian(R) 94 system (copyright 1995, Gaussian, Inc.),
 the Gaussian 92(TM) system (copyright 1992, Gaussian, Inc.),
 the Gaussian 90(TM) system (copyright 1990, Gaussian, Inc.),
 the Gaussian 88(TM) system (copyright 1988, Gaussian, Inc.),
 the Gaussian 86(TM) system (copyright 1986, Carnegie Mellon
 University), and the Gaussian 82(TM) system (copyright 1983,
 Carnegie Mellon University). Gaussian is a federally registered
 trademark of Gaussian, Inc.
  
 This software contains proprietary and confidential information,
 including trade secrets, belonging to Gaussian, Inc.
  
 This software is provided under written license and may be
 used, copied, transmitted, or stored only in accord with that
 written license.
  
 The following legend is applicable only to US Government
 contracts under FAR:
  
                    RESTRICTED RIGHTS LEGEND
  
 Use, reproduction and disclosure by the US Government is
 subject to restrictions as set forth in subparagraphs (a)
 and (c) of the Commercial Computer Software - Restricted
 Rights clause in FAR 52.227-19.
  
 Gaussian, Inc.
 340 Quinnipiac St., Bldg. 40, Wallingford CT 06492
  
  
 ---------------------------------------------------------------
 Warning -- This program may not be used in any manner that
 competes with the business of Gaussian, Inc. or will provide
 assistance to any competitor of Gaussian, Inc.  The licensee
 of this program is prohibited from giving any competitor of
 Gaussian, Inc. access to this program.  By using this program,
 the user acknowledges that Gaussian, Inc. is engaged in the
 business of creating and licensing software in the field of
 computational chemistry and represents and warrants to the
 licensee that it is not a competitor of Gaussian, Inc. and that
 it will not use this program in any manner prohibited above.
 ---------------------------------------------------------------
  

 Cite this work as:
 Gaussian 16, Revision A.03,
 M. J. Frisch, G. W. Trucks, H. B. Schlegel, G. E. Scuseria, 
 M. A. Robb, J. R. Cheeseman, G. Scalmani, V. Barone, 
 G. A. Petersson, H. Nakatsuji, X. Li, M. Caricato, A. V. Marenich, 
 J. Bloino, B. G. Janesko, R. Gomperts, B. Mennucci, H. P. Hratchian, 
 J. V. Ortiz, A. F. Izmaylov, J. L. Sonnenberg, D. Williams-Young, 
 F. Ding, F. Lipparini, F. Egidi, J. Goings, B. Peng, A. Petrone, 
 T. Henderson, D. Ranasinghe, V. G. Zakrzewski, J. Gao, N. Rega, 
 G. Zheng, W. Liang, M. Hada, M. Ehara, K. Toyota, R. Fukuda, 
 J. Hasegawa, M. Ishida, T. Nakajima, Y. Honda, O. Kitao, H. Nakai, 
 T. Vreven, K. Throssell, J. A. Montgomery, Jr., J. E. Peralta, 
 F. Ogliaro, M. J. Bearpark, J. J. Heyd, E. N. Brothers, K. N. Kudin, 
 V. N. Staroverov, T. A. Keith, R. Kobayashi, J. Normand, 
 K. Raghavachari, A. P. Rendell, J. C. Burant, S. S. Iyengar, 
 J. Tomasi, M. Cossi, J. M. Millam, M. Klene, C. Adamo, R. Cammi, 
 J. W. Ochterski, R. L. Martin, K. Morokuma, O. Farkas, 
 J. B. Foresman, and D. J. Fox, Gaussian, Inc., Wallingford CT, 2016.
 
 ******************************************
 Gaussian 16:  ES64L-G16RevA.03 25-Dec-2016
                21-Apr-2025 
 ******************************************
 %chk=opt.chk
 %mem=4GB
 %nprocshared=8
 Will use up to    8 processors via shared memory.
 --------------------------------------------
 #p opt UM062X/6-311+G** nosymm int=superfine
 --------------------------------------------
 1/18=20,19=15,26=5,38=1/1,3;
 2/9=110,12=2,15=1,17=6,18=5,40=1/2;
 3/5=4,6=6,7=111,11=2,25=1,30=1,71=1,74=-55,75=-7,116=2/1,2,3;
 4//1;
 5/5=2,38=5/2;
 6/7=2,8=2,9=2,10=2,28=1/1;
 7/30=1/1,2,3,16;
 1/18=20,19=15,26=5/3(2);
 2/9=110,15=1/2;
 99//99;
 2/9=110,15=1/2;
 3/5=4,6=6,7=111,11=2,25=1,30=1,71=1,74=-55,75=-7,116=2/1,2,3;
 4/5=5,16=3,69=1/1;
 5/5=2,38=5/2;
 7/30=1/1,2,3,16;
 1/18=20,19=15,26=5/3(-5);
 2/9=110,15=1/2;
 6/7=2,8=2,9=2,10=2,19=2,28=1/1;
 99/9=1/99;
 Leave Link    1 at Mon Apr 21 20:33:21 2025, MaxMem=   536870912 cpu:               1.3 elap:               0.2
 (Enter /home/szhao/Apps/g16/l101.exe)
 -------------------
 Title Card Required
 -------------------
 Symbolic Z-matrix:
 Charge =  0 Multiplicity = 1
 Si                   -1   -2.16252   0.        0. 
 Si                   -1    2.16252   0.        0. 
 H                    0    -2.94341  -1.24877   0. 
 H                    0     2.94341   1.24877  -0.00078 
 H                    0    -2.94342   1.24878   0.00014 
 H                    0     2.94342  -1.24878   0.00093 
 
 Add virtual bond connecting atoms Si2        and Si1        Dist= 8.17D+00.
 ITRead=  2  2  0  0  0  0
 MicOpt= -2 -2 -1 -1 -1 -1
 NAtoms=      6 NQM=        4 NQMF=       2 NMMI=      0 NMMIF=      0
                NMic=       0 NMicF=      0.
                    Isotopes and Nuclear Properties:
 (Nuclear quadrupole moments (NQMom) in fm**2, nuclear magnetic moments (NMagM)
  in nuclear magnetons)

  Atom         1           2           3           4           5           6
 IAtWgt=          28          28           1           1           1           1
 AtmWgt=  27.9769284  27.9769284   1.0078250   1.0078250   1.0078250   1.0078250
 NucSpn=           0           0           1           1           1           1
 AtZEff=  -0.0000000  -0.0000000  -0.0000000  -0.0000000  -0.0000000  -0.0000000
 NQMom=    0.0000000   0.0000000   0.0000000   0.0000000   0.0000000   0.0000000
 NMagM=    0.0000000   0.0000000   2.7928460   2.7928460   2.7928460   2.7928460
 AtZNuc=  14.0000000  14.0000000   1.0000000   1.0000000   1.0000000   1.0000000
 Leave Link  101 at Mon Apr 21 20:33:21 2025, MaxMem=   536870912 cpu:               2.8 elap:               0.4
 (Enter /home/szhao/Apps/g16/l103.exe)

 GradGradGradGradGradGradGradGradGradGradGradGradGradGradGradGradGradGrad
 Berny optimization.
 Initialization pass.
                           ----------------------------
                           !    Initial Parameters    !
                           ! (Angstroms and Degrees)  !
 --------------------------                            --------------------------
 ! Name  Definition              Value          Derivative Info.                !
 --------------------------------------------------------------------------------
 ! X1    R(1,-1)                -2.1625         Frozen                          !
 ! Y1    R(1,-2)                 0.0            Frozen                          !
 ! Z1    R(1,-3)                 0.0            Frozen                          !
 ! X2    R(2,-1)                 2.1625         Frozen                          !
 ! Y2    R(2,-2)                 0.0            Frozen                          !
 ! Z2    R(2,-3)                 0.0            Frozen                          !
 ! R1    R(1,3)                  1.4728         estimate D2E/DX2                !
 ! R2    R(1,5)                  1.4728         estimate D2E/DX2                !
 ! R3    R(2,4)                  1.4728         estimate D2E/DX2                !
 ! R4    R(2,6)                  1.4728         estimate D2E/DX2                !
 ! A1    A(2,1,3)              122.019          estimate D2E/DX2                !
 ! A2    A(2,1,5)              122.0192         estimate D2E/DX2                !
 ! A3    A(3,1,5)              115.9618         estimate D2E/DX2                !
 ! A4    A(1,2,4)              122.019          estimate D2E/DX2                !
 ! A5    A(1,2,6)              122.0192         estimate D2E/DX2                !
 ! A6    A(4,2,6)              115.9617         estimate D2E/DX2                !
 ! D1    D(3,1,2,4)            179.9641         estimate D2E/DX2                !
 ! D2    D(3,1,2,6)             -0.0424         estimate D2E/DX2                !
 ! D3    D(5,1,2,4)             -0.0424         estimate D2E/DX2                !
 ! D4    D(5,1,2,6)            179.951          estimate D2E/DX2                !
 --------------------------------------------------------------------------------
 Trust Radius=3.00D-01 FncErr=1.00D-07 GrdErr=1.00D-07 EigMax=2.50D+02 EigMin=1.00D-04
 Number of steps in this run=     30 maximum allowed number of steps=    100.
 GradGradGradGradGradGradGradGradGradGradGradGradGradGradGradGradGradGrad

 Leave Link  103 at Mon Apr 21 20:33:22 2025, MaxMem=   536870912 cpu:               0.3 elap:               0.1
 (Enter /home/szhao/Apps/g16/l202.exe)
                          Input orientation:                          
 ---------------------------------------------------------------------
 Center     Atomic      Atomic             Coordinates (Angstroms)
 Number     Number       Type             X           Y           Z
 ---------------------------------------------------------------------
      1         14           0       -2.162518    0.000000    0.000000
      2         14           0        2.162518    0.000000    0.000000
      3          1           0       -2.943412   -1.248769    0.000000
      4          1           0        2.943412    1.248768   -0.000783
      5          1           0       -2.943423    1.248777    0.000142
      6          1           0        2.943423   -1.248776    0.000925
 ---------------------------------------------------------------------
                    Distance matrix (angstroms):
                    1          2          3          4          5
     1  Si   0.000000
     2  Si   4.325036   0.000000
     3  H    1.472827   5.256420   0.000000
     4  H    5.256419   1.472827   6.394716   0.000000
     5  H    1.472839   5.256432   2.497546   5.886835   0.000000
     6  H    5.256432   1.472839   5.886835   2.497545   6.394742
                    6
     6  H    0.000000
 Symmetry turned off by external request.
 Stoichiometry    H4Si2
 Framework group  C2[X(H4Si2)]
 Deg. of freedom     7
 Full point group                 C2      NOp   2
 Rotational constants (GHZ):          80.3906046           1.7039460           1.6685791
 Leave Link  202 at Mon Apr 21 20:33:22 2025, MaxMem=   536870912 cpu:               0.2 elap:               0.2
 (Enter /home/szhao/Apps/g16/l301.exe)
 Standard basis: 6-311+G(d,p) (5D, 7F)
 Ernie: Thresh=  0.10000D-02 Tol=  0.10000D-05 Strict=F.
    84 basis functions,   132 primitive gaussians,    86 cartesian basis functions
    16 alpha electrons       16 beta electrons
       nuclear repulsion energy        50.5080673560 Hartrees.
 IExCor= 4336 DFT=T Ex+Corr=M062X ExCW=0 ScaHFX=  0.540000
 ScaDFX=  1.000000  1.000000  1.000000  1.000000 ScalE2=  1.000000  1.000000
 IRadAn=      7 IRanWt=     -1 IRanGd=            0 ICorTp=0 IEmpDi=  4
 NAtoms=    6 NActive=    6 NUniq=    6 SFac= 1.00D+00 NAtFMM=   60 NAOKFM=F Big=F
 Integral buffers will be    131072 words long.
 Raffenetti 2 integral format.
 Two-electron integral symmetry is turned off.
 Leave Link  301 at Mon Apr 21 20:33:23 2025, MaxMem=   536870912 cpu:               0.7 elap:               0.1
 (Enter /home/szhao/Apps/g16/l302.exe)
 NPDir=0 NMtPBC=     1 NCelOv=     1 NCel=       1 NClECP=     1 NCelD=      1
         NCelK=      1 NCelE2=     1 NClLst=     1 CellRange=     0.0.
 One-electron integrals computed using PRISM.
 NBasis=    84 RedAO= T EigKep=  1.26D-02  NBF=    84
 NBsUse=    84 1.00D-06 EigRej= -1.00D+00 NBFU=    84
 Precomputing XC quadrature grid using
 IXCGrd= 4 IRadAn=           7 IRanWt=          -1 IRanGd=           0 AccXCQ= 0.00D+00.
 Generated NRdTot=       0 NPtTot=           0 NUsed=           0 NTot=          32
 NSgBfM=    77    77    77    77    77 MxSgAt=     6 MxSgA2=     6.
 Leave Link  302 at Mon Apr 21 20:33:23 2025, MaxMem=   536870912 cpu:               1.8 elap:               0.2
 (Enter /home/szhao/Apps/g16/l303.exe)
 DipDrv:  MaxL=1.
 Leave Link  303 at Mon Apr 21 20:33:23 2025, MaxMem=   536870912 cpu:               0.9 elap:               0.1
 (Enter /home/szhao/Apps/g16/l401.exe)
 ExpMin= 3.31D-02 ExpMax= 6.94D+04 ExpMxC= 2.33D+03 IAcc=3 IRadAn=         7 AccDes= 0.00D+00
 Harris functional with IExCor= 1009 and IRadAn=       7 diagonalized for initial guess.
 HarFok:  IExCor= 1009 AccDes= 0.00D+00 IRadAn=         7 IDoV= 1 UseB2=F ITyADJ=14
 ICtDFT=  3500011 ScaDFX=  1.000000  1.000000  1.000000  1.000000
 FoFCou: FMM=F IPFlag=           0 FMFlag=      100000 FMFlg1=           0
         NFxFlg=           0 DoJE=T BraDBF=F KetDBF=T FulRan=T
         wScrn=  0.000000 ICntrl=       500 IOpCl=  0 I1Cent=   200000004 NGrid=           0
         NMat0=    1 NMatS0=      1 NMatT0=    0 NMatD0=    1 NMtDS0=    0 NMtDT0=    0
 Symmetry not used in FoFCou.
 Harris En= -580.833334817267    
 JPrj=0 DoOrth=F DoCkMO=F.
 Initial guess <Sx>= 0.0000 <Sy>= 0.0000 <Sz>= 0.0000 <S**2>=-0.0000 S=-0.0000
 Leave Link  401 at Mon Apr 21 20:33:24 2025, MaxMem=   536870912 cpu:               3.6 elap:               0.5
 (Enter /home/szhao/Apps/g16/l502.exe)
 Keep R1 and R2 ints in memory in canonical form, NReq=20057634.
 FoFCou: FMM=F IPFlag=           0 FMFlag=           0 FMFlg1=           0
         NFxFlg=           0 DoJE=F BraDBF=F KetDBF=F FulRan=T
         wScrn=  0.000000 ICntrl=       600 IOpCl=  0 I1Cent=           0 NGrid=           0
         NMat0=    1 NMatS0=   3570 NMatT0=    0 NMatD0=    1 NMtDS0=    0 NMtDT0=    0
 Symmetry not used in FoFCou.
 Two-electron integral symmetry not used.
 UHF open shell SCF:
 Using DIIS extrapolation, IDIIS=  1040.
 NGot=   536870912 LenX=   524106186 LenY=   524098349
 Requested convergence on RMS density matrix=1.00D-08 within 128 cycles.
 Requested convergence on MAX density matrix=1.00D-06.
 Requested convergence on             energy=1.00D-06.
 No special actions if energy rises.

 Cycle   1  Pass 1  IDiag  1:
 E= -581.119069168008    
 DIIS: error= 2.92D-02 at cycle   1 NSaved=   1.
 NSaved= 1 IEnMin= 1 EnMin= -581.119069168008     IErMin= 1 ErrMin= 2.92D-02
 ErrMax= 2.92D-02  0.00D+00 EMaxC= 1.00D-01 BMatC= 1.80D-01 BMatP= 1.80D-01
 IDIUse=3 WtCom= 7.08D-01 WtEn= 2.92D-01
 Coeff-Com:  0.100D+01
 Coeff-En:   0.100D+01
 Coeff:      0.100D+01
 Gap=     0.145 Goal=   None    Shift=    0.000
 Gap=     0.145 Goal=   None    Shift=    0.000
 GapD=    0.145 DampG=1.000 DampE=0.500 DampFc=0.5000 IDamp=-1.
 Damping current iteration by 5.00D-01
 RMSDP=2.49D-03 MaxDP=4.68D-02              OVMax= 4.44D-02

 Cycle   2  Pass 1  IDiag  1:
 E= -581.130459566711     Delta-E=       -0.011390398703 Rises=F Damp=T
 DIIS: error= 1.48D-02 at cycle   2 NSaved=   2.
 NSaved= 2 IEnMin= 2 EnMin= -581.130459566711     IErMin= 2 ErrMin= 1.48D-02
 ErrMax= 1.48D-02  0.00D+00 EMaxC= 1.00D-01 BMatC= 3.86D-02 BMatP= 1.80D-01
 IDIUse=3 WtCom= 8.52D-01 WtEn= 1.48D-01
 Coeff-Com: -0.751D+00 0.175D+01
 Coeff-En:   0.000D+00 0.100D+01
 Coeff:     -0.640D+00 0.164D+01
 Gap=     0.148 Goal=   None    Shift=    0.000
 Gap=     0.148 Goal=   None    Shift=    0.000
 RMSDP=1.20D-03 MaxDP=1.91D-02 DE=-1.14D-02 OVMax= 7.58D-03

 Cycle   3  Pass 1  IDiag  1:
 E= -581.141166139380     Delta-E=       -0.010706572669 Rises=F Damp=F
 DIIS: error= 9.37D-04 at cycle   3 NSaved=   3.
 NSaved= 3 IEnMin= 3 EnMin= -581.141166139380     IErMin= 3 ErrMin= 9.37D-04
 ErrMax= 9.37D-04  0.00D+00 EMaxC= 1.00D-01 BMatC= 3.18D-04 BMatP= 3.86D-02
 IDIUse=3 WtCom= 9.91D-01 WtEn= 9.37D-03
 Coeff-Com: -0.140D+00 0.274D+00 0.866D+00
 Coeff-En:   0.000D+00 0.000D+00 0.100D+01
 Coeff:     -0.139D+00 0.271D+00 0.868D+00
 Gap=     0.149 Goal=   None    Shift=    0.000
 Gap=     0.149 Goal=   None    Shift=    0.000
 RMSDP=1.18D-04 MaxDP=3.63D-03 DE=-1.07D-02 OVMax= 1.70D-03

 Cycle   4  Pass 1  IDiag  1:
 E= -581.141190651311     Delta-E=       -0.000024511931 Rises=F Damp=F
 DIIS: error= 5.52D-05 at cycle   4 NSaved=   4.
 NSaved= 4 IEnMin= 4 EnMin= -581.141190651311     IErMin= 4 ErrMin= 5.52D-05
 ErrMax= 5.52D-05  0.00D+00 EMaxC= 1.00D-01 BMatC= 9.99D-07 BMatP= 3.18D-04
 IDIUse=1 WtCom= 1.00D+00 WtEn= 0.00D+00
 Coeff-Com: -0.488D-02 0.764D-02 0.586D-01 0.939D+00
 Coeff:     -0.488D-02 0.764D-02 0.586D-01 0.939D+00
 Gap=     0.149 Goal=   None    Shift=    0.000
 Gap=     0.149 Goal=   None    Shift=    0.000
 RMSDP=1.36D-05 MaxDP=1.98D-04 DE=-2.45D-05 OVMax= 3.57D-04

 Cycle   5  Pass 1  IDiag  1:
 E= -581.141191036967     Delta-E=       -0.000000385657 Rises=F Damp=F
 DIIS: error= 9.90D-06 at cycle   5 NSaved=   5.
 NSaved= 5 IEnMin= 5 EnMin= -581.141191036967     IErMin= 5 ErrMin= 9.90D-06
 ErrMax= 9.90D-06  0.00D+00 EMaxC= 1.00D-01 BMatC= 2.39D-08 BMatP= 9.99D-07
 IDIUse=1 WtCom= 1.00D+00 WtEn= 0.00D+00
 Coeff-Com:  0.124D-02-0.217D-02-0.167D-01-0.133D+00 0.115D+01
 Coeff:      0.124D-02-0.217D-02-0.167D-01-0.133D+00 0.115D+01
 Gap=     0.149 Goal=   None    Shift=    0.000
 Gap=     0.149 Goal=   None    Shift=    0.000
 RMSDP=6.56D-06 MaxDP=1.16D-04 DE=-3.86D-07 OVMax= 1.22D-04

 Cycle   6  Pass 1  IDiag  1:
 E= -581.141191060133     Delta-E=       -0.000000023166 Rises=F Damp=F
 DIIS: error= 1.69D-06 at cycle   6 NSaved=   6.
 NSaved= 6 IEnMin= 6 EnMin= -581.141191060133     IErMin= 6 ErrMin= 1.69D-06
 ErrMax= 1.69D-06  0.00D+00 EMaxC= 1.00D-01 BMatC= 9.20D-10 BMatP= 2.39D-08
 IDIUse=1 WtCom= 1.00D+00 WtEn= 0.00D+00
 Coeff-Com:  0.220D-03-0.398D-03-0.814D-03-0.173D-01 0.267D-01 0.992D+00
 Coeff:      0.220D-03-0.398D-03-0.814D-03-0.173D-01 0.267D-01 0.992D+00
 Gap=     0.149 Goal=   None    Shift=    0.000
 Gap=     0.149 Goal=   None    Shift=    0.000
 RMSDP=9.35D-07 MaxDP=1.38D-05 DE=-2.32D-08 OVMax= 2.08D-05

 Cycle   7  Pass 1  IDiag  1:
 E= -581.141191060806     Delta-E=       -0.000000000674 Rises=F Damp=F
 DIIS: error= 3.89D-07 at cycle   7 NSaved=   7.
 NSaved= 7 IEnMin= 7 EnMin= -581.141191060806     IErMin= 7 ErrMin= 3.89D-07
 ErrMax= 3.89D-07  0.00D+00 EMaxC= 1.00D-01 BMatC= 2.91D-11 BMatP= 9.20D-10
 IDIUse=1 WtCom= 1.00D+00 WtEn= 0.00D+00
 Coeff-Com: -0.523D-04 0.902D-04 0.678D-03 0.823D-02-0.556D-01-0.680D-01
 Coeff-Com:  0.111D+01
 Coeff:     -0.523D-04 0.902D-04 0.678D-03 0.823D-02-0.556D-01-0.680D-01
 Coeff:      0.111D+01
 Gap=     0.149 Goal=   None    Shift=    0.000
 Gap=     0.149 Goal=   None    Shift=    0.000
 RMSDP=3.41D-07 MaxDP=5.03D-06 DE=-6.74D-10 OVMax= 6.16D-06

 Cycle   8  Pass 1  IDiag  1:
 E= -581.141191060849     Delta-E=       -0.000000000042 Rises=F Damp=F
 DIIS: error= 6.78D-08 at cycle   8 NSaved=   8.
 NSaved= 8 IEnMin= 8 EnMin= -581.141191060849     IErMin= 8 ErrMin= 6.78D-08
 ErrMax= 6.78D-08  0.00D+00 EMaxC= 1.00D-01 BMatC= 7.70D-13 BMatP= 2.91D-11
 IDIUse=1 WtCom= 1.00D+00 WtEn= 0.00D+00
 Coeff-Com: -0.161D-05 0.355D-05-0.377D-04 0.254D-03 0.277D-02-0.396D-01
 Coeff-Com: -0.219D-01 0.106D+01
 Coeff:     -0.161D-05 0.355D-05-0.377D-04 0.254D-03 0.277D-02-0.396D-01
 Coeff:     -0.219D-01 0.106D+01
 Gap=     0.149 Goal=   None    Shift=    0.000
 Gap=     0.149 Goal=   None    Shift=    0.000
 RMSDP=3.99D-08 MaxDP=7.37D-07 DE=-4.21D-11 OVMax= 7.53D-07

 Cycle   9  Pass 1  IDiag  1:
 E= -581.141191060849     Delta-E=       -0.000000000001 Rises=F Damp=F
 DIIS: error= 4.67D-09 at cycle   9 NSaved=   9.
 NSaved= 9 IEnMin= 9 EnMin= -581.141191060849     IErMin= 9 ErrMin= 4.67D-09
 ErrMax= 4.67D-09  0.00D+00 EMaxC= 1.00D-01 BMatC= 3.99D-15 BMatP= 7.70D-13
 IDIUse=1 WtCom= 1.00D+00 WtEn= 0.00D+00
 Coeff-Com:  0.901D-06-0.175D-05-0.533D-06-0.706D-04 0.441D-04 0.533D-02
 Coeff-Com: -0.559D-02-0.122D+00 0.112D+01
 Coeff:      0.901D-06-0.175D-05-0.533D-06-0.706D-04 0.441D-04 0.533D-02
 Coeff:     -0.559D-02-0.122D+00 0.112D+01
 Gap=     0.149 Goal=   None    Shift=    0.000
 Gap=     0.149 Goal=   None    Shift=    0.000
 RMSDP=3.85D-09 MaxDP=1.33D-07 DE=-7.96D-13 OVMax= 7.42D-08

 SCF Done:  E(UM062X) =  -581.141191061     A.U. after    9 cycles
            NFock=  9  Conv=0.39D-08     -V/T= 2.0012
 <Sx>= 0.0000 <Sy>= 0.0000 <Sz>= 0.0000 <S**2>=-0.0000 S=-0.0000
 <L.S>=  0.00000000000    
 KE= 5.804651431136D+02 PE=-1.485723840892D+03 EE= 2.736094393616D+02
 Annihilation of the first spin contaminant:
 S**2 before annihilation    -0.0000,   after     0.0000
 Leave Link  502 at Mon Apr 21 20:33:32 2025, MaxMem=   536870912 cpu:              59.8 elap:               8.0
 (Enter /home/szhao/Apps/g16/l601.exe)
 Copying SCF densities to generalized density rwf, IOpCl= 1 IROHF=0.

 **********************************************************************

            Population analysis using the SCF density.

 **********************************************************************

 Alpha  occ. eigenvalues --  -67.00108 -67.00108  -5.55032  -5.55031  -3.86281
 Alpha  occ. eigenvalues --   -3.86281  -3.85739  -3.85739  -3.85601  -3.85601
 Alpha  occ. eigenvalues --   -0.57627  -0.57502  -0.41530  -0.41485  -0.25957
 Alpha  occ. eigenvalues --   -0.22695
 Alpha virt. eigenvalues --   -0.07821  -0.06988   0.02437   0.03181   0.03241
 Alpha virt. eigenvalues --    0.04884   0.05526   0.06200   0.06490   0.08233
 Alpha virt. eigenvalues --    0.08875   0.09489   0.10384   0.13028   0.28476
 Alpha virt. eigenvalues --    0.29730   0.30499   0.30700   0.30945   0.33455
 Alpha virt. eigenvalues --    0.37168   0.41800   0.42172   0.46574   0.47431
 Alpha virt. eigenvalues --    0.50130   0.59577   0.59577   0.63091   0.63093
 Alpha virt. eigenvalues --    0.63761   0.64496   0.81566   0.81652   0.90421
 Alpha virt. eigenvalues --    0.91070   1.22330   1.22581   1.23178   1.23913
 Alpha virt. eigenvalues --    1.24785   1.27753   1.39822   1.40782   1.49000
 Alpha virt. eigenvalues --    1.49013   1.49247   1.49247   1.61149   1.61434
 Alpha virt. eigenvalues --    1.92220   1.92423   2.09944   2.11482   2.60046
 Alpha virt. eigenvalues --    2.62135   2.63104   2.64309   5.53302   5.56994
 Alpha virt. eigenvalues --   11.46059  11.47211  11.51485  11.54696  11.60992
 Alpha virt. eigenvalues --   11.61820 141.10638 141.14726
  Beta  occ. eigenvalues --  -67.00108 -67.00108  -5.55032  -5.55031  -3.86281
  Beta  occ. eigenvalues --   -3.86281  -3.85739  -3.85739  -3.85601  -3.85601
  Beta  occ. eigenvalues --   -0.57627  -0.57502  -0.41530  -0.41485  -0.25957
  Beta  occ. eigenvalues --   -0.22695
  Beta virt. eigenvalues --   -0.07821  -0.06988   0.02437   0.03181   0.03241
  Beta virt. eigenvalues --    0.04884   0.05526   0.06200   0.06490   0.08233
  Beta virt. eigenvalues --    0.08875   0.09489   0.10384   0.13028   0.28476
  Beta virt. eigenvalues --    0.29730   0.30499   0.30700   0.30945   0.33455
  Beta virt. eigenvalues --    0.37168   0.41800   0.42172   0.46574   0.47431
  Beta virt. eigenvalues --    0.50130   0.59577   0.59577   0.63091   0.63093
  Beta virt. eigenvalues --    0.63761   0.64496   0.81566   0.81652   0.90421
  Beta virt. eigenvalues --    0.91070   1.22330   1.22581   1.23178   1.23913
  Beta virt. eigenvalues --    1.24785   1.27753   1.39822   1.40782   1.49000
  Beta virt. eigenvalues --    1.49013   1.49247   1.49247   1.61149   1.61434
  Beta virt. eigenvalues --    1.92220   1.92423   2.09944   2.11482   2.60046
  Beta virt. eigenvalues --    2.62135   2.63104   2.64309   5.53302   5.56994
  Beta virt. eigenvalues --   11.46059  11.47211  11.51485  11.54696  11.60992
  Beta virt. eigenvalues --   11.61820 141.10638 141.14726
          Condensed to atoms (all electrons):
               1          2          3          4          5          6
     1  Si  13.432197  -0.161005   0.210248   0.006413   0.210250   0.006413
     2  Si  -0.161005  13.432197   0.006413   0.210248   0.006413   0.210250
     3  H    0.210248   0.006413   0.936620  -0.000005  -0.005518  -0.000018
     4  H    0.006413   0.210248  -0.000005   0.936620  -0.000018  -0.005518
     5  H    0.210250   0.006413  -0.005518  -0.000018   0.936619  -0.000005
     6  H    0.006413   0.210250  -0.000018  -0.005518  -0.000005   0.936619
          Atomic-Atomic Spin Densities.
               1          2          3          4          5          6
     1  Si  -0.000000   0.000000   0.000000  -0.000000   0.000000  -0.000000
     2  Si   0.000000   0.000000   0.000000   0.000000  -0.000000   0.000000
     3  H    0.000000   0.000000  -0.000000   0.000000  -0.000000   0.000000
     4  H   -0.000000   0.000000   0.000000  -0.000000   0.000000  -0.000000
     5  H    0.000000  -0.000000  -0.000000   0.000000  -0.000000   0.000000
     6  H   -0.000000   0.000000   0.000000  -0.000000   0.000000  -0.000000
 Mulliken charges and spin densities:
               1          2
     1  Si   0.295482  -0.000000
     2  Si   0.295482   0.000000
     3  H   -0.147741  -0.000000
     4  H   -0.147741  -0.000000
     5  H   -0.147742  -0.000000
     6  H   -0.147742  -0.000000
 Sum of Mulliken charges =  -0.00000  -0.00000
 Mulliken charges and spin densities with hydrogens summed into heavy atoms:
               1          2
     1  Si   0.000000  -0.000000
     2  Si  -0.000000   0.000000
 Electronic spatial extent (au):  <R**2>=            677.9886
 Charge=             -0.0000 electrons
 Dipole moment (field-independent basis, Debye):
    X=              0.0000    Y=              0.0000    Z=              0.0002  Tot=              0.0002
 Quadrupole moment (field-independent basis, Debye-Ang):
   XX=            -30.0624   YY=            -32.0230   ZZ=            -24.4781
   XY=              0.0001   XZ=             -0.0000   YZ=              0.0024
 Traceless Quadrupole moment (field-independent basis, Debye-Ang):
   XX=             -1.2079   YY=             -3.1685   ZZ=              4.3764
   XY=              0.0001   XZ=             -0.0000   YZ=              0.0024
 Octapole moment (field-independent basis, Debye-Ang**2):
  XXX=              0.0000  YYY=              0.0000  ZZZ=              0.0001  XYY=              0.0000
  XXY=              0.0000  XXZ=             -0.0048  XZZ=             -0.0000  YZZ=              0.0000
  YYZ=             -0.0004  XYZ=              0.0079
 Hexadecapole moment (field-independent basis, Debye-Ang**3):
 XXXX=          -1132.5130 YYYY=            -94.1329 ZZZZ=            -34.7049 XXXY=              0.0016
 XXXZ=             -0.0000 YYYX=              0.0007 YYYZ=              0.0095 ZZZX=             -0.0000
 ZZZY=              0.0091 XXYY=           -206.4105 XXZZ=           -136.5331 YYZZ=            -21.2846
 XXYZ=              0.0219 YYXZ=             -0.0000 ZZXY=              0.0002
 N-N= 5.050806735604D+01 E-N=-1.485723840959D+03  KE= 5.804651431136D+02
                          Isotropic Fermi Contact Couplings
        Atom                 a.u.       MegaHertz       Gauss      10(-4) cm-1
     1  Si(29)             0.00000      -0.00000      -0.00000      -0.00000
     2  Si(29)             0.00000      -0.00000      -0.00000      -0.00000
     3  H(1)              -0.00000      -0.00000      -0.00000      -0.00000
     4  H(1)              -0.00000      -0.00000      -0.00000      -0.00000
     5  H(1)              -0.00000      -0.00000      -0.00000      -0.00000
     6  H(1)              -0.00000      -0.00000      -0.00000      -0.00000
 --------------------------------------------------------
       Center         ----  Spin Dipole Couplings  ----
                      3XX-RR        3YY-RR        3ZZ-RR
 --------------------------------------------------------
     1   Atom        0.000000      0.000000      0.000000
     2   Atom        0.000000      0.000000      0.000000
     3   Atom        0.000000      0.000000      0.000000
     4   Atom        0.000000      0.000000      0.000000
     5   Atom        0.000000      0.000000      0.000000
     6   Atom        0.000000      0.000000      0.000000
 --------------------------------------------------------
                        XY            XZ            YZ
 --------------------------------------------------------
     1   Atom        0.000000      0.000000      0.000000
     2   Atom        0.000000      0.000000      0.000000
     3   Atom        0.000000      0.000000      0.000000
     4   Atom        0.000000      0.000000      0.000000
     5   Atom        0.000000      0.000000      0.000000
     6   Atom        0.000000      0.000000      0.000000
 --------------------------------------------------------


 ---------------------------------------------------------------------------------
              Anisotropic Spin Dipole Couplings in Principal Axis System
 ---------------------------------------------------------------------------------

       Atom             a.u.   MegaHertz   Gauss  10(-4) cm-1        Axes

              Baa     0.0000    -0.000    -0.000    -0.000  1.0000  0.0000  0.0000
     1 Si(29) Bbb     0.0000    -0.000    -0.000    -0.000 -0.0000  1.0000  0.0000
              Bcc     0.0000    -0.000    -0.000    -0.000  0.0000  0.0000  1.0000
 
              Baa     0.0000    -0.000    -0.000    -0.000  1.0000  0.0000  0.0000
     2 Si(29) Bbb     0.0000    -0.000    -0.000    -0.000 -0.0000  1.0000  0.0000
              Bcc     0.0000    -0.000    -0.000    -0.000  0.0000  0.0000  1.0000
 
              Baa     0.0000     0.000     0.000     0.000  1.0000  0.0000  0.0000
     3 H(1)   Bbb     0.0000     0.000     0.000     0.000 -0.0000  1.0000  0.0000
              Bcc     0.0000     0.000     0.000     0.000  0.0000  0.0000  1.0000
 
              Baa     0.0000     0.000     0.000     0.000  1.0000  0.0000  0.0000
     4 H(1)   Bbb     0.0000     0.000     0.000     0.000 -0.0000  1.0000  0.0000
              Bcc     0.0000     0.000     0.000     0.000  0.0000  0.0000  1.0000
 
              Baa     0.0000     0.000     0.000     0.000  1.0000  0.0000  0.0000
     5 H(1)   Bbb     0.0000     0.000     0.000     0.000 -0.0000  1.0000  0.0000
              Bcc     0.0000     0.000     0.000     0.000  0.0000  0.0000  1.0000
 
              Baa     0.0000     0.000     0.000     0.000  1.0000  0.0000  0.0000
     6 H(1)   Bbb     0.0000     0.000     0.000     0.000 -0.0000  1.0000  0.0000
              Bcc     0.0000     0.000     0.000     0.000  0.0000  0.0000  1.0000
 

 ---------------------------------------------------------------------------------

 No NMR shielding tensors so no spin-rotation constants.
 Leave Link  601 at Mon Apr 21 20:33:33 2025, MaxMem=   536870912 cpu:               1.2 elap:               0.2
 (Enter /home/szhao/Apps/g16/l701.exe)
 ... and contract with generalized density number  0.
 Compute integral first derivatives.
 Leave Link  701 at Mon Apr 21 20:33:33 2025, MaxMem=   536870912 cpu:               1.4 elap:               0.3
 (Enter /home/szhao/Apps/g16/l702.exe)
 L702 exits ... SP integral derivatives will be done elsewhere.
 Leave Link  702 at Mon Apr 21 20:33:33 2025, MaxMem=   536870912 cpu:               0.8 elap:               0.2
 (Enter /home/szhao/Apps/g16/l703.exe)
 Integral derivatives from FoFJK, PRISM(SPDF).
 Compute integral first derivatives, UseDBF=F ICtDFT=           0.
 Calling FoFJK, ICntrl=      2127 FMM=F ISym2X=0 I1Cent= 0 IOpClX= 1 NMat=1 NMatS=1 NMatT=0.
 FoFJK:  IHMeth= 1 ICntrl=    2127 DoSepK=F KAlg= 0 I1Cent=           0 FoldK=F
 IRaf=         0 NMat=       1 IRICut=       1 DoRegI=T DoRafI=F ISym2E= 0 IDoP0=0 IntGTp=1.
 FoFCou: FMM=F IPFlag=           0 FMFlag=      100000 FMFlg1=         800
         NFxFlg=           0 DoJE=F BraDBF=F KetDBF=F FulRan=T
         wScrn=  0.000000 ICntrl=      2127 IOpCl=  1 I1Cent=           0 NGrid=           0
         NMat0=    1 NMatS0=      1 NMatT0=    0 NMatD0=    1 NMtDS0=    0 NMtDT0=    0
 Symmetry not used in FoFCou.
 Leave Link  703 at Mon Apr 21 20:33:35 2025, MaxMem=   536870912 cpu:               8.2 elap:               1.1
 (Enter /home/szhao/Apps/g16/l716.exe)
 Dipole        = 5.41754737D-07 7.57451639D-08 7.87871058D-05
 -------------------------------------------------------------------
 Center     Atomic                   Forces (Hartrees/Bohr)
 Number     Number              X              Y              Z
 -------------------------------------------------------------------
      1       14          -0.000000000   -0.000000000   -0.000000000
      2       14          -0.000000000   -0.000000000   -0.000000000
      3        1          -0.028027301    0.000024904    0.000002680
      4        1           0.028027407   -0.000024710    0.000002747
      5        1          -0.028024834   -0.000028643    0.000002722
      6        1           0.028024920    0.000028480    0.000002653
 -------------------------------------------------------------------
 Cartesian Forces:  Max     0.028027407 RMS     0.013211644
 Leave Link  716 at Mon Apr 21 20:33:35 2025, MaxMem=   536870912 cpu:               0.4 elap:               0.1
 (Enter /home/szhao/Apps/g16/l103.exe)

 GradGradGradGradGradGradGradGradGradGradGradGradGradGradGradGradGradGrad
 Berny optimization.
 FormGI is forming the generalized inverse of G from B-inverse, IUseBI=4.
 Internal  Forces:  Max     0.056052327 RMS     0.025498373
 Search for a local minimum.
 Step number   1 out of a maximum of   30
 All quantities printed in internal units (Hartrees-Bohrs-Radians)
 RMS Force = .21908D-01 SwitMx=.10000D-02 MixMth= 1
 Mixed Optimization -- RFO/linear search
 Second derivative matrix not updated -- first step.
 The second derivative matrix:
                          X1        Y1        Z1        X2        Y2
           X1           0.50000
           Y1           0.00000   0.50000
           Z1           0.00000   0.00000   0.50000
           X2           0.00000   0.00000   0.00000   0.50000
           Y2           0.00000   0.00000   0.00000   0.00000   0.50000
           Z2           0.00000   0.00000   0.00000   0.00000   0.00000
           R1           0.00000   0.00000   0.00000   0.00000   0.00000
           R2           0.00000   0.00000   0.00000   0.00000   0.00000
           R3           0.00000   0.00000   0.00000   0.00000   0.00000
           R4           0.00000   0.00000   0.00000   0.00000   0.00000
           A1           0.00000   0.00000   0.00000   0.00000   0.00000
           A2           0.00000   0.00000   0.00000   0.00000   0.00000
           A3           0.00000   0.00000   0.00000   0.00000   0.00000
           A4           0.00000   0.00000   0.00000   0.00000   0.00000
           A5           0.00000   0.00000   0.00000   0.00000   0.00000
           A6           0.00000   0.00000   0.00000   0.00000   0.00000
           D1           0.00000   0.00000   0.00000   0.00000   0.00000
           D2           0.00000   0.00000   0.00000   0.00000   0.00000
           D3           0.00000   0.00000   0.00000   0.00000   0.00000
           D4           0.00000   0.00000   0.00000   0.00000   0.00000
                          Z2        R1        R2        R3        R4
           Z2           0.50000
           R1           0.00000   0.18116
           R2           0.00000   0.00000   0.18115
           R3           0.00000   0.00000   0.00000   0.18116
           R4           0.00000   0.00000   0.00000   0.00000   0.18115
           A1           0.00000   0.00000   0.00000   0.00000   0.00000
           A2           0.00000   0.00000   0.00000   0.00000   0.00000
           A3           0.00000   0.00000   0.00000   0.00000   0.00000
           A4           0.00000   0.00000   0.00000   0.00000   0.00000
           A5           0.00000   0.00000   0.00000   0.00000   0.00000
           A6           0.00000   0.00000   0.00000   0.00000   0.00000
           D1           0.00000   0.00000   0.00000   0.00000   0.00000
           D2           0.00000   0.00000   0.00000   0.00000   0.00000
           D3           0.00000   0.00000   0.00000   0.00000   0.00000
           D4           0.00000   0.00000   0.00000   0.00000   0.00000
                          A1        A2        A3        A4        A5
           A1           0.16000
           A2           0.00000   0.16000
           A3           0.00000   0.00000   0.16000
           A4           0.00000   0.00000   0.00000   0.16000
           A5           0.00000   0.00000   0.00000   0.00000   0.16000
           A6           0.00000   0.00000   0.00000   0.00000   0.00000
           D1           0.00000   0.00000   0.00000   0.00000   0.00000
           D2           0.00000   0.00000   0.00000   0.00000   0.00000
           D3           0.00000   0.00000   0.00000   0.00000   0.00000
           D4           0.00000   0.00000   0.00000   0.00000   0.00000
                          A6        D1        D2        D3        D4
           A6           0.16000
           D1           0.00000   0.00230
           D2           0.00000   0.00000   0.00230
           D3           0.00000   0.00000   0.00000   0.00230
           D4           0.00000   0.00000   0.00000   0.00000   0.00230
 ITU=  0
     Eigenvalues ---    0.00230   0.00230   0.00230   0.16000   0.16000
     Eigenvalues ---    0.16000   0.16000   0.18115   0.18115   0.18116
     Eigenvalues ---    0.181161000.000001000.000001000.000001000.00000
     Eigenvalues --- 1000.000001000.000001000.000001000.000001000.00000
 RFO step:  Lambda=-3.41627429D-02 EMin= 2.30000000D-03
 Linear search not attempted -- first point.
 Maximum step size (   0.300) exceeded in Quadratic search.
    -- Step size scaled by   0.719
 Iteration  1 RMS(Cart)=  0.10343699 RMS(Int)=  0.00421223
 Iteration  2 RMS(Cart)=  0.00472294 RMS(Int)=  0.00000579
 Iteration  3 RMS(Cart)=  0.00000871 RMS(Int)=  0.00000000
 Iteration  4 RMS(Cart)=  0.00000000 RMS(Int)=  0.00000000
 ITry= 1 IFail=0 DXMaxC= 2.17D-01 DCOld= 1.00D+10 DXMaxT= 3.00D-01 DXLimC= 3.00D+00 Rises=F
 Variable       Old X    -DE/DX   Delta X   Delta X   Delta X     New X
                                 (Linear)    (Quad)   (Total)
    X1       -4.08657  -0.05605   0.00000   0.00000   0.00000  -4.08657
    Y1        0.00000  -0.00000   0.00000   0.00000   0.00000   0.00000
    Z1        0.00000   0.00001   0.00000   0.00000   0.00000   0.00000
    X2        4.08657   0.05605   0.00000   0.00000   0.00000   4.08657
    Y2        0.00000   0.00000   0.00000   0.00000   0.00000   0.00000
    Z2        0.00000   0.00001   0.00000   0.00000   0.00000   0.00000
    R1        2.78324   0.01484   0.00000   0.04958   0.04958   2.83282
    R2        2.78326   0.01483   0.00000   0.04957   0.04957   2.83283
    R3        2.78324   0.01484   0.00000   0.04958   0.04958   2.83282
    R4        2.78326   0.01483   0.00000   0.04957   0.04957   2.83283
    A1        2.12963   0.02206   0.00000   0.08174   0.08174   2.21137
    A2        2.12964   0.02206   0.00000   0.08174   0.08174   2.21137
    A3        2.02391  -0.04412   0.00000  -0.16347  -0.16347   1.86044
    A4        2.12963   0.02206   0.00000   0.08174   0.08174   2.21137
    A5        2.12964   0.02206   0.00000   0.08174   0.08174   2.21137
    A6        2.02391  -0.04412   0.00000  -0.16347  -0.16347   1.86044
    D1        3.14097   0.00000   0.00000   0.00005   0.00005   3.14101
    D2       -0.00074   0.00000   0.00000   0.00000   0.00000  -0.00074
    D3       -0.00074   0.00000   0.00000   0.00000   0.00000  -0.00074
    D4        3.14074  -0.00000   0.00000  -0.00005  -0.00005   3.14069
         Item               Value     Threshold  Converged?
 Maximum Force            0.044118     0.000450     NO 
 RMS     Force            0.021908     0.000300     NO 
 Maximum Displacement     0.217374     0.001800     NO 
 RMS     Displacement     0.104979     0.001200     NO 
 Predicted change in Energy=-1.727418D-02
 Lowest energy point so far.  Saving SCF results.
 GradGradGradGradGradGradGradGradGradGradGradGradGradGradGradGradGradGrad

 Leave Link  103 at Mon Apr 21 20:33:35 2025, MaxMem=   536870912 cpu:               0.6 elap:               0.1
 (Enter /home/szhao/Apps/g16/l202.exe)
                          Input orientation:                          
 ---------------------------------------------------------------------
 Center     Atomic      Atomic             Coordinates (Angstroms)
 Number     Number       Type             X           Y           Z
 ---------------------------------------------------------------------
      1         14           0       -2.162518    0.000000    0.000000
      2         14           0        2.162518    0.000000    0.000000
      3          1           0       -3.058442   -1.201880    0.000011
      4          1           0        3.058442    1.201880   -0.000708
      5          1           0       -3.058449    1.201881    0.000182
      6          1           0        3.058449   -1.201880    0.000901
 ---------------------------------------------------------------------
                    Distance matrix (angstroms):
                    1          2          3          4          5
     1  Si   0.000000
     2  Si   4.325036   0.000000
     3  H    1.499065   5.357512   0.000000
     4  H    5.357512   1.499065   6.572239   0.000000
     5  H    1.499070   5.357519   2.403761   6.116891   0.000000
     6  H    5.357519   1.499069   6.116891   2.403760   6.572253
                    6
     6  H    0.000000
 Symmetry turned off by external request.
 Stoichiometry    H4Si2
 Framework group  C1[X(H4Si2)]
 Deg. of freedom    12
 Full point group                 C1      NOp   1
 Rotational constants (GHZ):          86.7859942           1.6881054           1.6558959
 Leave Link  202 at Mon Apr 21 20:33:35 2025, MaxMem=   536870912 cpu:               0.1 elap:               0.1
 (Enter /home/szhao/Apps/g16/l301.exe)
 Standard basis: 6-311+G(d,p) (5D, 7F)
 Ernie: Thresh=  0.10000D-02 Tol=  0.10000D-05 Strict=F.
    84 basis functions,   132 primitive gaussians,    86 cartesian basis functions
    16 alpha electrons       16 beta electrons
       nuclear repulsion energy        50.0548814615 Hartrees.
 IExCor= 4336 DFT=T Ex+Corr=M062X ExCW=0 ScaHFX=  0.540000
 ScaDFX=  1.000000  1.000000  1.000000  1.000000 ScalE2=  1.000000  1.000000
 IRadAn=      7 IRanWt=     -1 IRanGd=            0 ICorTp=0 IEmpDi=  4
 NAtoms=    6 NActive=    6 NUniq=    6 SFac= 1.00D+00 NAtFMM=   60 NAOKFM=F Big=F
 Integral buffers will be    131072 words long.
 Raffenetti 2 integral format.
 Two-electron integral symmetry is turned off.
 Leave Link  301 at Mon Apr 21 20:33:35 2025, MaxMem=   536870912 cpu:               0.5 elap:               0.1
 (Enter /home/szhao/Apps/g16/l302.exe)
 NPDir=0 NMtPBC=     1 NCelOv=     1 NCel=       1 NClECP=     1 NCelD=      1
         NCelK=      1 NCelE2=     1 NClLst=     1 CellRange=     0.0.
 One-electron integrals computed using PRISM.
 NBasis=    84 RedAO= T EigKep=  1.24D-02  NBF=    84
 NBsUse=    84 1.00D-06 EigRej= -1.00D+00 NBFU=    84
 Precomputing XC quadrature grid using
 IXCGrd= 4 IRadAn=           7 IRanWt=          -1 IRanGd=           0 AccXCQ= 0.00D+00.
 Generated NRdTot=       0 NPtTot=           0 NUsed=           0 NTot=          32
 NSgBfM=    76    76    76    76    76 MxSgAt=     6 MxSgA2=     6.
 Leave Link  302 at Mon Apr 21 20:33:36 2025, MaxMem=   536870912 cpu:               1.6 elap:               0.2
 (Enter /home/szhao/Apps/g16/l303.exe)
 DipDrv:  MaxL=1.
 Leave Link  303 at Mon Apr 21 20:33:36 2025, MaxMem=   536870912 cpu:               0.7 elap:               0.1
 (Enter /home/szhao/Apps/g16/l401.exe)
 Initial guess from the checkpoint file:  "opt.chk"
 B after Tr=     0.000000    0.000000    0.000006
         Rot=    1.000000   -0.000007   -0.000000   -0.000000 Ang=  -0.00 deg.
 Guess basis will be translated and rotated to current coordinates.
 JPrj=2 DoOrth=T DoCkMO=T.
 Initial guess <Sx>= 0.0000 <Sy>= 0.0000 <Sz>= 0.0000 <S**2>=-0.0000 S=-0.0000
 Generating alternative initial guess.
 ExpMin= 3.31D-02 ExpMax= 6.94D+04 ExpMxC= 2.33D+03 IAcc=3 IRadAn=         5 AccDes= 0.00D+00
 Harris functional with IExCor= 1009 and IRadAn=       5 diagonalized for initial guess.
 HarFok:  IExCor= 1009 AccDes= 0.00D+00 IRadAn=         5 IDoV= 1 UseB2=F ITyADJ=14
 ICtDFT=  3500011 ScaDFX=  1.000000  1.000000  1.000000  1.000000
 FoFCou: FMM=F IPFlag=           0 FMFlag=      100000 FMFlg1=           0
         NFxFlg=           0 DoJE=T BraDBF=F KetDBF=T FulRan=T
         wScrn=  0.000000 ICntrl=       500 IOpCl=  0 I1Cent=   200000004 NGrid=           0
         NMat0=    1 NMatS0=      1 NMatT0=    0 NMatD0=    1 NMtDS0=    0 NMtDT0=    0
 Symmetry not used in FoFCou.
 Harris En= -580.850940350763    
 Leave Link  401 at Mon Apr 21 20:33:36 2025, MaxMem=   536870912 cpu:               3.0 elap:               0.4
 (Enter /home/szhao/Apps/g16/l502.exe)
 Keep R1 and R2 ints in memory in canonical form, NReq=20057634.
 FoFCou: FMM=F IPFlag=           0 FMFlag=           0 FMFlg1=           0
         NFxFlg=           0 DoJE=F BraDBF=F KetDBF=F FulRan=T
         wScrn=  0.000000 ICntrl=       600 IOpCl=  0 I1Cent=           0 NGrid=           0
         NMat0=    1 NMatS0=   3570 NMatT0=    0 NMatD0=    1 NMtDS0=    0 NMtDT0=    0
 Symmetry not used in FoFCou.
 Two-electron integral symmetry not used.
 UHF open shell SCF:
 Using DIIS extrapolation, IDIIS=  1040.
 NGot=   536870912 LenX=   524106186 LenY=   524098349
 Requested convergence on RMS density matrix=1.00D-08 within 128 cycles.
 Requested convergence on MAX density matrix=1.00D-06.
 Requested convergence on             energy=1.00D-06.
 No special actions if energy rises.

 Cycle   1  Pass 1  IDiag  1:
 E= -581.159631302295    
 DIIS: error= 3.92D-03 at cycle   1 NSaved=   1.
 NSaved= 1 IEnMin= 1 EnMin= -581.159631302295     IErMin= 1 ErrMin= 3.92D-03
 ErrMax= 3.92D-03  0.00D+00 EMaxC= 1.00D-01 BMatC= 3.50D-03 BMatP= 3.50D-03
 IDIUse=3 WtCom= 9.61D-01 WtEn= 3.92D-02
 Coeff-Com:  0.100D+01
 Coeff-En:   0.100D+01
 Coeff:      0.100D+01
 Gap=     0.471 Goal=   None    Shift=    0.000
 Gap=     0.471 Goal=   None    Shift=    0.000
 GapD=    0.471 DampG=2.000 DampE=1.000 DampFc=2.0000 IDamp=-1.
 RMSDP=5.36D-04 MaxDP=5.51D-03              OVMax= 1.55D-02

 Cycle   2  Pass 1  IDiag  1:
 E= -581.161045462318     Delta-E=       -0.001414160023 Rises=F Damp=F
 DIIS: error= 4.80D-04 at cycle   2 NSaved=   2.
 NSaved= 2 IEnMin= 2 EnMin= -581.161045462318     IErMin= 2 ErrMin= 4.80D-04
 ErrMax= 4.80D-04  0.00D+00 EMaxC= 1.00D-01 BMatC= 8.69D-05 BMatP= 3.50D-03
 IDIUse=3 WtCom= 9.95D-01 WtEn= 4.80D-03
 Coeff-Com: -0.527D-01 0.105D+01
 Coeff-En:   0.000D+00 0.100D+01
 Coeff:     -0.525D-01 0.105D+01
 Gap=     0.162 Goal=   None    Shift=    0.000
 Gap=     0.162 Goal=   None    Shift=    0.000
 RMSDP=1.67D-04 MaxDP=4.35D-03 DE=-1.41D-03 OVMax= 3.78D-03

 Cycle   3  Pass 1  IDiag  1:
 E= -581.161098576768     Delta-E=       -0.000053114450 Rises=F Damp=F
 DIIS: error= 1.69D-04 at cycle   3 NSaved=   3.
 NSaved= 3 IEnMin= 3 EnMin= -581.161098576768     IErMin= 3 ErrMin= 1.69D-04
 ErrMax= 1.69D-04  0.00D+00 EMaxC= 1.00D-01 BMatC= 1.15D-05 BMatP= 8.69D-05
 IDIUse=3 WtCom= 9.98D-01 WtEn= 1.69D-03
 Coeff-Com: -0.306D-01 0.226D+00 0.805D+00
 Coeff-En:   0.000D+00 0.000D+00 0.100D+01
 Coeff:     -0.305D-01 0.225D+00 0.805D+00
 Gap=     0.163 Goal=   None    Shift=    0.000
 Gap=     0.163 Goal=   None    Shift=    0.000
 RMSDP=3.85D-05 MaxDP=5.36D-04 DE=-5.31D-05 OVMax= 9.91D-04

 Cycle   4  Pass 1  IDiag  1:
 E= -581.161101892695     Delta-E=       -0.000003315927 Rises=F Damp=F
 DIIS: error= 3.62D-05 at cycle   4 NSaved=   4.
 NSaved= 4 IEnMin= 4 EnMin= -581.161101892695     IErMin= 4 ErrMin= 3.62D-05
 ErrMax= 3.62D-05  0.00D+00 EMaxC= 1.00D-01 BMatC= 4.39D-07 BMatP= 1.15D-05
 IDIUse=1 WtCom= 1.00D+00 WtEn= 0.00D+00
 Coeff-Com:  0.201D-02-0.615D-01 0.408D-01 0.102D+01
 Coeff:      0.201D-02-0.615D-01 0.408D-01 0.102D+01
 Gap=     0.163 Goal=   None    Shift=    0.000
 Gap=     0.163 Goal=   None    Shift=    0.000
 RMSDP=1.92D-05 MaxDP=5.23D-04 DE=-3.32D-06 OVMax= 3.48D-04

 Cycle   5  Pass 1  IDiag  1:
 E= -581.161102134590     Delta-E=       -0.000000241895 Rises=F Damp=F
 DIIS: error= 6.80D-06 at cycle   5 NSaved=   5.
 NSaved= 5 IEnMin= 5 EnMin= -581.161102134590     IErMin= 5 ErrMin= 6.80D-06
 ErrMax= 6.80D-06  0.00D+00 EMaxC= 1.00D-01 BMatC= 7.09D-09 BMatP= 4.39D-07
 IDIUse=1 WtCom= 1.00D+00 WtEn= 0.00D+00
 Coeff-Com:  0.940D-03-0.111D-01-0.508D-02 0.622D-01 0.953D+00
 Coeff:      0.940D-03-0.111D-01-0.508D-02 0.622D-01 0.953D+00
 Gap=     0.163 Goal=   None    Shift=    0.000
 Gap=     0.163 Goal=   None    Shift=    0.000
 RMSDP=3.58D-06 MaxDP=1.05D-04 DE=-2.42D-07 OVMax= 5.23D-05

 Cycle   6  Pass 1  IDiag  1:
 E= -581.161102140126     Delta-E=       -0.000000005536 Rises=F Damp=F
 DIIS: error= 1.10D-06 at cycle   6 NSaved=   6.
 NSaved= 6 IEnMin= 6 EnMin= -581.161102140126     IErMin= 6 ErrMin= 1.10D-06
 ErrMax= 1.10D-06  0.00D+00 EMaxC= 1.00D-01 BMatC= 2.88D-10 BMatP= 7.09D-09
 IDIUse=1 WtCom= 1.00D+00 WtEn= 0.00D+00
 Coeff-Com: -0.132D-03 0.298D-02-0.257D-02-0.374D-01-0.159D-02 0.104D+01
 Coeff:     -0.132D-03 0.298D-02-0.257D-02-0.374D-01-0.159D-02 0.104D+01
 Gap=     0.163 Goal=   None    Shift=    0.000
 Gap=     0.163 Goal=   None    Shift=    0.000
 RMSDP=8.23D-07 MaxDP=2.10D-05 DE=-5.54D-09 OVMax= 1.14D-05

 Cycle   7  Pass 1  IDiag  1:
 E= -581.161102140356     Delta-E=       -0.000000000230 Rises=F Damp=F
 DIIS: error= 1.54D-07 at cycle   7 NSaved=   7.
 NSaved= 7 IEnMin= 7 EnMin= -581.161102140356     IErMin= 7 ErrMin= 1.54D-07
 ErrMax= 1.54D-07  0.00D+00 EMaxC= 1.00D-01 BMatC= 4.98D-12 BMatP= 2.88D-10
 IDIUse=1 WtCom= 1.00D+00 WtEn= 0.00D+00
 Coeff-Com: -0.208D-05-0.115D-03 0.244D-03 0.228D-02-0.110D-01-0.174D+00
 Coeff-Com:  0.118D+01
 Coeff:     -0.208D-05-0.115D-03 0.244D-03 0.228D-02-0.110D-01-0.174D+00
 Coeff:      0.118D+01
 Gap=     0.163 Goal=   None    Shift=    0.000
 Gap=     0.163 Goal=   None    Shift=    0.000
 RMSDP=1.52D-07 MaxDP=4.16D-06 DE=-2.30D-10 OVMax= 2.22D-06

 Cycle   8  Pass 1  IDiag  1:
 E= -581.161102140360     Delta-E=       -0.000000000004 Rises=F Damp=F
 DIIS: error= 1.23D-08 at cycle   8 NSaved=   8.
 NSaved= 8 IEnMin= 8 EnMin= -581.161102140360     IErMin= 8 ErrMin= 1.23D-08
 ErrMax= 1.23D-08  0.00D+00 EMaxC= 1.00D-01 BMatC= 4.75D-14 BMatP= 4.98D-12
 IDIUse=1 WtCom= 1.00D+00 WtEn= 0.00D+00
 Coeff-Com:  0.190D-05-0.237D-04-0.124D-04 0.319D-03 0.128D-02 0.216D-02
 Coeff-Com: -0.813D-01 0.108D+01
 Coeff:      0.190D-05-0.237D-04-0.124D-04 0.319D-03 0.128D-02 0.216D-02
 Coeff:     -0.813D-01 0.108D+01
 Gap=     0.163 Goal=   None    Shift=    0.000
 Gap=     0.163 Goal=   None    Shift=    0.000
 RMSDP=4.44D-09 MaxDP=9.84D-08 DE=-4.09D-12 OVMax= 1.38D-07

 SCF Done:  E(UM062X) =  -581.161102140     A.U. after    8 cycles
            NFock=  8  Conv=0.44D-08     -V/T= 2.0013
 <Sx>= 0.0000 <Sy>= 0.0000 <Sz>= 0.0000 <S**2>=-0.0000 S=-0.0000
 <L.S>=  0.00000000000    
 KE= 5.803829186177D+02 PE=-1.484705895065D+03 EE= 2.731069928454D+02
 Annihilation of the first spin contaminant:
 S**2 before annihilation    -0.0000,   after     0.0000
 Leave Link  502 at Mon Apr 21 20:33:43 2025, MaxMem=   536870912 cpu:              52.3 elap:               7.0
 (Enter /home/szhao/Apps/g16/l701.exe)
 ... and contract with generalized density number  0.
 Compute integral first derivatives.
 Leave Link  701 at Mon Apr 21 20:33:44 2025, MaxMem=   536870912 cpu:               1.8 elap:               0.4
 (Enter /home/szhao/Apps/g16/l702.exe)
 L702 exits ... SP integral derivatives will be done elsewhere.
 Leave Link  702 at Mon Apr 21 20:33:44 2025, MaxMem=   536870912 cpu:               0.5 elap:               0.1
 (Enter /home/szhao/Apps/g16/l703.exe)
 Integral derivatives from FoFJK, PRISM(SPDF).
 Compute integral first derivatives, UseDBF=F ICtDFT=           0.
 Calling FoFJK, ICntrl=      2127 FMM=F ISym2X=0 I1Cent= 0 IOpClX= 1 NMat=1 NMatS=1 NMatT=0.
 FoFJK:  IHMeth= 1 ICntrl=    2127 DoSepK=F KAlg= 0 I1Cent=           0 FoldK=F
 IRaf=         0 NMat=       1 IRICut=       1 DoRegI=T DoRafI=F ISym2E= 0 IDoP0=0 IntGTp=1.
 FoFCou: FMM=F IPFlag=           0 FMFlag=      100000 FMFlg1=         800
         NFxFlg=           0 DoJE=F BraDBF=F KetDBF=F FulRan=T
         wScrn=  0.000000 ICntrl=      2127 IOpCl=  1 I1Cent=           0 NGrid=           0
         NMat0=    1 NMatS0=      1 NMatT0=    0 NMatD0=    1 NMtDS0=    0 NMtDT0=    0
 Symmetry not used in FoFCou.
 Leave Link  703 at Mon Apr 21 20:33:46 2025, MaxMem=   536870912 cpu:              10.0 elap:               1.4
 (Enter /home/szhao/Apps/g16/l716.exe)
 Dipole        = 1.63859862D-07 3.73148121D-08 5.91264185D-05
 -------------------------------------------------------------------
 Center     Atomic                   Forces (Hartrees/Bohr)
 Number     Number              X              Y              Z
 -------------------------------------------------------------------
      1       14          -0.000000000   -0.000000000   -0.000000000
      2       14          -0.000000000   -0.000000000   -0.000000000
      3        1          -0.015594030    0.004393009    0.000002082
      4        1           0.015594070   -0.004392933    0.000004796
      5        1          -0.015593062   -0.004394291    0.000001497
      6        1           0.015593095    0.004394227   -0.000001218
 -------------------------------------------------------------------
 Cartesian Forces:  Max     0.015594070 RMS     0.007637089
 Leave Link  716 at Mon Apr 21 20:33:47 2025, MaxMem=   536870912 cpu:               1.3 elap:               0.3
 (Enter /home/szhao/Apps/g16/l103.exe)

 GradGradGradGradGradGradGradGradGradGradGradGradGradGradGradGradGradGrad
 Berny optimization.
 Using GEDIIS/GDIIS optimizer.
 FormGI is forming the generalized inverse of G from B-inverse, IUseBI=4.
 Internal  Forces:  Max     0.031187164 RMS     0.015047333
 Search for a local minimum.
 Step number   2 out of a maximum of   30
 All quantities printed in internal units (Hartrees-Bohrs-Radians)
 RMS Force = .13584D-01 SwitMx=.10000D-02 MixMth= 1
 Mixed Optimization -- RFO/linear search
 Update second derivatives using D2CorX and points    1    2
 DE= -1.99D-02 DEPred=-1.73D-02 R= 1.15D+00
 TightC=F SS=  1.41D+00  RLast= 3.00D-01 DXNew= 5.0454D-01 9.0000D-01
 Trust test= 1.15D+00 RLast= 3.00D-01 DXMaxT set to 5.05D-01
 The second derivative matrix:
                          X1        Y1        Z1        X2        Y2
           X1           0.56565
           Y1           0.00001   0.50000
           Z1          -0.00000  -0.00000   0.50000
           X2          -0.06565  -0.00001   0.00000   0.56565
           Y2          -0.00001  -0.00000   0.00000   0.00001   0.50000
           Z2          -0.00000  -0.00000   0.00000   0.00000   0.00000
           R1          -0.02387  -0.00000   0.00000   0.02387   0.00000
           R2          -0.02386  -0.00000   0.00000   0.02386   0.00000
           R3          -0.02387  -0.00000   0.00000   0.02387   0.00000
           R4          -0.02386  -0.00000   0.00000   0.02386   0.00000
           A1          -0.02053  -0.00000   0.00000   0.02053   0.00000
           A2          -0.02053  -0.00000   0.00000   0.02053   0.00000
           A3           0.04105   0.00000  -0.00000  -0.04105  -0.00000
           A4          -0.02053  -0.00000   0.00000   0.02053   0.00000
           A5          -0.02053  -0.00000   0.00000   0.02053   0.00000
           A6           0.04105   0.00000  -0.00000  -0.04105  -0.00000
           D1          -0.00000  -0.00000   0.00000   0.00000   0.00000
           D2           0.00000   0.00000  -0.00000  -0.00000  -0.00000
           D3           0.00000   0.00000  -0.00000  -0.00000  -0.00000
           D4           0.00000   0.00000  -0.00000  -0.00000  -0.00000
                          Z2        R1        R2        R3        R4
           Z2           0.50000
           R1           0.00000   0.18431
           R2           0.00000   0.00316   0.18431
           R3           0.00000   0.00316   0.00316   0.18431
           R4           0.00000   0.00316   0.00316   0.00316   0.18431
           A1           0.00000  -0.00058  -0.00058  -0.00058  -0.00058
           A2           0.00000  -0.00058  -0.00058  -0.00058  -0.00058
           A3          -0.00000   0.00116   0.00116   0.00116   0.00116
           A4           0.00000  -0.00058  -0.00058  -0.00058  -0.00058
           A5           0.00000  -0.00058  -0.00058  -0.00058  -0.00058
           A6          -0.00000   0.00116   0.00116   0.00116   0.00116
           D1           0.00000   0.00000   0.00000   0.00000   0.00000
           D2          -0.00000  -0.00000  -0.00000  -0.00000  -0.00000
           D3          -0.00000  -0.00000  -0.00000  -0.00000  -0.00000
           D4          -0.00000  -0.00000  -0.00000  -0.00000  -0.00000
                          A1        A2        A3        A4        A5
           A1           0.15471
           A2          -0.00529   0.15471
           A3           0.01058   0.01058   0.13884
           A4          -0.00529  -0.00529   0.01058   0.15471
           A5          -0.00529  -0.00529   0.01058  -0.00529   0.15471
           A6           0.01058   0.01058  -0.02116   0.01058   0.01058
           D1           0.00000   0.00000  -0.00000   0.00000   0.00000
           D2          -0.00000  -0.00000   0.00000  -0.00000  -0.00000
           D3          -0.00000  -0.00000   0.00000  -0.00000  -0.00000
           D4          -0.00000  -0.00000   0.00000  -0.00000  -0.00000
                          A6        D1        D2        D3        D4
           A6           0.13884
           D1          -0.00000   0.00230
           D2           0.00000  -0.00000   0.00230
           D3           0.00000  -0.00000   0.00000   0.00230
           D4           0.00000  -0.00000   0.00000   0.00000   0.00230
 ITU=  1  0
 Use linear search instead of GDIIS.
     Eigenvalues ---    0.00230   0.00230   0.00230   0.09635   0.16000
     Eigenvalues ---    0.16000   0.16000   0.18115   0.18115   0.18116
     Eigenvalues ---    0.193941000.000001000.000001000.000001000.00000
     Eigenvalues --- 1000.000001000.000001000.000001000.000001000.00000
 RFO step:  Lambda=-1.74339868D-03 EMin= 2.30000000D-03
 Quartic linear search produced a step of  1.50783.
 Iteration  1 RMS(Cart)=  0.14294104 RMS(Int)=  0.02370874
 Iteration  2 RMS(Cart)=  0.03808781 RMS(Int)=  0.00055764
 Iteration  3 RMS(Cart)=  0.00058308 RMS(Int)=  0.00000006
 Iteration  4 RMS(Cart)=  0.00000009 RMS(Int)=  0.00000000
 ITry= 1 IFail=0 DXMaxC= 3.22D-01 DCOld= 1.00D+10 DXMaxT= 5.05D-01 DXLimC= 3.00D+00 Rises=F
 Variable       Old X    -DE/DX   Delta X   Delta X   Delta X     New X
                                 (Linear)    (Quad)   (Total)
    X1       -4.08657  -0.03119   0.00000   0.00000   0.00000  -4.08657
    Y1        0.00000  -0.00000   0.00000   0.00000   0.00000   0.00000
    Z1        0.00000   0.00000   0.00000   0.00000   0.00000   0.00000
    X2        4.08657   0.03119   0.00000   0.00000   0.00000   4.08657
    Y2        0.00000   0.00000   0.00000   0.00000   0.00000   0.00000
    Z2        0.00000   0.00000   0.00000   0.00000   0.00000   0.00000
    R1        2.83282   0.00580   0.07476  -0.04220   0.03256   2.86538
    R2        2.83283   0.00580   0.07474  -0.04219   0.03255   2.86538
    R3        2.83282   0.00580   0.07476  -0.04220   0.03256   2.86538
    R4        2.83283   0.00580   0.07474  -0.04219   0.03255   2.86538
    A1        2.21137   0.01429   0.12324   0.01622   0.13946   2.35083
    A2        2.21137   0.01429   0.12324   0.01622   0.13946   2.35083
    A3        1.86044  -0.02857  -0.24649  -0.03243  -0.27892   1.58152
    A4        2.21137   0.01429   0.12324   0.01622   0.13946   2.35083
    A5        2.21137   0.01429   0.12324   0.01622   0.13946   2.35083
    A6        1.86044  -0.02857  -0.24649  -0.03243  -0.27892   1.58152
    D1        3.14101   0.00000   0.00007   0.00012   0.00019   3.14120
    D2       -0.00074   0.00000   0.00000   0.00001   0.00001  -0.00073
    D3       -0.00074   0.00000   0.00000   0.00001   0.00001  -0.00073
    D4        3.14069  -0.00000  -0.00007  -0.00009  -0.00016   3.14053
         Item               Value     Threshold  Converged?
 Maximum Force            0.028570     0.000450     NO 
 RMS     Force            0.013584     0.000300     NO 
 Maximum Displacement     0.322179     0.001800     NO 
 RMS     Displacement     0.178143     0.001200     NO 
 Predicted change in Energy=-1.311414D-02
 Lowest energy point so far.  Saving SCF results.
 GradGradGradGradGradGradGradGradGradGradGradGradGradGradGradGradGradGrad

 Leave Link  103 at Mon Apr 21 20:33:47 2025, MaxMem=   536870912 cpu:               1.5 elap:               0.3
 (Enter /home/szhao/Apps/g16/l202.exe)
                          Input orientation:                          
 ---------------------------------------------------------------------
 Center     Atomic      Atomic             Coordinates (Angstroms)
 Number     Number       Type             X           Y           Z
 ---------------------------------------------------------------------
      1         14           0       -2.162518    0.000000    0.000000
      2         14           0        2.162518    0.000000    0.000000
      3          1           0       -3.228931   -1.077918    0.000081
      4          1           0        3.228931    1.077918   -0.000500
      5          1           0       -3.228937    1.077914    0.000283
      6          1           0        3.228937   -1.077914    0.000864
 ---------------------------------------------------------------------
                    Distance matrix (angstroms):
                    1          2          3          4          5
     1  Si   0.000000
     2  Si   4.325036   0.000000
     3  H    1.516293   5.498148   0.000000
     4  H    5.498148   1.516293   6.808203   0.000000
     5  H    1.516294   5.498153   2.155833   6.457868   0.000000
     6  H    5.498153   1.516294   6.457868   2.155833   6.808210
                    6
     6  H    0.000000
 Symmetry turned off by external request.
 Stoichiometry    H4Si2
 Framework group  C1[X(H4Si2)]
 Deg. of freedom    12
 Full point group                 C1      NOp   1
 Rotational constants (GHZ):         107.8951622           1.6640856           1.6388100
 Leave Link  202 at Mon Apr 21 20:33:48 2025, MaxMem=   536870912 cpu:               0.9 elap:               0.3
 (Enter /home/szhao/Apps/g16/l301.exe)
 Standard basis: 6-311+G(d,p) (5D, 7F)
 Ernie: Thresh=  0.10000D-02 Tol=  0.10000D-05 Strict=F.
    84 basis functions,   132 primitive gaussians,    86 cartesian basis functions
    16 alpha electrons       16 beta electrons
       nuclear repulsion energy        49.7247299490 Hartrees.
 IExCor= 4336 DFT=T Ex+Corr=M062X ExCW=0 ScaHFX=  0.540000
 ScaDFX=  1.000000  1.000000  1.000000  1.000000 ScalE2=  1.000000  1.000000
 IRadAn=      7 IRanWt=     -1 IRanGd=            0 ICorTp=0 IEmpDi=  4
 NAtoms=    6 NActive=    6 NUniq=    6 SFac= 1.00D+00 NAtFMM=   60 NAOKFM=F Big=F
 Integral buffers will be    131072 words long.
 Raffenetti 2 integral format.
 Two-electron integral symmetry is turned off.
 Leave Link  301 at Mon Apr 21 20:33:48 2025, MaxMem=   536870912 cpu:               0.8 elap:               0.2
 (Enter /home/szhao/Apps/g16/l302.exe)
 NPDir=0 NMtPBC=     1 NCelOv=     1 NCel=       1 NClECP=     1 NCelD=      1
         NCelK=      1 NCelE2=     1 NClLst=     1 CellRange=     0.0.
 One-electron integrals computed using PRISM.
 NBasis=    84 RedAO= T EigKep=  1.13D-02  NBF=    84
 NBsUse=    84 1.00D-06 EigRej= -1.00D+00 NBFU=    84
 Precomputing XC quadrature grid using
 IXCGrd= 4 IRadAn=           7 IRanWt=          -1 IRanGd=           0 AccXCQ= 0.00D+00.
 Generated NRdTot=       0 NPtTot=           0 NUsed=           0 NTot=          32
 NSgBfM=    76    76    76    76    76 MxSgAt=     6 MxSgA2=     6.
 Leave Link  302 at Mon Apr 21 20:33:49 2025, MaxMem=   536870912 cpu:               1.9 elap:               0.3
 (Enter /home/szhao/Apps/g16/l303.exe)
 DipDrv:  MaxL=1.
 Leave Link  303 at Mon Apr 21 20:33:49 2025, MaxMem=   536870912 cpu:               0.8 elap:               0.3
 (Enter /home/szhao/Apps/g16/l401.exe)
 Initial guess from the checkpoint file:  "opt.chk"
 B after Tr=    -0.000000    0.000000    0.000020
         Rot=    1.000000   -0.000015   -0.000000   -0.000000 Ang=  -0.00 deg.
 Guess basis will be translated and rotated to current coordinates.
 JPrj=2 DoOrth=T DoCkMO=T.
 Initial guess <Sx>= 0.0000 <Sy>= 0.0000 <Sz>= 0.0000 <S**2>=-0.0000 S=-0.0000
 Generating alternative initial guess.
 ExpMin= 3.31D-02 ExpMax= 6.94D+04 ExpMxC= 2.33D+03 IAcc=3 IRadAn=         5 AccDes= 0.00D+00
 Harris functional with IExCor= 1009 and IRadAn=       5 diagonalized for initial guess.
 HarFok:  IExCor= 1009 AccDes= 0.00D+00 IRadAn=         5 IDoV= 1 UseB2=F ITyADJ=14
 ICtDFT=  3500011 ScaDFX=  1.000000  1.000000  1.000000  1.000000
 FoFCou: FMM=F IPFlag=           0 FMFlag=      100000 FMFlg1=           0
         NFxFlg=           0 DoJE=T BraDBF=F KetDBF=T FulRan=T
         wScrn=  0.000000 ICntrl=       500 IOpCl=  0 I1Cent=   200000004 NGrid=           0
         NMat0=    1 NMatS0=      1 NMatT0=    0 NMatD0=    1 NMtDS0=    0 NMtDT0=    0
 Symmetry not used in FoFCou.
 Harris En= -580.865969013887    
 Leave Link  401 at Mon Apr 21 20:33:50 2025, MaxMem=   536870912 cpu:               4.4 elap:               0.7
 (Enter /home/szhao/Apps/g16/l502.exe)
 Keep R1 and R2 ints in memory in canonical form, NReq=20057634.
 FoFCou: FMM=F IPFlag=           0 FMFlag=           0 FMFlg1=           0
         NFxFlg=           0 DoJE=F BraDBF=F KetDBF=F FulRan=T
         wScrn=  0.000000 ICntrl=       600 IOpCl=  0 I1Cent=           0 NGrid=           0
         NMat0=    1 NMatS0=   3570 NMatT0=    0 NMatD0=    1 NMtDS0=    0 NMtDT0=    0
 Symmetry not used in FoFCou.
 Two-electron integral symmetry not used.
 UHF open shell SCF:
 Using DIIS extrapolation, IDIIS=  1040.
 NGot=   536870912 LenX=   524106186 LenY=   524098349
 Requested convergence on RMS density matrix=1.00D-08 within 128 cycles.
 Requested convergence on MAX density matrix=1.00D-06.
 Requested convergence on             energy=1.00D-06.
 No special actions if energy rises.

 Cycle   1  Pass 1  IDiag  1:
 E= -581.169745853458    
 DIIS: error= 5.78D-03 at cycle   1 NSaved=   1.
 NSaved= 1 IEnMin= 1 EnMin= -581.169745853458     IErMin= 1 ErrMin= 5.78D-03
 ErrMax= 5.78D-03  0.00D+00 EMaxC= 1.00D-01 BMatC= 8.41D-03 BMatP= 8.41D-03
 IDIUse=3 WtCom= 9.42D-01 WtEn= 5.78D-02
 Coeff-Com:  0.100D+01
 Coeff-En:   0.100D+01
 Coeff:      0.100D+01
 Gap=     0.488 Goal=   None    Shift=    0.000
 Gap=     0.488 Goal=   None    Shift=    0.000
 GapD=    0.488 DampG=2.000 DampE=1.000 DampFc=2.0000 IDamp=-1.
 RMSDP=7.39D-04 MaxDP=7.82D-03              OVMax= 2.23D-02

 Cycle   2  Pass 1  IDiag  1:
 E= -581.173304056120     Delta-E=       -0.003558202662 Rises=F Damp=F
 DIIS: error= 7.36D-04 at cycle   2 NSaved=   2.
 NSaved= 2 IEnMin= 2 EnMin= -581.173304056120     IErMin= 2 ErrMin= 7.36D-04
 ErrMax= 7.36D-04  0.00D+00 EMaxC= 1.00D-01 BMatC= 1.99D-04 BMatP= 8.41D-03
 IDIUse=3 WtCom= 9.93D-01 WtEn= 7.36D-03
 Coeff-Com: -0.590D-01 0.106D+01
 Coeff-En:   0.000D+00 0.100D+01
 Coeff:     -0.586D-01 0.106D+01
 Gap=     0.184 Goal=   None    Shift=    0.000
 Gap=     0.184 Goal=   None    Shift=    0.000
 RMSDP=2.17D-04 MaxDP=5.00D-03 DE=-3.56D-03 OVMax= 5.33D-03

 Cycle   3  Pass 1  IDiag  1:
 E= -581.173427488996     Delta-E=       -0.000123432876 Rises=F Damp=F
 DIIS: error= 2.51D-04 at cycle   3 NSaved=   3.
 NSaved= 3 IEnMin= 3 EnMin= -581.173427488996     IErMin= 3 ErrMin= 2.51D-04
 ErrMax= 2.51D-04  0.00D+00 EMaxC= 1.00D-01 BMatC= 2.44D-05 BMatP= 1.99D-04
 IDIUse=3 WtCom= 9.97D-01 WtEn= 2.51D-03
 Coeff-Com: -0.290D-01 0.218D+00 0.811D+00
 Coeff-En:   0.000D+00 0.000D+00 0.100D+01
 Coeff:     -0.289D-01 0.218D+00 0.811D+00
 Gap=     0.184 Goal=   None    Shift=    0.000
 Gap=     0.184 Goal=   None    Shift=    0.000
 RMSDP=5.07D-05 MaxDP=9.05D-04 DE=-1.23D-04 OVMax= 1.34D-03

 Cycle   4  Pass 1  IDiag  1:
 E= -581.173435441296     Delta-E=       -0.000007952301 Rises=F Damp=F
 DIIS: error= 6.34D-05 at cycle   4 NSaved=   4.
 NSaved= 4 IEnMin= 4 EnMin= -581.173435441296     IErMin= 4 ErrMin= 6.34D-05
 ErrMax= 6.34D-05  0.00D+00 EMaxC= 1.00D-01 BMatC= 1.30D-06 BMatP= 2.44D-05
 IDIUse=1 WtCom= 1.00D+00 WtEn= 0.00D+00
 Coeff-Com:  0.154D-02-0.579D-01 0.942D-01 0.962D+00
 Coeff:      0.154D-02-0.579D-01 0.942D-01 0.962D+00
 Gap=     0.184 Goal=   None    Shift=    0.000
 Gap=     0.184 Goal=   None    Shift=    0.000
 RMSDP=1.47D-05 MaxDP=3.44D-04 DE=-7.95D-06 OVMax= 3.66D-04

 Cycle   5  Pass 1  IDiag  1:
 E= -581.173435866145     Delta-E=       -0.000000424848 Rises=F Damp=F
 DIIS: error= 1.03D-05 at cycle   5 NSaved=   5.
 NSaved= 5 IEnMin= 5 EnMin= -581.173435866145     IErMin= 5 ErrMin= 1.03D-05
 ErrMax= 1.03D-05  0.00D+00 EMaxC= 1.00D-01 BMatC= 2.00D-08 BMatP= 1.30D-06
 IDIUse=1 WtCom= 1.00D+00 WtEn= 0.00D+00
 Coeff-Com:  0.945D-03-0.143D-01 0.828D-02 0.103D+00 0.902D+00
 Coeff:      0.945D-03-0.143D-01 0.828D-02 0.103D+00 0.902D+00
 Gap=     0.184 Goal=   None    Shift=    0.000
 Gap=     0.184 Goal=   None    Shift=    0.000
 RMSDP=2.70D-06 MaxDP=7.65D-05 DE=-4.25D-07 OVMax= 5.15D-05

 Cycle   6  Pass 1  IDiag  1:
 E= -581.173435875742     Delta-E=       -0.000000009598 Rises=F Damp=F
 DIIS: error= 7.73D-07 at cycle   6 NSaved=   6.
 NSaved= 6 IEnMin= 6 EnMin= -581.173435875742     IErMin= 6 ErrMin= 7.73D-07
 ErrMax= 7.73D-07  0.00D+00 EMaxC= 1.00D-01 BMatC= 1.63D-10 BMatP= 2.00D-08
 IDIUse=1 WtCom= 1.00D+00 WtEn= 0.00D+00
 Coeff-Com: -0.199D-04 0.997D-03-0.199D-02-0.157D-01 0.234D-01 0.993D+00
 Coeff:     -0.199D-04 0.997D-03-0.199D-02-0.157D-01 0.234D-01 0.993D+00
 Gap=     0.184 Goal=   None    Shift=    0.000
 Gap=     0.184 Goal=   None    Shift=    0.000
 RMSDP=3.41D-07 MaxDP=7.50D-06 DE=-9.60D-09 OVMax= 7.20D-06

 Cycle   7  Pass 1  IDiag  1:
 E= -581.173435875857     Delta-E=       -0.000000000115 Rises=F Damp=F
 DIIS: error= 9.22D-08 at cycle   7 NSaved=   7.
 NSaved= 7 IEnMin= 7 EnMin= -581.173435875857     IErMin= 7 ErrMin= 9.22D-08
 ErrMax= 9.22D-08  0.00D+00 EMaxC= 1.00D-01 BMatC= 2.21D-12 BMatP= 1.63D-10
 IDIUse=1 WtCom= 1.00D+00 WtEn= 0.00D+00
 Coeff-Com: -0.617D-05 0.592D-04-0.177D-04 0.524D-04-0.109D-01-0.970D-01
 Coeff-Com:  0.111D+01
 Coeff:     -0.617D-05 0.592D-04-0.177D-04 0.524D-04-0.109D-01-0.970D-01
 Coeff:      0.111D+01
 Gap=     0.184 Goal=   None    Shift=    0.000
 Gap=     0.184 Goal=   None    Shift=    0.000
 RMSDP=7.62D-08 MaxDP=2.11D-06 DE=-1.15D-10 OVMax= 1.37D-06

 Cycle   8  Pass 1  IDiag  1:
 E= -581.173435875859     Delta-E=       -0.000000000002 Rises=F Damp=F
 DIIS: error= 1.13D-08 at cycle   8 NSaved=   8.
 NSaved= 8 IEnMin= 8 EnMin= -581.173435875859     IErMin= 8 ErrMin= 1.13D-08
 ErrMax= 1.13D-08  0.00D+00 EMaxC= 1.00D-01 BMatC= 6.21D-14 BMatP= 2.21D-12
 IDIUse=1 WtCom= 1.00D+00 WtEn= 0.00D+00
 Coeff-Com:  0.422D-06-0.199D-04 0.402D-04 0.262D-03 0.335D-03-0.170D-01
 Coeff-Com:  0.112D-01 0.101D+01
 Coeff:      0.422D-06-0.199D-04 0.402D-04 0.262D-03 0.335D-03-0.170D-01
 Coeff:      0.112D-01 0.101D+01
 Gap=     0.184 Goal=   None    Shift=    0.000
 Gap=     0.184 Goal=   None    Shift=    0.000
 RMSDP=7.72D-09 MaxDP=2.32D-07 DE=-2.39D-12 OVMax= 1.81D-07

 SCF Done:  E(UM062X) =  -581.173435876     A.U. after    8 cycles
            NFock=  8  Conv=0.77D-08     -V/T= 2.0014
 <Sx>= 0.0000 <Sy>= 0.0000 <Sz>= 0.0000 <S**2>=-0.0000 S=-0.0000
 <L.S>=  0.00000000000    
 KE= 5.803369418429D+02 PE=-1.483947170211D+03 EE= 2.727120625429D+02
 Annihilation of the first spin contaminant:
 S**2 before annihilation    -0.0000,   after     0.0000
 Leave Link  502 at Mon Apr 21 20:33:58 2025, MaxMem=   536870912 cpu:              53.3 elap:               7.2
 (Enter /home/szhao/Apps/g16/l701.exe)
 ... and contract with generalized density number  0.
 Compute integral first derivatives.
 Leave Link  701 at Mon Apr 21 20:33:59 2025, MaxMem=   536870912 cpu:               1.7 elap:               0.3
 (Enter /home/szhao/Apps/g16/l702.exe)
 L702 exits ... SP integral derivatives will be done elsewhere.
 Leave Link  702 at Mon Apr 21 20:33:59 2025, MaxMem=   536870912 cpu:               0.4 elap:               0.1
 (Enter /home/szhao/Apps/g16/l703.exe)
 Integral derivatives from FoFJK, PRISM(SPDF).
 Compute integral first derivatives, UseDBF=F ICtDFT=           0.
 Calling FoFJK, ICntrl=      2127 FMM=F ISym2X=0 I1Cent= 0 IOpClX= 1 NMat=1 NMatS=1 NMatT=0.
 FoFJK:  IHMeth= 1 ICntrl=    2127 DoSepK=F KAlg= 0 I1Cent=           0 FoldK=F
 IRaf=         0 NMat=       1 IRICut=       1 DoRegI=T DoRafI=F ISym2E= 0 IDoP0=0 IntGTp=1.
 FoFCou: FMM=F IPFlag=           0 FMFlag=      100000 FMFlg1=         800
         NFxFlg=           0 DoJE=F BraDBF=F KetDBF=F FulRan=T
         wScrn=  0.000000 ICntrl=      2127 IOpCl=  1 I1Cent=           0 NGrid=           0
         NMat0=    1 NMatS0=      1 NMatT0=    0 NMatD0=    1 NMtDS0=    0 NMtDT0=    0
 Symmetry not used in FoFCou.
 Leave Link  703 at Mon Apr 21 20:34:00 2025, MaxMem=   536870912 cpu:               9.0 elap:               1.2
 (Enter /home/szhao/Apps/g16/l716.exe)
 Dipole        = 2.05670263D-08 1.02754774D-08 2.10144589D-05
 -------------------------------------------------------------------
 Center     Atomic                   Forces (Hartrees/Bohr)
 Number     Number              X              Y              Z
 -------------------------------------------------------------------
      1       14          -0.000000000   -0.000000000   -0.000000000
      2       14          -0.000000000   -0.000000000   -0.000000000
      3        1          -0.000534789   -0.001040770    0.000000039
      4        1           0.000534795    0.001040780   -0.000000546
      5        1          -0.000534572    0.001040531    0.000000326
      6        1           0.000534576   -0.001040540    0.000000911
 -------------------------------------------------------------------
 Cartesian Forces:  Max     0.001040780 RMS     0.000551533
 Leave Link  716 at Mon Apr 21 20:34:00 2025, MaxMem=   536870912 cpu:               0.5 elap:               0.1
 (Enter /home/szhao/Apps/g16/l103.exe)

 GradGradGradGradGradGradGradGradGradGradGradGradGradGradGradGradGradGrad
 Berny optimization.
 Using GEDIIS/GDIIS optimizer.
 FormGI is forming the generalized inverse of G from B-inverse, IUseBI=4.
 Internal  Forces:  Max     0.001116003 RMS     0.000656593
 Search for a local minimum.
 Step number   3 out of a maximum of   30
 All quantities printed in internal units (Hartrees-Bohrs-Radians)
 RMS Force = .67269D-03 SwitMx=.10000D-02 MixMth= 2
 Mixed Optimization -- En-DIIS/RFO-DIIS
 Update second derivatives using D2CorX and points    2    3
 DE= -1.23D-02 DEPred=-1.31D-02 R= 9.40D-01
 TightC=F SS=  1.41D+00  RLast= 4.87D-01 DXNew= 8.4853D-01 1.4624D+00
 Trust test= 9.40D-01 RLast= 4.87D-01 DXMaxT set to 8.49D-01
 The second derivative matrix:
                          X1        Y1        Z1        X2        Y2
           X1           0.54107
           Y1           0.00000   0.50000
           Z1          -0.00000  -0.00000   0.50000
           X2          -0.04107  -0.00000   0.00000   0.54107
           Y2          -0.00000  -0.00000   0.00000   0.00000   0.50000
           Z2          -0.00000  -0.00000   0.00000   0.00000   0.00000
           R1          -0.02083  -0.00000   0.00000   0.02083   0.00000
           R2          -0.02082  -0.00000   0.00000   0.02082   0.00000
           R3          -0.02083  -0.00000   0.00000   0.02083   0.00000
           R4          -0.02082  -0.00000   0.00000   0.02082   0.00000
           A1          -0.01638  -0.00000   0.00000   0.01638   0.00000
           A2          -0.01638  -0.00000   0.00000   0.01638   0.00000
           A3           0.03275   0.00000  -0.00000  -0.03275  -0.00000
           A4          -0.01638  -0.00000   0.00000   0.01638   0.00000
           A5          -0.01638  -0.00000   0.00000   0.01638   0.00000
           A6           0.03275   0.00000  -0.00000  -0.03275  -0.00000
           D1          -0.00000  -0.00000   0.00000   0.00000   0.00000
           D2          -0.00000   0.00000   0.00000   0.00000  -0.00000
           D3          -0.00000   0.00000   0.00000   0.00000  -0.00000
           D4           0.00000   0.00000  -0.00000  -0.00000  -0.00000
                          Z2        R1        R2        R3        R4
           Z2           0.50000
           R1           0.00000   0.18395
           R2           0.00000   0.00279   0.18394
           R3           0.00000   0.00280   0.00279   0.18395
           R4           0.00000   0.00279   0.00279   0.00279   0.18394
           A1           0.00000  -0.00094  -0.00094  -0.00094  -0.00094
           A2           0.00000  -0.00094  -0.00094  -0.00094  -0.00094
           A3          -0.00000   0.00189   0.00189   0.00189   0.00189
           A4           0.00000  -0.00094  -0.00094  -0.00094  -0.00094
           A5           0.00000  -0.00094  -0.00094  -0.00094  -0.00094
           A6          -0.00000   0.00189   0.00189   0.00189   0.00189
           D1           0.00000   0.00000   0.00000   0.00000   0.00000
           D2           0.00000  -0.00000  -0.00000  -0.00000  -0.00000
           D3           0.00000  -0.00000  -0.00000  -0.00000  -0.00000
           D4          -0.00000  -0.00000  -0.00000  -0.00000  -0.00000
                          A1        A2        A3        A4        A5
           A1           0.15548
           A2          -0.00452   0.15548
           A3           0.00905   0.00905   0.14191
           A4          -0.00452  -0.00452   0.00905   0.15548
           A5          -0.00452  -0.00452   0.00905  -0.00452   0.15548
           A6           0.00905   0.00905  -0.01809   0.00905   0.00905
           D1           0.00000   0.00000  -0.00000   0.00000   0.00000
           D2           0.00000   0.00000  -0.00000   0.00000   0.00000
           D3           0.00000   0.00000  -0.00000   0.00000   0.00000
           D4          -0.00000  -0.00000   0.00000  -0.00000  -0.00000
                          A6        D1        D2        D3        D4
           A6           0.14191
           D1          -0.00000   0.00230
           D2          -0.00000   0.00000   0.00230
           D3          -0.00000   0.00000   0.00000   0.00230
           D4           0.00000  -0.00000  -0.00000  -0.00000   0.00230
 ITU=  1  1  0
 Use linear search instead of GDIIS.
     Eigenvalues ---    0.00230   0.00230   0.00230   0.10523   0.16000
     Eigenvalues ---    0.16000   0.16000   0.18115   0.18115   0.18116
     Eigenvalues ---    0.192821000.000001000.000001000.000001000.00000
     Eigenvalues --- 1000.000001000.000001000.000001000.000001000.00000
 RFO step:  Lambda=-3.01323612D-05 EMin= 2.30000000D-03
 Quartic linear search produced a step of -0.01583.
 Iteration  1 RMS(Cart)=  0.00445517 RMS(Int)=  0.00000675
 Iteration  2 RMS(Cart)=  0.00000952 RMS(Int)=  0.00000000
 Iteration  3 RMS(Cart)=  0.00000000 RMS(Int)=  0.00000000
 ITry= 1 IFail=0 DXMaxC= 9.79D-03 DCOld= 1.00D+10 DXMaxT= 8.49D-01 DXLimC= 3.00D+00 Rises=F
 Variable       Old X    -DE/DX   Delta X   Delta X   Delta X     New X
                                 (Linear)    (Quad)   (Total)
    X1       -4.08657  -0.00107   0.00000   0.00000   0.00000  -4.08657
    Y1        0.00000  -0.00000   0.00000   0.00000   0.00000   0.00000
    Z1        0.00000   0.00000   0.00000   0.00000   0.00000   0.00000
    X2        4.08657   0.00107   0.00000   0.00000   0.00000   4.08657
    Y2        0.00000   0.00000   0.00000   0.00000   0.00000   0.00000
    Z2        0.00000   0.00000   0.00000   0.00000   0.00000   0.00000
    R1        2.86538   0.00112  -0.00052   0.00616   0.00565   2.87103
    R2        2.86538   0.00112  -0.00052   0.00616   0.00565   2.87103
[...]
           R2           0.00001  -0.00395   0.17720
           R3           0.00001  -0.00396  -0.00395   0.17720
           R4           0.00001  -0.00395  -0.00395  -0.00395   0.17720
           A1           0.00000  -0.00082  -0.00082  -0.00082  -0.00082
           A2           0.00000  -0.00082  -0.00082  -0.00082  -0.00082
           A3          -0.00000   0.00164   0.00164   0.00164   0.00164
           A4           0.00000  -0.00082  -0.00082  -0.00082  -0.00082
           A5           0.00000  -0.00082  -0.00082  -0.00082  -0.00082
           A6          -0.00000   0.00164   0.00164   0.00164   0.00164
           D1          -0.00000  -0.00000  -0.00000  -0.00000  -0.00000
           D2          -0.00000   0.00000   0.00000   0.00000   0.00000
           D3          -0.00000   0.00000   0.00000   0.00000   0.00000
           D4           0.00000   0.00001   0.00001   0.00001   0.00001
                          A1        A2        A3        A4        A5
           A1           0.15603
           A2          -0.00397   0.15603
           A3           0.00795   0.00795   0.14411
           A4          -0.00397  -0.00397   0.00795   0.15603
           A5          -0.00397  -0.00397   0.00795  -0.00397   0.15603
           A6           0.00795   0.00795  -0.01589   0.00795   0.00795
           D1           0.00000   0.00000  -0.00000   0.00000   0.00000
           D2          -0.00000  -0.00000   0.00000  -0.00000  -0.00000
           D3          -0.00000  -0.00000   0.00000  -0.00000  -0.00000
           D4          -0.00000  -0.00000   0.00001  -0.00000  -0.00000
                          A6        D1        D2        D3        D4
           A6           0.14411
           D1          -0.00000   0.00230
           D2           0.00000   0.00000   0.00230
           D3           0.00000   0.00000  -0.00000   0.00230
           D4           0.00001   0.00000  -0.00000  -0.00000   0.00230
 ITU=  1  1  1  0
     Eigenvalues ---    0.00230   0.00230   0.00230   0.11172   0.16000
     Eigenvalues ---    0.16000   0.16000   0.16594   0.18115   0.18115
     Eigenvalues ---    0.181161000.000001000.000001000.000001000.00000
     Eigenvalues --- 1000.000001000.000001000.000001000.000001000.00000
 En-DIIS/RFO-DIIS/Sim-DIIS IScMMF=       -3 using points:     4    3
 RFO step:  Lambda=-5.80840850D-07.
 NNeg= 0 NGDIIS= 2 SimSw=  2.50D-01 Rises=F DC= -2.00D-05 SmlDif=  1.00D-05
 NRisDI= 0 DoIntr=F SqrtH=F CThrHd= 10.0 CDAdj=  3.0
 RMS Error=  0.4234563438D-03 NUsed= 2 OKEnD=T EnDIS=F
 InvSVX:  RCond= 5.65D-05 Info=           0 Equed=N FErr=  1.07D-15 BErr=  1.97D-17
 DidBck=F Rises=F RFO-DIIS coefs:    1.08352   -0.08352
 Iteration  1 RMS(Cart)=  0.00043038 RMS(Int)=  0.00000002
 Iteration  2 RMS(Cart)=  0.00000003 RMS(Int)=  0.00000000
 ITry= 1 IFail=0 DXMaxC= 7.92D-04 DCOld= 1.00D+10 DXMaxT= 8.49D-01 DXLimC= 3.00D+00 Rises=F
 Variable       Old X    -DE/DX   Delta X   Delta X   Delta X     New X
                                 (Linear)    (Quad)   (Total)
    X1       -4.08657  -0.00022   0.00000   0.00000   0.00000  -4.08657
    Y1        0.00000  -0.00000   0.00000   0.00000   0.00000   0.00000
    Z1        0.00000   0.00000   0.00000   0.00000   0.00000   0.00000
    X2        4.08657   0.00022   0.00000   0.00000   0.00000   4.08657
    Y2        0.00000   0.00000   0.00000   0.00000   0.00000   0.00000
    Z2        0.00000   0.00000   0.00000   0.00000   0.00000   0.00000
    R1        2.87103   0.00015   0.00047   0.00046   0.00094   2.87196
    R2        2.87103   0.00015   0.00047   0.00046   0.00094   2.87196
    R3        2.87103   0.00015   0.00047   0.00046   0.00094   2.87196
    R4        2.87103   0.00015   0.00047   0.00046   0.00094   2.87196
    A1        2.34796   0.00000  -0.00024   0.00031   0.00007   2.34803
    A2        2.34797   0.00000  -0.00024   0.00031   0.00007   2.34803
    A3        1.58725  -0.00001   0.00048  -0.00061  -0.00013   1.58712
    A4        2.34796   0.00000  -0.00024   0.00031   0.00007   2.34803
    A5        2.34797   0.00000  -0.00024   0.00031   0.00007   2.34803
    A6        1.58725  -0.00001   0.00048  -0.00061  -0.00013   1.58712
    D1        3.14125   0.00000   0.00000   0.00007   0.00008   3.14132
    D2       -0.00075  -0.00000  -0.00000  -0.00003  -0.00003  -0.00078
    D3       -0.00075  -0.00000  -0.00000  -0.00003  -0.00003  -0.00078
    D4        3.14044  -0.00000  -0.00001  -0.00013  -0.00014   3.14030
         Item               Value     Threshold  Converged?
 Maximum Force            0.000154     0.000450     YES
 RMS     Force            0.000082     0.000300     YES
 Maximum Displacement     0.000792     0.001800     YES
 RMS     Displacement     0.000430     0.001200     YES
 Predicted change in Energy=-2.903716D-07
 Optimization completed.
    -- Stationary point found.
                           ----------------------------
                           !   Optimized Parameters   !
                           ! (Angstroms and Degrees)  !
 --------------------------                            --------------------------
 ! Name  Definition              Value          Derivative Info.                !
 --------------------------------------------------------------------------------
 ! X1    R(1,-1)                -2.1625         -DE/DX =   -0.0002              !
 ! Y1    R(1,-2)                 0.0            -DE/DX =    0.0                 !
 ! Z1    R(1,-3)                 0.0            -DE/DX =    0.0                 !
 ! X2    R(2,-1)                 2.1625         -DE/DX =    0.0002              !
 ! Y2    R(2,-2)                 0.0            -DE/DX =    0.0                 !
 ! Z2    R(2,-3)                 0.0            -DE/DX =    0.0                 !
 ! R1    R(1,3)                  1.5193         -DE/DX =    0.0002              !
 ! R2    R(1,5)                  1.5193         -DE/DX =    0.0002              !
 ! R3    R(2,4)                  1.5193         -DE/DX =    0.0002              !
 ! R4    R(2,6)                  1.5193         -DE/DX =    0.0002              !
 ! A1    A(2,1,3)              134.5284         -DE/DX =    0.0                 !
 ! A2    A(2,1,5)              134.5287         -DE/DX =    0.0                 !
 ! A3    A(3,1,5)               90.9429         -DE/DX =    0.0                 !
 ! A4    A(1,2,4)              134.5284         -DE/DX =    0.0                 !
 ! A5    A(1,2,6)              134.5287         -DE/DX =    0.0                 !
 ! A6    A(4,2,6)               90.9429         -DE/DX =    0.0                 !
 ! D1    D(3,1,2,4)            179.9802         -DE/DX =    0.0                 !
 ! D2    D(3,1,2,6)             -0.043          -DE/DX =    0.0                 !
 ! D3    D(5,1,2,4)             -0.043          -DE/DX =    0.0                 !
 ! D4    D(5,1,2,6)            179.9338         -DE/DX =    0.0                 !
 --------------------------------------------------------------------------------
 Lowest energy point so far.  Saving SCF results.
 Largest change from initial coordinates is atom    5       0.329 Angstoms.
 GradGradGradGradGradGradGradGradGradGradGradGradGradGradGradGradGradGrad

 Leave Link  103 at Mon Apr 21 20:34:11 2025, MaxMem=   536870912 cpu:               0.6 elap:               0.1
 (Enter /home/szhao/Apps/g16/l202.exe)
                          Input orientation:                          
 ---------------------------------------------------------------------
 Center     Atomic      Atomic             Coordinates (Angstroms)
 Number     Number       Type             X           Y           Z
 ---------------------------------------------------------------------
      1         14           0       -2.162518    0.000000    0.000000
      2         14           0        2.162518    0.000000    0.000000
      3          1           0       -3.227933   -1.083100    0.000105
      4          1           0        3.227933    1.083100   -0.000480
      5          1           0       -3.227938    1.083096    0.000333
      6          1           0        3.227938   -1.083095    0.000918
 ---------------------------------------------------------------------
                    Distance matrix (angstroms):
                    1          2          3          4          5
     1  Si   0.000000
     2  Si   4.325036   0.000000
     3  H    1.519281   5.498188   0.000000
     4  H    5.498188   1.519281   6.809599   0.000000
     5  H    1.519282   5.498192   2.166196   6.455872   0.000000
     6  H    5.498192   1.519282   6.455872   2.166196   6.809606
                    6
     6  H    0.000000
 Symmetry turned off by external request.
 Stoichiometry    H4Si2
 Framework group  C1[X(H4Si2)]
 Deg. of freedom    12
 Full point group                 C1      NOp   1
 Rotational constants (GHZ):         106.8652963           1.6642280           1.6387082
 Leave Link  202 at Mon Apr 21 20:34:12 2025, MaxMem=   536870912 cpu:               0.5 elap:               0.1
 (Enter /home/szhao/Apps/g16/l601.exe)
 Copying SCF densities to generalized density rwf, IOpCl= 1 IROHF=0.

 **********************************************************************

            Population analysis using the SCF density.

 **********************************************************************

 Alpha  occ. eigenvalues --  -67.01169 -67.01169  -5.55896  -5.55895  -3.87139
 Alpha  occ. eigenvalues --   -3.87138  -3.86598  -3.86598  -3.86460  -3.86460
 Alpha  occ. eigenvalues --   -0.57196  -0.57058  -0.37725  -0.37672  -0.29529
 Alpha  occ. eigenvalues --   -0.26657
 Alpha virt. eigenvalues --   -0.08293  -0.07361   0.02093   0.02308   0.03105
 Alpha virt. eigenvalues --    0.04574   0.05790   0.06116   0.06394   0.06853
 Alpha virt. eigenvalues --    0.08699   0.09255   0.11498   0.14136   0.29012
 Alpha virt. eigenvalues --    0.29836   0.30195   0.30488   0.31629   0.33258
 Alpha virt. eigenvalues --    0.37276   0.39863   0.42700   0.44771   0.50181
 Alpha virt. eigenvalues --    0.50868   0.60408   0.60408   0.61191   0.61413
 Alpha virt. eigenvalues --    0.61465   0.62959   0.77743   0.78267   0.88494
 Alpha virt. eigenvalues --    0.89215   1.20663   1.20932   1.22114   1.23241
 Alpha virt. eigenvalues --    1.23360   1.25831   1.44121   1.44121   1.44955
 Alpha virt. eigenvalues --    1.45413   1.52811   1.52903   1.59117   1.59157
 Alpha virt. eigenvalues --    1.93653   1.93859   2.00746   2.02179   2.56349
 Alpha virt. eigenvalues --    2.60280   2.65207   2.65512   5.56398   5.58047
 Alpha virt. eigenvalues --   11.45253  11.46414  11.52600  11.52958  11.53899
 Alpha virt. eigenvalues --   11.55570 141.12767 141.14800
  Beta  occ. eigenvalues --  -67.01169 -67.01169  -5.55896  -5.55895  -3.87139
  Beta  occ. eigenvalues --   -3.87138  -3.86598  -3.86598  -3.86460  -3.86460
  Beta  occ. eigenvalues --   -0.57196  -0.57058  -0.37725  -0.37672  -0.29529
  Beta  occ. eigenvalues --   -0.26657
  Beta virt. eigenvalues --   -0.08293  -0.07361   0.02093   0.02308   0.03105
  Beta virt. eigenvalues --    0.04574   0.05790   0.06116   0.06394   0.06853
  Beta virt. eigenvalues --    0.08699   0.09255   0.11498   0.14136   0.29012
  Beta virt. eigenvalues --    0.29836   0.30195   0.30488   0.31629   0.33258
  Beta virt. eigenvalues --    0.37276   0.39863   0.42700   0.44771   0.50181
  Beta virt. eigenvalues --    0.50868   0.60408   0.60408   0.61191   0.61413
  Beta virt. eigenvalues --    0.61465   0.62959   0.77743   0.78267   0.88494
  Beta virt. eigenvalues --    0.89215   1.20663   1.20932   1.22114   1.23241
  Beta virt. eigenvalues --    1.23360   1.25831   1.44121   1.44121   1.44955
  Beta virt. eigenvalues --    1.45413   1.52811   1.52903   1.59117   1.59157
  Beta virt. eigenvalues --    1.93653   1.93859   2.00746   2.02179   2.56349
  Beta virt. eigenvalues --    2.60280   2.65207   2.65512   5.56398   5.58047
  Beta virt. eigenvalues --   11.45253  11.46414  11.52600  11.52958  11.53899
  Beta virt. eigenvalues --   11.55570 141.12767 141.14800
          Condensed to atoms (all electrons):
               1          2          3          4          5          6
     1  Si  13.291242  -0.095312   0.238298   0.003279   0.238298   0.003279
     2  Si  -0.095312  13.291242   0.003279   0.238298   0.003279   0.238298
     3  H    0.238298   0.003279   0.940998  -0.000001  -0.022114  -0.000001
     4  H    0.003279   0.238298  -0.000001   0.940998  -0.000001  -0.022114
     5  H    0.238298   0.003279  -0.022114  -0.000001   0.940998  -0.000001
     6  H    0.003279   0.238298  -0.000001  -0.022114  -0.000001   0.940998
          Atomic-Atomic Spin Densities.
               1          2          3          4          5          6
     1  Si   0.000000  -0.000000   0.000000   0.000000   0.000000   0.000000
     2  Si  -0.000000   0.000000  -0.000000  -0.000000   0.000000  -0.000000
     3  H    0.000000  -0.000000  -0.000000   0.000000  -0.000000   0.000000
     4  H    0.000000  -0.000000   0.000000   0.000000   0.000000   0.000000
     5  H    0.000000   0.000000  -0.000000   0.000000  -0.000000  -0.000000
     6  H    0.000000  -0.000000   0.000000   0.000000  -0.000000   0.000000
 Mulliken charges and spin densities:
               1          2
     1  Si   0.320916   0.000000
     2  Si   0.320916  -0.000000
     3  H   -0.160458  -0.000000
     4  H   -0.160458   0.000000
     5  H   -0.160458  -0.000000
     6  H   -0.160458   0.000000
 Sum of Mulliken charges =  -0.00000  -0.00000
 Mulliken charges and spin densities with hydrogens summed into heavy atoms:
               1          2
     1  Si   0.000000  -0.000000
     2  Si  -0.000000   0.000000
 Electronic spatial extent (au):  <R**2>=            702.5732
 Charge=             -0.0000 electrons
 Dipole moment (field-independent basis, Debye):
    X=              0.0000    Y=              0.0000    Z=              0.0001  Tot=              0.0001
 Quadrupole moment (field-independent basis, Debye-Ang):
   XX=            -36.1405   YY=            -32.7766   ZZ=            -24.4009
   XY=             -0.0000   XZ=              0.0000   YZ=              0.0023
 Traceless Quadrupole moment (field-independent basis, Debye-Ang):
   XX=             -5.0345   YY=             -1.6706   ZZ=              6.7051
   XY=             -0.0000   XZ=              0.0000   YZ=              0.0023
 Octapole moment (field-independent basis, Debye-Ang**2):
  XXX=              0.0000  YYY=             -0.0000  ZZZ=             -0.0013  XYY=              0.0000
  XXY=             -0.0000  XXZ=             -0.0124  XZZ=             -0.0000  YZZ=              0.0000
  YYZ=             -0.0014  XYZ=              0.0087
 Hexadecapole moment (field-independent basis, Debye-Ang**3):
 XXXX=          -1246.5697 YYYY=            -88.8001 ZZZZ=            -33.4720 XXXY=             -0.0001
 XXXZ=              0.0000 YYYX=             -0.0001 YYYZ=              0.0078 ZZZX=              0.0000
 ZZZY=              0.0072 XXYY=           -219.3375 XXZZ=           -147.0252 YYZZ=            -19.9974
 XXYZ=              0.0195 YYXZ=              0.0000 ZZXY=             -0.0000
 N-N= 4.968392743358D+01 E-N=-1.483850398571D+03  KE= 5.803264119596D+02
                          Isotropic Fermi Contact Couplings
        Atom                 a.u.       MegaHertz       Gauss      10(-4) cm-1
     1  Si(29)            -0.00000       0.00000       0.00000       0.00000
     2  Si(29)             0.00000      -0.00000      -0.00000      -0.00000
     3  H(1)               0.00000       0.00000       0.00000       0.00000
     4  H(1)              -0.00000      -0.00000      -0.00000      -0.00000
     5  H(1)              -0.00000      -0.00000      -0.00000      -0.00000
     6  H(1)              -0.00000      -0.00000      -0.00000      -0.00000
 --------------------------------------------------------
       Center         ----  Spin Dipole Couplings  ----
                      3XX-RR        3YY-RR        3ZZ-RR
 --------------------------------------------------------
     1   Atom        0.000000      0.000000      0.000000
     2   Atom        0.000000      0.000000      0.000000
     3   Atom        0.000000      0.000000      0.000000
     4   Atom        0.000000      0.000000      0.000000
     5   Atom        0.000000      0.000000      0.000000
     6   Atom        0.000000      0.000000      0.000000
 --------------------------------------------------------
                        XY            XZ            YZ
 --------------------------------------------------------
     1   Atom        0.000000      0.000000      0.000000
     2   Atom        0.000000      0.000000      0.000000
     3   Atom        0.000000      0.000000      0.000000
     4   Atom        0.000000      0.000000      0.000000
     5   Atom        0.000000      0.000000      0.000000
     6   Atom        0.000000      0.000000      0.000000
 --------------------------------------------------------


 ---------------------------------------------------------------------------------
              Anisotropic Spin Dipole Couplings in Principal Axis System
 ---------------------------------------------------------------------------------

       Atom             a.u.   MegaHertz   Gauss  10(-4) cm-1        Axes

              Baa     0.0000    -0.000    -0.000    -0.000  1.0000  0.0000  0.0000
     1 Si(29) Bbb     0.0000    -0.000    -0.000    -0.000 -0.0000  1.0000  0.0000
              Bcc     0.0000    -0.000    -0.000    -0.000  0.0000  0.0000  1.0000
 
              Baa     0.0000    -0.000    -0.000    -0.000  1.0000  0.0000  0.0000
     2 Si(29) Bbb     0.0000    -0.000    -0.000    -0.000 -0.0000  1.0000  0.0000
              Bcc     0.0000    -0.000    -0.000    -0.000  0.0000  0.0000  1.0000
 
              Baa     0.0000     0.000     0.000     0.000  1.0000  0.0000  0.0000
     3 H(1)   Bbb     0.0000     0.000     0.000     0.000 -0.0000  1.0000  0.0000
              Bcc     0.0000     0.000     0.000     0.000  0.0000  0.0000  1.0000
 
              Baa     0.0000     0.000     0.000     0.000  1.0000  0.0000  0.0000
     4 H(1)   Bbb     0.0000     0.000     0.000     0.000 -0.0000  1.0000  0.0000
              Bcc     0.0000     0.000     0.000     0.000  0.0000  0.0000  1.0000
 
              Baa     0.0000     0.000     0.000     0.000  1.0000  0.0000  0.0000
     5 H(1)   Bbb     0.0000     0.000     0.000     0.000 -0.0000  1.0000  0.0000
              Bcc     0.0000     0.000     0.000     0.000  0.0000  0.0000  1.0000
 
              Baa     0.0000     0.000     0.000     0.000  1.0000  0.0000  0.0000
     6 H(1)   Bbb     0.0000     0.000     0.000     0.000 -0.0000  1.0000  0.0000
              Bcc     0.0000     0.000     0.000     0.000  0.0000  0.0000  1.0000
 

 ---------------------------------------------------------------------------------

 No NMR shielding tensors so no spin-rotation constants.
 Leave Link  601 at Mon Apr 21 20:34:12 2025, MaxMem=   536870912 cpu:               2.2 elap:               0.4
 (Enter /home/szhao/Apps/g16/l9999.exe)
 1\1\GINC-NODE06\FOpt\UM062X\6-311+G(d,p)\H4Si2\SZHAO\21-Apr-2025\0\\#p
  opt UM062X/6-311+G** nosymm int=superfine\\Title Card Required\\0,1\S
 i,-2.162518,0.,0.\Si,2.162518,0.,0.\H,-3.2279334605,-1.0831000951,0.00
 01047006\H,3.22793347,1.0830999706,-0.0004798755\H,-3.2279384816,1.083
 0955191,0.0003332783\H,3.2279384666,-1.0830951874,0.0009178113\\Versio
 n=ES64L-G16RevA.03\HF=-581.1734559\S2=0.\S2-1=0.\S2A=0.\RMSD=5.712e-09
 \RMSF=7.269e-05\Dipole=0.,0.,0.000025\Quadrupole=-3.7430472,-1.2420295
 ,4.9850767,-0.0000016,0.,0.0016811\PG=C01 [X(H4Si2)]\\@


 I LOVE MANKIND - IT'S PEOPLE I CAN'T STAND.
     -- LINUS OF PEANUTS
 Job cpu time:       0 days  0 hours  5 minutes  1.6 seconds.
 Elapsed time:       0 days  0 hours  0 minutes 43.0 seconds.
 File lengths (MBytes):  RWF=     22 Int=      0 D2E=      0 Chk=      2 Scr=      2
 Normal termination of Gaussian 16 at Mon Apr 21 20:34:13 2025.
