 Entering Gaussian System, Link 0=g16
 Initial command:
 /home/szhao/Apps/g16/l1.exe "/home/szhao/tmp/Gau-127595.inp" -scrdir="/home/szhao/tmp/"
 Default is to use a total of  16 processors:
                               16 via shared-memory
                                1 via Linda
 Entering Link 1 = /home/szhao/Apps/g16/l1.exe PID=    127597.
  
 Copyright (c) 1988,1990,1992,1993,1995,1998,2003,2009,2016,
            Gaussian, Inc.  All Rights Reserved.
  
 This is part of the Gaussian(R) 16 program.  It is based on
 the Gaussian(R) 09 system (copyright 2009, Gaussian, Inc.),
 the Gaussian(R) 03 system (copyright 2003, Gaussian, Inc.),
 the Gaussian(R) 98 system (copyright 1998, Gaussian, Inc.),
 the Gaussian(R) 94 system (copyright 1995, Gaussian, Inc.),
 the Gaussian 92(TM) system (copyright 1992, Gaussian, Inc.),
 the Gaussian 90(TM) system (copyright 1990, Gaussian, Inc.),
 the Gaussian 88(TM) system (copyright 1988, Gaussian, Inc.),
 the Gaussian 86(TM) system (copyright 1986, Carnegie Mellon
 University), and the Gaussian 82(TM) system (copyright 1983,
 Carnegie Mellon University). Gaussian is a federally registered
 trademark of Gaussian, Inc.
  
 This software contains proprietary and confidential information,
 including trade secrets, belonging to Gaussian, Inc.
  
 This software is provided under written license and may be
 used, copied, transmitted, or stored only in accord with that
 written license.
  
 The following legend is applicable only to US Government
 contracts under FAR:
  
                    RESTRICTED RIGHTS LEGEND
  
 Use, reproduction and disclosure by the US Government is
 subject to restrictions as set forth in subparagraphs (a)
 and (c) of the Commercial Computer Software - Restricted
 Rights clause in FAR 52.227-19.
  
 Gaussian, Inc.
 340 Quinnipiac St., Bldg. 40, Wallingford CT 06492
  
  
 ---------------------------------------------------------------
 Warning -- This program may not be used in any manner that
 competes with the business of Gaussian, Inc. or will provide
 assistance to any competitor of Gaussian, Inc.  The licensee
 of this program is prohibited from giving any competitor of
 Gaussian, Inc. access to this program.  By using this program,
 the user acknowledges that Gaussian, Inc. is engaged in the
 business of creating and licensing software in the field of
 computational chemistry and represents and warrants to the
 licensee that it is not a competitor of Gaussian, Inc. and that
 it will not use this program in any manner prohibited above.
 ---------------------------------------------------------------
  

 Cite this work as:
 Gaussian 16, Revision A.03,
 M. J. Frisch, G. W. Trucks, H. B. Schlegel, G. E. Scuseria, 
 M. A. Robb, J. R. Cheeseman, G. Scalmani, V. Barone, 
 G. A. Petersson, H. Nakatsuji, X. Li, M. Caricato, A. V. Marenich, 
 J. Bloino, B. G. Janesko, R. Gomperts, B. Mennucci, H. P. Hratchian, 
 J. V. Ortiz, A. F. Izmaylov, J. L. Sonnenberg, D. Williams-Young, 
 F. Ding, F. Lipparini, F. Egidi, J. Goings, B. Peng, A. Petrone, 
 T. Henderson, D. Ranasinghe, V. G. Zakrzewski, J. Gao, N. Rega, 
 G. Zheng, W. Liang, M. Hada, M. Ehara, K. Toyota, R. Fukuda, 
 J. Hasegawa, M. Ishida, T. Nakajima, Y. Honda, O. Kitao, H. Nakai, 
 T. Vreven, K. Throssell, J. A. Montgomery, Jr., J. E. Peralta, 
 F. Ogliaro, M. J. Bearpark, J. J. Heyd, E. N. Brothers, K. N. Kudin, 
 V. N. Staroverov, T. A. Keith, R. Kobayashi, J. Normand, 
 K. Raghavachari, A. P. Rendell, J. C. Burant, S. S. Iyengar, 
 J. Tomasi, M. Cossi, J. M. Millam, M. Klene, C. Adamo, R. Cammi, 
 J. W. Ochterski, R. L. Martin, K. Morokuma, O. Farkas, 
 J. B. Foresman, and D. J. Fox, Gaussian, Inc., Wallingford CT, 2016.
 
 ******************************************
 Gaussian 16:  ES64L-G16RevA.03 25-Dec-2016
                19-Nov-2024 
 ******************************************
 %chk=opt.chk
 %mem=4GB
 %nprocshared=8
 Will use up to    8 processors via shared memory.
 --------------------------------------------
 #p opt UM062X/6-311+G** nosymm int=superfine
 --------------------------------------------
 1/18=20,19=15,26=5,38=1/1,3;
 2/9=110,12=2,15=1,17=6,18=5,40=1/2;
 3/5=4,6=6,7=111,11=2,25=1,30=1,71=1,74=-55,75=-7,116=2/1,2,3;
 4//1;
 5/5=2,38=5/2;
 6/7=2,8=2,9=2,10=2,28=1/1;
 7/30=1/1,2,3,16;
 1/18=20,19=15,26=5/3(2);
 2/9=110,15=1/2;
 99//99;
 2/9=110,15=1/2;
 3/5=4,6=6,7=111,11=2,25=1,30=1,71=1,74=-55,75=-7,116=2/1,2,3;
 4/5=5,16=3,69=1/1;
 5/5=2,38=5/2;
 7/30=1/1,2,3,16;
 1/18=20,19=15,26=5/3(-5);
 2/9=110,15=1/2;
 6/7=2,8=2,9=2,10=2,19=2,28=1/1;
 99/9=1/99;
 Leave Link    1 at Tue Nov 19 10:53:09 2024, MaxMem=   536870912 cpu:               0.3 elap:               0.0
 (Enter /home/szhao/Apps/g16/l101.exe)
 -------------------
 Title Card Required
 -------------------
 Symbolic Z-matrix:
 Charge =  1 Multiplicity = 2
 C                    -1   -0.57965   0.        0. 
 C                    -1    0.57965   0.        0. 
 H                    0    -1.03543  -0.9323    0. 
 H                    0    -1.03273   0.93666   0. 
 H                    0     1.03543   0.9323    0. 
 H                    0     1.03273  -0.93666   0. 
 
 ITRead=  2  2  0  0  0  0
 MicOpt= -2 -2 -1 -1 -1 -1
 NAtoms=      6 NQM=        4 NQMF=       2 NMMI=      0 NMMIF=      0
                NMic=       0 NMicF=      0.
                    Isotopes and Nuclear Properties:
 (Nuclear quadrupole moments (NQMom) in fm**2, nuclear magnetic moments (NMagM)
  in nuclear magnetons)

  Atom         1           2           3           4           5           6
 IAtWgt=          12          12           1           1           1           1
 AtmWgt=  12.0000000  12.0000000   1.0078250   1.0078250   1.0078250   1.0078250
 NucSpn=           0           0           1           1           1           1
 AtZEff=  -0.0000000  -0.0000000  -0.0000000  -0.0000000  -0.0000000  -0.0000000
 NQMom=    0.0000000   0.0000000   0.0000000   0.0000000   0.0000000   0.0000000
 NMagM=    0.0000000   0.0000000   2.7928460   2.7928460   2.7928460   2.7928460
 AtZNuc=   6.0000000   6.0000000   1.0000000   1.0000000   1.0000000   1.0000000
 Leave Link  101 at Tue Nov 19 10:53:09 2024, MaxMem=   536870912 cpu:               2.3 elap:               0.3
 (Enter /home/szhao/Apps/g16/l103.exe)

 GradGradGradGradGradGradGradGradGradGradGradGradGradGradGradGradGradGrad
 Berny optimization.
 Initialization pass.
                           ----------------------------
                           !    Initial Parameters    !
                           ! (Angstroms and Degrees)  !
 --------------------------                            --------------------------
 ! Name  Definition              Value          Derivative Info.                !
 --------------------------------------------------------------------------------
 ! X1    R(1,-1)                -0.5797         Frozen                          !
 ! Y1    R(1,-2)                 0.0            Frozen                          !
 ! Z1    R(1,-3)                 0.0            Frozen                          !
 ! X2    R(2,-1)                 0.5797         Frozen                          !
 ! Y2    R(2,-2)                 0.0            Frozen                          !
 ! Z2    R(2,-3)                 0.0            Frozen                          !
 ! R1    R(1,3)                  1.0377         estimate D2E/DX2                !
 ! R2    R(1,4)                  1.0405         estimate D2E/DX2                !
 ! R3    R(2,5)                  1.0377         estimate D2E/DX2                !
 ! R4    R(2,6)                  1.0405         estimate D2E/DX2                !
 ! A1    A(2,1,3)              116.0529         estimate D2E/DX2                !
 ! A2    A(2,1,4)              115.8141         estimate D2E/DX2                !
 ! A3    A(3,1,4)              128.133          estimate D2E/DX2                !
 ! A4    A(1,2,5)              116.0529         estimate D2E/DX2                !
 ! A5    A(1,2,6)              115.8141         estimate D2E/DX2                !
 ! A6    A(5,2,6)              128.133          estimate D2E/DX2                !
 ! D1    D(3,1,2,5)            180.0            estimate D2E/DX2                !
 ! D2    D(3,1,2,6)              0.0            estimate D2E/DX2                !
 ! D3    D(4,1,2,5)              0.0            estimate D2E/DX2                !
 ! D4    D(4,1,2,6)            180.0            estimate D2E/DX2                !
 --------------------------------------------------------------------------------
 Trust Radius=3.00D-01 FncErr=1.00D-07 GrdErr=1.00D-07 EigMax=2.50D+02 EigMin=1.00D-04
 Number of steps in this run=     30 maximum allowed number of steps=    100.
 GradGradGradGradGradGradGradGradGradGradGradGradGradGradGradGradGradGrad

 Leave Link  103 at Tue Nov 19 10:53:09 2024, MaxMem=   536870912 cpu:               0.1 elap:               0.0
 (Enter /home/szhao/Apps/g16/l202.exe)
                          Input orientation:                          
 ---------------------------------------------------------------------
 Center     Atomic      Atomic             Coordinates (Angstroms)
 Number     Number       Type             X           Y           Z
 ---------------------------------------------------------------------
      1          6           0       -0.579651    0.000000    0.000000
      2          6           0        0.579651    0.000000    0.000000
      3          1           0       -1.035429   -0.932297    0.000000
      4          1           0       -1.032734    0.936658    0.000000
      5          1           0        1.035429    0.932297    0.000000
      6          1           0        1.032734   -0.936658    0.000000
 ---------------------------------------------------------------------
                    Distance matrix (angstroms):
                    1          2          3          4          5
     1  C    0.000000
     2  C    1.159303   0.000000
     3  H    1.037743   1.864849   0.000000
     4  H    1.040487   1.864703   1.868957   0.000000
     5  H    1.864849   1.037743   2.786604   2.068168   0.000000
     6  H    1.864703   1.040487   2.068168   2.788453   1.868957
                    6
     6  H    0.000000
 Symmetry turned off by external request.
 Stoichiometry    C2H4(1+,2)
 Framework group  C2H[SGH(C2H4)]
 Deg. of freedom     5
 Full point group                 C2H     NOp   4
 Rotational constants (GHZ):         143.5595958          40.8397759          31.7948031
 Leave Link  202 at Tue Nov 19 10:53:09 2024, MaxMem=   536870912 cpu:               0.0 elap:               0.0
 (Enter /home/szhao/Apps/g16/l301.exe)
 Standard basis: 6-311+G(d,p) (5D, 7F)
 Ernie: Thresh=  0.10000D-02 Tol=  0.10000D-05 Strict=F.
    68 basis functions,   104 primitive gaussians,    70 cartesian basis functions
     8 alpha electrons        7 beta electrons
       nuclear repulsion energy        36.9231194205 Hartrees.
 IExCor= 4336 DFT=T Ex+Corr=M062X ExCW=0 ScaHFX=  0.540000
 ScaDFX=  1.000000  1.000000  1.000000  1.000000 ScalE2=  1.000000  1.000000
 IRadAn=      7 IRanWt=     -1 IRanGd=            0 ICorTp=0 IEmpDi=  4
 NAtoms=    6 NActive=    6 NUniq=    6 SFac= 1.00D+00 NAtFMM=   60 NAOKFM=F Big=F
 Integral buffers will be    131072 words long.
 Raffenetti 2 integral format.
 Two-electron integral symmetry is turned off.
 Leave Link  301 at Tue Nov 19 10:53:09 2024, MaxMem=   536870912 cpu:               0.3 elap:               0.0
 (Enter /home/szhao/Apps/g16/l302.exe)
 NPDir=0 NMtPBC=     1 NCelOv=     1 NCel=       1 NClECP=     1 NCelD=      1
         NCelK=      1 NCelE2=     1 NClLst=     1 CellRange=     0.0.
 One-electron integrals computed using PRISM.
 NBasis=    68 RedAO= T EigKep=  6.07D-05  NBF=    68
 NBsUse=    68 1.00D-06 EigRej= -1.00D+00 NBFU=    68
 Precomputing XC quadrature grid using
 IXCGrd= 4 IRadAn=           7 IRanWt=          -1 IRanGd=           0 AccXCQ= 0.00D+00.
 Generated NRdTot=       0 NPtTot=           0 NUsed=           0 NTot=          32
 NSgBfM=    70    70    70    70    70 MxSgAt=     6 MxSgA2=     6.
 Leave Link  302 at Tue Nov 19 10:53:09 2024, MaxMem=   536870912 cpu:               1.1 elap:               0.1
 (Enter /home/szhao/Apps/g16/l303.exe)
 DipDrv:  MaxL=1.
 Leave Link  303 at Tue Nov 19 10:53:09 2024, MaxMem=   536870912 cpu:               0.3 elap:               0.0
 (Enter /home/szhao/Apps/g16/l401.exe)
 ExpMin= 4.38D-02 ExpMax= 4.56D+03 ExpMxC= 6.82D+02 IAcc=3 IRadAn=         7 AccDes= 0.00D+00
 Harris functional with IExCor= 1009 and IRadAn=       7 diagonalized for initial guess.
 HarFok:  IExCor= 1009 AccDes= 0.00D+00 IRadAn=         7 IDoV= 1 UseB2=F ITyADJ=14
 ICtDFT=  3500011 ScaDFX=  1.000000  1.000000  1.000000  1.000000
 FoFCou: FMM=F IPFlag=           0 FMFlag=      100000 FMFlg1=           0
         NFxFlg=           0 DoJE=T BraDBF=F KetDBF=T FulRan=T
         wScrn=  0.000000 ICntrl=       500 IOpCl=  0 I1Cent=   200000004 NGrid=           0
         NMat0=    1 NMatS0=      1 NMatT0=    0 NMatD0=    1 NMtDS0=    0 NMtDT0=    0
 Symmetry not used in FoFCou.
 Harris En= -78.1166843119474    
 JPrj=0 DoOrth=F DoCkMO=F.
 Initial guess <Sx>= 0.0000 <Sy>= 0.0000 <Sz>= 0.5000 <S**2>= 0.7500 S= 0.5000
 Leave Link  401 at Tue Nov 19 10:53:10 2024, MaxMem=   536870912 cpu:               2.6 elap:               0.3
 (Enter /home/szhao/Apps/g16/l502.exe)
 Keep R1 and R2 ints in memory in canonical form, NReq=12681614.
 FoFCou: FMM=F IPFlag=           0 FMFlag=           0 FMFlg1=           0
         NFxFlg=           0 DoJE=F BraDBF=F KetDBF=F FulRan=T
         wScrn=  0.000000 ICntrl=       600 IOpCl=  0 I1Cent=           0 NGrid=           0
         NMat0=    1 NMatS0=   2346 NMatT0=    0 NMatD0=    1 NMtDS0=    0 NMtDT0=    0
 Symmetry not used in FoFCou.
 Two-electron integral symmetry not used.
 UHF open shell SCF:
 Using DIIS extrapolation, IDIIS=  1040.
 NGot=   536870912 LenX=   531353794 LenY=   531348453
 Requested convergence on RMS density matrix=1.00D-08 within 128 cycles.
 Requested convergence on MAX density matrix=1.00D-06.
 Requested convergence on             energy=1.00D-06.
 No special actions if energy rises.

 Cycle   1  Pass 1  IDiag  1:
 E= -78.0435752430820    
 DIIS: error= 3.19D-02 at cycle   1 NSaved=   1.
 NSaved= 1 IEnMin= 1 EnMin= -78.0435752430820     IErMin= 1 ErrMin= 3.19D-02
 ErrMax= 3.19D-02  0.00D+00 EMaxC= 1.00D-01 BMatC= 1.91D-01 BMatP= 1.91D-01
 IDIUse=3 WtCom= 6.81D-01 WtEn= 3.19D-01
 Coeff-Com:  0.100D+01
 Coeff-En:   0.100D+01
 Coeff:      0.100D+01
 Gap=     0.503 Goal=   None    Shift=    0.000
 Gap=     0.280 Goal=   None    Shift=    0.000
 GapD=    0.280 DampG=1.000 DampE=0.500 DampFc=0.5000 IDamp=-1.
 Damping current iteration by 5.00D-01
 RMSDP=3.58D-03 MaxDP=7.35D-02              OVMax= 7.98D-02

 Cycle   2  Pass 1  IDiag  1:
 E= -78.0612972721732     Delta-E=       -0.017722029091 Rises=F Damp=T
 DIIS: error= 1.26D-02 at cycle   2 NSaved=   2.
 NSaved= 2 IEnMin= 2 EnMin= -78.0612972721732     IErMin= 2 ErrMin= 1.26D-02
 ErrMax= 1.26D-02  0.00D+00 EMaxC= 1.00D-01 BMatC= 2.38D-02 BMatP= 1.91D-01
 IDIUse=3 WtCom= 8.74D-01 WtEn= 1.26D-01
 Coeff-Com: -0.417D+00 0.142D+01
 Coeff-En:   0.000D+00 0.100D+01
 Coeff:     -0.364D+00 0.136D+01
 Gap=     0.483 Goal=   None    Shift=    0.000
 Gap=     0.240 Goal=   None    Shift=    0.000
 RMSDP=1.82D-03 MaxDP=2.49D-02 DE=-1.77D-02 OVMax= 2.85D-02

 Cycle   3  Pass 1  IDiag  1:
 E= -78.0761972080294     Delta-E=       -0.014899935856 Rises=F Damp=F
 DIIS: error= 2.67D-03 at cycle   3 NSaved=   3.
 NSaved= 3 IEnMin= 3 EnMin= -78.0761972080294     IErMin= 3 ErrMin= 2.67D-03
 ErrMax= 2.67D-03  0.00D+00 EMaxC= 1.00D-01 BMatC= 4.00D-04 BMatP= 2.38D-02
 IDIUse=3 WtCom= 9.73D-01 WtEn= 2.67D-02
 Coeff-Com: -0.794D-01 0.147D+00 0.933D+00
 Coeff-En:   0.000D+00 0.000D+00 0.100D+01
 Coeff:     -0.773D-01 0.143D+00 0.934D+00
 Gap=     0.482 Goal=   None    Shift=    0.000
 Gap=     0.244 Goal=   None    Shift=    0.000
 RMSDP=1.44D-04 MaxDP=3.36D-03 DE=-1.49D-02 OVMax= 5.04D-03

 Cycle   4  Pass 1  IDiag  1:
 E= -78.0763042374317     Delta-E=       -0.000107029402 Rises=F Damp=F
 DIIS: error= 3.09D-04 at cycle   4 NSaved=   4.
 NSaved= 4 IEnMin= 4 EnMin= -78.0763042374317     IErMin= 4 ErrMin= 3.09D-04
 ErrMax= 3.09D-04  0.00D+00 EMaxC= 1.00D-01 BMatC= 8.68D-06 BMatP= 4.00D-04
 IDIUse=3 WtCom= 9.97D-01 WtEn= 3.09D-03
 Coeff-Com:  0.196D-01-0.408D-01-0.165D+00 0.119D+01
 Coeff-En:   0.000D+00 0.000D+00 0.000D+00 0.100D+01
 Coeff:      0.195D-01-0.407D-01-0.164D+00 0.119D+01
 Gap=     0.482 Goal=   None    Shift=    0.000
 Gap=     0.244 Goal=   None    Shift=    0.000
 RMSDP=3.88D-05 MaxDP=9.38D-04 DE=-1.07D-04 OVMax= 8.58D-04

 Cycle   5  Pass 1  IDiag  1:
 E= -78.0763090556288     Delta-E=       -0.000004818197 Rises=F Damp=F
 DIIS: error= 7.97D-05 at cycle   5 NSaved=   5.
 NSaved= 5 IEnMin= 5 EnMin= -78.0763090556288     IErMin= 5 ErrMin= 7.97D-05
 ErrMax= 7.97D-05  0.00D+00 EMaxC= 1.00D-01 BMatC= 7.40D-07 BMatP= 8.68D-06
 IDIUse=1 WtCom= 1.00D+00 WtEn= 0.00D+00
 Coeff-Com:  0.432D-02-0.796D-02-0.540D-01-0.927D-01 0.115D+01
 Coeff:      0.432D-02-0.796D-02-0.540D-01-0.927D-01 0.115D+01
 Gap=     0.481 Goal=   None    Shift=    0.000
 Gap=     0.245 Goal=   None    Shift=    0.000
 RMSDP=9.97D-06 MaxDP=1.50D-04 DE=-4.82D-06 OVMax= 2.87D-04

 Cycle   6  Pass 1  IDiag  1:
 E= -78.0763094873234     Delta-E=       -0.000000431695 Rises=F Damp=F
 DIIS: error= 2.02D-05 at cycle   6 NSaved=   6.
 NSaved= 6 IEnMin= 6 EnMin= -78.0763094873234     IErMin= 6 ErrMin= 2.02D-05
 ErrMax= 2.02D-05  0.00D+00 EMaxC= 1.00D-01 BMatC= 2.45D-08 BMatP= 7.40D-07
 IDIUse=1 WtCom= 1.00D+00 WtEn= 0.00D+00
 Coeff-Com: -0.175D-02 0.349D-02 0.165D-01-0.480D-01-0.168D+00 0.120D+01
 Coeff:     -0.175D-02 0.349D-02 0.165D-01-0.480D-01-0.168D+00 0.120D+01
 Gap=     0.481 Goal=   None    Shift=    0.000
 Gap=     0.245 Goal=   None    Shift=    0.000
 RMSDP=2.31D-06 MaxDP=3.27D-05 DE=-4.32D-07 OVMax= 6.34D-05

 Cycle   7  Pass 1  IDiag  1:
 E= -78.0763095011267     Delta-E=       -0.000000013803 Rises=F Damp=F
 DIIS: error= 1.15D-06 at cycle   7 NSaved=   7.
 NSaved= 7 IEnMin= 7 EnMin= -78.0763095011267     IErMin= 7 ErrMin= 1.15D-06
 ErrMax= 1.15D-06  0.00D+00 EMaxC= 1.00D-01 BMatC= 1.17D-10 BMatP= 2.45D-08
 IDIUse=1 WtCom= 1.00D+00 WtEn= 0.00D+00
 Coeff-Com:  0.813D-04-0.143D-03-0.682D-03 0.401D-02 0.125D-03-0.902D-01
 Coeff-Com:  0.109D+01
 Coeff:      0.813D-04-0.143D-03-0.682D-03 0.401D-02 0.125D-03-0.902D-01
 Coeff:      0.109D+01
 Gap=     0.481 Goal=   None    Shift=    0.000
 Gap=     0.245 Goal=   None    Shift=    0.000
 RMSDP=1.49D-07 MaxDP=3.57D-06 DE=-1.38D-08 OVMax= 4.17D-06

 Cycle   8  Pass 1  IDiag  1:
 E= -78.0763095011871     Delta-E=       -0.000000000060 Rises=F Damp=F
 DIIS: error= 1.19D-07 at cycle   8 NSaved=   8.
 NSaved= 8 IEnMin= 8 EnMin= -78.0763095011871     IErMin= 8 ErrMin= 1.19D-07
 ErrMax= 1.19D-07  0.00D+00 EMaxC= 1.00D-01 BMatC= 1.16D-12 BMatP= 1.17D-10
 IDIUse=1 WtCom= 1.00D+00 WtEn= 0.00D+00
 Coeff-Com:  0.278D-05-0.895D-05-0.266D-04-0.102D-03 0.111D-02 0.497D-03
 Coeff-Com: -0.128D+00 0.113D+01
 Coeff:      0.278D-05-0.895D-05-0.266D-04-0.102D-03 0.111D-02 0.497D-03
 Coeff:     -0.128D+00 0.113D+01
 Gap=     0.481 Goal=   None    Shift=    0.000
 Gap=     0.245 Goal=   None    Shift=    0.000
 RMSDP=2.49D-08 MaxDP=3.86D-07 DE=-6.04D-11 OVMax= 4.67D-07

 Cycle   9  Pass 1  IDiag  1:
 E= -78.0763095011877     Delta-E=       -0.000000000001 Rises=F Damp=F
 DIIS: error= 9.91D-09 at cycle   9 NSaved=   9.
 NSaved= 9 IEnMin= 9 EnMin= -78.0763095011877     IErMin= 9 ErrMin= 9.91D-09
 ErrMax= 9.91D-09  0.00D+00 EMaxC= 1.00D-01 BMatC= 1.39D-14 BMatP= 1.16D-12
 IDIUse=1 WtCom= 1.00D+00 WtEn= 0.00D+00
 Coeff-Com: -0.109D-05 0.239D-05 0.825D-05-0.229D-04-0.130D-03 0.491D-03
 Coeff-Com:  0.884D-02-0.157D+00 0.115D+01
 Coeff:     -0.109D-05 0.239D-05 0.825D-05-0.229D-04-0.130D-03 0.491D-03
 Coeff:      0.884D-02-0.157D+00 0.115D+01
 Gap=     0.481 Goal=   None    Shift=    0.000
 Gap=     0.245 Goal=   None    Shift=    0.000
 RMSDP=2.13D-09 MaxDP=3.20D-08 DE=-5.97D-13 OVMax= 4.81D-08

 SCF Done:  E(UM062X) =  -78.0763095012     A.U. after    9 cycles
            NFock=  9  Conv=0.21D-08     -V/T= 1.9872
 <Sx>= 0.0000 <Sy>= 0.0000 <Sz>= 0.5000 <S**2>= 0.7524 S= 0.5012
 <L.S>=  0.00000000000    
 KE= 7.909041962469D+01 PE=-2.506466108632D+02 EE= 5.655676231677D+01
 Annihilation of the first spin contaminant:
 S**2 before annihilation     0.7524,   after     0.7500
 Leave Link  502 at Tue Nov 19 10:53:15 2024, MaxMem=   536870912 cpu:              44.5 elap:               5.7
 (Enter /home/szhao/Apps/g16/l601.exe)
 Copying SCF densities to generalized density rwf, IOpCl= 1 IROHF=0.

 **********************************************************************

            Population analysis using the SCF density.

 **********************************************************************

 Alpha  occ. eigenvalues --  -10.87044 -10.86664  -1.29703  -0.96739  -0.93648
 Alpha  occ. eigenvalues --   -0.82543  -0.75114  -0.72276
 Alpha virt. eigenvalues --   -0.24130  -0.15128  -0.13884  -0.11667  -0.10812
 Alpha virt. eigenvalues --   -0.08780  -0.06407  -0.06139  -0.03951   0.00160
 Alpha virt. eigenvalues --    0.00570   0.04070   0.12912   0.15257   0.20115
 Alpha virt. eigenvalues --    0.23691   0.24675   0.27910   0.35679   0.39698
 Alpha virt. eigenvalues --    0.40562   0.45765   0.51180   0.53753   0.64128
 Alpha virt. eigenvalues --    0.67440   0.72582   0.88715   0.91473   1.09298
 Alpha virt. eigenvalues --    1.12497   1.14919   1.43505   1.43884   1.44230
 Alpha virt. eigenvalues --    1.47397   1.49837   1.59191   1.68148   1.77841
 Alpha virt. eigenvalues --    1.84674   1.96712   2.04815   2.06023   2.19641
 Alpha virt. eigenvalues --    2.20594   2.37581   2.40427   2.44760   2.46293
 Alpha virt. eigenvalues --    2.47031   2.63394   2.69199   2.99585   3.41251
 Alpha virt. eigenvalues --    3.51131   3.67563   3.84367  23.44893  24.77910
  Beta  occ. eigenvalues --  -10.86776 -10.86410  -1.25077  -0.94830  -0.92259
  Beta  occ. eigenvalues --   -0.81511  -0.72017
  Beta virt. eigenvalues --   -0.47558  -0.18284  -0.16713  -0.13946  -0.11763
  Beta virt. eigenvalues --   -0.11427  -0.08956  -0.06744  -0.06486  -0.02528
  Beta virt. eigenvalues --   -0.00044   0.01160   0.04215   0.13219   0.15568
  Beta virt. eigenvalues --    0.19814   0.22200   0.25343   0.25637   0.35272
  Beta virt. eigenvalues --    0.39915   0.41530   0.46674   0.51240   0.53599
  Beta virt. eigenvalues --    0.62084   0.71095   0.75175   0.90659   0.94633
  Beta virt. eigenvalues --    1.12764   1.13129   1.15993   1.44167   1.46165
  Beta virt. eigenvalues --    1.47210   1.48668   1.51363   1.61345   1.69002
  Beta virt. eigenvalues --    1.78295   1.87613   1.98143   2.06994   2.10858
  Beta virt. eigenvalues --    2.20183   2.22612   2.40063   2.41071   2.46876
  Beta virt. eigenvalues --    2.48482   2.48774   2.67658   2.70946   3.03068
  Beta virt. eigenvalues --    3.45361   3.55244   3.70886   3.90723  23.45729
  Beta virt. eigenvalues --   24.80101
          Condensed to atoms (all electrons):
               1          2          3          4          5          6
     1  C    4.807710   0.457335   0.408708   0.408261  -0.036153  -0.036502
     2  C    0.457335   4.807710  -0.036153  -0.036502   0.408708   0.408261
     3  H    0.408708  -0.036153   0.381056  -0.004143   0.003857  -0.007911
     4  H    0.408261  -0.036502  -0.004143   0.381586  -0.007911   0.003932
     5  H   -0.036153   0.408708   0.003857  -0.007911   0.381056  -0.004143
     6  H   -0.036502   0.408261  -0.007911   0.003932  -0.004143   0.381586
          Atomic-Atomic Spin Densities.
               1          2          3          4          5          6
     1  C    0.386997   0.155029  -0.004932  -0.004950   0.000512   0.000534
     2  C    0.155029   0.386997   0.000512   0.000534  -0.004932  -0.004950
     3  H   -0.004932   0.000512  -0.010417  -0.001315   0.000198  -0.000597
     4  H   -0.004950   0.000534  -0.001315  -0.010505  -0.000597   0.000193
     5  H    0.000512  -0.004932   0.000198  -0.000597  -0.010417  -0.001315
     6  H    0.000534  -0.004950  -0.000597   0.000193  -0.001315  -0.010505
 Mulliken charges and spin densities:
               1          2
     1  C   -0.009360   0.533191
     2  C   -0.009360   0.533191
     3  H    0.254584  -0.016551
     4  H    0.254776  -0.016640
     5  H    0.254584  -0.016551
     6  H    0.254776  -0.016640
 Sum of Mulliken charges =   1.00000   1.00000
 Mulliken charges and spin densities with hydrogens summed into heavy atoms:
               1          2
     1  C    0.500000   0.500000
     2  C    0.500000   0.500000
 Electronic spatial extent (au):  <R**2>=             61.8996
 Charge=              1.0000 electrons
 Dipole moment (field-independent basis, Debye):
    X=              0.0000    Y=              0.0000    Z=              0.0000  Tot=              0.0000
 Quadrupole moment (field-independent basis, Debye-Ang):
   XX=             -8.0516   YY=             -7.8387   ZZ=            -10.6781
   XY=              0.0034   XZ=              0.0000   YZ=             -0.0000
 Traceless Quadrupole moment (field-independent basis, Debye-Ang):
   XX=              0.8046   YY=              1.0175   ZZ=             -1.8220
   XY=              0.0034   XZ=              0.0000   YZ=             -0.0000
 Octapole moment (field-independent basis, Debye-Ang**2):
  XXX=             -0.0000  YYY=              0.0000  ZZZ=              0.0000  XYY=              0.0000
  XXY=              0.0000  XXZ=              0.0000  XZZ=             -0.0000  YZZ=             -0.0000
  YYZ=              0.0000  XYZ=              0.0000
 Hexadecapole moment (field-independent basis, Debye-Ang**3):
 XXXX=            -41.7754 YYYY=            -16.3343 ZZZZ=             -8.8640 XXXY=              0.0435
 XXXZ=              0.0000 YYYX=             -0.0043 YYYZ=             -0.0000 ZZZX=              0.0000
 ZZZY=             -0.0000 XXYY=             -6.4549 XXZZ=             -8.7947 YYZZ=             -5.2824
 XXYZ=             -0.0000 YYXZ=              0.0000 ZZXY=              0.0087
 N-N= 3.692311942052D+01 E-N=-2.506466107311D+02  KE= 7.909041962469D+01
                          Isotropic Fermi Contact Couplings
        Atom                 a.u.       MegaHertz       Gauss      10(-4) cm-1
     1  C(13)              0.07358      82.71369      29.51430      27.59032
     2  C(13)              0.07358      82.71369      29.51430      27.59032
     3  H(1)              -0.00920     -41.10352     -14.66676     -13.71066
     4  H(1)              -0.00922     -41.19450     -14.69922     -13.74101
     5  H(1)              -0.00920     -41.10352     -14.66676     -13.71066
     6  H(1)              -0.00922     -41.19450     -14.69922     -13.74101
 --------------------------------------------------------
       Center         ----  Spin Dipole Couplings  ----
                      3XX-RR        3YY-RR        3ZZ-RR
 --------------------------------------------------------
     1   Atom       -0.291015     -0.348803      0.639818
     2   Atom       -0.291015     -0.348803      0.639818
     3   Atom       -0.007718      0.022345     -0.014628
     4   Atom       -0.008009      0.022711     -0.014702
     5   Atom       -0.007718      0.022345     -0.014628
     6   Atom       -0.008009      0.022711     -0.014702
 --------------------------------------------------------
                        XY            XZ            YZ
 --------------------------------------------------------
     1   Atom       -0.000105      0.000000     -0.000000
     2   Atom       -0.000105      0.000000      0.000000
     3   Atom        0.053237      0.000000      0.000000
     4   Atom       -0.052955     -0.000000      0.000000
     5   Atom        0.053237     -0.000000     -0.000000
     6   Atom       -0.052955      0.000000     -0.000000
 --------------------------------------------------------


 ---------------------------------------------------------------------------------
              Anisotropic Spin Dipole Couplings in Principal Axis System
 ---------------------------------------------------------------------------------

       Atom             a.u.   MegaHertz   Gauss  10(-4) cm-1        Axes

              Baa    -0.3488   -46.806   -16.702   -15.613  0.0018  1.0000  0.0000
     1 C(13)  Bbb    -0.2910   -39.051   -13.934   -13.026  1.0000 -0.0018 -0.0000
              Bcc     0.6398    85.857    30.636    28.639  0.0000 -0.0000  1.0000
 
              Baa    -0.3488   -46.806   -16.702   -15.613  0.0018  1.0000 -0.0000
     2 C(13)  Bbb    -0.2910   -39.051   -13.934   -13.026  1.0000 -0.0018 -0.0000
              Bcc     0.6398    85.857    30.636    28.639  0.0000  0.0000  1.0000
 
              Baa    -0.0480   -25.613    -9.139    -8.544  0.7974 -0.6034  0.0000
     3 H(1)   Bbb    -0.0146    -7.805    -2.785    -2.603 -0.0000 -0.0000  1.0000
              Bcc     0.0626    33.418    11.924    11.147  0.6034  0.7974  0.0000
 
              Baa    -0.0478   -25.497    -9.098    -8.505  0.7996  0.6006  0.0000
     4 H(1)   Bbb    -0.0147    -7.844    -2.799    -2.617  0.0000 -0.0000  1.0000
              Bcc     0.0625    33.341    11.897    11.121 -0.6006  0.7996  0.0000
 
              Baa    -0.0480   -25.613    -9.139    -8.544  0.7974 -0.6034 -0.0000
     5 H(1)   Bbb    -0.0146    -7.805    -2.785    -2.603  0.0000  0.0000  1.0000
              Bcc     0.0626    33.418    11.924    11.147  0.6034  0.7974 -0.0000
 
              Baa    -0.0478   -25.497    -9.098    -8.505  0.7996  0.6006  0.0000
     6 H(1)   Bbb    -0.0147    -7.844    -2.799    -2.617 -0.0000  0.0000  1.0000
              Bcc     0.0625    33.341    11.897    11.121 -0.6006  0.7996 -0.0000
 

 ---------------------------------------------------------------------------------

 No NMR shielding tensors so no spin-rotation constants.
 Leave Link  601 at Tue Nov 19 10:53:15 2024, MaxMem=   536870912 cpu:               1.4 elap:               0.2
 (Enter /home/szhao/Apps/g16/l701.exe)
 ... and contract with generalized density number  0.
 Compute integral first derivatives.
 Leave Link  701 at Tue Nov 19 10:53:16 2024, MaxMem=   536870912 cpu:               0.7 elap:               0.1
 (Enter /home/szhao/Apps/g16/l702.exe)
 L702 exits ... SP integral derivatives will be done elsewhere.
 Leave Link  702 at Tue Nov 19 10:53:16 2024, MaxMem=   536870912 cpu:               0.3 elap:               0.0
 (Enter /home/szhao/Apps/g16/l703.exe)
 Integral derivatives from FoFJK, PRISM(SPDF).
 Compute integral first derivatives, UseDBF=F ICtDFT=           0.
 Calling FoFJK, ICntrl=      2127 FMM=F ISym2X=0 I1Cent= 0 IOpClX= 1 NMat=1 NMatS=1 NMatT=0.
 FoFJK:  IHMeth= 1 ICntrl=    2127 DoSepK=F KAlg= 0 I1Cent=           0 FoldK=F
 IRaf=         0 NMat=       1 IRICut=       1 DoRegI=T DoRafI=F ISym2E= 0 IDoP0=0 IntGTp=1.
 FoFCou: FMM=F IPFlag=           0 FMFlag=      100000 FMFlg1=         800
         NFxFlg=           0 DoJE=F BraDBF=F KetDBF=F FulRan=T
         wScrn=  0.000000 ICntrl=      2127 IOpCl=  1 I1Cent=           0 NGrid=           0
         NMat0=    1 NMatS0=      1 NMatT0=    0 NMatD0=    1 NMtDS0=    0 NMtDT0=    0
 Symmetry not used in FoFCou.
 Leave Link  703 at Tue Nov 19 10:53:17 2024, MaxMem=   536870912 cpu:               8.6 elap:               1.1
 (Enter /home/szhao/Apps/g16/l716.exe)
 Dipole        = 3.66373598D-14 3.61932706D-14 4.25092951D-15
 -------------------------------------------------------------------
 Center     Atomic                   Forces (Hartrees/Bohr)
 Number     Number              X              Y              Z
 -------------------------------------------------------------------
      1        6          -0.000000000   -0.000000000   -0.000000000
      2        6          -0.000000000   -0.000000000   -0.000000000
      3        1          -0.041062279   -0.024586228    0.000000000
      4        1          -0.040229370    0.022555738    0.000000000
      5        1           0.041062279    0.024586228   -0.000000000
      6        1           0.040229370   -0.022555738   -0.000000000
 -------------------------------------------------------------------
 Cartesian Forces:  Max     0.041062279 RMS     0.022155403
 Leave Link  716 at Tue Nov 19 10:53:17 2024, MaxMem=   536870912 cpu:               0.3 elap:               0.0
 (Enter /home/szhao/Apps/g16/l103.exe)

 GradGradGradGradGradGradGradGradGradGradGradGradGradGradGradGradGradGrad
 Berny optimization.
 FormGI is forming the generalized inverse of G from B-inverse, IUseBI=4.
 Internal  Forces:  Max     0.081291649 RMS     0.033803169
 Search for a local minimum.
 Step number   1 out of a maximum of   30
 All quantities printed in internal units (Hartrees-Bohrs-Radians)
 RMS Force = .26216D-01 SwitMx=.10000D-02 MixMth= 1
 Mixed Optimization -- RFO/linear search
 Second derivative matrix not updated -- first step.
 The second derivative matrix:
                          X1        Y1        Z1        X2        Y2
           X1           0.50000
           Y1           0.00000   0.50000
           Z1           0.00000   0.00000   0.50000
           X2           0.00000   0.00000   0.00000   0.50000
           Y2           0.00000   0.00000   0.00000   0.00000   0.50000
           Z2           0.00000   0.00000   0.00000   0.00000   0.00000
           R1           0.00000   0.00000   0.00000   0.00000   0.00000
           R2           0.00000   0.00000   0.00000   0.00000   0.00000
           R3           0.00000   0.00000   0.00000   0.00000   0.00000
           R4           0.00000   0.00000   0.00000   0.00000   0.00000
           A1           0.00000   0.00000   0.00000   0.00000   0.00000
           A2           0.00000   0.00000   0.00000   0.00000   0.00000
           A3           0.00000   0.00000   0.00000   0.00000   0.00000
           A4           0.00000   0.00000   0.00000   0.00000   0.00000
           A5           0.00000   0.00000   0.00000   0.00000   0.00000
           A6           0.00000   0.00000   0.00000   0.00000   0.00000
           D1           0.00000   0.00000   0.00000   0.00000   0.00000
           D2           0.00000   0.00000   0.00000   0.00000   0.00000
           D3           0.00000   0.00000   0.00000   0.00000   0.00000
           D4           0.00000   0.00000   0.00000   0.00000   0.00000
                          Z2        R1        R2        R3        R4
           Z2           0.50000
           R1           0.00000   0.41624
           R2           0.00000   0.00000   0.41224
           R3           0.00000   0.00000   0.00000   0.41624
           R4           0.00000   0.00000   0.00000   0.00000   0.41224
           A1           0.00000   0.00000   0.00000   0.00000   0.00000
           A2           0.00000   0.00000   0.00000   0.00000   0.00000
           A3           0.00000   0.00000   0.00000   0.00000   0.00000
           A4           0.00000   0.00000   0.00000   0.00000   0.00000
           A5           0.00000   0.00000   0.00000   0.00000   0.00000
           A6           0.00000   0.00000   0.00000   0.00000   0.00000
           D1           0.00000   0.00000   0.00000   0.00000   0.00000
           D2           0.00000   0.00000   0.00000   0.00000   0.00000
           D3           0.00000   0.00000   0.00000   0.00000   0.00000
           D4           0.00000   0.00000   0.00000   0.00000   0.00000
                          A1        A2        A3        A4        A5
           A1           0.16000
           A2           0.00000   0.16000
           A3           0.00000   0.00000   0.16000
           A4           0.00000   0.00000   0.00000   0.16000
           A5           0.00000   0.00000   0.00000   0.00000   0.16000
           A6           0.00000   0.00000   0.00000   0.00000   0.00000
           D1           0.00000   0.00000   0.00000   0.00000   0.00000
           D2           0.00000   0.00000   0.00000   0.00000   0.00000
           D3           0.00000   0.00000   0.00000   0.00000   0.00000
           D4           0.00000   0.00000   0.00000   0.00000   0.00000
                          A6        D1        D2        D3        D4
           A6           0.16000
           D1           0.00000   0.05273
           D2           0.00000   0.00000   0.05273
           D3           0.00000   0.00000   0.00000   0.05273
           D4           0.00000   0.00000   0.00000   0.00000   0.05273
 ITU=  0
     Eigenvalues ---    0.05273   0.05273   0.05273   0.16000   0.16000
     Eigenvalues ---    0.16000   0.16000   0.41224   0.41224   0.41624
     Eigenvalues ---    0.416241000.000001000.000001000.000001000.00000
     Eigenvalues --- 1000.000001000.000001000.000001000.000001000.00000
 RFO step:  Lambda=-3.20592260D-02 EMin= 5.27271726D-02
 Linear search not attempted -- first point.
 Maximum step size (   0.300) exceeded in Quadratic search.
    -- Step size scaled by   0.843
 Iteration  1 RMS(Cart)=  0.07399995 RMS(Int)=  0.00326899
 Iteration  2 RMS(Cart)=  0.00354768 RMS(Int)=  0.00000681
 Iteration  3 RMS(Cart)=  0.00000749 RMS(Int)=  0.00000000
 Iteration  4 RMS(Cart)=  0.00000000 RMS(Int)=  0.00000000
 ITry= 1 IFail=0 DXMaxC= 1.70D-01 DCOld= 1.00D+10 DXMaxT= 3.00D-01 DXLimC= 3.00D+00 Rises=F
 Variable       Old X    -DE/DX   Delta X   Delta X   Delta X     New X
                                 (Linear)    (Quad)   (Total)
    X1       -1.09538  -0.08129   0.00000   0.00000   0.00000  -1.09538
    Y1        0.00000  -0.00269   0.00000   0.00000   0.00000   0.00000
    Z1        0.00000   0.00000   0.00000   0.00000   0.00000   0.00000
    X2        1.09538   0.08129   0.00000   0.00000   0.00000   1.09538
    Y2        0.00000   0.00269   0.00000   0.00000   0.00000   0.00000
    Z2        0.00000  -0.00000   0.00000   0.00000   0.00000   0.00000
    R1        1.96105   0.04012   0.00000   0.07549   0.07549   2.03654
    R2        1.96623   0.03782   0.00000   0.07180   0.07180   2.03804
    R3        1.96105   0.04012   0.00000   0.07549   0.07549   2.03654
    R4        1.96623   0.03782   0.00000   0.07180   0.07180   2.03804
    A1        2.02550   0.01681   0.00000   0.07384   0.07384   2.09934
    A2        2.02134   0.01754   0.00000   0.07703   0.07703   2.09837
    A3        2.23634  -0.03435   0.00000  -0.15087  -0.15087   2.08548
    A4        2.02550   0.01681   0.00000   0.07384   0.07384   2.09934
    A5        2.02134   0.01754   0.00000   0.07703   0.07703   2.09837
    A6        2.23634  -0.03435   0.00000  -0.15087  -0.15087   2.08548
    D1        3.14159  -0.00000   0.00000   0.00000   0.00000   3.14159
    D2        0.00000   0.00000   0.00000   0.00000  -0.00000   0.00000
    D3        0.00000  -0.00000   0.00000  -0.00000   0.00000   0.00000
    D4        3.14159  -0.00000   0.00000  -0.00000   0.00000   3.14159
         Item               Value     Threshold  Converged?
 Maximum Force            0.040123     0.000450     NO 
 RMS     Force            0.026216     0.000300     NO 
 Maximum Displacement     0.169821     0.001800     NO 
 RMS     Displacement     0.075089     0.001200     NO 
 Predicted change in Energy=-1.707935D-02
 Lowest energy point so far.  Saving SCF results.
 GradGradGradGradGradGradGradGradGradGradGradGradGradGradGradGradGradGrad

 Leave Link  103 at Tue Nov 19 10:53:17 2024, MaxMem=   536870912 cpu:               0.0 elap:               0.0
 (Enter /home/szhao/Apps/g16/l202.exe)
                          Input orientation:                          
 ---------------------------------------------------------------------
 Center     Atomic      Atomic             Coordinates (Angstroms)
 Number     Number       Type             X           Y           Z
 ---------------------------------------------------------------------
      1          6           0       -0.579651    0.000000    0.000000
      2          6           0        0.579651    0.000000    0.000000
      3          1           0       -1.123105   -0.930630   -0.000000
      4          1           0       -1.122600    0.931843   -0.000000
      5          1           0        1.123105    0.930630    0.000000
      6          1           0        1.122600   -0.931843    0.000000
 ---------------------------------------------------------------------
                    Distance matrix (angstroms):
                    1          2          3          4          5
     1  C    0.000000
     2  C    1.159303   0.000000
     3  H    1.077689   1.940477   0.000000
     4  H    1.078482   1.940616   1.862473   0.000000
     5  H    1.940477   1.077689   2.917147   2.245705   0.000000
     6  H    1.940616   1.078482   2.245705   2.917918   1.862473
                    6
     6  H    0.000000
 Symmetry turned off by external request.
 Stoichiometry    C2H4(1+,2)
 Framework group  C2H[SGH(C2H4)]
 Deg. of freedom     5
 Full point group                 C2H     NOp   4
 Rotational constants (GHZ):         144.5612474          38.4419447          30.3667680
 Leave Link  202 at Tue Nov 19 10:53:17 2024, MaxMem=   536870912 cpu:               0.0 elap:               0.0
 (Enter /home/szhao/Apps/g16/l301.exe)
 Standard basis: 6-311+G(d,p) (5D, 7F)
 Ernie: Thresh=  0.10000D-02 Tol=  0.10000D-05 Strict=F.
    68 basis functions,   104 primitive gaussians,    70 cartesian basis functions
     8 alpha electrons        7 beta electrons
       nuclear repulsion energy        36.1599582125 Hartrees.
 IExCor= 4336 DFT=T Ex+Corr=M062X ExCW=0 ScaHFX=  0.540000
 ScaDFX=  1.000000  1.000000  1.000000  1.000000 ScalE2=  1.000000  1.000000
 IRadAn=      7 IRanWt=     -1 IRanGd=            0 ICorTp=0 IEmpDi=  4
 NAtoms=    6 NActive=    6 NUniq=    6 SFac= 1.00D+00 NAtFMM=   60 NAOKFM=F Big=F
 Integral buffers will be    131072 words long.
 Raffenetti 2 integral format.
 Two-electron integral symmetry is turned off.
 Leave Link  301 at Tue Nov 19 10:53:17 2024, MaxMem=   536870912 cpu:               0.3 elap:               0.0
 (Enter /home/szhao/Apps/g16/l302.exe)
 NPDir=0 NMtPBC=     1 NCelOv=     1 NCel=       1 NClECP=     1 NCelD=      1
         NCelK=      1 NCelE2=     1 NClLst=     1 CellRange=     0.0.
 One-electron integrals computed using PRISM.
 NBasis=    68 RedAO= T EigKep=  6.39D-05  NBF=    68
 NBsUse=    68 1.00D-06 EigRej= -1.00D+00 NBFU=    68
 Precomputing XC quadrature grid using
 IXCGrd= 4 IRadAn=           7 IRanWt=          -1 IRanGd=           0 AccXCQ= 0.00D+00.
 Generated NRdTot=       0 NPtTot=           0 NUsed=           0 NTot=          32
 NSgBfM=    70    70    70    70    70 MxSgAt=     6 MxSgA2=     6.
 Leave Link  302 at Tue Nov 19 10:53:17 2024, MaxMem=   536870912 cpu:               1.1 elap:               0.1
 (Enter /home/szhao/Apps/g16/l303.exe)
 DipDrv:  MaxL=1.
 Leave Link  303 at Tue Nov 19 10:53:17 2024, MaxMem=   536870912 cpu:               0.3 elap:               0.0
 (Enter /home/szhao/Apps/g16/l401.exe)
 Initial guess from the checkpoint file:  "opt.chk"
 B after Tr=    -0.000000   -0.000000    0.000000
         Rot=    1.000000   -0.000000    0.000000   -0.000467 Ang=  -0.05 deg.
 Guess basis will be translated and rotated to current coordinates.
 JPrj=2 DoOrth=T DoCkMO=T.
 Initial guess <Sx>= 0.0000 <Sy>= 0.0000 <Sz>= 0.5000 <S**2>= 0.7525 S= 0.5013
 Generating alternative initial guess.
 ExpMin= 4.38D-02 ExpMax= 4.56D+03 ExpMxC= 6.82D+02 IAcc=3 IRadAn=         5 AccDes= 0.00D+00
 Harris functional with IExCor= 1009 and IRadAn=       5 diagonalized for initial guess.
 HarFok:  IExCor= 1009 AccDes= 0.00D+00 IRadAn=         5 IDoV= 1 UseB2=F ITyADJ=14
 ICtDFT=  3500011 ScaDFX=  1.000000  1.000000  1.000000  1.000000
 FoFCou: FMM=F IPFlag=           0 FMFlag=      100000 FMFlg1=           0
         NFxFlg=           0 DoJE=T BraDBF=F KetDBF=T FulRan=T
         wScrn=  0.000000 ICntrl=       500 IOpCl=  0 I1Cent=   200000004 NGrid=           0
         NMat0=    1 NMatS0=      1 NMatT0=    0 NMatD0=    1 NMtDS0=    0 NMtDT0=    0
 Symmetry not used in FoFCou.
 Harris En= -78.1393675139713    
 Leave Link  401 at Tue Nov 19 10:53:17 2024, MaxMem=   536870912 cpu:               2.0 elap:               0.3
 (Enter /home/szhao/Apps/g16/l502.exe)
 Keep R1 and R2 ints in memory in canonical form, NReq=12681614.
 FoFCou: FMM=F IPFlag=           0 FMFlag=           0 FMFlg1=           0
         NFxFlg=           0 DoJE=F BraDBF=F KetDBF=F FulRan=T
         wScrn=  0.000000 ICntrl=       600 IOpCl=  0 I1Cent=           0 NGrid=           0
         NMat0=    1 NMatS0=   2346 NMatT0=    0 NMatD0=    1 NMtDS0=    0 NMtDT0=    0
 Symmetry not used in FoFCou.
 Two-electron integral symmetry not used.
 UHF open shell SCF:
 Using DIIS extrapolation, IDIIS=  1040.
 NGot=   536870912 LenX=   531353794 LenY=   531348453
 Requested convergence on RMS density matrix=1.00D-08 within 128 cycles.
 Requested convergence on MAX density matrix=1.00D-06.
 Requested convergence on             energy=1.00D-06.
 No special actions if energy rises.

 Cycle   1  Pass 1  IDiag  1:
 E= -78.0924505242283    
 DIIS: error= 7.82D-03 at cycle   1 NSaved=   1.
 NSaved= 1 IEnMin= 1 EnMin= -78.0924505242283     IErMin= 1 ErrMin= 7.82D-03
 ErrMax= 7.82D-03  0.00D+00 EMaxC= 1.00D-01 BMatC= 7.82D-03 BMatP= 7.82D-03
 IDIUse=3 WtCom= 9.22D-01 WtEn= 7.82D-02
 Coeff-Com:  0.100D+01
 Coeff-En:   0.100D+01
 Coeff:      0.100D+01
 Gap=     0.697 Goal=   None    Shift=    0.000
 Gap=     0.680 Goal=   None    Shift=    0.000
 GapD=    0.680 DampG=2.000 DampE=1.000 DampFc=2.0000 IDamp=-1.
 RMSDP=6.32D-04 MaxDP=8.76D-03              OVMax= 1.70D-02

 Cycle   2  Pass 1  IDiag  1:
 E= -78.0941001140523     Delta-E=       -0.001649589824 Rises=F Damp=F
 DIIS: error= 1.60D-03 at cycle   2 NSaved=   2.
 NSaved= 2 IEnMin= 2 EnMin= -78.0941001140523     IErMin= 2 ErrMin= 1.60D-03
 ErrMax= 1.60D-03  0.00D+00 EMaxC= 1.00D-01 BMatC= 3.17D-04 BMatP= 7.82D-03
 IDIUse=3 WtCom= 9.84D-01 WtEn= 1.60D-02
 Coeff-Com:  0.348D-01 0.965D+00
 Coeff-En:   0.000D+00 0.100D+01
 Coeff:      0.343D-01 0.966D+00
 Gap=     0.460 Goal=   None    Shift=    0.000
 Gap=     0.226 Goal=   None    Shift=    0.000
 RMSDP=1.44D-04 MaxDP=3.30D-03 DE=-1.65D-03 OVMax= 4.01D-03

 Cycle   3  Pass 1  IDiag  1:
 E= -78.0941588256969     Delta-E=       -0.000058711645 Rises=F Damp=F
 DIIS: error= 1.04D-03 at cycle   3 NSaved=   3.
 NSaved= 3 IEnMin= 3 EnMin= -78.0941588256969     IErMin= 3 ErrMin= 1.04D-03
 ErrMax= 1.04D-03  0.00D+00 EMaxC= 1.00D-01 BMatC= 9.13D-05 BMatP= 3.17D-04
 IDIUse=3 WtCom= 9.90D-01 WtEn= 1.04D-02
 Coeff-Com: -0.228D-01 0.340D+00 0.683D+00
 Coeff-En:   0.000D+00 0.629D-02 0.994D+00
 Coeff:     -0.226D-01 0.337D+00 0.686D+00
 Gap=     0.461 Goal=   None    Shift=    0.000
 Gap=     0.227 Goal=   None    Shift=    0.000
 RMSDP=4.83D-05 MaxDP=9.58D-04 DE=-5.87D-05 OVMax= 1.57D-03

 Cycle   4  Pass 1  IDiag  1:
 E= -78.0941809809308     Delta-E=       -0.000022155234 Rises=F Damp=F
 DIIS: error= 5.80D-05 at cycle   4 NSaved=   4.
 NSaved= 4 IEnMin= 4 EnMin= -78.0941809809308     IErMin= 4 ErrMin= 5.80D-05
 ErrMax= 5.80D-05  0.00D+00 EMaxC= 1.00D-01 BMatC= 2.41D-07 BMatP= 9.13D-05
 IDIUse=1 WtCom= 1.00D+00 WtEn= 0.00D+00
 Coeff-Com:  0.112D-02-0.446D-01-0.432D-01 0.109D+01
 Coeff:      0.112D-02-0.446D-01-0.432D-01 0.109D+01
 Gap=     0.461 Goal=   None    Shift=    0.000
 Gap=     0.227 Goal=   None    Shift=    0.000
 RMSDP=4.41D-06 MaxDP=7.87D-05 DE=-2.22D-05 OVMax= 1.60D-04

 Cycle   5  Pass 1  IDiag  1:
 E= -78.0941810819166     Delta-E=       -0.000000100986 Rises=F Damp=F
 DIIS: error= 9.57D-06 at cycle   5 NSaved=   5.
 NSaved= 5 IEnMin= 5 EnMin= -78.0941810819166     IErMin= 5 ErrMin= 9.57D-06
 ErrMax= 9.57D-06  0.00D+00 EMaxC= 1.00D-01 BMatC= 3.40D-09 BMatP= 2.41D-07
 IDIUse=1 WtCom= 1.00D+00 WtEn= 0.00D+00
 Coeff-Com:  0.804D-04 0.185D-02-0.123D-02-0.135D+00 0.113D+01
 Coeff:      0.804D-04 0.185D-02-0.123D-02-0.135D+00 0.113D+01
 Gap=     0.461 Goal=   None    Shift=    0.000
 Gap=     0.227 Goal=   None    Shift=    0.000
 RMSDP=6.58D-07 MaxDP=1.03D-05 DE=-1.01D-07 OVMax= 2.59D-05

 Cycle   6  Pass 1  IDiag  1:
 E= -78.0941810838875     Delta-E=       -0.000000001971 Rises=F Damp=F
 DIIS: error= 1.87D-06 at cycle   6 NSaved=   6.
 NSaved= 6 IEnMin= 6 EnMin= -78.0941810838875     IErMin= 6 ErrMin= 1.87D-06
 ErrMax= 1.87D-06  0.00D+00 EMaxC= 1.00D-01 BMatC= 2.36D-10 BMatP= 3.40D-09
 IDIUse=1 WtCom= 1.00D+00 WtEn= 0.00D+00
 Coeff-Com: -0.399D-04 0.138D-02 0.151D-02-0.246D-01-0.104D+00 0.113D+01
 Coeff:     -0.399D-04 0.138D-02 0.151D-02-0.246D-01-0.104D+00 0.113D+01
 Gap=     0.461 Goal=   None    Shift=    0.000
 Gap=     0.227 Goal=   None    Shift=    0.000
 RMSDP=1.61D-07 MaxDP=2.63D-06 DE=-1.97D-09 OVMax= 5.04D-06

 Cycle   7  Pass 1  IDiag  1:
 E= -78.0941810840274     Delta-E=       -0.000000000140 Rises=F Damp=F
 DIIS: error= 5.36D-07 at cycle   7 NSaved=   7.
 NSaved= 7 IEnMin= 7 EnMin= -78.0941810840274     IErMin= 7 ErrMin= 5.36D-07
 ErrMax= 5.36D-07  0.00D+00 EMaxC= 1.00D-01 BMatC= 1.86D-11 BMatP= 2.36D-10
 IDIUse=1 WtCom= 1.00D+00 WtEn= 0.00D+00
 Coeff-Com: -0.361D-05-0.288D-03-0.532D-04 0.134D-01-0.746D-01-0.164D+00
 Coeff-Com:  0.123D+01
 Coeff:     -0.361D-05-0.288D-03-0.532D-04 0.134D-01-0.746D-01-0.164D+00
 Coeff:      0.123D+01
 Gap=     0.461 Goal=   None    Shift=    0.000
 Gap=     0.227 Goal=   None    Shift=    0.000
 RMSDP=5.53D-08 MaxDP=8.55D-07 DE=-1.40D-10 OVMax= 1.73D-06

 Cycle   8  Pass 1  IDiag  1:
 E= -78.0941810840400     Delta-E=       -0.000000000013 Rises=F Damp=F
 DIIS: error= 5.24D-08 at cycle   8 NSaved=   8.
 NSaved= 8 IEnMin= 8 EnMin= -78.0941810840400     IErMin= 8 ErrMin= 5.24D-08
 ErrMax= 5.24D-08  0.00D+00 EMaxC= 1.00D-01 BMatC= 3.57D-13 BMatP= 1.86D-11
 IDIUse=1 WtCom= 1.00D+00 WtEn= 0.00D+00
 Coeff-Com:  0.226D-05 0.955D-05-0.369D-04-0.182D-02 0.163D-01 0.497D-02
 Coeff-Com: -0.263D+00 0.124D+01
 Coeff:      0.226D-05 0.955D-05-0.369D-04-0.182D-02 0.163D-01 0.497D-02
 Coeff:     -0.263D+00 0.124D+01
 Gap=     0.461 Goal=   None    Shift=    0.000
 Gap=     0.227 Goal=   None    Shift=    0.000
 RMSDP=9.35D-09 MaxDP=1.06D-07 DE=-1.26D-11 OVMax= 2.89D-07

 SCF Done:  E(UM062X) =  -78.0941810840     A.U. after    8 cycles
            NFock=  8  Conv=0.94D-08     -V/T= 1.9906
 <Sx>= 0.0000 <Sy>= 0.0000 <Sz>= 0.5000 <S**2>= 0.7526 S= 0.5013
 <L.S>=  0.00000000000    
 KE= 7.883344103057D+01 PE=-2.490301305282D+02 EE= 5.594255020114D+01
 Annihilation of the first spin contaminant:
 S**2 before annihilation     0.7526,   after     0.7500
 Leave Link  502 at Tue Nov 19 10:53:22 2024, MaxMem=   536870912 cpu:              40.6 elap:               5.2
 (Enter /home/szhao/Apps/g16/l701.exe)
 ... and contract with generalized density number  0.
 Compute integral first derivatives.
 Leave Link  701 at Tue Nov 19 10:53:23 2024, MaxMem=   536870912 cpu:               0.7 elap:               0.1
 (Enter /home/szhao/Apps/g16/l702.exe)
 L702 exits ... SP integral derivatives will be done elsewhere.
 Leave Link  702 at Tue Nov 19 10:53:23 2024, MaxMem=   536870912 cpu:               0.3 elap:               0.0
 (Enter /home/szhao/Apps/g16/l703.exe)
 Integral derivatives from FoFJK, PRISM(SPDF).
 Compute integral first derivatives, UseDBF=F ICtDFT=           0.
 Calling FoFJK, ICntrl=      2127 FMM=F ISym2X=0 I1Cent= 0 IOpClX= 1 NMat=1 NMatS=1 NMatT=0.
 FoFJK:  IHMeth= 1 ICntrl=    2127 DoSepK=F KAlg= 0 I1Cent=           0 FoldK=F
 IRaf=         0 NMat=       1 IRICut=       1 DoRegI=T DoRafI=F ISym2E= 0 IDoP0=0 IntGTp=1.
 FoFCou: FMM=F IPFlag=           0 FMFlag=      100000 FMFlg1=         800
         NFxFlg=           0 DoJE=F BraDBF=F KetDBF=F FulRan=T
         wScrn=  0.000000 ICntrl=      2127 IOpCl=  1 I1Cent=           0 NGrid=           0
         NMat0=    1 NMatS0=      1 NMatT0=    0 NMatD0=    1 NMtDS0=    0 NMtDT0=    0
 Symmetry not used in FoFCou.
 Leave Link  703 at Tue Nov 19 10:53:24 2024, MaxMem=   536870912 cpu:               8.9 elap:               1.1
 (Enter /home/szhao/Apps/g16/l716.exe)
 Dipole        =-7.37188088D-14-7.99360578D-15 1.49808269D-13
 -------------------------------------------------------------------
 Center     Atomic                   Forces (Hartrees/Bohr)
 Number     Number              X              Y              Z
 -------------------------------------------------------------------
      1        6          -0.000000000   -0.000000000   -0.000000000
      2        6          -0.000000000   -0.000000000   -0.000000000
      3        1          -0.013686501   -0.002064809   -0.000000000
      4        1          -0.013466866    0.001585719   -0.000000000
      5        1           0.013686501    0.002064809    0.000000000
      6        1           0.013466866   -0.001585719    0.000000000
 -------------------------------------------------------------------
 Cartesian Forces:  Max     0.013686501 RMS     0.006458885
 Leave Link  716 at Tue Nov 19 10:53:24 2024, MaxMem=   536870912 cpu:               0.3 elap:               0.0
 (Enter /home/szhao/Apps/g16/l103.exe)

 GradGradGradGradGradGradGradGradGradGradGradGradGradGradGradGradGradGrad
 Berny optimization.
 Using GEDIIS/GDIIS optimizer.
 FormGI is forming the generalized inverse of G from B-inverse, IUseBI=4.
 Internal  Forces:  Max     0.027153367 RMS     0.010966886
 Search for a local minimum.
 Step number   2 out of a maximum of   30
 All quantities printed in internal units (Hartrees-Bohrs-Radians)
 RMS Force = .81508D-02 SwitMx=.10000D-02 MixMth= 1
 Mixed Optimization -- RFO/linear search
 Update second derivatives using D2CorX and points    1    2
 DE= -1.79D-02 DEPred=-1.71D-02 R= 1.05D+00
 TightC=F SS=  1.41D+00  RLast= 3.00D-01 DXNew= 5.0454D-01 9.0000D-01
 Trust test= 1.05D+00 RLast= 3.00D-01 DXMaxT set to 5.05D-01
 The second derivative matrix:
                          X1        Y1        Z1        X2        Y2
           X1           0.66361
           Y1           0.00632   0.50024
           Z1          -0.00000  -0.00000   0.50000
           X2          -0.16361  -0.00632   0.00000   0.66361
           Y2          -0.00632  -0.00024   0.00000   0.00632   0.50024
           Z2           0.00000   0.00000  -0.00000  -0.00000  -0.00000
           R1          -0.09501  -0.00367   0.00000   0.09501   0.00367
           R2          -0.08967  -0.00346   0.00000   0.08967   0.00346
           R3          -0.09501  -0.00367   0.00000   0.09501   0.00367
           R4          -0.08967  -0.00346   0.00000   0.08967   0.00346
           A1          -0.02884  -0.00111   0.00000   0.02884   0.00111
           A2          -0.03062  -0.00118   0.00000   0.03062   0.00118
           A3           0.05946   0.00230  -0.00000  -0.05946  -0.00230
           A4          -0.02884  -0.00111   0.00000   0.02884   0.00111
           A5          -0.03062  -0.00118   0.00000   0.03062   0.00118
           A6           0.05946   0.00230  -0.00000  -0.05946  -0.00230
           D1           0.00000   0.00000  -0.00000  -0.00000  -0.00000
           D2          -0.00000  -0.00000   0.00000   0.00000   0.00000
           D3           0.00000   0.00000  -0.00000  -0.00000  -0.00000
           D4           0.00000   0.00000  -0.00000  -0.00000  -0.00000
                          Z2        R1        R2        R3        R4
           Z2           0.50000
           R1          -0.00000   0.42185
           R2          -0.00000   0.00539   0.41741
           R3          -0.00000   0.00561   0.00539   0.42185
           R4          -0.00000   0.00539   0.00517   0.00539   0.41741
           A1          -0.00000  -0.00189  -0.00175  -0.00189  -0.00175
           A2          -0.00000  -0.00166  -0.00153  -0.00166  -0.00153
           A3           0.00000   0.00355   0.00328   0.00355   0.00328
           A4          -0.00000  -0.00189  -0.00175  -0.00189  -0.00175
           A5          -0.00000  -0.00166  -0.00153  -0.00166  -0.00153
           A6           0.00000   0.00355   0.00328   0.00355   0.00328
           D1           0.00000  -0.00000  -0.00000  -0.00000  -0.00000
           D2          -0.00000   0.00000   0.00000   0.00000   0.00000
           D3           0.00000  -0.00000  -0.00000  -0.00000  -0.00000
           D4           0.00000  -0.00000  -0.00000  -0.00000  -0.00000
                          A1        A2        A3        A4        A5
           A1           0.15808
           A2          -0.00191   0.15811
           A3           0.00383   0.00381   0.15236
           A4          -0.00192  -0.00191   0.00383   0.15808
           A5          -0.00191  -0.00189   0.00381  -0.00191   0.15811
           A6           0.00383   0.00381  -0.00764   0.00383   0.00381
           D1          -0.00000  -0.00000   0.00000  -0.00000  -0.00000
           D2           0.00000   0.00000  -0.00000   0.00000   0.00000
           D3          -0.00000  -0.00000   0.00000  -0.00000  -0.00000
           D4          -0.00000  -0.00000   0.00000  -0.00000  -0.00000
                          A6        D1        D2        D3        D4
           A6           0.15236
           D1           0.00000   0.05273
           D2          -0.00000  -0.00000   0.05273
           D3           0.00000   0.00000  -0.00000   0.05273
           D4           0.00000   0.00000  -0.00000   0.00000   0.05273
 ITU=  1  0
 Use linear search instead of GDIIS.
     Eigenvalues ---    0.05273   0.05273   0.05273   0.13661   0.16000
     Eigenvalues ---    0.16000   0.16001   0.41224   0.41398   0.41624
     Eigenvalues ---    0.436531000.000001000.000001000.000001000.00000
     Eigenvalues --- 1000.000001000.000001000.000001000.000001000.00000
 RFO step:  Lambda=-1.16072729D-03 EMin= 5.27271726D-02
 Quartic linear search produced a step of  0.57128.
 Iteration  1 RMS(Cart)=  0.05696966 RMS(Int)=  0.00180380
 Iteration  2 RMS(Cart)=  0.00184787 RMS(Int)=  0.00000117
 Iteration  3 RMS(Cart)=  0.00000137 RMS(Int)=  0.00000000
 Iteration  4 RMS(Cart)=  0.00000000 RMS(Int)=  0.00000000
 ITry= 1 IFail=0 DXMaxC= 1.20D-01 DCOld= 1.00D+10 DXMaxT= 5.05D-01 DXLimC= 3.00D+00 Rises=F
 Variable       Old X    -DE/DX   Delta X   Delta X   Delta X     New X
                                 (Linear)    (Quad)   (Total)
    X1       -1.09538  -0.02715   0.00000   0.00000   0.00000  -1.09538
    Y1        0.00000  -0.00061   0.00000   0.00000   0.00000   0.00000
    Z1        0.00000  -0.00000   0.00000   0.00000   0.00000   0.00000
    X2        1.09538   0.02715   0.00000   0.00000   0.00000   1.09538
    Y2        0.00000   0.00061   0.00000   0.00000   0.00000   0.00000
    Z2        0.00000   0.00000   0.00000   0.00000   0.00000   0.00000
    R1        2.03654   0.00868   0.04312  -0.01813   0.02500   2.06154
    R2        2.03804   0.00815   0.04102  -0.01738   0.02364   2.06168
    R3        2.03654   0.00868   0.04312  -0.01813   0.02500   2.06154
    R4        2.03804   0.00815   0.04102  -0.01738   0.02364   2.06168
    A1        2.09934   0.00727   0.04218   0.01874   0.06092   2.16026
    A2        2.09837   0.00741   0.04401   0.01783   0.06183   2.16020
    A3        2.08548  -0.01468  -0.08619  -0.03656  -0.12275   1.96273
    A4        2.09934   0.00727   0.04218   0.01874   0.06092   2.16026
    A5        2.09837   0.00741   0.04401   0.01783   0.06183   2.16020
    A6        2.08548  -0.01468  -0.08619  -0.03656  -0.12275   1.96273
    D1        3.14159   0.00000   0.00000   0.00000   0.00000   3.14159
    D2       -0.00000  -0.00000   0.00000  -0.00000   0.00000   0.00000
    D3        0.00000   0.00000   0.00000   0.00000   0.00000   0.00000
    D4        3.14159   0.00000   0.00000   0.00000   0.00000   3.14159
         Item               Value     Threshold  Converged?
 Maximum Force            0.014679     0.000450     NO 
 RMS     Force            0.008151     0.000300     NO 
 Maximum Displacement     0.119996     0.001800     NO 
 RMS     Displacement     0.057288     0.001200     NO 
 Predicted change in Energy=-2.733110D-03
 Lowest energy point so far.  Saving SCF results.
 GradGradGradGradGradGradGradGradGradGradGradGradGradGradGradGradGradGrad

 Leave Link  103 at Tue Nov 19 10:53:24 2024, MaxMem=   536870912 cpu:               0.0 elap:               0.0
 (Enter /home/szhao/Apps/g16/l202.exe)
                          Input orientation:                          
 ---------------------------------------------------------------------
 Center     Atomic      Atomic             Coordinates (Angstroms)
 Number     Number       Type             X           Y           Z
 ---------------------------------------------------------------------
      1          6           0       -0.579651    0.000000    0.000000
      2          6           0        0.579651    0.000000    0.000000
      3          1           0       -1.186107   -0.906816   -0.000000
      4          1           0       -1.186099    0.906912   -0.000000
      5          1           0        1.186107    0.906816    0.000000
      6          1           0        1.186099   -0.906912    0.000000
 ---------------------------------------------------------------------
                    Distance matrix (angstroms):
                    1          2          3          4          5
     1  C    0.000000
     2  C    1.159303   0.000000
     3  H    1.090918   1.984998   0.000000
     4  H    1.090994   1.985035   1.813727   0.000000
     5  H    1.984998   1.090918   2.986077   2.372206   0.000000
     6  H    1.985035   1.090994   2.372206   2.986181   1.813727
                    6
     6  H    0.000000
 Symmetry turned off by external request.
 Stoichiometry    C2H4(1+,2)
 Framework group  C2H[SGH(C2H4)]
 Deg. of freedom     5
 Full point group                 C2H     NOp   4
 Rotational constants (GHZ):         152.4362169          36.7941863          29.6398806
 Leave Link  202 at Tue Nov 19 10:53:24 2024, MaxMem=   536870912 cpu:               0.0 elap:               0.0
 (Enter /home/szhao/Apps/g16/l301.exe)
 Standard basis: 6-311+G(d,p) (5D, 7F)
 Ernie: Thresh=  0.10000D-02 Tol=  0.10000D-05 Strict=F.
    68 basis functions,   104 primitive gaussians,    70 cartesian basis functions
     8 alpha electrons        7 beta electrons
       nuclear repulsion energy        35.8561692124 Hartrees.
 IExCor= 4336 DFT=T Ex+Corr=M062X ExCW=0 ScaHFX=  0.540000
 ScaDFX=  1.000000  1.000000  1.000000  1.000000 ScalE2=  1.000000  1.000000
 IRadAn=      7 IRanWt=     -1 IRanGd=            0 ICorTp=0 IEmpDi=  4
 NAtoms=    6 NActive=    6 NUniq=    6 SFac= 1.00D+00 NAtFMM=   60 NAOKFM=F Big=F
 Integral buffers will be    131072 words long.
 Raffenetti 2 integral format.
 Two-electron integral symmetry is turned off.
 Leave Link  301 at Tue Nov 19 10:53:24 2024, MaxMem=   536870912 cpu:               0.4 elap:               0.0
 (Enter /home/szhao/Apps/g16/l302.exe)
 NPDir=0 NMtPBC=     1 NCelOv=     1 NCel=       1 NClECP=     1 NCelD=      1
         NCelK=      1 NCelE2=     1 NClLst=     1 CellRange=     0.0.
 One-electron integrals computed using PRISM.
 NBasis=    68 RedAO= T EigKep=  6.70D-05  NBF=    68
 NBsUse=    68 1.00D-06 EigRej= -1.00D+00 NBFU=    68
 Precomputing XC quadrature grid using
 IXCGrd= 4 IRadAn=           7 IRanWt=          -1 IRanGd=           0 AccXCQ= 0.00D+00.
 Generated NRdTot=       0 NPtTot=           0 NUsed=           0 NTot=          32
 NSgBfM=    70    70    70    70    70 MxSgAt=     6 MxSgA2=     6.
 Leave Link  302 at Tue Nov 19 10:53:24 2024, MaxMem=   536870912 cpu:               1.1 elap:               0.1
 (Enter /home/szhao/Apps/g16/l303.exe)
 DipDrv:  MaxL=1.
 Leave Link  303 at Tue Nov 19 10:53:24 2024, MaxMem=   536870912 cpu:               0.3 elap:               0.0
 (Enter /home/szhao/Apps/g16/l401.exe)
 Initial guess from the checkpoint file:  "opt.chk"
 B after Tr=     0.000000    0.000000   -0.000000
         Rot=    1.000000    0.000000    0.000000   -0.000140 Ang=  -0.02 deg.
 Guess basis will be translated and rotated to current coordinates.
 JPrj=2 DoOrth=T DoCkMO=T.
 Initial guess <Sx>= 0.0000 <Sy>= 0.0000 <Sz>= 0.5000 <S**2>= 0.7527 S= 0.5013
 Generating alternative initial guess.
 ExpMin= 4.38D-02 ExpMax= 4.56D+03 ExpMxC= 6.82D+02 IAcc=3 IRadAn=         5 AccDes= 0.00D+00
 Harris functional with IExCor= 1009 and IRadAn=       5 diagonalized for initial guess.
 HarFok:  IExCor= 1009 AccDes= 0.00D+00 IRadAn=         5 IDoV= 1 UseB2=F ITyADJ=14
 ICtDFT=  3500011 ScaDFX=  1.000000  1.000000  1.000000  1.000000
 FoFCou: FMM=F IPFlag=           0 FMFlag=      100000 FMFlg1=           0
         NFxFlg=           0 DoJE=T BraDBF=F KetDBF=T FulRan=T
         wScrn=  0.000000 ICntrl=       500 IOpCl=  0 I1Cent=   200000004 NGrid=           0
         NMat0=    1 NMatS0=      1 NMatT0=    0 NMatD0=    1 NMtDS0=    0 NMtDT0=    0
 Symmetry not used in FoFCou.
 Harris En= -78.1490577167494    
 Leave Link  401 at Tue Nov 19 10:53:24 2024, MaxMem=   536870912 cpu:               1.8 elap:               0.2
 (Enter /home/szhao/Apps/g16/l502.exe)
 Keep R1 and R2 ints in memory in canonical form, NReq=12681614.
 FoFCou: FMM=F IPFlag=           0 FMFlag=           0 FMFlg1=           0
         NFxFlg=           0 DoJE=F BraDBF=F KetDBF=F FulRan=T
         wScrn=  0.000000 ICntrl=       600 IOpCl=  0 I1Cent=           0 NGrid=           0
         NMat0=    1 NMatS0=   2346 NMatT0=    0 NMatD0=    1 NMtDS0=    0 NMtDT0=    0
 Symmetry not used in FoFCou.
 Two-electron integral symmetry not used.
 UHF open shell SCF:
 Using DIIS extrapolation, IDIIS=  1040.
 NGot=   536870912 LenX=   531353794 LenY=   531348453
 Requested convergence on RMS density matrix=1.00D-08 within 128 cycles.
 Requested convergence on MAX density matrix=1.00D-06.
 Requested convergence on             energy=1.00D-06.
 No special actions if energy rises.

 Cycle   1  Pass 1  IDiag  1:
 E= -78.0965876225190    
 DIIS: error= 3.61D-03 at cycle   1 NSaved=   1.
 NSaved= 1 IEnMin= 1 EnMin= -78.0965876225190     IErMin= 1 ErrMin= 3.61D-03
 ErrMax= 3.61D-03  0.00D+00 EMaxC= 1.00D-01 BMatC= 2.34D-03 BMatP= 2.34D-03
 IDIUse=3 WtCom= 9.64D-01 WtEn= 3.61D-02
 Coeff-Com:  0.100D+01
 Coeff-En:   0.100D+01
 Coeff:      0.100D+01
 Gap=     0.682 Goal=   None    Shift=    0.000
 Gap=     0.665 Goal=   None    Shift=    0.000
 GapD=    0.665 DampG=2.000 DampE=1.000 DampFc=2.0000 IDamp=-1.
 RMSDP=4.65D-04 MaxDP=9.06D-03              OVMax= 8.54D-03

 Cycle   2  Pass 1  IDiag  1:
 E= -78.0970981195460     Delta-E=       -0.000510497027 Rises=F Damp=F
 DIIS: error= 8.95D-04 at cycle   2 NSaved=   2.
 NSaved= 2 IEnMin= 2 EnMin= -78.0970981195460     IErMin= 2 ErrMin= 8.95D-04
 ErrMax= 8.95D-04  0.00D+00 EMaxC= 1.00D-01 BMatC= 7.35D-05 BMatP= 2.34D-03
 IDIUse=3 WtCom= 9.91D-01 WtEn= 8.95D-03
 Coeff-Com: -0.538D-02 0.101D+01
 Coeff-En:   0.000D+00 0.100D+01
 Coeff:     -0.533D-02 0.101D+01
 Gap=     0.448 Goal=   None    Shift=    0.000
 Gap=     0.216 Goal=   None    Shift=    0.000
 RMSDP=6.67D-05 MaxDP=1.39D-03 DE=-5.10D-04 OVMax= 2.37D-03

 Cycle   3  Pass 1  IDiag  1:
 E= -78.0971123773566     Delta-E=       -0.000014257811 Rises=F Damp=F
 DIIS: error= 5.26D-04 at cycle   3 NSaved=   3.
 NSaved= 3 IEnMin= 3 EnMin= -78.0971123773566     IErMin= 3 ErrMin= 5.26D-04
 ErrMax= 5.26D-04  0.00D+00 EMaxC= 1.00D-01 BMatC= 2.35D-05 BMatP= 7.35D-05
 IDIUse=3 WtCom= 9.95D-01 WtEn= 5.26D-03
 Coeff-Com: -0.302D-01 0.361D+00 0.669D+00
 Coeff-En:   0.000D+00 0.000D+00 0.100D+01
 Coeff:     -0.300D-01 0.359D+00 0.671D+00
 Gap=     0.448 Goal=   None    Shift=    0.000
 Gap=     0.216 Goal=   None    Shift=    0.000
 RMSDP=2.57D-05 MaxDP=4.90D-04 DE=-1.43D-05 OVMax= 8.21D-04

 Cycle   4  Pass 1  IDiag  1:
 E= -78.0971181396993     Delta-E=       -0.000005762343 Rises=F Damp=F
 DIIS: error= 3.63D-05 at cycle   4 NSaved=   4.
 NSaved= 4 IEnMin= 4 EnMin= -78.0971181396993     IErMin= 4 ErrMin= 3.63D-05
 ErrMax= 3.63D-05  0.00D+00 EMaxC= 1.00D-01 BMatC= 1.03D-07 BMatP= 2.35D-05
 IDIUse=1 WtCom= 1.00D+00 WtEn= 0.00D+00
 Coeff-Com:  0.655D-03-0.335D-01-0.658D-02 0.104D+01
 Coeff:      0.655D-03-0.335D-01-0.658D-02 0.104D+01
 Gap=     0.448 Goal=   None    Shift=    0.000
 Gap=     0.216 Goal=   None    Shift=    0.000
 RMSDP=2.92D-06 MaxDP=5.62D-05 DE=-5.76D-06 OVMax= 9.49D-05

 Cycle   5  Pass 1  IDiag  1:
 E= -78.0971181799974     Delta-E=       -0.000000040298 Rises=F Damp=F
 DIIS: error= 8.29D-06 at cycle   5 NSaved=   5.
 NSaved= 5 IEnMin= 5 EnMin= -78.0971181799974     IErMin= 5 ErrMin= 8.29D-06
 ErrMax= 8.29D-06  0.00D+00 EMaxC= 1.00D-01 BMatC= 2.34D-09 BMatP= 1.03D-07
 IDIUse=1 WtCom= 1.00D+00 WtEn= 0.00D+00
 Coeff-Com:  0.748D-03-0.926D-02-0.159D-01 0.236D-01 0.100D+01
 Coeff:      0.748D-03-0.926D-02-0.159D-01 0.236D-01 0.100D+01
 Gap=     0.448 Goal=   None    Shift=    0.000
 Gap=     0.216 Goal=   None    Shift=    0.000
 RMSDP=4.78D-07 MaxDP=5.95D-06 DE=-4.03D-08 OVMax= 2.01D-05

 Cycle   6  Pass 1  IDiag  1:
 E= -78.0971181810409     Delta-E=       -0.000000001044 Rises=F Damp=F
 DIIS: error= 1.42D-06 at cycle   6 NSaved=   6.
 NSaved= 6 IEnMin= 6 EnMin= -78.0971181810409     IErMin= 6 ErrMin= 1.42D-06
 ErrMax= 1.42D-06  0.00D+00 EMaxC= 1.00D-01 BMatC= 1.26D-10 BMatP= 2.34D-09
 IDIUse=1 WtCom= 1.00D+00 WtEn= 0.00D+00
 Coeff-Com: -0.173D-03 0.290D-02 0.345D-02-0.367D-01-0.198D+00 0.123D+01
 Coeff:     -0.173D-03 0.290D-02 0.345D-02-0.367D-01-0.198D+00 0.123D+01
 Gap=     0.448 Goal=   None    Shift=    0.000
 Gap=     0.216 Goal=   None    Shift=    0.000
 RMSDP=1.31D-07 MaxDP=1.93D-06 DE=-1.04D-09 OVMax= 4.36D-06

 Cycle   7  Pass 1  IDiag  1:
 E= -78.0971181811241     Delta-E=       -0.000000000083 Rises=F Damp=F
 DIIS: error= 3.30D-07 at cycle   7 NSaved=   7.
 NSaved= 7 IEnMin= 7 EnMin= -78.0971181811241     IErMin= 7 ErrMin= 3.30D-07
 ErrMax= 3.30D-07  0.00D+00 EMaxC= 1.00D-01 BMatC= 7.50D-12 BMatP= 1.26D-10
 IDIUse=1 WtCom= 1.00D+00 WtEn= 0.00D+00
 Coeff-Com:  0.181D-04-0.446D-03-0.308D-03 0.107D-01 0.109D-01-0.385D+00
 Coeff-Com:  0.136D+01
 Coeff:      0.181D-04-0.446D-03-0.308D-03 0.107D-01 0.109D-01-0.385D+00
 Coeff:      0.136D+01
 Gap=     0.448 Goal=   None    Shift=    0.000
 Gap=     0.216 Goal=   None    Shift=    0.000
 RMSDP=3.72D-08 MaxDP=6.01D-07 DE=-8.32D-11 OVMax= 1.30D-06

 Cycle   8  Pass 1  IDiag  1:
 E= -78.0971181811296     Delta-E=       -0.000000000006 Rises=F Damp=F
 DIIS: error= 3.49D-08 at cycle   8 NSaved=   8.
 NSaved= 8 IEnMin= 8 EnMin= -78.0971181811296     IErMin= 8 ErrMin= 3.49D-08
 ErrMax= 3.49D-08  0.00D+00 EMaxC= 1.00D-01 BMatC= 1.19D-13 BMatP= 7.50D-12
 IDIUse=1 WtCom= 1.00D+00 WtEn= 0.00D+00
 Coeff-Com:  0.121D-05 0.101D-04-0.404D-04-0.137D-02 0.498D-02 0.387D-01
 Coeff-Com: -0.272D+00 0.123D+01
 Coeff:      0.121D-05 0.101D-04-0.404D-04-0.137D-02 0.498D-02 0.387D-01
 Coeff:     -0.272D+00 0.123D+01
 Gap=     0.448 Goal=   None    Shift=    0.000
 Gap=     0.216 Goal=   None    Shift=    0.000
 RMSDP=5.17D-09 MaxDP=5.34D-08 DE=-5.51D-12 OVMax= 1.55D-07

 SCF Done:  E(UM062X) =  -78.0971181811     A.U. after    8 cycles
            NFock=  8  Conv=0.52D-08     -V/T= 1.9918
 <Sx>= 0.0000 <Sy>= 0.0000 <Sz>= 0.5000 <S**2>= 0.7527 S= 0.5014
 <L.S>=  0.00000000000    
 KE= 7.874452454544D+01 PE=-2.483825516745D+02 EE= 5.568473973552D+01
 Annihilation of the first spin contaminant:
 S**2 before annihilation     0.7527,   after     0.7500
 Leave Link  502 at Tue Nov 19 10:53:29 2024, MaxMem=   536870912 cpu:              38.3 elap:               4.9
 (Enter /home/szhao/Apps/g16/l701.exe)
 ... and contract with generalized density number  0.
 Compute integral first derivatives.
 Leave Link  701 at Tue Nov 19 10:53:29 2024, MaxMem=   536870912 cpu:               0.8 elap:               0.1
 (Enter /home/szhao/Apps/g16/l702.exe)
 L702 exits ... SP integral derivatives will be done elsewhere.
 Leave Link  702 at Tue Nov 19 10:53:29 2024, MaxMem=   536870912 cpu:               0.3 elap:               0.0
 (Enter /home/szhao/Apps/g16/l703.exe)
 Integral derivatives from FoFJK, PRISM(SPDF).
 Compute integral first derivatives, UseDBF=F ICtDFT=           0.
 Calling FoFJK, ICntrl=      2127 FMM=F ISym2X=0 I1Cent= 0 IOpClX= 1 NMat=1 NMatS=1 NMatT=0.
 FoFJK:  IHMeth= 1 ICntrl=    2127 DoSepK=F KAlg= 0 I1Cent=           0 FoldK=F
 IRaf=         0 NMat=       1 IRICut=       1 DoRegI=T DoRafI=F ISym2E= 0 IDoP0=0 IntGTp=1.
 FoFCou: FMM=F IPFlag=           0 FMFlag=      100000 FMFlg1=         800
         NFxFlg=           0 DoJE=F BraDBF=F KetDBF=F FulRan=T
         wScrn=  0.000000 ICntrl=      2127 IOpCl=  1 I1Cent=           0 NGrid=           0
         NMat0=    1 NMatS0=      1 NMatT0=    0 NMatD0=    1 NMtDS0=    0 NMtDT0=    0
 Symmetry not used in FoFCou.
 Leave Link  703 at Tue Nov 19 10:53:31 2024, MaxMem=   536870912 cpu:               9.2 elap:               1.2
 (Enter /home/szhao/Apps/g16/l716.exe)
 Dipole        =-1.72750703D-13 2.90878432D-14-7.30605276D-13
 -------------------------------------------------------------------
 Center     Atomic                   Forces (Hartrees/Bohr)
 Number     Number              X              Y              Z
 -------------------------------------------------------------------
      1        6          -0.000000000   -0.000000000   -0.000000000
      2        6          -0.000000000   -0.000000000   -0.000000000
      3        1           0.000424129   -0.000581860    0.000000000
      4        1           0.000448421    0.000540553    0.000000000
      5        1          -0.000424129    0.000581860   -0.000000000
      6        1          -0.000448421   -0.000540553   -0.000000000
 -------------------------------------------------------------------
 Cartesian Forces:  Max     0.000581860 RMS     0.000335282
 Leave Link  716 at Tue Nov 19 10:53:31 2024, MaxMem=   536870912 cpu:               0.3 elap:               0.0
 (Enter /home/szhao/Apps/g16/l103.exe)

 GradGradGradGradGradGradGradGradGradGradGradGradGradGradGradGradGradGrad
 Berny optimization.
 Using GEDIIS/GDIIS optimizer.
 FormGI is forming the generalized inverse of G from B-inverse, IUseBI=4.
 Internal  Forces:  Max     0.000927209 RMS     0.000464174
 Search for a local minimum.
 Step number   3 out of a maximum of   30
 All quantities printed in internal units (Hartrees-Bohrs-Radians)
 RMS Force = .44579D-03 SwitMx=.10000D-02 MixMth= 2
 Mixed Optimization -- En-DIIS/RFO-DIIS
 Update second derivatives using D2CorX and points    1    2    3
 DE= -2.94D-03 DEPred=-2.73D-03 R= 1.07D+00
 TightC=F SS=  1.41D+00  RLast= 2.18D-01 DXNew= 8.4853D-01 6.5433D-01
 Trust test= 1.07D+00 RLast= 2.18D-01 DXMaxT set to 6.54D-01
 The second derivative matrix:
                          X1        Y1        Z1        X2        Y2
           X1           0.64669
           Y1           0.00332   0.50008
           Z1           0.00000   0.00000   0.50000
           X2          -0.14669  -0.00332  -0.00000   0.64669
           Y2          -0.00332  -0.00008  -0.00000   0.00332   0.50008
           Z2          -0.00000  -0.00000  -0.00000   0.00000   0.00000
           R1          -0.08813  -0.00252  -0.00000   0.08813   0.00252
           R2          -0.08331  -0.00239  -0.00000   0.08331   0.00239
           R3          -0.08813  -0.00252  -0.00000   0.08813   0.00252
           R4          -0.08331  -0.00239  -0.00000   0.08331   0.00239
           A1          -0.02595  -0.00041  -0.00000   0.02595   0.00041
           A2          -0.02749  -0.00046  -0.00000   0.02749   0.00046
           A3           0.05344   0.00087   0.00000  -0.05344  -0.00087
           A4          -0.02595  -0.00041  -0.00000   0.02595   0.00041
           A5          -0.02749  -0.00046  -0.00000   0.02749   0.00046
           A6           0.05344   0.00087   0.00000  -0.05344  -0.00087
           D1           0.00000   0.00000   0.00000  -0.00000  -0.00000
           D2           0.00000   0.00000   0.00000  -0.00000  -0.00000
           D3          -0.00000  -0.00000  -0.00000   0.00000   0.00000
           D4           0.00000   0.00000   0.00000  -0.00000  -0.00000
                          Z2        R1        R2        R3        R4
           Z2           0.50000
           R1           0.00000   0.41914
           R2           0.00000   0.00288   0.41509
           R3           0.00000   0.00291   0.00288   0.41914
           R4           0.00000   0.00288   0.00285   0.00288   0.41509
           A1           0.00000  -0.00312  -0.00289  -0.00312  -0.00289
           A2           0.00000  -0.00299  -0.00275  -0.00299  -0.00275
           A3          -0.00000   0.00611   0.00564   0.00611   0.00564
           A4           0.00000  -0.00312  -0.00289  -0.00312  -0.00289
           A5           0.00000  -0.00299  -0.00275  -0.00299  -0.00275
           A6          -0.00000   0.00611   0.00564   0.00611   0.00564
           D1          -0.00000  -0.00000  -0.00000  -0.00000  -0.00000
           D2          -0.00000  -0.00000  -0.00000  -0.00000  -0.00000
           D3           0.00000   0.00000   0.00000   0.00000   0.00000
           D4          -0.00000  -0.00000  -0.00000  -0.00000  -0.00000
                          A1        A2        A3        A4        A5
           A1           0.15769
           A2          -0.00235   0.15761
           A3           0.00466   0.00474   0.15060
           A4          -0.00231  -0.00235   0.00466   0.15769
           A5          -0.00235  -0.00239   0.00474  -0.00235   0.15761
           A6           0.00466   0.00474  -0.00940   0.00466   0.00474
           D1          -0.00000  -0.00000   0.00000  -0.00000  -0.00000
           D2          -0.00000  -0.00000   0.00000  -0.00000  -0.00000
           D3           0.00000   0.00000  -0.00000   0.00000   0.00000
           D4          -0.00000  -0.00000   0.00000  -0.00000  -0.00000
                          A6        D1        D2        D3        D4
           A6           0.15060
           D1           0.00000   0.05273
           D2           0.00000   0.00000   0.05273
           D3          -0.00000  -0.00000  -0.00000   0.05273
           D4           0.00000   0.00000   0.00000  -0.00000   0.05273
 ITU=  1  1  0
 Use linear search instead of GDIIS.
     Eigenvalues ---    0.05273   0.05273   0.05273   0.13039   0.16000
     Eigenvalues ---    0.16000   0.16000   0.41224   0.41390   0.41624
     Eigenvalues ---    0.427501000.000001000.000001000.000001000.00000
     Eigenvalues --- 1000.000001000.000001000.000001000.000001000.00000
 RFO step:  Lambda=-4.10817505D-06 EMin= 5.27271726D-02
 Quartic linear search produced a step of -0.04951.
 Iteration  1 RMS(Cart)=  0.00326586 RMS(Int)=  0.00000579
 Iteration  2 RMS(Cart)=  0.00000579 RMS(Int)=  0.00000000
 Iteration  3 RMS(Cart)=  0.00000000 RMS(Int)=  0.00000000
 ITry= 1 IFail=0 DXMaxC= 5.95D-03 DCOld= 1.00D+10 DXMaxT= 6.54D-01 DXLimC= 3.00D+00 Rises=F
 Variable       Old X    -DE/DX   Delta X   Delta X   Delta X     New X
                                 (Linear)    (Quad)   (Total)
    X1       -1.09538   0.00087   0.00000   0.00000   0.00000  -1.09538
    Y1        0.00000  -0.00005   0.00000   0.00000   0.00000   0.00000
    Z1        0.00000   0.00000   0.00000   0.00000   0.00000   0.00000
    X2        1.09538  -0.00087   0.00000   0.00000   0.00000   1.09538
    Y2        0.00000   0.00005   0.00000   0.00000   0.00000   0.00000
    Z2        0.00000  -0.00000   0.00000   0.00000   0.00000   0.00000
    R1        2.06154   0.00025  -0.00124   0.00151   0.00027   2.06181
    R2        2.06168   0.00020  -0.00117   0.00135   0.00018   2.06186
    R3        2.06154   0.00025  -0.00124   0.00151   0.00027   2.06181
    R4        2.06168   0.00020  -0.00117   0.00135   0.00018   2.06186
    A1        2.16026  -0.00047  -0.00302  -0.00054  -0.00355   2.15670
    A2        2.16020  -0.00046  -0.00306  -0.00047  -0.00353   2.15667
    A3        1.96273   0.00093   0.00608   0.00100   0.00708   1.96981
    A4        2.16026  -0.00047  -0.00302  -0.00054  -0.00355   2.15670
    A5        2.16020  -0.00046  -0.00306  -0.00047  -0.00353   2.15667
[...]
           A6           0.04901  -0.00114   0.00000  -0.04901   0.00114
           D1          -0.00000   0.00000  -0.00000   0.00000  -0.00000
           D2           0.00000  -0.00000   0.00000  -0.00000   0.00000
           D3          -0.00000   0.00000  -0.00000   0.00000  -0.00000
           D4          -0.00000   0.00000  -0.00000   0.00000  -0.00000
                          Z2        R1        R2        R3        R4
           Z2           0.50000
           R1          -0.00000   0.41707
           R2          -0.00000   0.00120   0.41373
           R3          -0.00000   0.00083   0.00120   0.41707
           R4          -0.00000   0.00120   0.00149   0.00120   0.41373
           A1           0.00000  -0.00074  -0.00091  -0.00074  -0.00091
           A2           0.00000  -0.00065  -0.00082  -0.00065  -0.00082
           A3          -0.00000   0.00139   0.00173   0.00139   0.00173
           A4           0.00000  -0.00074  -0.00091  -0.00074  -0.00091
           A5           0.00000  -0.00065  -0.00082  -0.00065  -0.00082
           A6          -0.00000   0.00139   0.00173   0.00139   0.00173
           D1           0.00000  -0.00000  -0.00000  -0.00000  -0.00000
           D2          -0.00000   0.00000   0.00000   0.00000   0.00000
           D3           0.00000  -0.00000  -0.00000  -0.00000  -0.00000
           D4           0.00000  -0.00000  -0.00000  -0.00000  -0.00000
                          A1        A2        A3        A4        A5
           A1           0.15731
           A2          -0.00264   0.15741
           A3           0.00533   0.00523   0.14943
           A4          -0.00269  -0.00264   0.00533   0.15731
           A5          -0.00264  -0.00259   0.00523  -0.00264   0.15741
           A6           0.00533   0.00523  -0.01057   0.00533   0.00523
           D1           0.00000   0.00000  -0.00000   0.00000   0.00000
           D2          -0.00000  -0.00000   0.00000  -0.00000  -0.00000
           D3           0.00000   0.00000  -0.00000   0.00000   0.00000
           D4           0.00000   0.00000  -0.00000   0.00000   0.00000
                          A6        D1        D2        D3        D4
           A6           0.14943
           D1          -0.00000   0.05273
           D2           0.00000  -0.00000   0.05273
           D3          -0.00000   0.00000  -0.00000   0.05273
           D4          -0.00000   0.00000  -0.00000   0.00000   0.05273
 ITU=  1  1  1  0
     Eigenvalues ---    0.05273   0.05273   0.05273   0.12820   0.16000
     Eigenvalues ---    0.16000   0.16000   0.41224   0.41382   0.41624
     Eigenvalues ---    0.419401000.000001000.000001000.000001000.00000
     Eigenvalues --- 1000.000001000.000001000.000001000.000001000.00000
 En-DIIS/RFO-DIIS/Sim-DIIS IScMMF=       -3 using points:     4    3
 RFO step:  Lambda=-9.38636470D-08.
 NNeg= 0 NGDIIS= 2 SimSw=  2.50D-01 Rises=F DC= -1.02D-05 SmlDif=  1.00D-05
 NRisDI= 0 DoIntr=F SqrtH=F CThrHd= 10.0 CDAdj=  3.0
 RMS Error=  0.1126671732D-03 NUsed= 2 OKEnD=T EnDIS=F
 InvSVX:  RCond= 3.77D-05 Info=           0 Equed=N FErr=  9.28D-16 BErr=  6.83D-17
 DidBck=F Rises=F RFO-DIIS coefs:    1.01892   -0.01892
 Iteration  1 RMS(Cart)=  0.00011726 RMS(Int)=  0.00000001
 Iteration  2 RMS(Cart)=  0.00000001 RMS(Int)=  0.00000000
 ITry= 1 IFail=0 DXMaxC= 2.90D-04 DCOld= 1.00D+10 DXMaxT= 6.54D-01 DXLimC= 3.00D+00 Rises=F
 Variable       Old X    -DE/DX   Delta X   Delta X   Delta X     New X
                                 (Linear)    (Quad)   (Total)
    X1       -1.09538  -0.00008   0.00000   0.00000   0.00000  -1.09538
    Y1        0.00000  -0.00002   0.00000   0.00000   0.00000   0.00000
    Z1        0.00000  -0.00000   0.00000   0.00000   0.00000   0.00000
    X2        1.09538   0.00008   0.00000   0.00000   0.00000   1.09538
    Y2        0.00000   0.00002   0.00000   0.00000   0.00000   0.00000
    Z2        0.00000   0.00000   0.00000   0.00000   0.00000   0.00000
    R1        2.06181   0.00010   0.00001   0.00024   0.00025   2.06206
    R2        2.06186   0.00009   0.00000   0.00020   0.00021   2.06207
    R3        2.06181   0.00010   0.00001   0.00024   0.00025   2.06206
    R4        2.06186   0.00009   0.00000   0.00020   0.00021   2.06207
    A1        2.15670  -0.00001  -0.00007  -0.00001  -0.00007   2.15663
    A2        2.15667  -0.00001  -0.00007   0.00002  -0.00005   2.15662
    A3        1.96981   0.00002   0.00013  -0.00001   0.00012   1.96993
    A4        2.15670  -0.00001  -0.00007  -0.00001  -0.00007   2.15663
    A5        2.15667  -0.00001  -0.00007   0.00002  -0.00005   2.15662
    A6        1.96981   0.00002   0.00013  -0.00001   0.00012   1.96993
    D1        3.14159   0.00000   0.00000   0.00000   0.00000   3.14159
    D2        0.00000   0.00000   0.00000   0.00000   0.00000   0.00000
    D3       -0.00000   0.00000   0.00000   0.00000   0.00000   0.00000
    D4        3.14159   0.00000   0.00000   0.00000   0.00000   3.14159
         Item               Value     Threshold  Converged?
 Maximum Force            0.000104     0.000450     YES
 RMS     Force            0.000052     0.000300     YES
 Maximum Displacement     0.000290     0.001800     YES
 RMS     Displacement     0.000117     0.001200     YES
 Predicted change in Energy=-4.692429D-08
 Optimization completed.
    -- Stationary point found.
                           ----------------------------
                           !   Optimized Parameters   !
                           ! (Angstroms and Degrees)  !
 --------------------------                            --------------------------
 ! Name  Definition              Value          Derivative Info.                !
 --------------------------------------------------------------------------------
 ! X1    R(1,-1)                -0.5797         -DE/DX =   -0.0001              !
 ! Y1    R(1,-2)                 0.0            -DE/DX =    0.0                 !
 ! Z1    R(1,-3)                 0.0            -DE/DX =    0.0                 !
 ! X2    R(2,-1)                 0.5797         -DE/DX =    0.0001              !
 ! Y2    R(2,-2)                 0.0            -DE/DX =    0.0                 !
 ! Z2    R(2,-3)                 0.0            -DE/DX =    0.0                 !
 ! R1    R(1,3)                  1.0911         -DE/DX =    0.0001              !
 ! R2    R(1,4)                  1.0911         -DE/DX =    0.0001              !
 ! R3    R(2,5)                  1.0911         -DE/DX =    0.0001              !
 ! R4    R(2,6)                  1.0911         -DE/DX =    0.0001              !
 ! A1    A(2,1,3)              123.5701         -DE/DX =    0.0                 !
 ! A2    A(2,1,4)              123.5683         -DE/DX =    0.0                 !
 ! A3    A(3,1,4)              112.8616         -DE/DX =    0.0                 !
 ! A4    A(1,2,5)              123.5701         -DE/DX =    0.0                 !
 ! A5    A(1,2,6)              123.5683         -DE/DX =    0.0                 !
 ! A6    A(5,2,6)              112.8616         -DE/DX =    0.0                 !
 ! D1    D(3,1,2,5)            180.0            -DE/DX =    0.0                 !
 ! D2    D(3,1,2,6)              0.0            -DE/DX =    0.0                 !
 ! D3    D(4,1,2,5)              0.0            -DE/DX =    0.0                 !
 ! D4    D(4,1,2,6)            180.0            -DE/DX =    0.0                 !
 --------------------------------------------------------------------------------
 Lowest energy point so far.  Saving SCF results.
 Largest change from initial coordinates is atom    6       0.153 Angstoms.
 GradGradGradGradGradGradGradGradGradGradGradGradGradGradGradGradGradGrad

 Leave Link  103 at Tue Nov 19 10:53:36 2024, MaxMem=   536870912 cpu:               0.1 elap:               0.0
 (Enter /home/szhao/Apps/g16/l202.exe)
                          Input orientation:                          
 ---------------------------------------------------------------------
 Center     Atomic      Atomic             Coordinates (Angstroms)
 Number     Number       Type             X           Y           Z
 ---------------------------------------------------------------------
      1          6           0       -0.579651    0.000000    0.000000
      2          6           0        0.579651    0.000000    0.000000
      3          1           0       -1.182961   -0.909084    0.000000
      4          1           0       -1.182949    0.909126    0.000000
      5          1           0        1.182961    0.909084   -0.000000
      6          1           0        1.182949   -0.909126   -0.000000
 ---------------------------------------------------------------------
                    Distance matrix (angstroms):
                    1          2          3          4          5
     1  C    0.000000
     2  C    1.159303   0.000000
     3  H    1.091062   1.983239   0.000000
     4  H    1.091091   1.983248   1.818211   0.000000
     5  H    1.983239   1.091062   2.983844   2.365910   0.000000
     6  H    1.983248   1.091091   2.365910   2.983876   1.818211
                    6
     6  H    0.000000
 Symmetry turned off by external request.
 Stoichiometry    C2H4(1+,2)
 Framework group  C2H[SGH(C2H4)]
 Deg. of freedom     5
 Full point group                 C2H     NOp   4
 Rotational constants (GHZ):         151.6853821          36.8748981          29.6636333
 Leave Link  202 at Tue Nov 19 10:53:36 2024, MaxMem=   536870912 cpu:               0.0 elap:               0.0
 (Enter /home/szhao/Apps/g16/l601.exe)
 Copying SCF densities to generalized density rwf, IOpCl= 1 IROHF=0.

 **********************************************************************

            Population analysis using the SCF density.

 **********************************************************************

 Alpha  occ. eigenvalues --  -10.87851 -10.87474  -1.27831  -0.96465  -0.88797
 Alpha  occ. eigenvalues --   -0.84406  -0.74614  -0.68931
 Alpha virt. eigenvalues --   -0.24072  -0.14912  -0.14207  -0.12474  -0.10701
 Alpha virt. eigenvalues --   -0.08102  -0.06465  -0.04987  -0.04081  -0.03440
 Alpha virt. eigenvalues --    0.00040   0.03351   0.12224   0.15533   0.20765
 Alpha virt. eigenvalues --    0.22104   0.25212   0.28099   0.34279   0.36313
 Alpha virt. eigenvalues --    0.39360   0.46412   0.50963   0.51297   0.57668
 Alpha virt. eigenvalues --    0.70257   0.74090   0.87763   0.89250   1.06020
 Alpha virt. eigenvalues --    1.21613   1.23259   1.37905   1.38630   1.41356
 Alpha virt. eigenvalues --    1.41370   1.48141   1.55334   1.76549   1.82836
 Alpha virt. eigenvalues --    1.91584   1.91657   1.92788   2.05343   2.05681
 Alpha virt. eigenvalues --    2.25796   2.32104   2.32432   2.40662   2.44696
 Alpha virt. eigenvalues --    2.49696   2.60049   2.61475   3.02017   3.30167
 Alpha virt. eigenvalues --    3.45437   3.61218   3.62210  23.37441  24.74989
  Beta  occ. eigenvalues --  -10.87578 -10.87214  -1.23102  -0.94632  -0.87282
  Beta  occ. eigenvalues --   -0.83473  -0.68693
  Beta virt. eigenvalues --   -0.47039  -0.18331  -0.16452  -0.13989  -0.12423
  Beta virt. eigenvalues --   -0.11406  -0.09075  -0.06501  -0.04726  -0.03114
  Beta virt. eigenvalues --   -0.02664  -0.00198   0.03570   0.12677   0.15842
  Beta virt. eigenvalues --    0.20325   0.21232   0.26008   0.26259   0.34476
  Beta virt. eigenvalues --    0.37048   0.39778   0.47330   0.51092   0.52939
  Beta virt. eigenvalues --    0.54652   0.73912   0.76437   0.90722   0.91173
  Beta virt. eigenvalues --    1.10462   1.22733   1.23916   1.40684   1.41108
  Beta virt. eigenvalues --    1.41870   1.42361   1.50176   1.57130   1.78052
  Beta virt. eigenvalues --    1.84171   1.93061   1.94574   1.94958   2.07737
  Beta virt. eigenvalues --    2.09907   2.27301   2.32630   2.34044   2.40854
  Beta virt. eigenvalues --    2.48729   2.50553   2.63479   2.65751   3.05054
  Beta virt. eigenvalues --    3.34326   3.48930   3.65746   3.66180  23.38248
  Beta virt. eigenvalues --   24.77287
          Condensed to atoms (all electrons):
               1          2          3          4          5          6
     1  C    4.833419   0.475967   0.393046   0.393041  -0.027576  -0.027579
     2  C    0.475967   4.833419  -0.027576  -0.027579   0.393046   0.393041
     3  H    0.393046  -0.027576   0.376360  -0.009450   0.002771  -0.005309
     4  H    0.393041  -0.027579  -0.009450   0.376366  -0.005309   0.002771
     5  H   -0.027576   0.393046   0.002771  -0.005309   0.376360  -0.009450
     6  H   -0.027579   0.393041  -0.005309   0.002771  -0.009450   0.376366
          Atomic-Atomic Spin Densities.
               1          2          3          4          5          6
     1  C    0.389067   0.157728  -0.006237  -0.006237   0.000848   0.000848
     2  C    0.157728   0.389067   0.000848   0.000848  -0.006237  -0.006237
     3  H   -0.006237   0.000848  -0.011532  -0.000891   0.000111  -0.000306
     4  H   -0.006237   0.000848  -0.000891  -0.011533  -0.000306   0.000111
     5  H    0.000848  -0.006237   0.000111  -0.000306  -0.011532  -0.000891
     6  H    0.000848  -0.006237  -0.000306   0.000111  -0.000891  -0.011533
 Mulliken charges and spin densities:
               1          2
     1  C   -0.040318   0.536017
     2  C   -0.040318   0.536017
     3  H    0.270159  -0.018008
     4  H    0.270159  -0.018009
     5  H    0.270159  -0.018008
     6  H    0.270159  -0.018009
 Sum of Mulliken charges =   1.00000   1.00000
 Mulliken charges and spin densities with hydrogens summed into heavy atoms:
               1          2
     1  C    0.500000   0.500000
     2  C    0.500000   0.500000
 Electronic spatial extent (au):  <R**2>=             65.4473
 Charge=              1.0000 electrons
 Dipole moment (field-independent basis, Debye):
    X=             -0.0000    Y=              0.0000    Z=              0.0000  Tot=              0.0000
 Quadrupole moment (field-independent basis, Debye-Ang):
   XX=             -6.4722   YY=             -8.5249   ZZ=            -10.9005
   XY=             -0.0000   XZ=             -0.0000   YZ=              0.0000
 Traceless Quadrupole moment (field-independent basis, Debye-Ang):
   XX=              2.1603   YY=              0.1076   ZZ=             -2.2679
   XY=             -0.0000   XZ=             -0.0000   YZ=              0.0000
 Octapole moment (field-independent basis, Debye-Ang**2):
  XXX=             -0.0000  YYY=              0.0000  ZZZ=             -0.0000  XYY=             -0.0000
  XXY=             -0.0000  XXZ=              0.0000  XZZ=             -0.0000  YZZ=             -0.0000
  YYZ=              0.0000  XYZ=              0.0000
 Hexadecapole moment (field-independent basis, Debye-Ang**3):
 XXXX=            -41.8622 YYYY=            -17.9333 ZZZZ=             -9.1797 XXXY=              0.0003
 XXXZ=              0.0000 YYYX=             -0.0001 YYYZ=              0.0000 ZZZX=              0.0000
 ZZZY=              0.0000 XXYY=             -5.8013 XXZZ=             -9.7892 YYZZ=             -5.4655
 XXYZ=              0.0000 YYXZ=             -0.0000 ZZXY=              0.0001
 N-N= 3.586062301664D+01 E-N=-2.483920327060D+02  KE= 7.874481815320D+01
                          Isotropic Fermi Contact Couplings
        Atom                 a.u.       MegaHertz       Gauss      10(-4) cm-1
     1  C(13)              0.07396      83.14355      29.66769      27.73370
     2  C(13)              0.07396      83.14355      29.66769      27.73370
     3  H(1)              -0.00951     -42.52646     -15.17450     -14.18530
     4  H(1)              -0.00951     -42.52753     -15.17488     -14.18566
     5  H(1)              -0.00951     -42.52646     -15.17450     -14.18530
     6  H(1)              -0.00951     -42.52753     -15.17488     -14.18566
 --------------------------------------------------------
       Center         ----  Spin Dipole Couplings  ----
                      3XX-RR        3YY-RR        3ZZ-RR
 --------------------------------------------------------
     1   Atom       -0.296816     -0.345245      0.642061
     2   Atom       -0.296816     -0.345245      0.642061
     3   Atom        0.004566      0.011471     -0.016037
     4   Atom        0.004563      0.011474     -0.016037
     5   Atom        0.004566      0.011471     -0.016037
     6   Atom        0.004563      0.011474     -0.016037
 --------------------------------------------------------
                        XY            XZ            YZ
 --------------------------------------------------------
     1   Atom       -0.000001      0.000000      0.000000
     2   Atom       -0.000001      0.000000     -0.000000
     3   Atom        0.051553     -0.000000     -0.000000
     4   Atom       -0.051551      0.000000     -0.000000
     5   Atom        0.051553      0.000000      0.000000
     6   Atom       -0.051551     -0.000000      0.000000
 --------------------------------------------------------


 ---------------------------------------------------------------------------------
              Anisotropic Spin Dipole Couplings in Principal Axis System
 ---------------------------------------------------------------------------------

       Atom             a.u.   MegaHertz   Gauss  10(-4) cm-1        Axes

              Baa    -0.3452   -46.329   -16.531   -15.454  0.0000  1.0000 -0.0000
     1 C(13)  Bbb    -0.2968   -39.830   -14.212   -13.286  1.0000 -0.0000 -0.0000
              Bcc     0.6421    86.158    30.743    28.739  0.0000  0.0000  1.0000
 
              Baa    -0.3452   -46.329   -16.531   -15.454  0.0000  1.0000  0.0000
     2 C(13)  Bbb    -0.2968   -39.830   -14.212   -13.286  1.0000 -0.0000 -0.0000
              Bcc     0.6421    86.158    30.743    28.739  0.0000 -0.0000  1.0000
 
              Baa    -0.0436   -23.289    -8.310    -7.769  0.7304 -0.6831 -0.0000
     3 H(1)   Bbb    -0.0160    -8.557    -3.053    -2.854  0.0000  0.0000  1.0000
              Bcc     0.0597    31.846    11.363    10.623  0.6831  0.7304 -0.0000
 
              Baa    -0.0436   -23.288    -8.310    -7.768  0.7304  0.6831 -0.0000
     4 H(1)   Bbb    -0.0160    -8.557    -3.053    -2.854 -0.0000  0.0000  1.0000
              Bcc     0.0597    31.845    11.363    10.622 -0.6831  0.7304 -0.0000
 
              Baa    -0.0436   -23.289    -8.310    -7.769  0.7304 -0.6831 -0.0000
     5 H(1)   Bbb    -0.0160    -8.557    -3.053    -2.854 -0.0000 -0.0000  1.0000
              Bcc     0.0597    31.846    11.363    10.623  0.6831  0.7304  0.0000
 
              Baa    -0.0436   -23.288    -8.310    -7.768  0.7304  0.6831 -0.0000
     6 H(1)   Bbb    -0.0160    -8.557    -3.053    -2.854  0.0000 -0.0000  1.0000
              Bcc     0.0597    31.845    11.363    10.622 -0.6831  0.7304  0.0000
 

 ---------------------------------------------------------------------------------

 No NMR shielding tensors so no spin-rotation constants.
 Leave Link  601 at Tue Nov 19 10:53:36 2024, MaxMem=   536870912 cpu:               1.3 elap:               0.2
 (Enter /home/szhao/Apps/g16/l9999.exe)
 1\1\GINC-NODE01\FOpt\UM062X\6-311+G(d,p)\C2H4(1+,2)\SZHAO\19-Nov-2024\
 0\\#p opt UM062X/6-311+G** nosymm int=superfine\\Title Card Required\\
 1,2\C,-0.57965144,0.,0.\C,0.57965144,0.,0.\H,-1.1829613605,-0.90908406
 49,0.0000000002\H,-1.1829489186,0.9091264422,0.\H,1.1829613605,0.90908
 40649,0.\H,1.1829489186,-0.9091264422,-0.0000000002\\Version=ES64L-G16
 RevA.03\HF=-78.0971284\S2=0.752711\S2-1=0.\S2A=0.750006\RMSD=4.940e-09
 \RMSF=4.561e-05\Dipole=0.,0.,0.\Quadrupole=1.6061345,0.080022,-1.68615
 64,-0.0000252,0.,0.\PG=C02H [SGH(C2H4)]\\@


 FRICTION IS A DRAG,
 AND ENTROPY AIN'T WHAT IT USED TO BE.
 Job cpu time:       0 days  0 hours  3 minutes 32.7 seconds.
 Elapsed time:       0 days  0 hours  0 minutes 27.0 seconds.
 File lengths (MBytes):  RWF=     10 Int=      0 D2E=      0 Chk=      2 Scr=      1
 Normal termination of Gaussian 16 at Tue Nov 19 10:53:36 2024.
