Title Card Required                                                     
FOpt      UM062X                                                      6-311+G(d,p)        
Number of atoms                            I                4
Info1-9                                    I   N=           9
          14          14           0           0           0         110
           2          18        -502
Full Title                                 C   N=           2
Title Card Required     
Route                                      C   N=           8
#p opt UM062X/6-311+G** nosymm int=superfine SCF=(MaxCycle=2
00,NoVarAcc,noincfock) guess=read   
Charge                                     I                0
Multiplicity                               I                1
Number of electrons                        I               26
Number of alpha electrons                  I               13
Number of beta electrons                   I               13
Number of basis functions                  I               64
Number of independent functions            I               64
Number of point charges in /Mol/           I                0
Number of translation vectors              I                0
Atomic numbers                             I   N=           4
           8          16           1           1
Nuclear charges                            R   N=           4
  8.00000000E+00  1.60000000E+01  1.00000000E+00  1.00000000E+00
Current cartesian coordinates              R   N=          12
 -2.71372238E+00  1.07155802E-04 -2.20652655E-04  2.71361727E+00 -4.16015801E-04
  5.14547442E-04 -2.75751772E+00 -3.12337321E-01  1.81452365E+00  2.71599200E+00
 -3.96412771E-04  2.54662768E+00
Number of symbols in /Mol/                 I                0
Force Field                                I                0
Atom Types                                 C   N=           4
                                                
Int Atom Types                             I   N=           4
           0           0           0           0
MM charges                                 R   N=           4
  0.00000000E+00  0.00000000E+00  0.00000000E+00  0.00000000E+00
Integer atomic weights                     I   N=           4
          16          32           1           1
Real atomic weights                        R   N=           4
  1.59949146E+01  3.19720718E+01  1.00782504E+00  1.00782504E+00
Atom fragment info                         I   N=           4
           0           0           0           0
Atom residue num                           I   N=           4
           0           0           0           0
Nuclear spins                              I   N=           4
           0           0           1           1
Nuclear ZEff                               R   N=           4
 -5.60000000E+00 -1.36000000E+01 -1.00000000E+00 -1.00000000E+00
Nuclear ZNuc                               R   N=           4
  8.00000000E+00  1.60000000E+01  1.00000000E+00  1.00000000E+00
Nuclear QMom                               R   N=           4
  0.00000000E+00  0.00000000E+00  0.00000000E+00  0.00000000E+00
Nuclear GFac                               R   N=           4
  0.00000000E+00  0.00000000E+00  2.79284600E+00  2.79284600E+00
MicOpt                                     I   N=           4
          -2          -2          -1          -1
Number of residues                         I                0
Number of secondary structures             I                0
Redundant internal dimensions              I   N=           4
          12           8           4           0
Redundant internal coordinate indices      I   N=          48
           1          -1           0           0           1          -2
           0           0           1          -3           0           0
           2          -1           0           0           2          -2
           0           0           2          -3           0           0
           1           3           0           0           2           4
           0           0           2           1           3          -5
           1           2           4          -5           2           1
           3          -7           1           2           4          -7
Redundant internal coordinates             R   N=          12
 -2.71372238E+00  1.07155802E-04 -2.20652655E-04  2.71361727E+00 -4.16015801E-04
  5.14547442E-04  1.84196539E+00  2.54611424E+00  1.70996259E+00  3.13324162E+00
  1.59478924E+00  4.71132083E+00
ZRed-IntVec                                I   N=          12
          -1          -1          -1          -1          -1          -1
           0           0           0           0           0           0
ZRed-FPVec                                 R   N=          12
  0.00000000E+00  0.00000000E+00  0.00000000E+00  0.00000000E+00  0.00000000E+00
  0.00000000E+00  0.00000000E+00  0.00000000E+00  0.00000000E+00  0.00000000E+00
  0.00000000E+00  0.00000000E+00
ZRed-Constraint1                           R   N=          12
 -2.71365900E+00  0.00000000E+00  0.00000000E+00  2.71365900E+00  0.00000000E+00
  0.00000000E+00  1.83597177E+00  2.59721753E+00  3.14071774E+00  3.14233270E+00
  3.14159265E+00  3.14158686E+00
ZRed-Constraint2                           R   N=          12
 -2.71365900E+00  0.00000000E+00  0.00000000E+00  2.71365900E+00  0.00000000E+00
  0.00000000E+00  0.00000000E+00  0.00000000E+00  0.00000000E+00  0.00000000E+00
  0.00000000E+00  0.00000000E+00
Number of contracted shells                I               27
Number of primitive shells                 I               49
Pure/Cartesian d shells                    I                0
Pure/Cartesian f shells                    I                0
Highest angular momentum                   I                2
Largest degree of contraction              I                6
Shell types                                I   N=          27
           0          -1          -1          -1          -1          -2
           0           0           0           0           0           0
          -1           1           1           1           1           1
          -2           0           0           0           1           0
           0           0           1
Number of primitives per shell             I   N=          27
           6           3           1           1           1           1
           6           3           1           1           1           1
           1           4           2           1           1           1
           1           3           1           1           1           3
           1           1           1
Shell to atom map                          I   N=          27
           1           1           1           1           1           1
           2           2           2           2           2           2
           2           2           2           2           2           2
           2           3           3           3           3           4
           4           4           4
Primitive exponents                        R   N=          49
  8.58850000E+03  1.29723000E+03  2.99296000E+02  8.73771000E+01  2.56789000E+01
  3.74004000E+00  4.21175000E+01  9.62837000E+00  2.85332000E+00  9.05661000E-01
  2.55611000E-01  8.45000000E-02  1.29200000E+00  9.34134000E+04  1.39617000E+04
  3.16991000E+03  9.02456000E+02  2.97158000E+02  1.08702000E+02  1.08702000E+02
  4.31553000E+01  1.81079000E+01  5.56009000E+00  2.13183000E+00  4.20403000E-01
  1.36045000E-01  4.05000000E-02  4.95040000E+02  1.17221000E+02  3.77749000E+01
  1.40584000E+01  5.56574000E+00  2.26297000E+00  8.07994000E-01  2.77460000E-01
  7.71410000E-02  6.50000000E-01  3.38650000E+01  5.09479000E+00  1.15879000E+00
  3.25840000E-01  1.02741000E-01  7.50000000E-01  3.38650000E+01  5.09479000E+00
  1.15879000E+00  3.25840000E-01  1.02741000E-01  7.50000000E-01
Contraction coefficients                   R   N=          49
  1.89515008E-03  1.43859006E-02  7.07320031E-02  2.40001011E-01  5.94797026E-01
  2.80802012E-01  1.13889012E-01  9.20811101E-01 -3.27447036E-03  1.00000000E+00
  1.00000000E+00  1.00000000E+00  1.00000000E+00  7.42999957E-04  5.79299966E-03
  2.99539983E-02  1.19027993E-01  3.68431979E-01  5.77298966E-01  1.43186060E-01
  6.24465262E-01  2.83366119E-01  1.00000000E+00  1.00000000E+00  1.00000000E+00
  1.00000000E+00  1.00000000E+00  8.30900251E-03  6.40240194E-02  2.77614084E-01
  7.45076225E-01  6.13711672E-01  4.43817763E-01  1.00000000E+00  1.00000000E+00
  1.00000000E+00  1.00000000E+00  2.54938145E-02  1.90373109E-01  8.52161486E-01
  1.00000000E+00  1.00000000E+00  1.00000000E+00  2.54938145E-02  1.90373109E-01
  8.52161486E-01  1.00000000E+00  1.00000000E+00  1.00000000E+00
P(S=P) Contraction coefficients            R   N=          49
  0.00000000E+00  0.00000000E+00  0.00000000E+00  0.00000000E+00  0.00000000E+00
  0.00000000E+00  3.65113974E-02  2.37152983E-01  8.19701941E-01  1.00000000E+00
  1.00000000E+00  1.00000000E+00  0.00000000E+00  0.00000000E+00  0.00000000E+00
  0.00000000E+00  0.00000000E+00  0.00000000E+00  0.00000000E+00  0.00000000E+00
  0.00000000E+00  0.00000000E+00  0.00000000E+00  0.00000000E+00  0.00000000E+00
  0.00000000E+00  1.00000000E+00  0.00000000E+00  0.00000000E+00  0.00000000E+00
  0.00000000E+00  0.00000000E+00  0.00000000E+00  0.00000000E+00  0.00000000E+00
  0.00000000E+00  0.00000000E+00  0.00000000E+00  0.00000000E+00  0.00000000E+00
  0.00000000E+00  0.00000000E+00  0.00000000E+00  0.00000000E+00  0.00000000E+00
  0.00000000E+00  0.00000000E+00  0.00000000E+00  0.00000000E+00
Coordinates of each shell                  R   N=          81
 -2.71372238E+00  1.07155802E-04 -2.20652655E-04 -2.71372238E+00  1.07155802E-04
 -2.20652655E-04 -2.71372238E+00  1.07155802E-04 -2.20652655E-04 -2.71372238E+00
  1.07155802E-04 -2.20652655E-04 -2.71372238E+00  1.07155802E-04 -2.20652655E-04
 -2.71372238E+00  1.07155802E-04 -2.20652655E-04  2.71361727E+00 -4.16015801E-04
  5.14547442E-04  2.71361727E+00 -4.16015801E-04  5.14547442E-04  2.71361727E+00
 -4.16015801E-04  5.14547442E-04  2.71361727E+00 -4.16015801E-04  5.14547442E-04
  2.71361727E+00 -4.16015801E-04  5.14547442E-04  2.71361727E+00 -4.16015801E-04
  5.14547442E-04  2.71361727E+00 -4.16015801E-04  5.14547442E-04  2.71361727E+00
 -4.16015801E-04  5.14547442E-04  2.71361727E+00 -4.16015801E-04  5.14547442E-04
  2.71361727E+00 -4.16015801E-04  5.14547442E-04  2.71361727E+00 -4.16015801E-04
  5.14547442E-04  2.71361727E+00 -4.16015801E-04  5.14547442E-04  2.71361727E+00
 -4.16015801E-04  5.14547442E-04 -2.75751772E+00 -3.12337321E-01  1.81452365E+00
 -2.75751772E+00 -3.12337321E-01  1.81452365E+00 -2.75751772E+00 -3.12337321E-01
  1.81452365E+00 -2.75751772E+00 -3.12337321E-01  1.81452365E+00  2.71599200E+00
 -3.96412771E-04  2.54662768E+00  2.71599200E+00 -3.96412771E-04  2.54662768E+00
  2.71599200E+00 -3.96412771E-04  2.54662768E+00  2.71599200E+00 -3.96412771E-04
  2.54662768E+00
Num ILSW                                   I              100
ILSW                                       I   N=         100
           1           0           0           0           2           0
           0           0           0           0        4336          -1
           7           0           0           0           0           0
           0           0           0           0           1           0
           0           1           1           0           0           0
           0           0      100000           0          -1           0
           0           0           0           0           0           0
           0           0           0           1           0           0
           0 -2000000000           1           0           0           0
           0           0           4          52           0           0
           0           0          55           0           0           0
           0           0           0           4           0           1
           0           0           0           0           0           0
           0           0           0           0           0           0
           0           0           0           0           0           0
           0           0           0           0           0           0
           0           0           0           0
Num RLSW                                   I               52
RLSW                                       R   N=          52
  1.00000000E+00  1.00000000E+00  1.00000000E+00  1.00000000E+00  5.40000000E-01
  0.00000000E+00  0.00000000E+00  1.00000000E+00  0.00000000E+00  0.00000000E+00
  0.00000000E+00  0.00000000E+00  1.00000000E+00  0.00000000E+00  0.00000000E+00
  0.00000000E+00  0.00000000E+00  1.00000000E+00  0.00000000E+00  0.00000000E+00
  0.00000000E+00  0.00000000E+00  1.00000000E+00  0.00000000E+00  0.00000000E+00
  0.00000000E+00  0.00000000E+00  1.00000000E+00  0.00000000E+00  0.00000000E+00
  0.00000000E+00  0.00000000E+00  1.00000000E+00  0.00000000E+00  0.00000000E+00
  0.00000000E+00  0.00000000E+00  0.00000000E+00  1.00000000E+00  1.00000000E+00
  0.00000000E+00  1.00000000E+00  0.00000000E+00  0.00000000E+00  0.00000000E+00
  0.00000000E+00  0.00000000E+00  0.00000000E+00  0.00000000E+00  0.00000000E+00
  0.00000000E+00  0.00000000E+00
MxBond                                     I                2
NBond                                      I   N=           4
           2           2           1           1
IBond                                      I   N=           8
           2           3           1           4           1           0
           2           0
RBond                                      R   N=           8
  1.00000000E-01  1.00000000E+00  1.00000000E-01  1.00000000E+00  1.00000000E+00
  0.00000000E+00  1.00000000E+00  0.00000000E+00
Virial Ratio                               R      2.001380721253116E+00
SCF Energy                                 R     -4.744637420429746E+02
Total Energy                               R     -4.744637420429746E+02
S**2                                       R      9.090317399708621E-01
S**2 after annihilation                    R      3.344493512072587E-02
RMS Force                                  R      7.597655816487811E-04
RMS Density                                R      6.634445060904861E-09
Job Status                                 I                3
Nuclear derivative order                   I                1
External E-field                           R   N=          35
  0.00000000E+00  0.00000000E+00  0.00000000E+00  0.00000000E+00  0.00000000E+00
  0.00000000E+00  0.00000000E+00  0.00000000E+00  0.00000000E+00  0.00000000E+00
  0.00000000E+00  0.00000000E+00  0.00000000E+00  0.00000000E+00  0.00000000E+00
  0.00000000E+00  0.00000000E+00  0.00000000E+00  0.00000000E+00  0.00000000E+00
  0.00000000E+00  0.00000000E+00  0.00000000E+00  0.00000000E+00  0.00000000E+00
  0.00000000E+00  0.00000000E+00  0.00000000E+00  0.00000000E+00  0.00000000E+00
  0.00000000E+00  0.00000000E+00  0.00000000E+00  0.00000000E+00  0.00000000E+00
IOpCl                                      I                1
IROHF                                      I                0
Alpha Orbital Energies                     R   N=          64
 -8.99372805E+01 -1.96817415E+01 -8.29789237E+00 -6.22952182E+00 -6.21721417E+00
 -6.21145976E+00 -1.06926052E+00 -8.30443608E-01 -5.36863473E-01 -4.78149653E-01
 -4.07295302E-01 -3.81601374E-01 -3.38932258E-01 -1.04178726E-01  1.53824964E-02
  4.91955257E-02  5.63151540E-02  6.07643658E-02  7.77206640E-02  1.28568827E-01
  1.79308035E-01  1.94817584E-01  2.07611371E-01  2.69655250E-01  3.21777709E-01
  3.53191064E-01  3.57288585E-01  4.01363176E-01  5.15528894E-01  6.11858752E-01
  7.11809813E-01  7.33325809E-01  7.92817841E-01  8.26594304E-01  9.71973216E-01
  1.03041367E+00  1.06794316E+00  1.08372301E+00  1.36664397E+00  1.37251151E+00
  1.38978869E+00  1.47006856E+00  1.47800031E+00  1.66084179E+00  1.67408267E+00
  1.68395638E+00  2.03655821E+00  2.09569342E+00  2.46092238E+00  2.54664561E+00
  2.87764278E+00  2.92120506E+00  3.15347240E+00  3.16423580E+00  3.83843188E+00
  5.02327222E+00  5.06914191E+00  5.49277800E+00  7.86363212E+00  1.74389157E+01
  1.74444415E+01  1.74887520E+01  4.98663967E+01  1.89129720E+02
Beta Orbital Energies                      R   N=          64
 -8.99286860E+01 -1.96966535E+01 -8.29578265E+00 -6.21453863E+00 -6.20871748E+00
 -6.20665536E+00 -1.14694287E+00 -7.84148277E-01 -5.67636742E-01 -5.04705430E-01
 -4.61871403E-01 -4.41805688E-01 -3.19218437E-01 -1.28611793E-01  1.08696016E-02
  4.61348610E-02  5.60325628E-02  6.07341585E-02  8.24686172E-02  1.23655842E-01
  1.77587748E-01  1.85663689E-01  2.02877879E-01  2.59309872E-01  3.15388356E-01
  3.50698392E-01  3.51823269E-01  4.05619904E-01  5.04302038E-01  6.29523038E-01
  7.53440378E-01  7.58317971E-01  8.41785538E-01  8.83756330E-01  9.93099354E-01
  1.02415222E+00  1.03943044E+00  1.05563365E+00  1.35118099E+00  1.36474026E+00
  1.36846260E+00  1.47783154E+00  1.49258457E+00  1.68081489E+00  1.69569633E+00
  1.74420727E+00  2.02046324E+00  2.11150726E+00  2.45941535E+00  2.55354076E+00
  2.82146668E+00  2.83410033E+00  3.10579669E+00  3.14671237E+00  3.80045193E+00
  4.97262766E+00  5.01046239E+00  5.47041612E+00  7.87398056E+00  1.74532950E+01
  1.74934559E+01  1.75007046E+01  4.98711833E+01  1.89143751E+02
Alpha MO coefficients                      R   N=        4096
 -1.88050420E-07  1.03401475E-06  4.07286049E-06  1.00294121E-07 -6.11641799E-07
 -5.09051329E-06 -1.49263119E-05 -3.78805650E-07  2.26043712E-06 -1.24031999E-05
  2.60869793E-05 -1.14772948E-06  8.77608031E-06  2.43348237E-04  6.76159673E-05
 -1.75275367E-05  1.08032434E-04  1.33857256E-06  2.34954310E-06 -1.48423811E-06
  6.22755271E-06 -3.02995127E-07  4.10745737E-01  6.54421489E-01  1.54309001E-02
 -4.39599811E-03  1.63522795E-03 -9.53984909E-04  1.00900143E-04 -4.33290453E-05
 -1.36529903E-07  1.95069201E-05 -7.61513636E-06 -1.38284840E-08  8.36160438E-05
  5.28812719E-07  6.39086531E-08 -2.71758512E-05  5.08755271E-06 -1.49373796E-07
 -5.67506714E-06 -2.00571136E-05  1.79822676E-07  1.75528173E-04  1.10641656E-04
  6.71145804E-07 -2.08299678E-04  9.14442803E-05  1.76312199E-06 -1.11210355E-07
 -5.38401074E-06 -6.74588794E-08 -3.51366343E-06 -2.31291680E-06 -2.14237842E-04
 -7.39156018E-06 -1.50415895E-06  5.78156575E-06  2.61877405E-05 -2.13010111E-04
  3.05690633E-04 -2.67002137E-06 -2.29525263E-07  1.71915927E-04  5.52799661E-01
  4.69791340E-01  5.19296467E-05 -2.18294008E-04  1.29909449E-03  8.02898319E-03
  3.09511610E-05  2.54799051E-05 -1.56208031E-04 -3.42560404E-03 -2.03264930E-04
 -3.41137859E-05  2.05398982E-04  2.98485029E-03  5.09054698E-04 -7.06080314E-05
  4.15573402E-04  2.35666226E-04 -9.23251981E-06 -4.35091306E-05 -1.59286491E-04
  2.15734870E-05  3.15535602E-08  5.61526784E-07 -3.25349966E-06  3.99343514E-06
  2.38243159E-05 -1.33246101E-04 -7.23808940E-04  4.47252202E-04 -5.96262595E-06
  2.03412694E-05 -6.21783770E-08  8.27810271E-08 -2.07431520E-07  6.19949455E-06
  3.80332609E-09  1.49856039E-06 -3.37612423E-05  2.81171740E-07 -9.09385850E-06
  1.20781761E-04 -1.49311311E-06  4.02944222E-05  2.69210637E-05  5.81652928E-06
 -2.24747857E-04  2.20423472E-05 -2.21241916E-06 -6.34011507E-07 -3.23903134E-05
  1.68506867E-07  7.37948744E-05 -2.66318557E-05 -1.16218869E-03 -1.09673259E-05
 -7.86889794E-05  4.53065164E-04  2.78843081E-05 -1.01131147E-04  3.86452093E-04
  1.05964348E-05 -1.13936972E-06  1.28004286E-05  2.49809533E-06  1.48117124E-05
  4.04422729E-05  6.73937838E-07 -5.88201671E-06 -1.28989826E-04 -1.58558260E-04
 -5.48798107E-06  2.06058710E-05 -2.79671792E-05  4.04889003E-04 -1.06648430E-05
  9.92003187E-05  3.11716824E-03  8.58701643E-04 -2.44411297E-04  1.47192248E-03
  5.60478578E-06  2.23897065E-05 -1.52073828E-05  7.76402527E-05 -3.22580884E-06
 -1.19788218E-01 -3.20538497E-01  5.16270528E-01  5.98593405E-01  4.33260371E-02
 -1.54785415E-02  1.98846316E-03 -6.77258015E-04 -4.50530110E-07  1.85871578E-04
 -2.26121020E-04  8.06971752E-06  2.13145514E-03 -5.35554642E-04  1.04076348E-05
  4.75952128E-03  1.29376730E-05 -6.00296178E-06  5.34938676E-04 -2.80030578E-04
  1.63968670E-06  1.80017122E-03  1.52301202E-03  8.88863993E-06 -2.55356346E-03
  1.09013266E-03  2.64616787E-05 -3.41221144E-06  4.02307155E-04 -8.17176889E-05
 -6.59633631E-05  2.81308285E-05 -2.94387994E-03 -8.27659720E-05 -1.65476622E-05
  6.36698257E-05  1.53862029E-04 -2.05058730E-03  3.88543943E-03 -3.54412068E-05
 -2.42032621E-06  1.65969890E-03 -3.28011573E-07  2.88100461E-06 -5.39820208E-05
 -2.21308831E-07  5.12109194E-06 -4.50965933E-05  1.89117403E-04  4.73431324E-06
 -4.26011014E-05  6.85416380E-05 -1.72450908E-04  6.44200431E-05 -3.17873150E-04
  2.20896645E-04  4.62030243E-04 -4.59294639E-05  2.55798967E-04 -6.41020176E-05
 -2.46634335E-05  1.77778956E-05  1.13772081E-05  5.84378746E-06 -7.40392376E-05
 -2.02972980E-04  3.78231875E-04  2.92156858E-04  8.13343057E-05 -1.44187524E-04
 -1.60111455E-04 -2.79222526E-03  2.37619497E-04 -3.66305212E-05  3.78058792E-01
 -3.67238538E-02  6.10354453E-03  7.05242095E-01 -6.84698139E-02  1.14149406E-02
  5.37921789E-02 -5.16849526E-03  8.92724682E-04 -8.16357661E-03  7.59742331E-04
 -1.23722602E-04  5.29142345E-03 -4.46128164E-04  7.37521577E-06  3.41676854E-05
  5.01539209E-04 -4.73026635E-05 -5.09604877E-05  3.06422035E-06 -9.35582171E-05
  6.27579889E-04 -5.44045764E-04  1.30635698E-04  2.36330602E-05 -1.40104116E-04
 -3.78443402E-07  3.05293703E-05  5.32239255E-05  8.94083102E-05 -9.59017046E-06
  1.46646773E-05  1.97099600E-07  3.95576899E-07  1.34464742E-06  5.54794243E-09
 -6.66503275E-06 -5.85107628E-06 -3.72948479E-06 -8.84889483E-07  4.03691427E-05
  7.40242298E-05  8.19934421E-06 -1.41378685E-05 -4.46854739E-05 -1.86650634E-04
  4.38582455E-05  1.32208476E-05 -1.11308936E-05  1.09614809E-05 -1.95496402E-06
 -3.80714142E-06  1.11153383E-06 -2.04525375E-06  8.28533078E-04  2.23909679E-03
 -3.91453052E-03 -4.12902244E-03  8.90581852E-04  1.49954756E-04  5.02589193E-04
 -2.44012554E-05  3.33660884E-06 -2.08793646E-03 -6.19988277E-03 -4.73994800E-04
  3.79375784E-01 -1.15508736E-02 -8.82603655E-04  7.08610723E-01 -8.62436911E-04
 -6.51781821E-05  5.44144155E-02  1.19327895E-04  9.24916793E-06 -7.19296975E-03
 -2.90953261E-05 -6.41284411E-06  4.55836016E-03  8.43335277E-04 -5.88425948E-05
 -1.88261907E-06  5.18680962E-06  3.82219536E-07  4.26060601E-05 -1.83906309E-04
  1.97809452E-04 -5.96639672E-05 -2.34974617E-06  2.45657765E-05  5.44249977E-04
  7.89220255E-05 -1.12711449E-03  9.71554933E-06  2.84981655E-08  6.95822958E-04
 -2.58515308E-08  2.92030640E-07 -4.56442459E-06 -6.54729261E-06  4.94856856E-07
 -3.98572950E-06  1.66729387E-05  3.59243027E-05 -4.35322632E-06  1.08308517E-06
 -1.90181058E-05 -1.12733156E-04 -3.35080712E-05  4.92351743E-06  3.75773537E-05
  7.23935608E-05  1.62263096E-05 -6.62243458E-06 -4.14714110E-06  1.30984362E-06
  9.44364766E-07 -1.27156186E-05 -5.48527572E-06 -1.50442729E-05  3.52386161E-05
  1.19100934E-05 -5.62122251E-06 -3.40006712E-06 -1.19972844E-05 -2.38169223E-04
 -2.16926259E-03 -5.39580471E-06  3.67037916E-02  3.78476041E-01  1.06688789E-03
  6.84749591E-02  7.05714785E-01  1.99543943E-03  5.10372856E-03  5.20496747E-02
  1.52762219E-04 -7.11298283E-04 -7.02384690E-03 -1.94143342E-05  4.51649412E-04
  4.09403175E-03  7.77202256E-06  3.53658826E-06  5.03697958E-05  5.04568550E-04
 -4.07252389E-06 -4.59196984E-05 -1.30199677E-05  6.82415562E-05 -3.70915468E-05
  2.10869132E-05  5.48259175E-06 -1.42868648E-05  5.20583257E-07  2.94274609E-06
 -3.41220008E-07  8.41743993E-06  9.00301184E-05  2.12749338E-06 -1.17308233E-01
 -1.91771174E-01 -7.91103718E-04 -8.15609589E-03  4.90419408E-02  5.61519215E-01
 -1.75272511E-03 -1.26589968E-02  7.60718983E-02  4.10741791E-01  2.99036058E-03
 -3.93649977E-03  2.57032016E-02 -1.55968566E-02 -4.69884183E-03  5.37995575E-04
 -3.12540370E-03  1.32387276E-02 -4.15234537E-04 -3.46509752E-03 -3.06178043E-03
  5.20115816E-04  8.64594184E-04  2.43348433E-03 -4.90594425E-03 -9.88828621E-03
  1.70827918E-02  1.03981067E-02  9.21529926E-03 -8.07637596E-03 -3.46295445E-06
 -4.25894800E-04  1.37903061E-03  2.18739401E-05 -2.47507319E-04  2.70276235E-03
  3.67896832E-05 -4.96641441E-04 -3.25852017E-03 -2.64294868E-05  6.20371861E-04
 -9.59117443E-03 -1.89838248E-04  4.64383736E-04  1.49455895E-03 -2.12167732E-05
  3.92239958E-03 -9.88948299E-04 -4.39129993E-04 -1.39547705E-05  2.41833761E-03
 -2.12245150E-05  1.17402433E-01  1.07850874E-01  1.20051812E-02  9.72660632E-04
  5.04555621E-03 -2.86725109E-02  1.48575629E-03  2.97911973E-03 -4.97984128E-03
 -4.24779013E-04 -1.01959213E-05 -6.39310497E-04  4.74378879E-03  7.78932371E-03
  4.42215066E-03  7.16769162E-04 -3.13270714E-03 -2.31368132E-02  6.03278983E-03
  1.16015003E-03 -5.03390827E-03 -2.11392207E-02  4.75316278E-03 -5.12877957E-05
  1.94872341E-04  1.27208394E-03  3.61125281E-03  1.02802492E-03 -3.84083196E-03
 -7.05040970E-04  2.66914275E-04  1.41350636E-04  4.82771871E-04 -5.67689247E-05
  3.33080912E-02  9.45117900E-02 -1.97091209E-01 -3.70458012E-01  6.64606005E-01
  4.17389134E-01 -1.46371271E-02  6.86792374E-03  1.66593233E-04 -2.47508094E-03
  9.92882815E-05  7.17852534E-06 -1.66777042E-02  2.97045510E-04  2.17595839E-06
 -3.35887098E-02 -6.99591640E-04  1.05503859E-04  4.65193168E-02  7.33865799E-04
 -1.21734492E-04  6.37537328E-02 -3.52438508E-03 -6.85285266E-04  1.56597550E-02
  1.71652699E-02 -2.68968669E-04 -1.24367171E-04  1.80904068E-02 -3.29515324E-03
 -5.20283029E-03 -1.01796966E-02  1.09705678E-02  8.27728120E-04 -2.77461264E-04
  1.76822130E-03  9.78945754E-02  1.23521417E-01  5.92175633E-03 -2.82843716E-04
 -6.64749980E-05 -2.14073312E-02  4.13469251E-02  6.87474237E-02 -5.95587400E-03
 -4.17679101E-02  2.40368979E-01 -2.08654880E-01 -8.47485694E-03 -6.01344787E-02
  3.45870460E-01 -2.96848904E-01 -7.83309570E-03 -4.16975726E-02  2.38842936E-01
 -6.52534050E-02  1.77845785E-03 -3.71741106E-03  2.24722149E-02  1.67761236E-02
 -1.11702968E-04 -5.07696099E-03 -1.59892893E-04 -6.55280613E-05 -1.04478186E-03
 -2.97353750E-03  6.29194378E-03  1.19760391E-02 -2.14876274E-02 -2.82723890E-02
 -5.18616143E-03  1.15091421E-03  4.51117537E-04 -3.64982004E-03 -3.03000255E-03
  5.03691168E-04 -8.79222285E-03 -5.86816434E-03  9.72892795E-04 -1.71289839E-02
  7.90719590E-03 -1.34000797E-03  2.40208862E-02  1.94910876E-02 -2.85791643E-03
  4.41214173E-02  3.51110294E-03 -1.81829338E-03  1.11152971E-02  7.36932035E-03
 -2.27057407E-03 -1.47731439E-04 -2.74000988E-03  6.43158366E-04  1.66132257E-01
  2.61897103E-01  9.35933222E-02  1.84534445E-03  5.05849639E-03 -2.82202428E-02
  1.73575754E-02  2.83802048E-02  1.99787432E-02 -7.16490162E-04 -1.12074786E-04
 -2.49087715E-03 -6.13309060E-03 -1.02174817E-02 -4.68578999E-03  8.12024211E-03
 -3.03871391E-02  3.14591494E-02 -5.79662917E-03  1.17638584E-02 -4.43756829E-02
  4.45487399E-02 -9.42499363E-03  9.51318997E-03 -3.17284009E-02 -1.34798771E-02
 -7.61646804E-03  2.53803920E-03 -8.14587055E-03 -1.94393683E-03  1.38302714E-04
  8.04671697E-04 -2.95236306E-04  7.71060766E-05 -1.20781837E-02 -3.44434695E-02
  7.34502712E-02  1.37320440E-01 -2.51954192E-01 -3.03742312E-01 -2.23907730E-02
  9.24286957E-04 -3.50793925E-06 -2.35703226E-02  7.57512828E-04 -7.87612044E-05
 -8.11953831E-02  1.47953650E-03 -1.43810294E-04 -1.58790835E-01 -2.31608450E-03
  1.37134150E-04  2.30365214E-01 -2.74350033E-03  5.45674966E-04  4.01275507E-01
 -1.33448537E-02  3.09001274E-04  1.01902589E-01  5.76348524E-02 -1.71104685E-04
 -2.38272363E-05 -1.06212677E-02  1.89942031E-03 -2.00545214E-02 -3.25988351E-02
  5.57213243E-03  6.58995915E-04 -1.42908221E-04  2.91615635E-03  1.57163721E-01
  2.87239979E-01  1.54128624E-01 -4.44290400E-04 -1.63079483E-04 -2.51961043E-02
  1.05844275E-03  1.77139506E-03  2.04700469E-02  2.92145984E-01  5.20929519E-02
 -5.72705475E-03  2.97523973E-02  4.27232557E-01  7.60922840E-02 -6.53515056E-03
  2.89048608E-02  3.98154206E-01  7.19840183E-02  4.99533954E-03  7.06893038E-03
  8.87631540E-02  1.82592019E-02  4.27830780E-03  1.09266626E-03  1.40550007E-02
  2.61409002E-03  2.81093783E-04 -4.41864614E-05 -1.27932475E-04  2.88282188E-04
  4.46141530E-04 -1.30103276E-03  6.93881961E-04 -3.38682473E-03  6.97631730E-03
 -5.77189145E-03 -1.18616149E-03  9.13923298E-03 -1.09750535E-02  9.38620173E-04
  1.78273050E-02 -2.12010385E-02  1.87041407E-03 -2.59704169E-02  3.03077892E-02
 -2.99380789E-03 -5.38137219E-02  6.39055609E-02 -3.92484679E-03 -2.61964366E-02
  3.39239000E-02 -9.56009305E-04 -1.31345404E-03 -2.66181366E-03  2.17631303E-03
  9.29350711E-04 -4.20646939E-03  4.07211890E-04 -1.06834758E-03 -1.21311353E-03
  2.52044373E-03  3.55721290E-02  6.50183905E-03 -2.44236171E-03 -7.15017620E-03
  2.78703482E-03 -1.90253488E-03  2.18207870E-03  5.75243756E-04 -8.65394162E-03
 -1.45344522E-02 -4.02067565E-02  3.42877877E-02 -3.01011980E-04  4.78409147E-02
 -5.67921804E-02  4.99707319E-02  5.92578638E-05  5.17568284E-02 -6.55683908E-02
  4.91990798E-02 -6.81554889E-03  4.48333254E-03 -1.20490749E-02  1.14914484E-02
 -8.99495034E-03  1.15032683E-03 -1.99900048E-03  1.76701420E-03 -1.88472156E-03
  3.28637940E-04  3.83268445E-04  1.09058473E-03 -2.30872155E-03 -4.58042956E-03
  1.15737625E-02 -4.55784691E-04  3.86159615E-03 -7.45517172E-02  3.96468272E-03
  9.37348308E-03 -1.00634483E-01  6.86577713E-03 -2.32862988E-06 -1.96138361E-01
  1.34175447E-02 -6.22150509E-05  2.87275749E-01 -1.99804831E-02  4.55321877E-04
  5.93047096E-01 -4.08831114E-02 -1.22474050E-03  3.16992857E-01 -1.87127317E-02
 -1.09918288E-02  2.08927367E-03  2.10298894E-02 -1.33314394E-03 -3.24320569E-03
 -9.06314217E-04 -1.16027128E-03  1.29592339E-02 -1.90895998E-02 -6.04729737E-03
  4.62498950E-03 -2.48732258E-03  1.48133421E-03  1.02400722E-02 -4.99315983E-03
  1.86843986E-02 -1.22506800E-03 -8.83693685E-04 -4.75084798E-04 -8.12214434E-04
 -8.01647866E-03 -3.86727400E-02 -4.62582374E-03  3.04175365E-03 -1.14318159E-02