 Entering Gaussian System, Link 0=g16
 Initial command:
 /home/szhao/Apps/g16/l1.exe "/home/szhao/tmp/Gau-73107.inp" -scrdir="/home/szhao/tmp/"
 Default is to use a total of  16 processors:
                               16 via shared-memory
                                1 via Linda
 Entering Link 1 = /home/szhao/Apps/g16/l1.exe PID=     73109.
  
 Copyright (c) 1988,1990,1992,1993,1995,1998,2003,2009,2016,
            Gaussian, Inc.  All Rights Reserved.
  
 This is part of the Gaussian(R) 16 program.  It is based on
 the Gaussian(R) 09 system (copyright 2009, Gaussian, Inc.),
 the Gaussian(R) 03 system (copyright 2003, Gaussian, Inc.),
 the Gaussian(R) 98 system (copyright 1998, Gaussian, Inc.),
 the Gaussian(R) 94 system (copyright 1995, Gaussian, Inc.),
 the Gaussian 92(TM) system (copyright 1992, Gaussian, Inc.),
 the Gaussian 90(TM) system (copyright 1990, Gaussian, Inc.),
 the Gaussian 88(TM) system (copyright 1988, Gaussian, Inc.),
 the Gaussian 86(TM) system (copyright 1986, Carnegie Mellon
 University), and the Gaussian 82(TM) system (copyright 1983,
 Carnegie Mellon University). Gaussian is a federally registered
 trademark of Gaussian, Inc.
  
 This software contains proprietary and confidential information,
 including trade secrets, belonging to Gaussian, Inc.
  
 This software is provided under written license and may be
 used, copied, transmitted, or stored only in accord with that
 written license.
  
 The following legend is applicable only to US Government
 contracts under FAR:
  
                    RESTRICTED RIGHTS LEGEND
  
 Use, reproduction and disclosure by the US Government is
 subject to restrictions as set forth in subparagraphs (a)
 and (c) of the Commercial Computer Software - Restricted
 Rights clause in FAR 52.227-19.
  
 Gaussian, Inc.
 340 Quinnipiac St., Bldg. 40, Wallingford CT 06492
  
  
 ---------------------------------------------------------------
 Warning -- This program may not be used in any manner that
 competes with the business of Gaussian, Inc. or will provide
 assistance to any competitor of Gaussian, Inc.  The licensee
 of this program is prohibited from giving any competitor of
 Gaussian, Inc. access to this program.  By using this program,
 the user acknowledges that Gaussian, Inc. is engaged in the
 business of creating and licensing software in the field of
 computational chemistry and represents and warrants to the
 licensee that it is not a competitor of Gaussian, Inc. and that
 it will not use this program in any manner prohibited above.
 ---------------------------------------------------------------
  

 Cite this work as:
 Gaussian 16, Revision A.03,
 M. J. Frisch, G. W. Trucks, H. B. Schlegel, G. E. Scuseria, 
 M. A. Robb, J. R. Cheeseman, G. Scalmani, V. Barone, 
 G. A. Petersson, H. Nakatsuji, X. Li, M. Caricato, A. V. Marenich, 
 J. Bloino, B. G. Janesko, R. Gomperts, B. Mennucci, H. P. Hratchian, 
 J. V. Ortiz, A. F. Izmaylov, J. L. Sonnenberg, D. Williams-Young, 
 F. Ding, F. Lipparini, F. Egidi, J. Goings, B. Peng, A. Petrone, 
 T. Henderson, D. Ranasinghe, V. G. Zakrzewski, J. Gao, N. Rega, 
 G. Zheng, W. Liang, M. Hada, M. Ehara, K. Toyota, R. Fukuda, 
 J. Hasegawa, M. Ishida, T. Nakajima, Y. Honda, O. Kitao, H. Nakai, 
 T. Vreven, K. Throssell, J. A. Montgomery, Jr., J. E. Peralta, 
 F. Ogliaro, M. J. Bearpark, J. J. Heyd, E. N. Brothers, K. N. Kudin, 
 V. N. Staroverov, T. A. Keith, R. Kobayashi, J. Normand, 
 K. Raghavachari, A. P. Rendell, J. C. Burant, S. S. Iyengar, 
 J. Tomasi, M. Cossi, J. M. Millam, M. Klene, C. Adamo, R. Cammi, 
 J. W. Ochterski, R. L. Martin, K. Morokuma, O. Farkas, 
 J. B. Foresman, and D. J. Fox, Gaussian, Inc., Wallingford CT, 2016.
 
 ******************************************
 Gaussian 16:  ES64L-G16RevA.03 25-Dec-2016
                19-Nov-2024 
 ******************************************
 %chk=opt.chk
 %mem=4GB
 %nprocshared=8
 Will use up to    8 processors via shared memory.
 ---------------------------------------
 #p UM062X/6-311+G** force int=superfine
 ---------------------------------------
 1/10=7,30=1,38=1/1,3;
 2/12=2,17=6,18=5,40=1/2;
 3/5=4,6=6,7=111,11=2,25=1,30=1,71=1,74=-55,75=-7,116=2/1,2,3;
 4//1;
 5/5=2,38=5/2;
 6/7=2,8=2,9=2,10=2,28=1/1;
 7/29=1/1,2,3,16;
 1/10=7,30=1/3;
 99//99;
 Leave Link    1 at Tue Nov 19 11:55:25 2024, MaxMem=   536870912 cpu:               0.3 elap:               0.0
 (Enter /home/szhao/Apps/g16/l101.exe)
 -------------------
 Title Card Required
 -------------------
 Symbolic Z-matrix:
 Charge =  1 Multiplicity = 2
 C                    -0.88362   0.        0. 
 C                     0.88362   0.        0. 
 H                    -1.38094  -0.96408   0. 
 H                    -1.38096   0.96404   0. 
 H                     1.38094   0.96408   0. 
 H                     1.38096  -0.96404   0. 
 
 ITRead=  0  0  0  0  0  0
 MicOpt= -1 -1 -1 -1 -1 -1
 NAtoms=      6 NQM=        6 NQMF=       0 NMMI=      0 NMMIF=      0
                NMic=       0 NMicF=      0.
                    Isotopes and Nuclear Properties:
 (Nuclear quadrupole moments (NQMom) in fm**2, nuclear magnetic moments (NMagM)
  in nuclear magnetons)

  Atom         1           2           3           4           5           6
 IAtWgt=          12          12           1           1           1           1
 AtmWgt=  12.0000000  12.0000000   1.0078250   1.0078250   1.0078250   1.0078250
 NucSpn=           0           0           1           1           1           1
 AtZEff=  -0.0000000  -0.0000000  -0.0000000  -0.0000000  -0.0000000  -0.0000000
 NQMom=    0.0000000   0.0000000   0.0000000   0.0000000   0.0000000   0.0000000
 NMagM=    0.0000000   0.0000000   2.7928460   2.7928460   2.7928460   2.7928460
 AtZNuc=   6.0000000   6.0000000   1.0000000   1.0000000   1.0000000   1.0000000
 Leave Link  101 at Tue Nov 19 11:55:25 2024, MaxMem=   536870912 cpu:               1.1 elap:               0.1
 (Enter /home/szhao/Apps/g16/l103.exe)

 GradGradGradGradGradGradGradGradGradGradGradGradGradGradGradGradGradGrad
 Berny optimization.
 Initialization pass.
 Trust Radius=3.00D-01 FncErr=1.00D-07 GrdErr=1.00D-07 EigMax=2.50D+02 EigMin=1.00D-04
 Number of steps in this run=      2 maximum allowed number of steps=      2.
 GradGradGradGradGradGradGradGradGradGradGradGradGradGradGradGradGradGrad

 Leave Link  103 at Tue Nov 19 11:55:25 2024, MaxMem=   536870912 cpu:               0.2 elap:               0.0
 (Enter /home/szhao/Apps/g16/l202.exe)
                          Input orientation:                          
 ---------------------------------------------------------------------
 Center     Atomic      Atomic             Coordinates (Angstroms)
 Number     Number       Type             X           Y           Z
 ---------------------------------------------------------------------
      1          6           0       -0.883615    0.000000    0.000000
      2          6           0        0.883615    0.000000    0.000000
      3          1           0       -1.380936   -0.964078    0.000000
      4          1           0       -1.380960    0.964038    0.000000
      5          1           0        1.380936    0.964078    0.000000
      6          1           0        1.380960   -0.964038    0.000000
 ---------------------------------------------------------------------
                    Distance matrix (angstroms):
                    1          2          3          4          5
     1  C    0.000000
     2  C    1.767230   0.000000
     3  H    1.084792   2.461227   0.000000
     4  H    1.084768   2.461233   1.928116   0.000000
     5  H    2.461227   1.084792   3.368341   2.761896   0.000000
     6  H    2.461233   1.084768   2.761896   3.368335   1.928116
                    6
     6  H    0.000000
 Stoichiometry    C2H4(1+,2)
 Framework group  C2H[SGH(C2H4)]
 Deg. of freedom     5
 Full point group                 C2H     NOp   4
 Largest Abelian subgroup         C2H     NOp   4
 Largest concise Abelian subgroup C2      NOp   2
                         Standard orientation:                         
 ---------------------------------------------------------------------
 Center     Atomic      Atomic             Coordinates (Angstroms)
 Number     Number       Type             X           Y           Z
 ---------------------------------------------------------------------
      1          6           0        0.000000    0.883615    0.000000
      2          6           0       -0.000000   -0.883615    0.000000
      3          1           0        0.964078    1.380936    0.000000
      4          1           0       -0.964038    1.380960    0.000000
      5          1           0       -0.964078   -1.380936    0.000000
      6          1           0        0.964038   -1.380960    0.000000
 ---------------------------------------------------------------------
 Rotational constants (GHZ):         134.8856469          19.1240415          16.7493275
 Leave Link  202 at Tue Nov 19 11:55:25 2024, MaxMem=   536870912 cpu:               0.0 elap:               0.0
 (Enter /home/szhao/Apps/g16/l301.exe)
 Standard basis: 6-311+G(d,p) (5D, 7F)
 Ernie: Thresh=  0.10000D-02 Tol=  0.10000D-05 Strict=F.
 There are    27 symmetry adapted cartesian basis functions of AG  symmetry.
 There are     8 symmetry adapted cartesian basis functions of BG  symmetry.
 There are     8 symmetry adapted cartesian basis functions of AU  symmetry.
 There are    27 symmetry adapted cartesian basis functions of BU  symmetry.
 There are    26 symmetry adapted basis functions of AG  symmetry.
 There are     8 symmetry adapted basis functions of BG  symmetry.
 There are     8 symmetry adapted basis functions of AU  symmetry.
 There are    26 symmetry adapted basis functions of BU  symmetry.
    68 basis functions,   104 primitive gaussians,    70 cartesian basis functions
     8 alpha electrons        7 beta electrons
       nuclear repulsion energy        28.8939067381 Hartrees.
 IExCor= 4336 DFT=T Ex+Corr=M062X ExCW=0 ScaHFX=  0.540000
 ScaDFX=  1.000000  1.000000  1.000000  1.000000 ScalE2=  1.000000  1.000000
 IRadAn=      7 IRanWt=     -1 IRanGd=            0 ICorTp=0 IEmpDi=  4
 NAtoms=    6 NActive=    6 NUniq=    3 SFac= 4.00D+00 NAtFMM=   60 NAOKFM=F Big=F
 Integral buffers will be    131072 words long.
 Raffenetti 2 integral format.
 Two-electron integral symmetry is turned on.
 Leave Link  301 at Tue Nov 19 11:55:25 2024, MaxMem=   536870912 cpu:               0.3 elap:               0.0
 (Enter /home/szhao/Apps/g16/l302.exe)
 NPDir=0 NMtPBC=     1 NCelOv=     1 NCel=       1 NClECP=     1 NCelD=      1
         NCelK=      1 NCelE2=     1 NClLst=     1 CellRange=     0.0.
 One-electron integrals computed using PRISM.
 One-electron integral symmetry used in STVInt
 NBasis=    68 RedAO= T EigKep=  6.94D-04  NBF=    26     8     8    26
 NBsUse=    68 1.00D-06 EigRej= -1.00D+00 NBFU=    26     8     8    26
 Precomputing XC quadrature grid using
 IXCGrd= 4 IRadAn=           7 IRanWt=          -1 IRanGd=           0 AccXCQ= 0.00D+00.
 Generated NRdTot=       0 NPtTot=           0 NUsed=           0 NTot=          32
 NSgBfM=    70    70    70    70    70 MxSgAt=     6 MxSgA2=     6.
 Leave Link  302 at Tue Nov 19 11:55:26 2024, MaxMem=   536870912 cpu:               0.9 elap:               0.1
 (Enter /home/szhao/Apps/g16/l303.exe)
 DipDrv:  MaxL=1.
 Leave Link  303 at Tue Nov 19 11:55:26 2024, MaxMem=   536870912 cpu:               0.3 elap:               0.0
 (Enter /home/szhao/Apps/g16/l401.exe)
 ExpMin= 4.38D-02 ExpMax= 4.56D+03 ExpMxC= 6.82D+02 IAcc=3 IRadAn=         7 AccDes= 0.00D+00
 Harris functional with IExCor= 1009 and IRadAn=       7 diagonalized for initial guess.
 HarFok:  IExCor= 1009 AccDes= 0.00D+00 IRadAn=         7 IDoV= 1 UseB2=F ITyADJ=14
 ICtDFT=  3500011 ScaDFX=  1.000000  1.000000  1.000000  1.000000
 FoFCou: FMM=F IPFlag=           0 FMFlag=      100000 FMFlg1=           0
         NFxFlg=           0 DoJE=T BraDBF=F KetDBF=T FulRan=T
         wScrn=  0.000000 ICntrl=       500 IOpCl=  0 I1Cent=   200000004 NGrid=           0
         NMat0=    1 NMatS0=      1 NMatT0=    0 NMatD0=    1 NMtDS0=    0 NMtDT0=    0
 Petite list used in FoFCou.
 Harris En= -78.1391416189813    
 JPrj=0 DoOrth=F DoCkMO=F.
 Initial guess orbital symmetries:
 Alpha Orbitals:
       Occupied  (AG) (BU) (AG) (BU) (BU) (AG) (AG) (AU)
       Virtual   (BG) (BU) (AG) (BU) (BU) (AU) (AG) (AG) (BG) (AG)
                 (BU) (BU) (BU) (AG) (BU) (AG) (BU) (AG) (AU) (BG)
                 (BU) (BU) (AG) (AG) (AG) (BU) (BG) (AU) (AU) (AG)
                 (AG) (BU) (AG) (BU) (BG) (BU) (AU) (BG) (BU) (AG)
                 (BG) (AG) (AU) (BU) (BU) (AG) (BU) (AG) (AG) (BU)
                 (AU) (BU) (AG) (BG) (AG) (BU) (AG) (BU) (BU) (AG)
 Beta  Orbitals:
       Occupied  (AG) (BU) (AG) (BU) (BU) (AG) (AG)
       Virtual   (AU) (BG) (BU) (AG) (BU) (BU) (AU) (AG) (AG) (BG)
                 (AG) (BU) (BU) (BU) (AG) (BU) (AG) (BU) (AG) (AU)
                 (BG) (BU) (BU) (AG) (AG) (AG) (BU) (BG) (AU) (AU)
                 (AG) (AG) (BU) (AG) (BU) (BG) (BU) (AU) (BG) (BU)
                 (AG) (BG) (AG) (AU) (BU) (BU) (AG) (BU) (AG) (AG)
                 (BU) (AU) (BU) (AG) (BG) (AG) (BU) (AG) (BU) (BU)
                 (AG)
 The electronic state of the initial guess is 2-AU.
 Initial guess <Sx>= 0.0000 <Sy>= 0.0000 <Sz>= 0.5000 <S**2>= 0.7500 S= 0.5000
 Leave Link  401 at Tue Nov 19 11:55:26 2024, MaxMem=   536870912 cpu:               1.3 elap:               0.2
 (Enter /home/szhao/Apps/g16/l502.exe)
 Keep R1 and R2 ints in memory in symmetry-blocked form, NReq=9935231.
 FoFCou: FMM=F IPFlag=           0 FMFlag=           0 FMFlg1=           0
         NFxFlg=           0 DoJE=F BraDBF=F KetDBF=F FulRan=T
         wScrn=  0.000000 ICntrl=       600 IOpCl=  0 I1Cent=           0 NGrid=           0
         NMat0=    1 NMatS0=   2346 NMatT0=    0 NMatD0=    1 NMtDS0=    0 NMtDT0=    0
 Petite list used in FoFCou.
 UHF open shell SCF:
 Using DIIS extrapolation, IDIIS=  1040.
 NGot=   536870912 LenX=   535358062 LenY=   535352721
 Requested convergence on RMS density matrix=1.00D-08 within 128 cycles.
 Requested convergence on MAX density matrix=1.00D-06.
 Requested convergence on             energy=1.00D-06.
 No special actions if energy rises.

 Cycle   1  Pass 1  IDiag  1:
 E= -78.1180123303710    
 DIIS: error= 1.99D-02 at cycle   1 NSaved=   1.
 NSaved= 1 IEnMin= 1 EnMin= -78.1180123303710     IErMin= 1 ErrMin= 1.99D-02
 ErrMax= 1.99D-02  0.00D+00 EMaxC= 1.00D-01 BMatC= 5.88D-02 BMatP= 5.88D-02
 IDIUse=3 WtCom= 8.01D-01 WtEn= 1.99D-01
 Coeff-Com:  0.100D+01
 Coeff-En:   0.100D+01
 Coeff:      0.100D+01
 Gap=     0.255 Goal=   None    Shift=    0.000
 Gap=     0.340 Goal=   None    Shift=    0.000
 GapD=    0.255 DampG=1.000 DampE=0.500 DampFc=0.5000 IDamp=-1.
 Damping current iteration by 5.00D-01
 RMSDP=1.52D-03 MaxDP=2.05D-02              OVMax= 3.72D-02

 Cycle   2  Pass 1  IDiag  1:
 E= -78.1219231607311     Delta-E=       -0.003910830360 Rises=F Damp=T
 DIIS: error= 9.83D-03 at cycle   2 NSaved=   2.
 NSaved= 2 IEnMin= 2 EnMin= -78.1219231607311     IErMin= 2 ErrMin= 9.83D-03
 ErrMax= 9.83D-03  0.00D+00 EMaxC= 1.00D-01 BMatC= 1.39D-02 BMatP= 5.88D-02
 IDIUse=3 WtCom= 9.02D-01 WtEn= 9.83D-02
 Coeff-Com: -0.892D+00 0.189D+01
 Coeff-En:   0.000D+00 0.100D+01
 Coeff:     -0.804D+00 0.180D+01
 Gap=     0.254 Goal=   None    Shift=    0.000
 Gap=     0.333 Goal=   None    Shift=    0.000
 RMSDP=7.38D-04 MaxDP=1.11D-02 DE=-3.91D-03 OVMax= 8.00D-03

 Cycle   3  Pass 1  IDiag  1:
 E= -78.1257850253325     Delta-E=       -0.003861864601 Rises=F Damp=F
 DIIS: error= 1.16D-03 at cycle   3 NSaved=   3.
 NSaved= 3 IEnMin= 3 EnMin= -78.1257850253325     IErMin= 3 ErrMin= 1.16D-03
 ErrMax= 1.16D-03  0.00D+00 EMaxC= 1.00D-01 BMatC= 9.42D-05 BMatP= 1.39D-02
 IDIUse=3 WtCom= 9.88D-01 WtEn= 1.16D-02
 Coeff-Com: -0.153D+00 0.296D+00 0.856D+00
 Coeff-En:   0.000D+00 0.000D+00 0.100D+01
 Coeff:     -0.151D+00 0.293D+00 0.858D+00
 Gap=     0.254 Goal=   None    Shift=    0.000
 Gap=     0.334 Goal=   None    Shift=    0.000
 RMSDP=6.26D-05 MaxDP=1.56D-03 DE=-3.86D-03 OVMax= 2.28D-03

 Cycle   4  Pass 1  IDiag  1:
 E= -78.1258148943680     Delta-E=       -0.000029869036 Rises=F Damp=F
 DIIS: error= 4.07D-04 at cycle   4 NSaved=   4.
 NSaved= 4 IEnMin= 4 EnMin= -78.1258148943680     IErMin= 4 ErrMin= 4.07D-04
 ErrMax= 4.07D-04  0.00D+00 EMaxC= 1.00D-01 BMatC= 9.98D-06 BMatP= 9.42D-05
 IDIUse=3 WtCom= 9.96D-01 WtEn= 4.07D-03
 Coeff-Com:  0.268D-01-0.610D-01 0.661D-01 0.968D+00
 Coeff-En:   0.000D+00 0.000D+00 0.000D+00 0.100D+01
 Coeff:      0.267D-01-0.608D-01 0.659D-01 0.968D+00
 Gap=     0.254 Goal=   None    Shift=    0.000
 Gap=     0.334 Goal=   None    Shift=    0.000
 RMSDP=2.64D-05 MaxDP=9.14D-04 DE=-2.99D-05 OVMax= 9.74D-04

 Cycle   5  Pass 1  IDiag  1:
 E= -78.1258193005268     Delta-E=       -0.000004406159 Rises=F Damp=F
 DIIS: error= 1.64D-04 at cycle   5 NSaved=   5.
 NSaved= 5 IEnMin= 5 EnMin= -78.1258193005268     IErMin= 5 ErrMin= 1.64D-04
 ErrMax= 1.64D-04  0.00D+00 EMaxC= 1.00D-01 BMatC= 1.46D-06 BMatP= 9.98D-06
 IDIUse=3 WtCom= 9.98D-01 WtEn= 1.64D-03
 Coeff-Com:  0.248D-01-0.481D-01-0.129D+00 0.736D-01 0.108D+01
 Coeff-En:   0.000D+00 0.000D+00 0.000D+00 0.000D+00 0.100D+01
 Coeff:      0.247D-01-0.480D-01-0.129D+00 0.735D-01 0.108D+01
 Gap=     0.254 Goal=   None    Shift=    0.000
 Gap=     0.334 Goal=   None    Shift=    0.000
 RMSDP=1.25D-05 MaxDP=3.03D-04 DE=-4.41D-06 OVMax= 4.05D-04

 Cycle   6  Pass 1  IDiag  1:
 E= -78.1258200831297     Delta-E=       -0.000000782603 Rises=F Damp=F
 DIIS: error= 3.01D-05 at cycle   6 NSaved=   6.
 NSaved= 6 IEnMin= 6 EnMin= -78.1258200831297     IErMin= 6 ErrMin= 3.01D-05
 ErrMax= 3.01D-05  0.00D+00 EMaxC= 1.00D-01 BMatC= 4.39D-08 BMatP= 1.46D-06
 IDIUse=1 WtCom= 1.00D+00 WtEn= 0.00D+00
 Coeff-Com: -0.654D-02 0.133D-01 0.261D-01-0.715D-01-0.238D+00 0.128D+01
 Coeff:     -0.654D-02 0.133D-01 0.261D-01-0.715D-01-0.238D+00 0.128D+01
 Gap=     0.254 Goal=   None    Shift=    0.000
 Gap=     0.334 Goal=   None    Shift=    0.000
 RMSDP=2.60D-06 MaxDP=4.35D-05 DE=-7.83D-07 OVMax= 8.97D-05

 Cycle   7  Pass 1  IDiag  1:
 E= -78.1258201101518     Delta-E=       -0.000000027022 Rises=F Damp=F
 DIIS: error= 2.23D-06 at cycle   7 NSaved=   7.
 NSaved= 7 IEnMin= 7 EnMin= -78.1258201101518     IErMin= 7 ErrMin= 2.23D-06
 ErrMax= 2.23D-06  0.00D+00 EMaxC= 1.00D-01 BMatC= 2.94D-10 BMatP= 4.39D-08
 IDIUse=1 WtCom= 1.00D+00 WtEn= 0.00D+00
 Coeff-Com:  0.436D-03-0.910D-03-0.127D-02 0.589D-02 0.165D-01-0.156D+00
 Coeff-Com:  0.114D+01
 Coeff:      0.436D-03-0.910D-03-0.127D-02 0.589D-02 0.165D-01-0.156D+00
 Coeff:      0.114D+01
 Gap=     0.254 Goal=   None    Shift=    0.000
 Gap=     0.334 Goal=   None    Shift=    0.000
 RMSDP=1.60D-07 MaxDP=2.59D-06 DE=-2.70D-08 OVMax= 6.42D-06

 Cycle   8  Pass 1  IDiag  1:
 E= -78.1258201103262     Delta-E=       -0.000000000174 Rises=F Damp=F
 DIIS: error= 2.35D-07 at cycle   8 NSaved=   8.
 NSaved= 8 IEnMin= 8 EnMin= -78.1258201103262     IErMin= 8 ErrMin= 2.35D-07
 ErrMax= 2.35D-07  0.00D+00 EMaxC= 1.00D-01 BMatC= 4.33D-12 BMatP= 2.94D-10
 IDIUse=1 WtCom= 1.00D+00 WtEn= 0.00D+00
 Coeff-Com: -0.120D-04 0.281D-04 0.615D-05-0.196D-03-0.103D-02 0.130D-01
 Coeff-Com: -0.206D+00 0.119D+01
 Coeff:     -0.120D-04 0.281D-04 0.615D-05-0.196D-03-0.103D-02 0.130D-01
 Coeff:     -0.206D+00 0.119D+01
 Gap=     0.254 Goal=   None    Shift=    0.000
 Gap=     0.334 Goal=   None    Shift=    0.000
 RMSDP=2.44D-08 MaxDP=3.39D-07 DE=-1.74D-10 OVMax= 1.08D-06

 Cycle   9  Pass 1  IDiag  1:
 E= -78.1258201103291     Delta-E=       -0.000000000003 Rises=F Damp=F
 DIIS: error= 2.96D-08 at cycle   9 NSaved=   9.
 NSaved= 9 IEnMin= 9 EnMin= -78.1258201103291     IErMin= 9 ErrMin= 2.96D-08
 ErrMax= 2.96D-08  0.00D+00 EMaxC= 1.00D-01 BMatC= 3.81D-14 BMatP= 4.33D-12
 IDIUse=1 WtCom= 1.00D+00 WtEn= 0.00D+00
 Coeff-Com: -0.278D-05 0.502D-05 0.826D-05-0.277D-04 0.436D-04-0.929D-03
 Coeff-Com:  0.279D-01-0.226D+00 0.120D+01
 Coeff:     -0.278D-05 0.502D-05 0.826D-05-0.277D-04 0.436D-04-0.929D-03
 Coeff:      0.279D-01-0.226D+00 0.120D+01
 Gap=     0.254 Goal=   None    Shift=    0.000
 Gap=     0.334 Goal=   None    Shift=    0.000
 RMSDP=2.64D-09 MaxDP=3.39D-08 DE=-2.81D-12 OVMax= 1.05D-07

 SCF Done:  E(UM062X) =  -78.1258201103     A.U. after    9 cycles
            NFock=  9  Conv=0.26D-08     -V/T= 2.0095
 <Sx>= 0.0000 <Sy>= 0.0000 <Sz>= 0.5000 <S**2>= 0.7523 S= 0.5012
 <L.S>=  0.00000000000    
 KE= 7.738982560630D+01 PE=-2.338023775303D+02 EE= 4.939282507558D+01
 Annihilation of the first spin contaminant:
 S**2 before annihilation     0.7523,   after     0.7500
 Leave Link  502 at Tue Nov 19 11:55:27 2024, MaxMem=   536870912 cpu:              12.0 elap:               1.5
 (Enter /home/szhao/Apps/g16/l601.exe)
 Copying SCF densities to generalized density rwf, IOpCl= 1 IROHF=0.

 **********************************************************************

            Population analysis using the SCF density.

 **********************************************************************

 Orbital symmetries:
 Alpha Orbitals:
       Occupied  (AG) (BU) (AG) (BU) (BU) (AG) (AG) (AU)
       Virtual   (BG) (BU) (AG) (BU) (AU) (BU) (AG) (AG) (BG) (AG)
                 (BU) (BU) (BU) (AG) (BU) (AG) (BU) (AU) (AG) (BG)
                 (BU) (BU) (AG) (AG) (AG) (BU) (BG) (AU) (AU) (AG)
                 (AG) (BU) (AG) (BG) (BU) (BU) (AU) (BG) (BU) (BG)
                 (AG) (AG) (AU) (BU) (BU) (BU) (AG) (AG) (AG) (BU)
                 (AU) (BU) (AG) (BG) (AG) (BU) (AG) (BU) (BU) (AG)
 Beta  Orbitals:
       Occupied  (AG) (BU) (AG) (BU) (BU) (AG) (AG)
       Virtual   (AU) (BG) (AG) (BU) (BU) (AU) (AG) (BU) (AG) (AG)
                 (BG) (BU) (BU) (BU) (AG) (BU) (AG) (BU) (AU) (BG)
                 (AG) (BU) (BU) (AG) (AG) (AG) (BU) (BG) (AU) (AU)
                 (AG) (AG) (BU) (AG) (BG) (BU) (BU) (AU) (BG) (BU)
                 (BG) (AG) (AG) (AU) (BU) (BU) (BU) (AG) (AG) (AG)
                 (BU) (AU) (BU) (AG) (BG) (AG) (BU) (AG) (BU) (BU)
                 (AG)
 The electronic state is 2-AU.
 Alpha  occ. eigenvalues --  -10.91547 -10.91522  -1.10193  -0.99253  -0.81809
 Alpha  occ. eigenvalues --   -0.76119  -0.72264  -0.59712
 Alpha virt. eigenvalues --   -0.34288  -0.16765  -0.14401  -0.11337  -0.08822
 Alpha virt. eigenvalues --   -0.08318  -0.07405  -0.07292  -0.04692  -0.04472
 Alpha virt. eigenvalues --   -0.01739  -0.01426   0.02648   0.09731   0.18571
 Alpha virt. eigenvalues --    0.23270   0.25246   0.32889   0.34567   0.37390
 Alpha virt. eigenvalues --    0.41526   0.43882   0.46539   0.46652   0.54170
 Alpha virt. eigenvalues --    0.56684   0.78429   0.79332   0.82972   1.06175
 Alpha virt. eigenvalues --    1.15849   1.17167   1.20669   1.26990   1.27258
 Alpha virt. eigenvalues --    1.32788   1.46898   1.58338   1.62804   1.65793
 Alpha virt. eigenvalues --    1.67599   1.74383   1.79065   1.82598   2.11932
 Alpha virt. eigenvalues --    2.25979   2.26732   2.32115   2.37075   2.38236
 Alpha virt. eigenvalues --    2.42602   2.47235   2.49981   2.50405   2.56010
 Alpha virt. eigenvalues --    3.43369   3.48899   3.49111  23.46544  23.54336
  Beta  occ. eigenvalues --  -10.91319 -10.91302  -1.06832  -0.97143  -0.81086
  Beta  occ. eigenvalues --   -0.75767  -0.71016
  Beta virt. eigenvalues --   -0.37639  -0.26153  -0.15963  -0.15055  -0.11704
  Beta virt. eigenvalues --   -0.08712  -0.08040  -0.07396  -0.07296  -0.04505
  Beta virt. eigenvalues --   -0.04020  -0.01329  -0.00812   0.02040   0.10294
  Beta virt. eigenvalues --    0.18318   0.23059   0.25806   0.33346   0.35899
  Beta virt. eigenvalues --    0.36203   0.42523   0.45329   0.46448   0.47898
  Beta virt. eigenvalues --    0.52744   0.56228   0.81690   0.83060   0.85714
  Beta virt. eigenvalues --    1.09288   1.16817   1.18931   1.24847   1.28673
  Beta virt. eigenvalues --    1.30023   1.34679   1.48389   1.60709   1.66005
  Beta virt. eigenvalues --    1.67782   1.69049   1.75692   1.80960   1.85225
  Beta virt. eigenvalues --    2.15583   2.27272   2.30006   2.33151   2.40545
  Beta virt. eigenvalues --    2.41161   2.46520   2.49081   2.53775   2.54790
  Beta virt. eigenvalues --    2.57097   3.48230   3.53750   3.55226  23.47787
  Beta virt. eigenvalues --   23.55661
          Condensed to atoms (all electrons):
               1          2          3          4          5          6
     1  C    4.956654   0.390375   0.375130   0.375134  -0.017051  -0.017050
     2  C    0.390375   4.956654  -0.017051  -0.017050   0.375130   0.375134
     3  H    0.375130  -0.017051   0.364922  -0.005626   0.000736   0.000292
     4  H    0.375134  -0.017050  -0.005626   0.364918   0.000292   0.000736
     5  H   -0.017051   0.375130   0.000736   0.000292   0.364922  -0.005626
     6  H   -0.017050   0.375134   0.000292   0.000736  -0.005626   0.364918
          Atomic-Atomic Spin Densities.
               1          2          3          4          5          6
     1  C    0.462465   0.087544  -0.005965  -0.005964   0.000951   0.000951
     2  C    0.087544   0.462465   0.000951   0.000951  -0.005965  -0.005964
     3  H   -0.005965   0.000951  -0.014649  -0.000152  -0.000010  -0.000165
     4  H   -0.005964   0.000951  -0.000152  -0.014648  -0.000165  -0.000010
     5  H    0.000951  -0.005965  -0.000010  -0.000165  -0.014649  -0.000152
     6  H    0.000951  -0.005964  -0.000165  -0.000010  -0.000152  -0.014648
 Mulliken charges and spin densities:
               1          2
     1  C   -0.063192   0.539981
     2  C   -0.063192   0.539981
     3  H    0.281597  -0.019991
     4  H    0.281596  -0.019990
     5  H    0.281597  -0.019991
     6  H    0.281596  -0.019990
 Sum of Mulliken charges =   1.00000   1.00000
 Mulliken charges and spin densities with hydrogens summed into heavy atoms:
               1          2
     1  C    0.500000   0.500000
     2  C    0.500000   0.500000
 Electronic spatial extent (au):  <R**2>=             91.9423
 Charge=              1.0000 electrons
 Dipole moment (field-independent basis, Debye):
    X=             -0.0000    Y=              0.0000    Z=              0.0000  Tot=              0.0000
 Quadrupole moment (field-independent basis, Debye-Ang):
   XX=             -8.2986   YY=             -3.7112   ZZ=            -12.1573
   XY=              0.0000   XZ=              0.0000   YZ=              0.0000
 Traceless Quadrupole moment (field-independent basis, Debye-Ang):
   XX=             -0.2429   YY=              4.3445   ZZ=             -4.1016
   XY=              0.0000   XZ=              0.0000   YZ=              0.0000
 Octapole moment (field-independent basis, Debye-Ang**2):
  XXX=              0.0000  YYY=             -0.0000  ZZZ=              0.0000  XYY=              0.0000
  XXY=             -0.0000  XXZ=              0.0000  XZZ=              0.0000  YZZ=             -0.0000
  YYZ=              0.0000  XYZ=              0.0000
 Hexadecapole moment (field-independent basis, Debye-Ang**3):
 XXXX=            -17.9082 YYYY=            -68.6942 ZZZZ=            -11.9009 XXXY=              0.0002
 XXXZ=              0.0000 YYYX=             -0.0005 YYYZ=              0.0000 ZZZX=              0.0000
 ZZZY=              0.0000 XXYY=             -7.7993 XXZZ=             -6.2420 YYZZ=            -15.6348
 XXYZ=              0.0000 YYXZ=              0.0000 ZZXY=             -0.0001
 N-N= 2.889390673811D+01 E-N=-2.338023775136D+02  KE= 7.738982560630D+01
 Symmetry AG   KE= 3.941224953827D+01
 Symmetry BG   KE= 8.692955454504D-33
 Symmetry AU   KE= 1.084260898866D+00
 Symmetry BU   KE= 3.689331516916D+01
 Symmetry AG   SP= 3.408121812475D-15
 Symmetry BG   SP= 1.441165411722D-33
 Symmetry AU   SP= 1.000000000000D+00
 Symmetry BU   SP=-1.620357593639D-15
                          Isotropic Fermi Contact Couplings
        Atom                 a.u.       MegaHertz       Gauss      10(-4) cm-1
     1  C(13)              0.09317     104.74491      37.37559      34.93914
     2  C(13)              0.09317     104.74491      37.37559      34.93914
     3  H(1)              -0.00845     -37.74944     -13.46994     -12.59186
     4  H(1)              -0.00845     -37.74866     -13.46966     -12.59160
     5  H(1)              -0.00845     -37.74944     -13.46994     -12.59186
     6  H(1)              -0.00845     -37.74866     -13.46966     -12.59160
 --------------------------------------------------------
       Center         ----  Spin Dipole Couplings  ----
                      3XX-RR        3YY-RR        3ZZ-RR
 --------------------------------------------------------
     1   Atom       -0.283467     -0.276494      0.559961
     2   Atom       -0.283467     -0.276494      0.559961
     3   Atom        0.017108     -0.009684     -0.007424
     4   Atom        0.017106     -0.009682     -0.007424
     5   Atom        0.017108     -0.009684     -0.007424
     6   Atom        0.017106     -0.009682     -0.007424
 --------------------------------------------------------
                        XY            XZ            YZ
 --------------------------------------------------------
     1   Atom        0.000001      0.000000      0.000000
     2   Atom        0.000001      0.000000      0.000000
     3   Atom        0.037330      0.000000      0.000000
     4   Atom       -0.037332      0.000000      0.000000
     5   Atom        0.037330      0.000000      0.000000
     6   Atom       -0.037332      0.000000      0.000000
 --------------------------------------------------------


 ---------------------------------------------------------------------------------
              Anisotropic Spin Dipole Couplings in Principal Axis System
 ---------------------------------------------------------------------------------

       Atom             a.u.   MegaHertz   Gauss  10(-4) cm-1        Axes

              Baa    -0.2835   -38.039   -13.573   -12.688  1.0000 -0.0001 -0.0000
     1 C(13)  Bbb    -0.2765   -37.103   -13.239   -12.376  0.0001  1.0000  0.0000
              Bcc     0.5600    75.141    26.812    25.064  0.0000  0.0000  1.0000
 
              Baa    -0.2835   -38.039   -13.573   -12.688  1.0000 -0.0001 -0.0000
     2 C(13)  Bbb    -0.2765   -37.103   -13.239   -12.376  0.0001  1.0000  0.0000
              Bcc     0.5600    75.141    26.812    25.064  0.0000  0.0000  1.0000
 
              Baa    -0.0359   -19.180    -6.844    -6.398 -0.5754  0.8179 -0.0000
     3 H(1)   Bbb    -0.0074    -3.961    -1.413    -1.321  0.0000  0.0000  1.0000
              Bcc     0.0434    23.142     8.258     7.719  0.8179  0.5754  0.0000
 
              Baa    -0.0360   -19.181    -6.844    -6.398  0.5755  0.8178  0.0000
     4 H(1)   Bbb    -0.0074    -3.961    -1.413    -1.321  0.0000  0.0000  1.0000
              Bcc     0.0434    23.142     8.258     7.719  0.8178 -0.5755 -0.0000
 
              Baa    -0.0359   -19.180    -6.844    -6.398 -0.5754  0.8179 -0.0000
     5 H(1)   Bbb    -0.0074    -3.961    -1.413    -1.321  0.0000  0.0000  1.0000
              Bcc     0.0434    23.142     8.258     7.719  0.8179  0.5754  0.0000
 
              Baa    -0.0360   -19.181    -6.844    -6.398  0.5755  0.8178  0.0000
     6 H(1)   Bbb    -0.0074    -3.961    -1.413    -1.321  0.0000  0.0000  1.0000
              Bcc     0.0434    23.142     8.258     7.719  0.8178 -0.5755 -0.0000
 

 ---------------------------------------------------------------------------------

 No NMR shielding tensors so no spin-rotation constants.
 Leave Link  601 at Tue Nov 19 11:55:27 2024, MaxMem=   536870912 cpu:               1.4 elap:               0.2
 (Enter /home/szhao/Apps/g16/l701.exe)
 ... and contract with generalized density number  0.
 Compute integral first derivatives.
 Leave Link  701 at Tue Nov 19 11:55:28 2024, MaxMem=   536870912 cpu:               0.7 elap:               0.1
 (Enter /home/szhao/Apps/g16/l702.exe)
 L702 exits ... SP integral derivatives will be done elsewhere.
 Leave Link  702 at Tue Nov 19 11:55:28 2024, MaxMem=   536870912 cpu:               0.3 elap:               0.0
 (Enter /home/szhao/Apps/g16/l703.exe)
 Integral derivatives from FoFJK, PRISM(SPDF).
 Compute integral first derivatives, UseDBF=F ICtDFT=           0.
 Calling FoFJK, ICntrl=      2127 FMM=F ISym2X=1 I1Cent= 0 IOpClX= 1 NMat=1 NMatS=1 NMatT=0.
 FoFJK:  IHMeth= 1 ICntrl=    2127 DoSepK=F KAlg= 0 I1Cent=           0 FoldK=F
 IRaf=         0 NMat=       1 IRICut=       1 DoRegI=T DoRafI=F ISym2E= 1 IDoP0=0 IntGTp=1.
 FoFCou: FMM=F IPFlag=           0 FMFlag=      100000 FMFlg1=         800
         NFxFlg=           0 DoJE=F BraDBF=F KetDBF=F FulRan=T
         wScrn=  0.000000 ICntrl=      2127 IOpCl=  1 I1Cent=           0 NGrid=           0
         NMat0=    1 NMatS0=      1 NMatT0=    0 NMatD0=    1 NMtDS0=    0 NMtDT0=    0
 Petite list used in FoFCou.
 Leave Link  703 at Tue Nov 19 11:55:28 2024, MaxMem=   536870912 cpu:               3.5 elap:               0.4
 (Enter /home/szhao/Apps/g16/l716.exe)
 Dipole        =-2.22044605D-16 2.22044605D-15 0.00000000D+00
 ***** Axes restored to original set *****
 -------------------------------------------------------------------
 Center     Atomic                   Forces (Hartrees/Bohr)
 Number     Number              X              Y              Z
 -------------------------------------------------------------------
      1        6           0.129088762   -0.000019168    0.000000000
      2        6          -0.129088762    0.000019168   -0.000000000
      3        1           0.000001818    0.000006394    0.000000000
      4        1          -0.000004091    0.000009997   -0.000000000
      5        1          -0.000001818   -0.000006394   -0.000000000
      6        1           0.000004091   -0.000009997    0.000000000
 -------------------------------------------------------------------
 Cartesian Forces:  Max     0.129088762 RMS     0.043029588
 Z-matrix is all fixed cartesians, so copy forces.
 Force constants in Cartesian coordinates: 
                1             2             3             4             5 
      1  0.480647D+00
      2 -0.148476D-04  0.675798D+00
      3  0.000000D+00  0.000000D+00  0.819681D-01
      4 -0.151304D+00  0.000000D+00  0.000000D+00  0.480647D+00
      5  0.000000D+00 -0.100245D+00  0.000000D+00 -0.148476D-04  0.675798D+00
      6  0.000000D+00  0.000000D+00 -0.363619D-01  0.000000D+00  0.000000D+00
      7 -0.164663D+00 -0.108037D+00  0.000000D+00  0.000000D+00 -0.207706D-01
      8 -0.977806D-01 -0.298484D+00  0.000000D+00  0.000000D+00  0.107145D-01
      9  0.000000D+00  0.000000D+00 -0.297660D-01  0.000000D+00  0.000000D+00
     10 -0.164680D+00  0.108052D+00  0.000000D+00  0.000000D+00  0.207706D-01
     11  0.977956D-01 -0.298500D+00  0.000000D+00  0.000000D+00  0.107155D-01
     12  0.000000D+00  0.000000D+00 -0.297668D-01  0.000000D+00  0.000000D+00
     13  0.000000D+00 -0.207706D-01  0.000000D+00 -0.164663D+00 -0.108037D+00
     14  0.000000D+00  0.107145D-01  0.000000D+00 -0.977806D-01 -0.298484D+00
     15  0.000000D+00  0.000000D+00  0.696323D-02  0.000000D+00  0.000000D+00
     16  0.000000D+00  0.207706D-01  0.000000D+00 -0.164680D+00  0.108052D+00
     17  0.000000D+00  0.107155D-01  0.000000D+00  0.977956D-01 -0.298500D+00
     18  0.000000D+00  0.000000D+00  0.696334D-02  0.000000D+00  0.000000D+00
                6             7             8             9            10 
      6  0.819681D-01
      7  0.000000D+00  0.134591D+00
      8  0.000000D+00  0.113293D+00  0.295772D+00
      9  0.696323D-02  0.000000D+00  0.000000D+00  0.120942D-01
     10  0.000000D+00  0.300720D-01 -0.155127D-01  0.000000D+00  0.134608D+00
     11  0.000000D+00  0.155141D-01 -0.800295D-02  0.000000D+00 -0.113310D+00
     12  0.696334D-02  0.000000D+00  0.000000D+00  0.107086D-01  0.000000D+00
     13  0.000000D+00  0.000000D+00  0.000000D+00  0.000000D+00  0.000000D+00
     14  0.000000D+00  0.000000D+00  0.000000D+00  0.000000D+00  0.000000D+00
     15 -0.297660D-01  0.000000D+00  0.000000D+00  0.692956D-03  0.000000D+00
     16  0.000000D+00  0.000000D+00  0.000000D+00  0.000000D+00  0.000000D+00
     17  0.000000D+00  0.000000D+00  0.000000D+00  0.000000D+00  0.000000D+00
     18 -0.297668D-01  0.000000D+00  0.000000D+00 -0.692985D-03  0.000000D+00
               11            12            13            14            15 
     11  0.295787D+00
     12  0.000000D+00  0.120948D-01
     13  0.000000D+00  0.000000D+00  0.134591D+00
     14  0.000000D+00  0.000000D+00  0.113293D+00  0.295772D+00
     15  0.000000D+00 -0.692985D-03  0.000000D+00  0.000000D+00  0.120942D-01
     16  0.000000D+00  0.000000D+00  0.300720D-01 -0.155127D-01  0.000000D+00
     17  0.000000D+00  0.000000D+00  0.155141D-01 -0.800295D-02  0.000000D+00
     18  0.000000D+00  0.693014D-03  0.000000D+00  0.000000D+00  0.107086D-01
               16            17            18 
     16  0.134608D+00
     17 -0.113310D+00  0.295787D+00
     18  0.000000D+00  0.000000D+00  0.120948D-01
 Leave Link  716 at Tue Nov 19 11:55:28 2024, MaxMem=   536870912 cpu:               0.3 elap:               0.0
 (Enter /home/szhao/Apps/g16/l103.exe)

 GradGradGradGradGradGradGradGradGradGradGradGradGradGradGradGradGradGrad
 Berny optimization.
 Search for a local minimum.
 Step number   1 out of a maximum of    2
 All quantities printed in internal units (Hartrees-Bohrs-Radians)
 Second derivative matrix not updated -- first step.
 The second derivative matrix:
                          X1        Y1        Z1        X2        Y2
           X1           0.48065
           Y1          -0.00001   0.67580
           Z1           0.00000  -0.00000   0.08197
           X2          -0.15130  -0.00000  -0.00000   0.48065
           Y2          -0.00000  -0.10024  -0.00000  -0.00001   0.67580
           Z2          -0.00000  -0.00000  -0.03636   0.00000  -0.00000
           X3          -0.16466  -0.10804  -0.00000   0.00000  -0.02077
           Y3          -0.09778  -0.29848  -0.00000  -0.00000   0.01071
           Z3          -0.00000  -0.00000  -0.02977  -0.00000  -0.00000
           X4          -0.16468   0.10805  -0.00000  -0.00000   0.02077
           Y4           0.09780  -0.29850   0.00000  -0.00000   0.01072
           Z4          -0.00000   0.00000  -0.02977  -0.00000   0.00000
           X5           0.00000  -0.02077  -0.00000  -0.16466  -0.10804
           Y5          -0.00000   0.01071   0.00000  -0.09778  -0.29848
           Z5          -0.00000  -0.00000   0.00696  -0.00000  -0.00000
           X6          -0.00000   0.02077  -0.00000  -0.16468   0.10805
           Y6          -0.00000   0.01072   0.00000   0.09780  -0.29850
           Z6          -0.00000   0.00000   0.00696  -0.00000   0.00000
                          Z2        X3        Y3        Z3        X4
           Z2           0.08197
           X3          -0.00000   0.13459
           Y3           0.00000   0.11329   0.29577
           Z3           0.00696   0.00000   0.00000   0.01209
           X4          -0.00000   0.03007  -0.01551   0.00000   0.13461
           Y4           0.00000   0.01551  -0.00800   0.00000  -0.11331
           Z4           0.00696   0.00000  -0.00000   0.01071   0.00000
           X5          -0.00000   0.00000   0.00000  -0.00000  -0.00000
           Y5          -0.00000   0.00000   0.00000  -0.00000  -0.00000
           Z5          -0.02977  -0.00000  -0.00000   0.00069   0.00000
           X6          -0.00000  -0.00000  -0.00000   0.00000   0.00000
           Y6           0.00000  -0.00000  -0.00000   0.00000   0.00000
           Z6          -0.02977   0.00000   0.00000  -0.00069  -0.00000
                          Y4        Z4        X5        Y5        Z5
           Y4           0.29579
           Z4          -0.00000   0.01209
           X5          -0.00000   0.00000   0.13459
           Y5          -0.00000   0.00000   0.11329   0.29577
           Z5           0.00000  -0.00069   0.00000   0.00000   0.01209
           X6           0.00000  -0.00000   0.03007  -0.01551   0.00000
           Y6           0.00000  -0.00000   0.01551  -0.00800   0.00000
           Z6          -0.00000   0.00069   0.00000  -0.00000   0.01071
                          X6        Y6        Z6
           X6           0.13461
           Y6          -0.11331   0.29579
           Z6           0.00000  -0.00000   0.01209
 ITU=  0
     Eigenvalues ---    0.00277   0.04315   0.05643   0.06143   0.10168
     Eigenvalues ---    0.11734   0.19331   0.25388   0.51799   0.77355
     Eigenvalues ---    0.78510   0.94376
 Quadratic step=1.045D+00 exceeds max=3.000D-01 adjusted using Lamda=-2.240D-01.
 Angle between NR and scaled steps=  26.63 degrees.
 Angle between quadratic step and forces=  30.17 degrees.
 ClnCor:  largest displacement from symmetrization is 1.82D-14 for atom     6.
 Linear search not attempted -- first point.
 ClnCor:  largest displacement from symmetrization is 4.44D-16 for atom     5.
 B after Tr=    -0.000000   -0.000000    0.000000
         Rot=    1.000000   -0.000000   -0.000000   -0.000001 Ang=  -0.00 deg.
 Variable       Old X    -DE/DX   Delta X   Delta X   Delta X     New X
                                 (Linear)    (Quad)   (Total)
    X1       -1.66979   0.12909   0.00000   0.18341   0.18341  -1.48638
    Y1        0.00000  -0.00002   0.00000  -0.00001  -0.00001  -0.00001
    Z1       -0.00000   0.00000   0.00000   0.00000   0.00000   0.00000
    X2        1.66979  -0.12909   0.00000  -0.18341  -0.18341   1.48638
    Y2        0.00000   0.00002   0.00000   0.00001   0.00001   0.00001
    Z2        0.00000  -0.00000   0.00000  -0.00000  -0.00000  -0.00000
    X3       -2.60959   0.00000   0.00000   0.07253   0.07254  -2.53706
    Y3       -1.82184   0.00001   0.00000   0.02055   0.02055  -1.80130
    Z3       -0.00000   0.00000   0.00000   0.00000   0.00000   0.00000
    X4       -2.60964  -0.00000   0.00000   0.07254   0.07253  -2.53710
    Y4        1.82177   0.00001   0.00000  -0.02053  -0.02053   1.80123
    Z4       -0.00000  -0.00000   0.00000   0.00000   0.00000   0.00000
    X5        2.60959  -0.00000   0.00000  -0.07253  -0.07254   2.53706
    Y5        1.82184  -0.00001   0.00000  -0.02055  -0.02055   1.80130
    Z5        0.00000  -0.00000   0.00000  -0.00000  -0.00000  -0.00000
    X6        2.60964   0.00000   0.00000  -0.07254  -0.07253   2.53710
    Y6       -1.82177  -0.00001   0.00000   0.02053   0.02053  -1.80123
    Z6        0.00000   0.00000   0.00000  -0.00000  -0.00000  -0.00000
         Item               Value     Threshold  Converged?
 Maximum Force            0.129089     0.000450     NO 
 RMS     Force            0.043030     0.000300     NO 
 Maximum Displacement     0.183412     0.001800     NO 
 RMS     Displacement     0.070716     0.001200     NO 
 Predicted change in Energy=-3.375826D-02
 GradGradGradGradGradGradGradGradGradGradGradGradGradGradGradGradGradGrad

 Leave Link  103 at Tue Nov 19 11:55:28 2024, MaxMem=   536870912 cpu:               0.1 elap:               0.0
 (Enter /home/szhao/Apps/g16/l9999.exe)
 1\1\GINC-NODE01\Force\UM062X\6-311+G(d,p)\C2H4(1+,2)\SZHAO\19-Nov-2024
 \0\\#p UM062X/6-311+G** force int=superfine\\Title Card Required\\1,2\
 C,-0.883615,0.,0.\C,0.883615,0.,0.\H,-1.380936,-0.964078,0.\H,-1.38096
 ,0.964038,0.\H,1.380936,0.964078,0.\H,1.38096,-0.964038,0.\\Version=ES
 64L-G16RevA.03\State=2-AU\HF=-78.1258201\S2=0.752328\S2-1=0.\S2A=0.750
 004\RMSD=2.644e-09\RMSF=4.303e-02\Dipole=0.,0.,0.\Quadrupole=3.2300251
 ,-0.1805747,-3.0494504,0.0000134,0.,0.\PG=C02H [SGH(C2H4)]\\@


 We find comfort among those who agree with us -- growth among those who don't.
 -- Frank A. Clark
 Job cpu time:       0 days  0 hours  0 minutes 23.0 seconds.
 Elapsed time:       0 days  0 hours  0 minutes  2.9 seconds.
 File lengths (MBytes):  RWF=      6 Int=      0 D2E=      0 Chk=      1 Scr=      1
 Normal termination of Gaussian 16 at Tue Nov 19 11:55:28 2024.
