Title Card Required                                                     
Force     UM062X                                                      6-311+G(d,p)        
Number of atoms                            I                4
Info1-9                                    I   N=           9
          13          13           0           0           0         100
           5          18        -502
Full Title                                 C   N=           2
Title Card Required     
Route                                      C   N=           4
#p UM062X/6-311+G** force int=superfine         
Charge                                     I                1
Multiplicity                               I                2
Number of electrons                        I               13
Number of alpha electrons                  I                7
Number of beta electrons                   I                6
Number of basis functions                  I               56
Number of independent functions            I               56
Number of point charges in /Mol/           I                0
Number of translation vectors              I                0
Atomic numbers                             I   N=           4
           6           6           1           1
Nuclear charges                            R   N=           4
  6.00000000E+00  6.00000000E+00  1.00000000E+00  1.00000000E+00
Current cartesian coordinates              R   N=          12
  0.00000000E+00  0.00000000E+00 -1.50293374E+00  0.00000000E+00  0.00000000E+00
  1.50293266E+00  0.00000000E+00  0.00000000E+00 -3.56763906E+00  0.00000000E+00
  0.00000000E+00  3.56764554E+00
Number of symbols in /Mol/                 I                0
Force Field                                I                0
Atom Types                                 C   N=           4
                                                
Int Atom Types                             I   N=           4
           0           0           0           0
MM charges                                 R   N=           4
  0.00000000E+00  0.00000000E+00  0.00000000E+00  0.00000000E+00
Integer atomic weights                     I   N=           4
          12          12           1           1
Real atomic weights                        R   N=           4
  1.20000000E+01  1.20000000E+01  1.00782504E+00  1.00782504E+00
Atom fragment info                         I   N=           4
           0           0           0           0
Atom residue num                           I   N=           4
           0           0           0           0
Nuclear spins                              I   N=           4
           0           0           1           1
Nuclear ZEff                               R   N=           4
 -3.60000000E+00 -3.60000000E+00 -1.00000000E+00 -1.00000000E+00
Nuclear ZNuc                               R   N=           4
  6.00000000E+00  6.00000000E+00  1.00000000E+00  1.00000000E+00
Nuclear QMom                               R   N=           4
  0.00000000E+00  0.00000000E+00  0.00000000E+00  0.00000000E+00
Nuclear GFac                               R   N=           4
  0.00000000E+00  0.00000000E+00  2.79284600E+00  2.79284600E+00
MicOpt                                     I   N=           4
          -1          -1          -1          -1
Number of residues                         I                0
Number of secondary structures             I                0
SymInf integers                            I   N=          26
           1           4           1           1           1          -1
          -1           1          -1           1           1           1
          -1           1           0           0           0           0
           0           0           0           0           0           0
           0           0
RotTr to input orientation                 R   N=          12
  0.00000000E+00  0.00000000E+00 -1.00000000E+00  0.00000000E+00  1.00000000E+00
  0.00000000E+00  1.00000000E+00  0.00000000E+00  0.00000000E+00  5.39921750E-07
  0.00000000E+00  0.00000000E+00
Number of contracted shells                I               20
Number of primitive shells                 I               38
Pure/Cartesian d shells                    I                0
Pure/Cartesian f shells                    I                0
Highest angular momentum                   I                2
Largest degree of contraction              I                6
Shell types                                I   N=          20
           0          -1          -1          -1          -1          -2
           0          -1          -1          -1          -1          -2
           0           0           0           1           0           0
           0           1
Number of primitives per shell             I   N=          20
           6           3           1           1           1           1
           6           3           1           1           1           1
           3           1           1           1           3           1
           1           1
Shell to atom map                          I   N=          20
           1           1           1           1           1           1
           2           2           2           2           2           2
           3           3           3           3           4           4
           4           4
Primitive exponents                        R   N=          38
  4.56324000E+03  6.82024000E+02  1.54973000E+02  4.44553000E+01  1.30290000E+01
  1.82773000E+00  2.09642000E+01  4.80331000E+00  1.45933000E+00  4.83456000E-01
  1.45585000E-01  4.38000000E-02  6.26000000E-01  4.56324000E+03  6.82024000E+02
  1.54973000E+02  4.44553000E+01  1.30290000E+01  1.82773000E+00  2.09642000E+01
  4.80331000E+00  1.45933000E+00  4.83456000E-01  1.45585000E-01  4.38000000E-02
  6.26000000E-01  3.38650000E+01  5.09479000E+00  1.15879000E+00  3.25840000E-01
  1.02741000E-01  7.50000000E-01  3.38650000E+01  5.09479000E+00  1.15879000E+00
  3.25840000E-01  1.02741000E-01  7.50000000E-01
Contraction coefficients                   R   N=          38
  1.96665025E-03  1.52306019E-02  7.61269097E-02  2.60801033E-01  6.16462078E-01
  2.21006028E-01  1.14660081E-01  9.19999648E-01 -3.03068213E-03  1.00000000E+00
  1.00000000E+00  1.00000000E+00  1.00000000E+00  1.96665025E-03  1.52306019E-02
  7.61269097E-02  2.60801033E-01  6.16462078E-01  2.21006028E-01  1.14660081E-01
  9.19999648E-01 -3.03068213E-03  1.00000000E+00  1.00000000E+00  1.00000000E+00
  1.00000000E+00  2.54938145E-02  1.90373109E-01  8.52161486E-01  1.00000000E+00
  1.00000000E+00  1.00000000E+00  2.54938145E-02  1.90373109E-01  8.52161486E-01
  1.00000000E+00  1.00000000E+00  1.00000000E+00
P(S=P) Contraction coefficients            R   N=          38
  0.00000000E+00  0.00000000E+00  0.00000000E+00  0.00000000E+00  0.00000000E+00
  0.00000000E+00  4.02486927E-02  2.37593957E-01  8.15853851E-01  1.00000000E+00
  1.00000000E+00  1.00000000E+00  0.00000000E+00  0.00000000E+00  0.00000000E+00
  0.00000000E+00  0.00000000E+00  0.00000000E+00  0.00000000E+00  4.02486927E-02
  2.37593957E-01  8.15853851E-01  1.00000000E+00  1.00000000E+00  1.00000000E+00
  0.00000000E+00  0.00000000E+00  0.00000000E+00  0.00000000E+00  0.00000000E+00
  0.00000000E+00  0.00000000E+00  0.00000000E+00  0.00000000E+00  0.00000000E+00
  0.00000000E+00  0.00000000E+00  0.00000000E+00
Coordinates of each shell                  R   N=          60
  0.00000000E+00  0.00000000E+00 -1.50293374E+00  0.00000000E+00  0.00000000E+00
 -1.50293374E+00  0.00000000E+00  0.00000000E+00 -1.50293374E+00  0.00000000E+00
  0.00000000E+00 -1.50293374E+00  0.00000000E+00  0.00000000E+00 -1.50293374E+00
  0.00000000E+00  0.00000000E+00 -1.50293374E+00  0.00000000E+00  0.00000000E+00
  1.50293266E+00  0.00000000E+00  0.00000000E+00  1.50293266E+00  0.00000000E+00
  0.00000000E+00  1.50293266E+00  0.00000000E+00  0.00000000E+00  1.50293266E+00
  0.00000000E+00  0.00000000E+00  1.50293266E+00  0.00000000E+00  0.00000000E+00
  1.50293266E+00  0.00000000E+00  0.00000000E+00 -3.56763906E+00  0.00000000E+00
  0.00000000E+00 -3.56763906E+00  0.00000000E+00  0.00000000E+00 -3.56763906E+00
  0.00000000E+00  0.00000000E+00 -3.56763906E+00  0.00000000E+00  0.00000000E+00
  3.56764554E+00  0.00000000E+00  0.00000000E+00  3.56764554E+00  0.00000000E+00
  0.00000000E+00  3.56764554E+00  0.00000000E+00  0.00000000E+00  3.56764554E+00
Num ILSW                                   I              100
ILSW                                       I   N=         100
           1           0           0           0           2           0
           0           0           0           0        4336          -1
           7           0           0           0           2           0
           0           0           0           0           1           0
           1           0           0           0           0           0
           0           0      100000           0          -1           0
           0           0           0           0           0           0
           0           0           0           1           0           0
           0 -2000000000           1           0           0           0
           0           0           4          52           0           0
           0           0          55           0           0           0
           0           0           0           4           0           1
           0           0           0           0           0           0
           0           0           0           0           0           0
           0           0           0           0           0           0
           0           0           0           0           0           0
           0           0           0           0
Num RLSW                                   I               52
RLSW                                       R   N=          52
  1.00000000E+00  1.00000000E+00  1.00000000E+00  1.00000000E+00  5.40000000E-01
  0.00000000E+00  0.00000000E+00  1.00000000E+00  0.00000000E+00  0.00000000E+00
  0.00000000E+00  0.00000000E+00  1.00000000E+00  0.00000000E+00  0.00000000E+00
  0.00000000E+00  0.00000000E+00  1.00000000E+00  0.00000000E+00  0.00000000E+00
  0.00000000E+00  0.00000000E+00  1.00000000E+00  0.00000000E+00  0.00000000E+00
  0.00000000E+00  0.00000000E+00  1.00000000E+00  0.00000000E+00  0.00000000E+00
  0.00000000E+00  0.00000000E+00  1.00000000E+00  0.00000000E+00  0.00000000E+00
  0.00000000E+00  0.00000000E+00  0.00000000E+00  1.00000000E+00  1.00000000E+00
  0.00000000E+00  1.00000000E+00  0.00000000E+00  0.00000000E+00  0.00000000E+00
  0.00000000E+00  0.00000000E+00  0.00000000E+00  0.00000000E+00  0.00000000E+00
  0.00000000E+00  0.00000000E+00
MxBond                                     I                2
NBond                                      I   N=           4
           2           2           1           1
IBond                                      I   N=           8
           2           3           1           4           1           0
           2           0
RBond                                      R   N=           8
  1.00000000E+00  1.00000000E+00  1.00000000E+00  1.00000000E+00  1.00000000E+00
  0.00000000E+00  1.00000000E+00  0.00000000E+00
Virial Ratio                               R      2.013575931572740E+00
SCF Energy                                 R     -7.678411134869168E+01
Total Energy                               R     -7.678411134869168E+01
S**2                                       R      7.523570657423244E-01
S**2 after annihilation                    R      7.500037140224796E-01
RMS Force                                  R      1.063677130617853E-01
RMS Density                                R      2.033325191553213E-09
Job Status                                 I                1
Nuclear derivative order                   I                1
External E-field                           R   N=          35
  0.00000000E+00  0.00000000E+00  0.00000000E+00  0.00000000E+00  0.00000000E+00
  0.00000000E+00  0.00000000E+00  0.00000000E+00  0.00000000E+00  0.00000000E+00
  0.00000000E+00  0.00000000E+00  0.00000000E+00  0.00000000E+00  0.00000000E+00
  0.00000000E+00  0.00000000E+00  0.00000000E+00  0.00000000E+00  0.00000000E+00
  0.00000000E+00  0.00000000E+00  0.00000000E+00  0.00000000E+00  0.00000000E+00
  0.00000000E+00  0.00000000E+00  0.00000000E+00  0.00000000E+00  0.00000000E+00
  0.00000000E+00  0.00000000E+00  0.00000000E+00  0.00000000E+00  0.00000000E+00
IOpCl                                      I                1
IROHF                                      I                0
Alpha Orbital Energies                     R   N=          56
 -1.09906646E+01 -1.09901994E+01 -1.12285568E+00 -9.88690617E-01 -8.57534928E-01
 -6.51792751E-01 -6.29824173E-01 -3.47788480E-01 -3.27746646E-01 -2.41221927E-01
 -1.42553880E-01 -1.08108861E-01 -1.07371552E-01 -9.30267914E-02 -9.06219845E-02
 -5.25992796E-02 -4.92667419E-02  1.71736231E-02  4.02123378E-02  8.84150209E-02
  2.18080939E-01  3.14089614E-01  3.27969087E-01  3.58799146E-01  3.65128536E-01
  3.88254129E-01  4.43419984E-01  5.06569956E-01  5.50503254E-01  6.97023833E-01
  7.09892027E-01  7.71996474E-01  9.32281764E-01  9.33780292E-01  1.08220771E+00
  1.08911869E+00  1.12395425E+00  1.12516664E+00  1.30740472E+00  1.43923275E+00
  1.44826051E+00  1.58250741E+00  1.89094617E+00  1.90787150E+00  2.15056304E+00
  2.33375450E+00  2.37589851E+00  2.40267399E+00  2.45229980E+00  2.47451318E+00
  2.50389334E+00  2.85307987E+00  2.93261053E+00  3.24770748E+00  2.32053603E+01
  2.35650394E+01
Beta Orbital Energies                      R   N=          56
 -1.09882288E+01 -1.09878980E+01 -1.08215509E+00 -9.71462715E-01 -8.50057518E-01
 -6.09003265E-01 -4.17566483E-01 -3.10663293E-01 -2.69223358E-01 -2.20105598E-01
 -1.53444208E-01 -1.11871837E-01 -1.09956223E-01 -9.66437256E-02 -9.47258538E-02
 -5.12479816E-02 -4.77928228E-02  9.42101021E-03  4.13778266E-02  9.26449388E-02
  2.26465653E-01  3.08988537E-01  3.27418823E-01  3.44232567E-01  3.62445093E-01
  3.97467086E-01  4.26769121E-01  5.10994101E-01  5.62305053E-01  7.26838130E-01
  7.33748928E-01  7.44876593E-01  9.65472783E-01  9.88268300E-01  1.09602435E+00
  1.10625058E+00  1.15148842E+00  1.17382606E+00  1.32658903E+00  1.45351861E+00
  1.46273877E+00  1.59951298E+00  1.91271137E+00  1.92071567E+00  2.18236478E+00
  2.35173131E+00  2.40949202E+00  2.41727250E+00  2.47105353E+00  2.51212868E+00
  2.52213657E+00  2.92951106E+00  2.96485543E+00  3.26439392E+00  2.32159392E+01
  2.35786373E+01
Alpha MO coefficients                      R   N=        3136
  3.98937276E-01  3.28087065E-01  0.00000000E+00  0.00000000E+00  7.82394591E-04
  7.22022778E-03  0.00000000E+00  0.00000000E+00 -2.04838496E-03 -3.39068066E-03
  0.00000000E+00  0.00000000E+00  6.47471454E-04 -4.12307734E-04  0.00000000E+00
  0.00000000E+00  1.45932005E-03  7.41171009E-04  0.00000000E+00  0.00000000E+00
  3.51426405E-05  0.00000000E+00  3.99192951E-01  3.28297217E-01  0.00000000E+00
  0.00000000E+00 -7.82571203E-04  7.22520782E-03  0.00000000E+00  0.00000000E+00
  2.04918532E-03 -3.39510863E-03  0.00000000E+00  0.00000000E+00 -6.43114106E-04
 -4.10918893E-04  0.00000000E+00  0.00000000E+00 -1.45987065E-03  7.42462896E-04
  0.00000000E+00  0.00000000E+00  3.51674942E-05  0.00000000E+00  1.38320454E-04
 -2.53347146E-03  2.99312776E-03  0.00000000E+00  0.00000000E+00 -1.53877552E-03
  1.38412368E-04 -2.53647702E-03  2.99290373E-03  0.00000000E+00  0.00000000E+00
  1.54010049E-03  3.99253667E-01  3.28161536E-01  0.00000000E+00  0.00000000E+00
  2.77760789E-04  7.83309422E-03  0.00000000E+00  0.00000000E+00 -1.31183322E-03
 -6.90914324E-03  0.00000000E+00  0.00000000E+00 -6.81637439E-03  1.97201231E-03
  0.00000000E+00  0.00000000E+00  8.10165799E-04  2.04807775E-03  0.00000000E+00
  0.00000000E+00  3.87677332E-05  0.00000000E+00 -3.98998033E-01 -3.27951305E-01
  0.00000000E+00  0.00000000E+00  2.77258997E-04 -7.82842795E-03  0.00000000E+00
  0.00000000E+00 -1.31047382E-03  6.90700580E-03  0.00000000E+00  0.00000000E+00
 -6.81677657E-03 -1.97228321E-03  0.00000000E+00  0.00000000E+00  8.09232880E-04
 -2.04758099E-03  0.00000000E+00  0.00000000E+00 -3.87452372E-05  0.00000000E+00
  1.30129417E-04 -4.78534433E-03 -3.02713725E-04  0.00000000E+00  0.00000000E+00
 -2.11301252E-03 -1.30054278E-04  4.78365475E-03  3.04632836E-04  0.00000000E+00
  0.00000000E+00 -2.11199747E-03 -8.67594959E-02 -1.41597960E-01  0.00000000E+00
  0.00000000E+00  2.97102074E-02  4.02665421E-01  0.00000000E+00  0.00000000E+00
  5.03645631E-02  2.41653838E-01  0.00000000E+00  0.00000000E+00  1.05338765E-02
 -2.68502026E-03  0.00000000E+00  0.00000000E+00 -2.01517339E-02  1.93577641E-02
  0.00000000E+00  0.00000000E+00  4.71234797E-03  0.00000000E+00 -8.67591533E-02
 -1.41597402E-01  0.00000000E+00  0.00000000E+00 -2.97107512E-02  4.02663940E-01
  0.00000000E+00  0.00000000E+00 -5.03651675E-02  2.41652805E-01  0.00000000E+00
  0.00000000E+00 -1.05338245E-02 -2.68506681E-03  0.00000000E+00  0.00000000E+00
  2.01517414E-02  1.93576733E-02  0.00000000E+00  0.00000000E+00  4.71233070E-03
  0.00000000E+00  5.77266874E-02  6.89741225E-02 -2.17632603E-02  0.00000000E+00
  0.00000000E+00  9.78166520E-03  5.77258640E-02  6.89733019E-02 -2.17631867E-02
  0.00000000E+00  0.00000000E+00 -9.78155319E-03  7.08576771E-02  1.16350075E-01
  0.00000000E+00  0.00000000E+00  8.79790244E-02 -3.35198592E-01  0.00000000E+00
  0.00000000E+00  1.20880671E-01 -2.52859131E-01  0.00000000E+00  0.00000000E+00
  3.80204372E-02  1.82667285E-01  0.00000000E+00  0.00000000E+00  6.23570579E-02
 -1.06042348E-02  0.00000000E+00  0.00000000E+00 -3.71967480E-03  0.00000000E+00
 -7.08580748E-02 -1.16350742E-01  0.00000000E+00  0.00000000E+00  8.79772554E-02
  3.35200687E-01  0.00000000E+00  0.00000000E+00  1.20878273E-01  2.52860844E-01
  0.00000000E+00  0.00000000E+00  3.80198101E-02 -1.82667312E-01  0.00000000E+00
  0.00000000E+00  6.23572764E-02  1.06043438E-02  0.00000000E+00  0.00000000E+00
  3.71970213E-03  0.00000000E+00 -1.19121753E-01 -1.50196312E-01  8.43167144E-03
  0.00000000E+00  0.00000000E+00 -1.97247047E-02  1.19120630E-01  1.50195353E-01
 -8.43187875E-03  0.00000000E+00  0.00000000E+00 -1.97245788E-02 -1.80611261E-04
 -7.38941103E-04  0.00000000E+00  0.00000000E+00  1.84336621E-01  8.18357227E-03
  0.00000000E+00  0.00000000E+00  2.72178962E-01 -2.33383141E-02  0.00000000E+00
  0.00000000E+00  1.21417325E-01 -7.21199717E-03  0.00000000E+00  0.00000000E+00
  1.45629615E-03  5.26462502E-03  0.00000000E+00  0.00000000E+00  3.55467966E-04
  0.00000000E+00 -1.80042312E-04 -7.37985177E-04  0.00000000E+00  0.00000000E+00
 -1.84337121E-01  8.18066474E-03  0.00000000E+00  0.00000000E+00 -2.72179946E-01
 -2.33411312E-02  0.00000000E+00  0.00000000E+00 -1.21417972E-01 -7.20940084E-03
  0.00000000E+00  0.00000000E+00 -1.45723375E-03  5.26461110E-03  0.00000000E+00
  0.00000000E+00  3.55433127E-04  0.00000000E+00 -1.24474171E-01 -1.67848443E-01
 -4.52850178E-03  0.00000000E+00  0.00000000E+00 -2.01989777E-02 -1.24474772E-01
 -1.67849773E-01 -4.52841412E-03  0.00000000E+00  0.00000000E+00  2.01991360E-02
  0.00000000E+00  0.00000000E+00  1.96549787E-01  0.00000000E+00  0.00000000E+00
  0.00000000E+00  3.22443850E-01  0.00000000E+00  0.00000000E+00  0.00000000E+00
  2.41952613E-01  0.00000000E+00  0.00000000E+00  0.00000000E+00 -3.81998881E-03
  0.00000000E+00  0.00000000E+00  0.00000000E+00  2.55665047E-02  0.00000000E+00
  0.00000000E+00  0.00000000E+00  0.00000000E+00  0.00000000E+00  1.96549722E-01
  0.00000000E+00  0.00000000E+00  0.00000000E+00  3.22443700E-01  0.00000000E+00
  0.00000000E+00  0.00000000E+00  2.41952573E-01  0.00000000E+00  0.00000000E+00
  0.00000000E+00 -3.81995745E-03  0.00000000E+00  0.00000000E+00  0.00000000E+00
 -2.55665195E-02  0.00000000E+00  0.00000000E+00  0.00000000E+00  0.00000000E+00
  0.00000000E+00  0.00000000E+00  1.40674122E-02  0.00000000E+00  0.00000000E+00
  0.00000000E+00  0.00000000E+00  0.00000000E+00  1.40673258E-02  0.00000000E+00
  0.00000000E+00  0.00000000E+00  0.00000000E+00  0.00000000E+00  1.95145155E-01
  0.00000000E+00  0.00000000E+00  0.00000000E+00  3.21539589E-01  0.00000000E+00
  0.00000000E+00  0.00000000E+00  2.41112856E-01  0.00000000E+00  0.00000000E+00
  0.00000000E+00  2.07829568E-04  0.00000000E+00  0.00000000E+00  0.00000000E+00
  2.54688347E-02  0.00000000E+00  0.00000000E+00  0.00000000E+00  0.00000000E+00
  0.00000000E+00  1.95145097E-01  0.00000000E+00  0.00000000E+00  0.00000000E+00
  3.21539464E-01  0.00000000E+00  0.00000000E+00  0.00000000E+00  2.41112822E-01
  0.00000000E+00  0.00000000E+00  0.00000000E+00  2.07863036E-04  0.00000000E+00
  0.00000000E+00  0.00000000E+00 -2.54688414E-02  0.00000000E+00  0.00000000E+00
  0.00000000E+00  0.00000000E+00  0.00000000E+00  0.00000000E+00  1.54353780E-02
  0.00000000E+00  0.00000000E+00  0.00000000E+00  0.00000000E+00  0.00000000E+00
  1.54352848E-02  0.00000000E+00  0.00000000E+00  0.00000000E+00  2.19835609E-01
  0.00000000E+00  0.00000000E+00  0.00000000E+00  3.48469141E-01  0.00000000E+00
  0.00000000E+00  0.00000000E+00  3.94667462E-01  0.00000000E+00  0.00000000E+00
  0.00000000E+00  7.91038841E-02  0.00000000E+00  0.00000000E+00  0.00000000E+00
 -2.44400922E-02  0.00000000E+00  0.00000000E+00  0.00000000E+00  0.00000000E+00
  0.00000000E+00 -2.19835682E-01  0.00000000E+00  0.00000000E+00  0.00000000E+00
 -3.48469206E-01  0.00000000E+00  0.00000000E+00  0.00000000E+00 -3.94667614E-01
  0.00000000E+00  0.00000000E+00  0.00000000E+00 -7.91039519E-02  0.00000000E+00
  0.00000000E+00  0.00000000E+00 -2.44400616E-02  0.00000000E+00  0.00000000E+00
  0.00000000E+00  0.00000000E+00  0.00000000E+00  0.00000000E+00  2.34862260E-02
  0.00000000E+00  0.00000000E+00  0.00000000E+00  0.00000000E+00  0.00000000E+00
 -2.34861926E-02  0.00000000E+00  0.00000000E+00  0.00000000E+00  0.00000000E+00
  0.00000000E+00  2.16709596E-01  0.00000000E+00  0.00000000E+00  0.00000000E+00
  3.41206339E-01  0.00000000E+00  0.00000000E+00  0.00000000E+00  4.01691888E-01
  0.00000000E+00  0.00000000E+00  0.00000000E+00  1.02627507E-01  0.00000000E+00
  0.00000000E+00  0.00000000E+00 -2.55472664E-02  0.00000000E+00  0.00000000E+00
  0.00000000E+00  0.00000000E+00  0.00000000E+00 -2.16709657E-01  0.00000000E+00
  0.00000000E+00  0.00000000E+00 -3.41206402E-01  0.00000000E+00  0.00000000E+00
  0.00000000E+00 -4.01692019E-01  0.00000000E+00  0.00000000E+00  0.00000000E+00
 -1.02627588E-01  0.00000000E+00  0.00000000E+00  0.00000000E+00 -2.55472445E-02
  0.00000000E+00  0.00000000E+00  0.00000000E+00  0.00000000E+00  0.00000000E+00
  0.00000000E+00  2.50168861E-02  0.00000000E+00  0.00000000E+00  0.00000000E+00
  0.00000000E+00  0.00000000E+00 -2.50168495E-02  0.00000000E+00 -6.93645416E-02
 -1.18482858E-01  0.00000000E+00  0.00000000E+00  9.25225013E-02  3.68113564E-01
  0.00000000E+00  0.00000000E+00  1.32992591E-01  9.32845488E-01  0.00000000E+00
  0.00000000E+00  2.05031994E-01  1.80917549E+00  0.00000000E+00  0.00000000E+00
  6.28897448E-01 -5.18303945E-02  0.00000000E+00  0.00000000E+00  5.95493388E-03
  0.00000000E+00  6.93648139E-02  1.18483303E-01  0.00000000E+00  0.00000000E+00
  9.25212382E-02 -3.68114866E-01  0.00000000E+00  0.00000000E+00  1.32990773E-01
 -9.32848394E-01  0.00000000E+00  0.00000000E+00  2.05030001E-01 -1.80917458E+00
  0.00000000E+00  0.00000000E+00  6.28899640E-01  5.18306324E-02  0.00000000E+00
  0.00000000E+00 -5.95495139E-03  0.00000000E+00 -1.15263746E-01 -2.92884343E-01
 -3.74731805E-01  0.00000000E+00  0.00000000E+00  8.62849655E-03  1.15264654E-01
  2.92886965E-01  3.74735697E-01  0.00000000E+00  0.00000000E+00  8.62867176E-03
  2.52214139E-02  4.41225644E-02  0.00000000E+00  0.00000000E+00  3.77876901E-02
 -1.60748693E-01  0.00000000E+00  0.00000000E+00  6.90660720E-02 -3.47710720E-01
  0.00000000E+00  0.00000000E+00  7.63957266E-02  9.29883163E-01  0.00000000E+00
  0.00000000E+00 -5.38057903E-01 -1.71528570E-02  0.00000000E+00  0.00000000E+00
  5.49884662E-04  0.00000000E+00  2.52210925E-02  4.41219991E-02  0.00000000E+00
  0.00000000E+00 -3.77883837E-02 -1.60746824E-01  0.00000000E+00  0.00000000E+00
 -6.90668772E-02 -3.47705007E-01  0.00000000E+00  0.00000000E+00 -7.63993673E-02
  9.29885135E-01  0.00000000E+00  0.00000000E+00  5.38056533E-01 -1.71530354E-02
  0.00000000E+00  0.00000000E+00  5.49912786E-04  0.00000000E+00 -1.54771488E-02
  6.45700270E-02 -2.16654532E-01  0.00000000E+00  0.00000000E+00 -1.04778501E-02
 -1.54774758E-02  6.45687209E-02 -2.16654618E-01  0.00000000E+00  0.00000000E+00
  1.04779557E-02  1.49317506E-03  1.65900948E-03  0.00000000E+00  0.00000000E+00
  9.48864790E-02  2.62740022E-02  0.00000000E+00  0.00000000E+00  1.47709140E-01
 -2.05424565E-01  0.00000000E+00  0.00000000E+00  2.99948776E-01 -3.69095051E-01
  0.00000000E+00  0.00000000E+00 -6.76485219E-01  4.55803125E-02  0.00000000E+00
  0.00000000E+00 -3.24936826E-03  0.00000000E+00  1.49196961E-03  1.65698714E-03
  0.00000000E+00  0.00000000E+00 -9.48962630E-02  2.62783793E-02  0.00000000E+00
  0.00000000E+00 -1.47724808E-01 -2.05389905E-01  0.00000000E+00  0.00000000E+00
 -2.99968221E-01 -3.69389223E-01  0.00000000E+00  0.00000000E+00  6.76663862E-01
  4.55769591E-02  0.00000000E+00  0.00000000E+00 -3.24910053E-03  0.00000000E+00
  5.77229014E-02  2.03754680E-01  6.66381061E-01  0.00000000E+00  0.00000000E+00
 -2.17261676E-02  5.77172934E-02  2.03745693E-01  6.66339397E-01  0.00000000E+00
  0.00000000E+00  2.17274181E-02  7.60451489E-03  1.25125339E-02  0.00000000E+00
  0.00000000E+00 -8.71364381E-02 -1.94664573E-02  0.00000000E+00  0.00000000E+00
 -1.41376854E-01 -2.51089455E-01  0.00000000E+00  0.00000000E+00 -1.59181018E-01
  3.35196860E+00  0.00000000E+00  0.00000000E+00  1.98510938E+00  3.05710422E-02
  0.00000000E+00  0.00000000E+00 -2.30457238E-03  0.00000000E+00 -7.60465811E-03
 -1.25126948E-02  0.00000000E+00  0.00000000E+00 -8.71274886E-02  1.94640898E-02
  0.00000000E+00  0.00000000E+00 -1.41362922E-01  2.51107139E-01  0.00000000E+00
  0.00000000E+00 -1.59153573E-01 -3.35193207E+00  0.00000000E+00  0.00000000E+00
  1.98504755E+00 -3.05753469E-02  0.00000000E+00  0.00000000E+00  2.30487707E-03
  0.00000000E+00  5.68133883E-02  8.09960967E-02  4.25035122E-01  0.00000000E+00
  0.00000000E+00  1.35584831E-02 -5.68188266E-02 -8.10152360E-02 -4.25098883E-01
  0.00000000E+00  0.00000000E+00  1.35565226E-02  0.00000000E+00  0.00000000E+00
 -7.41882190E-02  0.00000000E+00  0.00000000E+00  0.00000000E+00 -8.68946739E-02
  0.00000000E+00  0.00000000E+00  0.00000000E+00 -2.30595657E-01  0.00000000E+00
  0.00000000E+00  0.00000000E+00  6.34929081E-01  0.00000000E+00  0.00000000E+00
  0.00000000E+00 -1.31488180E-02  0.00000000E+00  0.00000000E+00  0.00000000E+00
  0.00000000E+00  0.00000000E+00 -7.41884319E-02  0.00000000E+00  0.00000000E+00
  0.00000000E+00 -8.68949622E-02  0.00000000E+00  0.00000000E+00  0.00000000E+00
 -2.30596210E-01  0.00000000E+00  0.00000000E+00  0.00000000E+00  6.34932596E-01
  0.00000000E+00  0.00000000E+00  0.00000000E+00  1.31488404E-02  0.00000000E+00
  0.00000000E+00  0.00000000E+00  0.00000000E+00  0.00000000E+00  0.00000000E+00
  6.16721237E-03  0.00000000E+00  0.00000000E+00  0.00000000E+00  0.00000000E+00
  0.00000000E+00  6.16730960E-03  0.00000000E+00  0.00000000E+00  0.00000000E+00
  0.00000000E+00  0.00000000E+00 -7.36318833E-02  0.00000000E+00  0.00000000E+00
  0.00000000E+00 -9.37739685E-02  0.00000000E+00  0.00000000E+00  0.00000000E+00
 -2.27970929E-01  0.00000000E+00  0.00000000E+00  0.00000000E+00  6.33303748E-01
  0.00000000E+00  0.00000000E+00  0.00000000E+00 -1.32792790E-02  0.00000000E+00
  0.00000000E+00  0.00000000E+00  0.00000000E+00  0.00000000E+00 -7.36321097E-02
  0.00000000E+00  0.00000000E+00  0.00000000E+00 -9.37742792E-02  0.00000000E+00
  0.00000000E+00  0.00000000E+00 -2.27971556E-01  0.00000000E+00  0.00000000E+00
  0.00000000E+00  6.33307473E-01  0.00000000E+00  0.00000000E+00  0.00000000E+00
  1.32792972E-02  0.00000000E+00  0.00000000E+00  0.00000000E+00  0.00000000E+00
  0.00000000E+00  0.00000000E+00  5.57973447E-03  0.00000000E+00  0.00000000E+00
  0.00000000E+00  0.00000000E+00  0.00000000E+00  5.57982945E-03  0.00000000E+00
  0.00000000E+00  0.00000000E+00 -7.94077535E-02  0.00000000E+00  0.00000000E+00
  0.00000000E+00 -9.84029288E-02  0.00000000E+00  0.00000000E+00  0.00000000E+00
 -2.82905463E-01  0.00000000E+00  0.00000000E+00  0.00000000E+00  1.85297548E+00
  0.00000000E+00  0.00000000E+00  0.00000000E+00 -3.67521970E-03  0.00000000E+00
  0.00000000E+00  0.00000000E+00  0.00000000E+00  0.00000000E+00  7.94076382E-02
  0.00000000E+00  0.00000000E+00  0.00000000E+00  9.84027736E-02  0.00000000E+00
  0.00000000E+00  0.00000000E+00  2.82905017E-01  0.00000000E+00  0.00000000E+00
  0.00000000E+00 -1.85297423E+00  0.00000000E+00  0.00000000E+00  0.00000000E+00
 -3.67524808E-03  0.00000000E+00  0.00000000E+00  0.00000000E+00  0.00000000E+00
  0.00000000E+00  0.00000000E+00  1.15209431E-02  0.00000000E+00  0.00000000E+00
  0.00000000E+00  0.00000000E+00  0.00000000E+00 -1.15210331E-02  0.00000000E+00
  0.00000000E+00  0.00000000E+00  0.00000000E+00  0.00000000E+00 -8.20017884E-02
  0.00000000E+00  0.00000000E+00  0.00000000E+00 -1.08525632E-01  0.00000000E+00
  0.00000000E+00  0.00000000E+00 -2.82827795E-01  0.00000000E+00  0.00000000E+00
  0.00000000E+00  1.84703097E+00  0.00000000E+00  0.00000000E+00  0.00000000E+00
 -2.00034273E-03  0.00000000E+00  0.00000000E+00  0.00000000E+00  0.00000000E+00
  0.00000000E+00  8.20016627E-02  0.00000000E+00  0.00000000E+00  0.00000000E+00
  1.08525440E-01  0.00000000E+00  0.00000000E+00  0.00000000E+00  2.82827357E-01
  0.00000000E+00  0.00000000E+00  0.00000000E+00 -1.84702966E+00  0.00000000E+00
  0.00000000E+00  0.00000000E+00 -2.00036604E-03  0.00000000E+00  0.00000000E+00
  0.00000000E+00  0.00000000E+00  0.00000000E+00  0.00000000E+00  1.01510154E-02