Title Card Required                                                     
FOpt      UM062X                                                      6-311+G(d,p)        
Number of atoms                            I                6
Info1-9                                    I   N=           9
          15          15           0           0           0         110
           2          18        -502
Full Title                                 C   N=           2
Title Card Required     
Route                                      C   N=           4
#p opt UM062X/6-311+G** nosymm int=superfine    
Charge                                     I                1
Multiplicity                               I                2
Number of electrons                        I               15
Number of alpha electrons                  I                8
Number of beta electrons                   I                7
Number of basis functions                  I               68
Number of independent functions            I               68
Number of point charges in /Mol/           I                0
Number of translation vectors              I                0
Atomic numbers                             I   N=           6
           6           6           1           1           1           1
Nuclear charges                            R   N=           6
  6.00000000E+00  6.00000000E+00  1.00000000E+00  1.00000000E+00  1.00000000E+00
  1.00000000E+00
Current cartesian coordinates              R   N=          18
 -1.44269886E+00  0.00000000E+00  0.00000000E+00  1.44269886E+00  0.00000000E+00
  0.00000000E+00 -2.45282140E+00 -1.78545643E+00 -1.56684577E-09 -2.45290762E+00
  1.78540536E+00 -1.51551687E-09  2.45282140E+00  1.78545643E+00  1.43408383E-09
  2.45290762E+00 -1.78540536E+00  1.48472088E-09
Number of symbols in /Mol/                 I                0
Force Field                                I                0
Atom Types                                 C   N=           6
                                                            
            
Int Atom Types                             I   N=           6
           0           0           0           0           0           0
MM charges                                 R   N=           6
  0.00000000E+00  0.00000000E+00  0.00000000E+00  0.00000000E+00  0.00000000E+00
  0.00000000E+00
Integer atomic weights                     I   N=           6
          12          12           1           1           1           1
Real atomic weights                        R   N=           6
  1.20000000E+01  1.20000000E+01  1.00782504E+00  1.00782504E+00  1.00782504E+00
  1.00782504E+00
Atom fragment info                         I   N=           6
           0           0           0           0           0           0
Atom residue num                           I   N=           6
           0           0           0           0           0           0
Nuclear spins                              I   N=           6
           0           0           1           1           1           1
Nuclear ZEff                               R   N=           6
 -3.60000000E+00 -3.60000000E+00 -1.00000000E+00 -1.00000000E+00 -1.00000000E+00
 -1.00000000E+00
Nuclear ZNuc                               R   N=           6
  6.00000000E+00  6.00000000E+00  1.00000000E+00  1.00000000E+00  1.00000000E+00
  1.00000000E+00
Nuclear QMom                               R   N=           6
  0.00000000E+00  0.00000000E+00  0.00000000E+00  0.00000000E+00  0.00000000E+00
  0.00000000E+00
Nuclear GFac                               R   N=           6
  0.00000000E+00  0.00000000E+00  2.79284600E+00  2.79284600E+00  2.79284600E+00
  2.79284600E+00
MicOpt                                     I   N=           6
          -2          -2          -1          -1          -1          -1
Number of residues                         I                0
Number of secondary structures             I                0
Redundant internal dimensions              I   N=           4
          20          10           6           4
Redundant internal coordinate indices      I   N=          80
           1          -1           0           0           1          -2
           0           0           1          -3           0           0
           2          -1           0           0           2          -2
           0           0           2          -3           0           0
           1           3           0           0           1           4
           0           0           2           5           0           0
           2           6           0           0           2           1
           3           0           2           1           4           0
           3           1           4           0           1           2
           5           0           1           2           6           0
           5           2           6           0           3           1
           2           5           3           1           2           6
           4           1           2           5           4           1
           2           6
Redundant internal coordinates             R   N=          20
 -1.44269886E+00  0.00000000E+00  0.00000000E+00  1.44269886E+00  0.00000000E+00
  0.00000000E+00  2.05139031E+00  2.05138832E+00  2.05139031E+00  2.05138832E+00
  2.08565144E+00  2.08570028E+00  2.11183359E+00  2.08565144E+00  2.08570028E+00
  2.11183359E+00  3.14159265E+00 -0.00000000E+00  0.00000000E+00  3.14159265E+00
ZRed-IntVec                                I   N=          20
          -1          -1          -1          -1          -1          -1
           0           0           0           0           0           0
           0           0           0           0           0           0
           0           0
ZRed-FPVec                                 R   N=          20
  0.00000000E+00  0.00000000E+00  0.00000000E+00  0.00000000E+00  0.00000000E+00
  0.00000000E+00  0.00000000E+00  0.00000000E+00  0.00000000E+00  0.00000000E+00
  0.00000000E+00  0.00000000E+00  0.00000000E+00  0.00000000E+00  0.00000000E+00
  0.00000000E+00  0.00000000E+00  0.00000000E+00  0.00000000E+00  0.00000000E+00
ZRed-Constraint1                           R   N=          20
 -1.44269886E+00  0.00000000E+00  0.00000000E+00  1.44269886E+00  0.00000000E+00
  0.00000000E+00  2.09540573E+00  2.09872838E+00  2.09540573E+00  2.09872838E+00
  2.14286078E+00  2.13804826E+00  2.00227627E+00  2.14286078E+00  2.13804826E+00
  2.00227627E+00  3.14159265E+00  0.00000000E+00  0.00000000E+00  3.14159265E+00
ZRed-Constraint2                           R   N=          20
 -1.44269886E+00  0.00000000E+00  0.00000000E+00  1.44269886E+00  0.00000000E+00
  0.00000000E+00  0.00000000E+00  0.00000000E+00  0.00000000E+00  0.00000000E+00
  0.00000000E+00  0.00000000E+00  0.00000000E+00  0.00000000E+00  0.00000000E+00
  0.00000000E+00  0.00000000E+00  0.00000000E+00  0.00000000E+00  0.00000000E+00
Number of contracted shells                I               28
Number of primitive shells                 I               50
Pure/Cartesian d shells                    I                0
Pure/Cartesian f shells                    I                0
Highest angular momentum                   I                2
Largest degree of contraction              I                6
Shell types                                I   N=          28
           0          -1          -1          -1          -1          -2
           0          -1          -1          -1          -1          -2
           0           0           0           1           0           0
           0           1           0           0           0           1
           0           0           0           1
Number of primitives per shell             I   N=          28
           6           3           1           1           1           1
           6           3           1           1           1           1
           3           1           1           1           3           1
           1           1           3           1           1           1
           3           1           1           1
Shell to atom map                          I   N=          28
           1           1           1           1           1           1
           2           2           2           2           2           2
           3           3           3           3           4           4
           4           4           5           5           5           5
           6           6           6           6
Primitive exponents                        R   N=          50
  4.56324000E+03  6.82024000E+02  1.54973000E+02  4.44553000E+01  1.30290000E+01
  1.82773000E+00  2.09642000E+01  4.80331000E+00  1.45933000E+00  4.83456000E-01
  1.45585000E-01  4.38000000E-02  6.26000000E-01  4.56324000E+03  6.82024000E+02
  1.54973000E+02  4.44553000E+01  1.30290000E+01  1.82773000E+00  2.09642000E+01
  4.80331000E+00  1.45933000E+00  4.83456000E-01  1.45585000E-01  4.38000000E-02
  6.26000000E-01  3.38650000E+01  5.09479000E+00  1.15879000E+00  3.25840000E-01
  1.02741000E-01  7.50000000E-01  3.38650000E+01  5.09479000E+00  1.15879000E+00
  3.25840000E-01  1.02741000E-01  7.50000000E-01  3.38650000E+01  5.09479000E+00
  1.15879000E+00  3.25840000E-01  1.02741000E-01  7.50000000E-01  3.38650000E+01
  5.09479000E+00  1.15879000E+00  3.25840000E-01  1.02741000E-01  7.50000000E-01
Contraction coefficients                   R   N=          50
  1.96665025E-03  1.52306019E-02  7.61269097E-02  2.60801033E-01  6.16462078E-01
  2.21006028E-01  1.14660081E-01  9.19999648E-01 -3.03068213E-03  1.00000000E+00
  1.00000000E+00  1.00000000E+00  1.00000000E+00  1.96665025E-03  1.52306019E-02
  7.61269097E-02  2.60801033E-01  6.16462078E-01  2.21006028E-01  1.14660081E-01
  9.19999648E-01 -3.03068213E-03  1.00000000E+00  1.00000000E+00  1.00000000E+00
  1.00000000E+00  2.54938145E-02  1.90373109E-01  8.52161486E-01  1.00000000E+00
  1.00000000E+00  1.00000000E+00  2.54938145E-02  1.90373109E-01  8.52161486E-01
  1.00000000E+00  1.00000000E+00  1.00000000E+00  2.54938145E-02  1.90373109E-01
  8.52161486E-01  1.00000000E+00  1.00000000E+00  1.00000000E+00  2.54938145E-02
  1.90373109E-01  8.52161486E-01  1.00000000E+00  1.00000000E+00  1.00000000E+00
P(S=P) Contraction coefficients            R   N=          50
  0.00000000E+00  0.00000000E+00  0.00000000E+00  0.00000000E+00  0.00000000E+00
  0.00000000E+00  4.02486927E-02  2.37593957E-01  8.15853851E-01  1.00000000E+00
  1.00000000E+00  1.00000000E+00  0.00000000E+00  0.00000000E+00  0.00000000E+00
  0.00000000E+00  0.00000000E+00  0.00000000E+00  0.00000000E+00  4.02486927E-02
  2.37593957E-01  8.15853851E-01  1.00000000E+00  1.00000000E+00  1.00000000E+00
  0.00000000E+00  0.00000000E+00  0.00000000E+00  0.00000000E+00  0.00000000E+00
  0.00000000E+00  0.00000000E+00  0.00000000E+00  0.00000000E+00  0.00000000E+00
  0.00000000E+00  0.00000000E+00  0.00000000E+00  0.00000000E+00  0.00000000E+00
  0.00000000E+00  0.00000000E+00  0.00000000E+00  0.00000000E+00  0.00000000E+00
  0.00000000E+00  0.00000000E+00  0.00000000E+00  0.00000000E+00  0.00000000E+00
Coordinates of each shell                  R   N=          84
 -1.44269886E+00  0.00000000E+00  0.00000000E+00 -1.44269886E+00  0.00000000E+00
  0.00000000E+00 -1.44269886E+00  0.00000000E+00  0.00000000E+00 -1.44269886E+00
  0.00000000E+00  0.00000000E+00 -1.44269886E+00  0.00000000E+00  0.00000000E+00
 -1.44269886E+00  0.00000000E+00  0.00000000E+00  1.44269886E+00  0.00000000E+00
  0.00000000E+00  1.44269886E+00  0.00000000E+00  0.00000000E+00  1.44269886E+00
  0.00000000E+00  0.00000000E+00  1.44269886E+00  0.00000000E+00  0.00000000E+00
  1.44269886E+00  0.00000000E+00  0.00000000E+00  1.44269886E+00  0.00000000E+00
  0.00000000E+00 -2.45282140E+00 -1.78545643E+00 -1.56684577E-09 -2.45282140E+00
 -1.78545643E+00 -1.56684577E-09 -2.45282140E+00 -1.78545643E+00 -1.56684577E-09
 -2.45282140E+00 -1.78545643E+00 -1.56684577E-09 -2.45290762E+00  1.78540536E+00
 -1.51551687E-09 -2.45290762E+00  1.78540536E+00 -1.51551687E-09 -2.45290762E+00
  1.78540536E+00 -1.51551687E-09 -2.45290762E+00  1.78540536E+00 -1.51551687E-09
  2.45282140E+00  1.78545643E+00  1.43408383E-09  2.45282140E+00  1.78545643E+00
  1.43408383E-09  2.45282140E+00  1.78545643E+00  1.43408383E-09  2.45282140E+00
  1.78545643E+00  1.43408383E-09  2.45290762E+00 -1.78540536E+00  1.48472088E-09
  2.45290762E+00 -1.78540536E+00  1.48472088E-09  2.45290762E+00 -1.78540536E+00
  1.48472088E-09  2.45290762E+00 -1.78540536E+00  1.48472088E-09
Num ILSW                                   I              100
ILSW                                       I   N=         100
           1           0           0           1           2           0
           0           0           0           0        4336          -1
           7           0           0           0           2           0
           0           0           0           0           1           0
           1           1           0           0           0           0
           0           0      100000           0          -1           0
           0           0           0           0           0           0
           0           0           0           1           0           0
           0 -2000000000           1           0           0           0
           0           0           4          52           0           0
           0           0          55           0           0           0
           0           0           0           6           0           1
           0           0           0           0           0           0
           0           0           0           0           0           0
           0           0           0           0           0           0
           0           0           0           0           0           0
           0           0           0           0
Num RLSW                                   I               52
RLSW                                       R   N=          52
  1.00000000E+00  1.00000000E+00  1.00000000E+00  1.00000000E+00  5.40000000E-01
  0.00000000E+00  0.00000000E+00  1.00000000E+00  0.00000000E+00  0.00000000E+00
  0.00000000E+00  0.00000000E+00  1.00000000E+00  0.00000000E+00  0.00000000E+00
  0.00000000E+00  0.00000000E+00  1.00000000E+00  0.00000000E+00  0.00000000E+00
  0.00000000E+00  0.00000000E+00  1.00000000E+00  0.00000000E+00  0.00000000E+00
  0.00000000E+00  0.00000000E+00  1.00000000E+00  0.00000000E+00  0.00000000E+00
  0.00000000E+00  0.00000000E+00  1.00000000E+00  0.00000000E+00  0.00000000E+00
  0.00000000E+00  0.00000000E+00  0.00000000E+00  1.00000000E+00  1.00000000E+00
  0.00000000E+00  1.00000000E+00  0.00000000E+00  0.00000000E+00  0.00000000E+00
  0.00000000E+00  0.00000000E+00  0.00000000E+00  0.00000000E+00  0.00000000E+00
  0.00000000E+00  0.00000000E+00
MxBond                                     I                3
NBond                                      I   N=           6
           3           3           1           1           1           1
IBond                                      I   N=          18
           2           3           4           1           5           6
           1           0           0           1           0           0
           2           0           0           2           0           0
RBond                                      R   N=          18
  1.00000000E+00  1.00000000E+00  1.00000000E+00  1.00000000E+00  1.00000000E+00
  1.00000000E+00  1.00000000E+00  0.00000000E+00  0.00000000E+00  1.00000000E+00
  0.00000000E+00  0.00000000E+00  1.00000000E+00  0.00000000E+00  0.00000000E+00
  1.00000000E+00  0.00000000E+00  0.00000000E+00
Virial Ratio                               R      2.006767969021530E+00
SCF Energy                                 R     -7.817547415328535E+01
Total Energy                               R     -7.817547415328535E+01
S**2                                       R      7.524489423278613E-01
S**2 after annihilation                    R      7.500047756957989E-01
RMS Force                                  R      6.685471012238741E-06
RMS Density                                R      3.278502371345980E-09
Job Status                                 I                1
Nuclear derivative order                   I                1
External E-field                           R   N=          35
  0.00000000E+00  0.00000000E+00  0.00000000E+00  0.00000000E+00  0.00000000E+00
  0.00000000E+00  0.00000000E+00  0.00000000E+00  0.00000000E+00  0.00000000E+00
  0.00000000E+00  0.00000000E+00  0.00000000E+00  0.00000000E+00  0.00000000E+00
  0.00000000E+00  0.00000000E+00  0.00000000E+00  0.00000000E+00  0.00000000E+00
  0.00000000E+00  0.00000000E+00  0.00000000E+00  0.00000000E+00  0.00000000E+00
  0.00000000E+00  0.00000000E+00  0.00000000E+00  0.00000000E+00  0.00000000E+00
  0.00000000E+00  0.00000000E+00  0.00000000E+00  0.00000000E+00  0.00000000E+00
IOpCl                                      I                1
IROHF                                      I                0
Alpha Orbital Energies                     R   N=          68
 -1.09036473E+01 -1.09031514E+01 -1.15229492E+00 -9.82656395E-01 -8.35477006E-01
 -7.71904039E-01 -7.41263682E-01 -6.40647609E-01 -3.13053388E-01 -1.46050306E-01
 -1.30484279E-01 -1.19662351E-01 -9.36629845E-02 -7.64319082E-02 -7.03756748E-02
 -4.70942445E-02 -4.55176547E-02 -2.16930519E-02 -1.15588047E-02 -4.96569229E-03
  4.17822870E-02  1.03611511E-01  1.96613892E-01  2.31761261E-01  2.73668695E-01
  3.02379294E-01  3.23050242E-01  3.75117503E-01  4.15664568E-01  4.33957411E-01
  4.60449801E-01  4.78899130E-01  5.55506122E-01  5.82793605E-01  7.60932499E-01
  7.79684170E-01  8.48436053E-01  1.15386758E+00  1.15902932E+00  1.18058816E+00
  1.23147246E+00  1.29515069E+00  1.33545823E+00  1.33873926E+00  1.48172045E+00
  1.58568695E+00  1.66847804E+00  1.68910172E+00  1.73342575E+00  1.82475197E+00
  1.83197450E+00  1.88693506E+00  2.14540882E+00  2.17720879E+00  2.27090584E+00
  2.32218830E+00  2.39171912E+00  2.40298811E+00  2.42423791E+00  2.50904750E+00
  2.54840231E+00  2.67128879E+00  2.80401996E+00  3.42089015E+00  3.51967377E+00
  3.80600327E+00  2.35481447E+01  2.35482054E+01
Beta Orbital Energies                      R   N=          68
 -1.09013873E+01 -1.09010118E+01 -1.11489722E+00 -9.62852809E-01 -8.25816551E-01
 -7.61765335E-01 -7.37881026E-01 -4.04413320E-01 -2.38263657E-01 -1.63381557E-01
 -1.28408870E-01 -1.22104683E-01 -9.70875177E-02 -8.44999102E-02 -7.09249160E-02
 -4.71934552E-02 -3.88141972E-02 -1.62219835E-02 -1.48830011E-02  1.04429799E-02
  4.79561444E-02  1.08343047E-01  1.91197770E-01  2.26823894E-01  2.82004648E-01
  3.14817134E-01  3.18679452E-01  3.63033230E-01  4.28546842E-01  4.47178198E-01
  4.71250170E-01  4.87612123E-01  5.29662946E-01  5.72459612E-01  7.94997675E-01
  8.18646181E-01  8.73877344E-01  1.17266209E+00  1.18973593E+00  1.19218107E+00
  1.27129316E+00  1.32365510E+00  1.34985845E+00  1.35071450E+00  1.49665667E+00
  1.60708295E+00  1.69632861E+00  1.71887840E+00  1.74865630E+00  1.84552153E+00
  1.84785464E+00  1.92062044E+00  2.17852093E+00  2.21250099E+00  2.28102285E+00
  2.32882667E+00  2.41025278E+00  2.42415728E+00  2.46211796E+00  2.53095354E+00
  2.59457099E+00  2.71134590E+00  2.82682568E+00  3.46919394E+00  3.56787618E+00
  3.86480521E+00  2.35615090E+01  2.35619416E+01
Alpha MO coefficients                      R   N=        4624
  3.98979359E-01  3.27962988E-01  7.46637158E-04  1.38579105E-08  1.23983455E-12
  8.51955678E-03 -1.67159317E-03 -2.67422096E-08 -3.12431416E-12 -2.18478940E-03
 -6.96476162E-05  4.61960152E-08 -6.42333693E-14 -6.10136801E-04  5.87724777E-04
 -3.36244993E-08  1.28018154E-12 -7.07816624E-04  9.42519430E-13  3.26559110E-14
 -8.90083303E-04 -7.46254369E-08  3.98979359E-01  3.27962988E-01 -7.46637158E-04
 -1.38579140E-08 -1.15776313E-12  8.51955678E-03  1.67159317E-03  2.67422189E-08
  2.95185108E-12 -2.18478940E-03  6.96476161E-05 -4.61960275E-08  8.25005953E-14
 -6.10136801E-04 -5.87724777E-04  3.36244873E-08 -1.25652686E-12 -7.07816624E-04
  8.81641578E-13 -3.30131514E-14 -8.90083303E-04 -7.46254358E-08  1.60704174E-04
 -2.37506261E-03  1.57942235E-03 -7.22753062E-04 -1.27310354E-03 -1.04362528E-12
  1.60704836E-04 -2.37516728E-03  1.57947306E-03 -7.22829271E-04  1.27309554E-03
 -1.00765323E-12  1.60704174E-04 -2.37506261E-03  1.57942235E-03  7.22753062E-04
  1.27310354E-03  9.53673228E-13  1.60704836E-04 -2.37516728E-03  1.57947306E-03
  7.22829271E-04 -1.27309554E-03  9.88911227E-13  3.99016700E-01  3.28055994E-01
  1.45231314E-04  6.22998062E-09  1.06022221E-12  7.97745095E-03 -5.62045101E-04
 -1.38867636E-08 -2.55629100E-12 -4.03264902E-03 -9.92084349E-04  3.74558698E-09
  5.17113121E-13  3.15687630E-03  1.43869927E-03  7.89279050E-09  3.55270032E-13
 -9.07693551E-04  8.43782787E-13  1.89048921E-14 -8.45033157E-05 -3.24155104E-08
 -3.99016700E-01 -3.28055994E-01  1.45231314E-04  6.22998237E-09  9.84171671E-13
 -7.97745095E-03 -5.62045101E-04 -1.38867642E-08 -2.41769731E-12  4.03264902E-03
 -9.92084349E-04  3.74564815E-09  4.85552056E-13 -3.15687630E-03  1.43869927E-03
  7.89282169E-09  3.14459149E-13  9.07693551E-04 -7.98129234E-13  1.82712014E-14
  8.45033158E-05  3.24155144E-08  2.29242070E-04 -1.70340285E-03  1.32264524E-03
 -4.67248491E-04 -1.02972758E-03 -8.75099347E-13  2.29231870E-04 -1.70342982E-03
  1.32265178E-03 -4.67289113E-04  1.02972266E-03 -8.44421286E-13 -2.29242070E-04
  1.70340285E-03 -1.32264524E-03 -4.67248491E-04 -1.02972758E-03 -8.00131998E-13
 -2.29231870E-04  1.70342982E-03 -1.32265178E-03 -4.67289113E-04  1.02972267E-03
 -8.31082005E-13 -8.38173432E-02 -1.36125619E-01  3.58613385E-02 -4.22395666E-07
 -1.29294809E-11  3.69600110E-01  6.05755020E-02 -3.86394945E-07 -1.21891591E-11
  2.13633104E-01  1.82476353E-02 -3.39226091E-07 -6.06191521E-12  8.70780874E-05
 -9.89751217E-03  1.56880634E-07 -1.26840485E-11 -6.22821601E-03  2.15358936E-12
 -9.61373345E-14  8.17069381E-03 -2.54372802E-07 -8.38173432E-02 -1.36125619E-01
 -3.58613385E-02  4.22395658E-07  1.18897130E-11  3.69600110E-01 -6.05755020E-02
  3.86394941E-07  1.06069400E-11  2.13633104E-01 -1.82476353E-02  3.39226085E-07
  5.26484529E-12  8.70780880E-05  9.89751217E-03 -1.56880642E-07  1.24903799E-11
 -6.22821601E-03  2.19220817E-12  9.47965922E-14  8.17069381E-03 -2.54372797E-07
  5.37243643E-02  5.73811934E-02 -9.81948266E-03  6.16516268E-03  9.41402048E-03
  7.22351841E-12  5.37236231E-02  5.73808407E-02 -9.81964423E-03  6.16548936E-03
 -9.41352053E-03  7.01503584E-12  5.37243643E-02  5.73811934E-02 -9.81948266E-03
 -6.16516268E-03 -9.41402048E-03 -6.63856115E-12  5.37236231E-02  5.73808407E-02
 -9.81964423E-03 -6.16548936E-03  9.41352053E-03 -6.84328063E-12 -7.30925421E-02
 -1.19806426E-01 -6.77698734E-02 -3.79743950E-07 -6.03982509E-11  3.32919443E-01
 -1.00663452E-01 -5.69785089E-07 -8.31959534E-11  2.66992710E-01 -2.52796976E-02
 -4.50151785E-07 -4.01898058E-11 -6.52785759E-02 -2.25166887E-02 -1.99619683E-08
 -3.52724609E-12 -1.21352266E-03  1.60424490E-12  7.48566828E-14 -1.16756481E-02
 -4.92682420E-07  7.30925421E-02  1.19806426E-01 -6.77698734E-02 -3.79743948E-07
 -5.76227788E-11 -3.32919443E-01 -1.00663452E-01 -5.69785072E-07 -8.00924522E-11
 -2.66992710E-01 -2.52796976E-02 -4.50151860E-07 -3.83913171E-11  6.52785759E-02
 -2.25166887E-02 -1.99620455E-08 -2.47662490E-12  1.21352266E-03 -1.15419951E-12
  7.32662103E-14  1.16756481E-02  4.92682420E-07  8.57328859E-02  1.00901040E-01
 -2.82700691E-03  4.72214516E-03  1.34184218E-02  9.26616754E-12  8.57344798E-02
  1.00903196E-01 -2.82698628E-03  4.72290293E-03 -1.34184413E-02  8.90132432E-12
 -8.57328859E-02 -1.00901040E-01  2.82700691E-03  4.72214516E-03  1.34184218E-02
  8.36039738E-12 -8.57344798E-02 -1.00903196E-01  2.82698628E-03  4.72290293E-03
 -1.34184413E-02  8.72046877E-12  4.69156787E-08  9.03700894E-08 -1.52964095E-06
  1.58495090E-01  1.24898178E-12 -2.00997008E-07 -1.66505268E-06  2.38110436E-01
  1.65061778E-12 -2.06227151E-06 -2.09809187E-06  1.41931703E-01  9.68583286E-13
 -6.32298224E-06 -1.96168258E-06  4.21721828E-03  2.93950804E-13  1.42469320E-07
 -2.01402839E-13 -1.98835065E-11  9.54488670E-07  1.74478494E-03 -4.69156854E-08
 -9.03701014E-08 -1.52964091E-06  1.58495090E-01 -1.21700580E-12  2.00997043E-07
 -1.66505262E-06  2.38110436E-01 -1.60412899E-12  2.06227157E-06 -2.09809183E-06
  1.41931703E-01 -9.42157537E-13  6.32298224E-06 -1.96168257E-06  4.21721828E-03
 -2.92396835E-13 -1.42469320E-07 -2.02242400E-13  1.86362846E-11 -9.54488668E-07
 -1.74478494E-03 -9.67313643E-02 -1.20643161E-01  1.18644103E-03 -8.60951801E-03
 -9.35780956E-03 -1.29540893E-11  9.67298318E-02  1.20641500E-01 -1.18618195E-03
  8.61018316E-03 -9.35751927E-03  1.26272874E-11  9.67313643E-02  1.20643161E-01
 -1.18644103E-03 -8.60951801E-03 -9.35780956E-03 -1.19501773E-11 -9.67298318E-02
 -1.20641500E-01  1.18618195E-03  8.61018316E-03 -9.35751927E-03  1.22752091E-11
 -7.39231008E-04 -1.37604253E-03  1.91237053E-01 -1.75374905E-05  8.75087779E-11
  1.06323073E-02  2.94121042E-01 -2.52894822E-05  1.24877494E-10 -2.23175734E-02
  1.47207926E-01 -1.99112440E-05  7.92132393E-11 -3.19825613E-03 -1.04507468E-02
 -3.38276592E-06  2.83791861E-12 -1.27129728E-03 -9.27356582E-12 -2.18992984E-13
  2.09294283E-02  3.40820908E-06 -7.39231008E-04 -1.37604253E-03 -1.91237053E-01
  1.75374906E-05 -8.00480391E-11  1.06323073E-02 -2.94121042E-01  2.52894822E-05
 -1.12858619E-10 -2.23175734E-02 -1.47207926E-01  1.99112440E-05 -7.29688595E-11
 -3.19825613E-03  1.04507468E-02  3.38276592E-06 -2.43630500E-12 -1.27129728E-03
 -9.60582797E-12  2.20630562E-13  2.09294283E-02  3.40820908E-06 -7.27968196E-02
 -1.02110323E-01 -1.91373761E-02  2.28092299E-03 -1.07211187E-02 -4.72462488E-12
 -7.28259619E-02 -1.02148190E-01 -1.91374048E-02  2.27787570E-03  1.07235086E-02
 -4.39973568E-12 -7.27968196E-02 -1.02110323E-01 -1.91373761E-02 -2.28092299E-03
  1.07211187E-02  4.26916152E-12 -7.28259619E-02 -1.02148190E-01 -1.91374048E-02
 -2.27787570E-03 -1.07235086E-02  4.59672351E-12 -6.74594369E-07 -1.15044775E-06
  2.23384479E-05  1.59715174E-01  4.47067519E-12  4.33522092E-06  3.48461060E-05
  2.36515921E-01  7.06937609E-12  1.05172158E-06  1.73988036E-05  1.72720997E-01
  4.63788127E-12 -5.22446678E-08 -2.02951739E-06  1.58343636E-02 -3.49005137E-14
 -2.82878461E-08  3.18026289E-13 -3.07182493E-11  3.61173116E-06 -2.72263172E-02
 -6.74594370E-07 -1.15044775E-06 -2.23384479E-05 -1.59715174E-01  4.41820281E-12
  4.33522093E-06 -3.48461061E-05 -2.36515921E-01  6.99225572E-12  1.05172153E-06
 -1.73988035E-05 -1.72720997E-01  4.58939785E-12 -5.22453244E-08  2.02951758E-06
 -1.58343636E-02 -4.21382868E-14 -2.82878410E-08 -3.25126183E-13 -2.93288361E-11
  3.61173115E-06 -2.72263172E-02 -1.12781968E-01 -1.52693622E-01 -1.70194569E-02
 -9.02998312E-03 -7.29703747E-03 -1.11557183E-11  1.12763301E-01  1.52666589E-01
  1.70122092E-02  9.03112326E-03 -7.29373794E-03  1.11837383E-11 -1.12781968E-01
 -1.52693622E-01 -1.70194569E-02  9.02998312E-03  7.29703747E-03  1.06067858E-11
  1.12763301E-01  1.52666589E-01  1.70122092E-02 -9.03112326E-03  7.29373794E-03
 -1.05738807E-11 -4.75888110E-11 -8.18620152E-11 -3.12912827E-11 -4.63477532E-12
  1.85956588E-01  2.62944611E-10 -5.85521731E-11 -8.05914065E-12  3.11804451E-01
  2.53187423E-10 -8.38296824E-12 -1.15645683E-11  2.50127171E-01 -5.78284510E-10
 -1.56051508E-10 -2.86991432E-12 -2.74448141E-03  1.32439027E-11  2.79857386E-02
 -7.50421460E-08  8.57954891E-14  1.19079971E-12  4.62000875E-11  7.94162468E-11
 -2.18467949E-11  4.59713308E-12  1.85956588E-01 -2.54701021E-10 -4.42252412E-11
  7.99207237E-12  3.11804451E-01 -2.45558604E-10  2.07666576E-12  1.14838220E-11
  2.50127171E-01  5.76867744E-10 -1.59103435E-10  2.85212302E-12 -2.74448141E-03
 -1.27003434E-11 -2.79857386E-02  7.50421433E-08 -6.14224185E-13  1.19341214E-12
 -3.93788818E-11 -3.93722931E-11  2.92974533E-11 -6.63925486E-12 -5.39266024E-12
  1.01343616E-02 -4.31696403E-11 -4.08846169E-11  3.40977721E-11 -6.13335370E-12
  4.39759321E-12  1.01344269E-02  4.29767147E-11  4.16128031E-11 -3.26316688E-11
 -5.52086295E-12 -4.38153645E-12  1.01343616E-02  3.91836026E-11  4.00846030E-11
 -2.79224599E-11 -6.02176625E-12  5.36722435E-12  1.01344269E-02 -3.26640440E-11
 -5.71790343E-11 -1.34804978E-10 -2.30367383E-12  2.07094460E-01  1.75566976E-10
 -2.24237360E-10 -4.58276264E-12  3.38281263E-01  4.17763616E-10 -2.50029747E-10
 -8.99672758E-12  4.33204351E-01  2.08720604E-10  1.31709281E-12 -2.92356036E-12
  1.08373949E-01  2.06619566E-11 -2.15638910E-02 -8.18275451E-08  9.13004610E-12
 -6.43530602E-14 -2.97075872E-11 -5.21004334E-11  1.32462015E-10 -2.25915863E-12
 -2.07094460E-01  1.57846883E-10  2.22859608E-10 -4.50461860E-12 -3.38281263E-01
  4.14790501E-10  2.31130292E-10 -8.74237718E-12 -4.33204351E-01 -8.20774469E-11
  8.79698922E-11 -2.80895616E-12 -1.08373949E-01  1.86487713E-11 -2.15638910E-02
 -8.18275444E-08  8.28059446E-12  7.88803490E-14 -7.55674931E-11 -1.40959110E-10
 -1.17468240E-10 -1.24098234E-11 -6.52986037E-12  1.79793942E-02 -7.28146493E-11
 -1.33340445E-10 -1.03234498E-10 -1.19063249E-11  5.16726618E-12  1.79797677E-02
 -6.78866984E-11 -1.28829964E-10 -8.94062239E-11  1.24339781E-11  5.53878650E-12
 -1.79793942E-02 -7.06433723E-11 -1.36357364E-10 -1.03429784E-10  1.29263507E-11
 -6.88076636E-12 -1.79797677E-02  3.10804696E-02  5.38588564E-02  4.33846442E-02
  1.44388650E-06  4.49462936E-11 -1.69962352E-01  6.31581184E-02  1.56447645E-06
  1.09473284E-10 -6.71338758E-01  1.98522879E-01  1.63695282E-05  1.74520655E-10
  8.36165058E-01 -1.22207152E-01  2.50910032E-05 -3.27146463E-10  1.07501235E-02
 -1.13359507E-11 -1.48229290E-13 -5.71373623E-03  4.58348291E-07  3.10804696E-02
  5.38588564E-02 -4.33846442E-02 -1.44388644E-06 -4.30641498E-11 -1.69962352E-01
 -6.31581184E-02 -1.56447637E-06 -1.03634826E-10 -6.71338758E-01 -1.98522879E-01