 Entering Gaussian System, Link 0=g16
 Initial command:
 /home/szhao/Apps/g16/l1.exe "/home/szhao/tmp/Gau-67406.inp" -scrdir="/home/szhao/tmp/"
 Default is to use a total of  16 processors:
                               16 via shared-memory
                                1 via Linda
 Entering Link 1 = /home/szhao/Apps/g16/l1.exe PID=     67408.
  
 Copyright (c) 1988,1990,1992,1993,1995,1998,2003,2009,2016,
            Gaussian, Inc.  All Rights Reserved.
  
 This is part of the Gaussian(R) 16 program.  It is based on
 the Gaussian(R) 09 system (copyright 2009, Gaussian, Inc.),
 the Gaussian(R) 03 system (copyright 2003, Gaussian, Inc.),
 the Gaussian(R) 98 system (copyright 1998, Gaussian, Inc.),
 the Gaussian(R) 94 system (copyright 1995, Gaussian, Inc.),
 the Gaussian 92(TM) system (copyright 1992, Gaussian, Inc.),
 the Gaussian 90(TM) system (copyright 1990, Gaussian, Inc.),
 the Gaussian 88(TM) system (copyright 1988, Gaussian, Inc.),
 the Gaussian 86(TM) system (copyright 1986, Carnegie Mellon
 University), and the Gaussian 82(TM) system (copyright 1983,
 Carnegie Mellon University). Gaussian is a federally registered
 trademark of Gaussian, Inc.
  
 This software contains proprietary and confidential information,
 including trade secrets, belonging to Gaussian, Inc.
  
 This software is provided under written license and may be
 used, copied, transmitted, or stored only in accord with that
 written license.
  
 The following legend is applicable only to US Government
 contracts under FAR:
  
                    RESTRICTED RIGHTS LEGEND
  
 Use, reproduction and disclosure by the US Government is
 subject to restrictions as set forth in subparagraphs (a)
 and (c) of the Commercial Computer Software - Restricted
 Rights clause in FAR 52.227-19.
  
 Gaussian, Inc.
 340 Quinnipiac St., Bldg. 40, Wallingford CT 06492
  
  
 ---------------------------------------------------------------
 Warning -- This program may not be used in any manner that
 competes with the business of Gaussian, Inc. or will provide
 assistance to any competitor of Gaussian, Inc.  The licensee
 of this program is prohibited from giving any competitor of
 Gaussian, Inc. access to this program.  By using this program,
 the user acknowledges that Gaussian, Inc. is engaged in the
 business of creating and licensing software in the field of
 computational chemistry and represents and warrants to the
 licensee that it is not a competitor of Gaussian, Inc. and that
 it will not use this program in any manner prohibited above.
 ---------------------------------------------------------------
  

 Cite this work as:
 Gaussian 16, Revision A.03,
 M. J. Frisch, G. W. Trucks, H. B. Schlegel, G. E. Scuseria, 
 M. A. Robb, J. R. Cheeseman, G. Scalmani, V. Barone, 
 G. A. Petersson, H. Nakatsuji, X. Li, M. Caricato, A. V. Marenich, 
 J. Bloino, B. G. Janesko, R. Gomperts, B. Mennucci, H. P. Hratchian, 
 J. V. Ortiz, A. F. Izmaylov, J. L. Sonnenberg, D. Williams-Young, 
 F. Ding, F. Lipparini, F. Egidi, J. Goings, B. Peng, A. Petrone, 
 T. Henderson, D. Ranasinghe, V. G. Zakrzewski, J. Gao, N. Rega, 
 G. Zheng, W. Liang, M. Hada, M. Ehara, K. Toyota, R. Fukuda, 
 J. Hasegawa, M. Ishida, T. Nakajima, Y. Honda, O. Kitao, H. Nakai, 
 T. Vreven, K. Throssell, J. A. Montgomery, Jr., J. E. Peralta, 
 F. Ogliaro, M. J. Bearpark, J. J. Heyd, E. N. Brothers, K. N. Kudin, 
 V. N. Staroverov, T. A. Keith, R. Kobayashi, J. Normand, 
 K. Raghavachari, A. P. Rendell, J. C. Burant, S. S. Iyengar, 
 J. Tomasi, M. Cossi, J. M. Millam, M. Klene, C. Adamo, R. Cammi, 
 J. W. Ochterski, R. L. Martin, K. Morokuma, O. Farkas, 
 J. B. Foresman, and D. J. Fox, Gaussian, Inc., Wallingford CT, 2016.
 
 ******************************************
 Gaussian 16:  ES64L-G16RevA.03 25-Dec-2016
                 3-Dec-2024 
 ******************************************
 %chk=opt.chk
 %mem=4GB
 %nprocshared=8
 Will use up to    8 processors via shared memory.
 --------------------------------------------
 #p opt UM062X/6-311+G** nosymm int=superfine
 --------------------------------------------
 1/18=20,19=15,26=5,38=1/1,3;
 2/9=110,12=2,15=1,17=6,18=5,40=1/2;
 3/5=4,6=6,7=111,11=2,25=1,30=1,71=1,74=-55,75=-7,116=2/1,2,3;
 4//1;
 5/5=2,38=5/2;
 6/7=2,8=2,9=2,10=2,28=1/1;
 7/30=1/1,2,3,16;
 1/18=20,19=15,26=5/3(2);
 2/9=110,15=1/2;
 99//99;
 2/9=110,15=1/2;
 3/5=4,6=6,7=111,11=2,25=1,30=1,71=1,74=-55,75=-7,116=2/1,2,3;
 4/5=5,16=3,69=1/1;
 5/5=2,38=5/2;
 7/30=1/1,2,3,16;
 1/18=20,19=15,26=5/3(-5);
 2/9=110,15=1/2;
 6/7=2,8=2,9=2,10=2,19=2,28=1/1;
 99/9=1/99;
 Leave Link    1 at Tue Dec  3 20:04:30 2024, MaxMem=   536870912 cpu:               0.3 elap:               0.0
 (Enter /home/szhao/Apps/g16/l101.exe)
 -------------------
 Title Card Required
 -------------------
 Symbolic Z-matrix:
 Charge =  0 Multiplicity = 1
 C                    -1   -0.6464    0.        0. 
 C                    -1    0.6464    0.        0. 
 H                    0    -1.79596   0.        0. 
 H                    0     1.79594   0.        0. 
 
 ITRead=  2  2  0  0
 MicOpt= -2 -2 -1 -1
 NAtoms=      4 NQM=        2 NQMF=       2 NMMI=      0 NMMIF=      0
                NMic=       0 NMicF=      0.
                    Isotopes and Nuclear Properties:
 (Nuclear quadrupole moments (NQMom) in fm**2, nuclear magnetic moments (NMagM)
  in nuclear magnetons)

  Atom         1           2           3           4
 IAtWgt=          12          12           1           1
 AtmWgt=  12.0000000  12.0000000   1.0078250   1.0078250
 NucSpn=           0           0           1           1
 AtZEff=  -0.0000000  -0.0000000  -0.0000000  -0.0000000
 NQMom=    0.0000000   0.0000000   0.0000000   0.0000000
 NMagM=    0.0000000   0.0000000   2.7928460   2.7928460
 AtZNuc=   6.0000000   6.0000000   1.0000000   1.0000000
 Leave Link  101 at Tue Dec  3 20:04:30 2024, MaxMem=   536870912 cpu:               2.1 elap:               0.3
 (Enter /home/szhao/Apps/g16/l103.exe)

 GradGradGradGradGradGradGradGradGradGradGradGradGradGradGradGradGradGrad
 Berny optimization.
 Initialization pass.
                           ----------------------------
                           !    Initial Parameters    !
                           ! (Angstroms and Degrees)  !
 --------------------------                            --------------------------
 ! Name  Definition              Value          Derivative Info.                !
 --------------------------------------------------------------------------------
 ! X1    R(1,-1)                -0.6464         Frozen                          !
 ! Y1    R(1,-2)                 0.0            Frozen                          !
 ! Z1    R(1,-3)                 0.0            Frozen                          !
 ! X2    R(2,-1)                 0.6464         Frozen                          !
 ! Y2    R(2,-2)                 0.0            Frozen                          !
 ! Z2    R(2,-3)                 0.0            Frozen                          !
 ! R1    R(1,3)                  1.1496         estimate D2E/DX2                !
 ! R2    R(2,4)                  1.1495         estimate D2E/DX2                !
 ! A1    L(2,1,3,-2,-1)        180.0            estimate D2E/DX2                !
 ! A2    L(1,2,4,-2,-1)        180.0            estimate D2E/DX2                !
 ! A3    L(2,1,3,-3,-2)        180.0            estimate D2E/DX2                !
 ! A4    L(1,2,4,-3,-2)        180.0            estimate D2E/DX2                !
 --------------------------------------------------------------------------------
 Trust Radius=3.00D-01 FncErr=1.00D-07 GrdErr=1.00D-07 EigMax=2.50D+02 EigMin=1.00D-04
 Number of steps in this run=     22 maximum allowed number of steps=    100.
 GradGradGradGradGradGradGradGradGradGradGradGradGradGradGradGradGradGrad

 Leave Link  103 at Tue Dec  3 20:04:30 2024, MaxMem=   536870912 cpu:               0.1 elap:               0.0
 (Enter /home/szhao/Apps/g16/l202.exe)
                          Input orientation:                          
 ---------------------------------------------------------------------
 Center     Atomic      Atomic             Coordinates (Angstroms)
 Number     Number       Type             X           Y           Z
 ---------------------------------------------------------------------
      1          6           0       -0.646397    0.000000    0.000000
      2          6           0        0.646397    0.000000    0.000000
      3          1           0       -1.795958    0.000000    0.000000
      4          1           0        1.795941    0.000000    0.000000
 ---------------------------------------------------------------------
                    Distance matrix (angstroms):
                    1          2          3          4
     1  C    0.000000
     2  C    1.292793   0.000000
     3  H    1.149562   2.442355   0.000000
     4  H    2.442338   1.149544   3.591900   0.000000
 Symmetry turned off by external request.
 Stoichiometry    C2H2
 Framework group  C*V[C*(HCCH)]
 Deg. of freedom     3
 Full point group                 C*V     NOp   4
 Rotational constants (GHZ):           0.0000000          30.5748491          30.5748491
 Leave Link  202 at Tue Dec  3 20:04:30 2024, MaxMem=   536870912 cpu:               0.0 elap:               0.0
 (Enter /home/szhao/Apps/g16/l301.exe)
 Standard basis: 6-311+G(d,p) (5D, 7F)
 Ernie: Thresh=  0.10000D-02 Tol=  0.10000D-05 Strict=F.
    56 basis functions,    88 primitive gaussians,    58 cartesian basis functions
     7 alpha electrons        7 beta electrons
       nuclear repulsion energy        23.0071573825 Hartrees.
 IExCor= 4336 DFT=T Ex+Corr=M062X ExCW=0 ScaHFX=  0.540000
 ScaDFX=  1.000000  1.000000  1.000000  1.000000 ScalE2=  1.000000  1.000000
 IRadAn=      7 IRanWt=     -1 IRanGd=            0 ICorTp=0 IEmpDi=  4
 NAtoms=    4 NActive=    4 NUniq=    4 SFac= 1.00D+00 NAtFMM=   60 NAOKFM=F Big=F
 Integral buffers will be    131072 words long.
 Raffenetti 2 integral format.
 Two-electron integral symmetry is turned off.
 Leave Link  301 at Tue Dec  3 20:04:30 2024, MaxMem=   536870912 cpu:               0.3 elap:               0.0
 (Enter /home/szhao/Apps/g16/l302.exe)
 NPDir=0 NMtPBC=     1 NCelOv=     1 NCel=       1 NClECP=     1 NCelD=      1
         NCelK=      1 NCelE2=     1 NClLst=     1 CellRange=     0.0.
 One-electron integrals computed using PRISM.
 NBasis=    56 RedAO= T EigKep=  1.50D-04  NBF=    56
 NBsUse=    56 1.00D-06 EigRej= -1.00D+00 NBFU=    56
 Precomputing XC quadrature grid using
 IXCGrd= 4 IRadAn=           7 IRanWt=          -1 IRanGd=           0 AccXCQ= 0.00D+00.
 Generated NRdTot=       0 NPtTot=           0 NUsed=           0 NTot=          32
 NSgBfM=    58    58    58    58    58 MxSgAt=     4 MxSgA2=     4.
 Leave Link  302 at Tue Dec  3 20:04:30 2024, MaxMem=   536870912 cpu:               0.9 elap:               0.1
 (Enter /home/szhao/Apps/g16/l303.exe)
 DipDrv:  MaxL=1.
 Leave Link  303 at Tue Dec  3 20:04:30 2024, MaxMem=   536870912 cpu:               0.3 elap:               0.0
 (Enter /home/szhao/Apps/g16/l401.exe)
 ExpMin= 4.38D-02 ExpMax= 4.56D+03 ExpMxC= 6.82D+02 IAcc=3 IRadAn=         7 AccDes= 0.00D+00
 Harris functional with IExCor= 1009 and IRadAn=       7 diagonalized for initial guess.
 HarFok:  IExCor= 1009 AccDes= 0.00D+00 IRadAn=         7 IDoV= 1 UseB2=F ITyADJ=14
 ICtDFT=  3500011 ScaDFX=  1.000000  1.000000  1.000000  1.000000
 FoFCou: FMM=F IPFlag=           0 FMFlag=      100000 FMFlg1=           0
         NFxFlg=           0 DoJE=T BraDBF=F KetDBF=T FulRan=T
         wScrn=  0.000000 ICntrl=       500 IOpCl=  0 I1Cent=   200000004 NGrid=           0
         NMat0=    1 NMatS0=      1 NMatT0=    0 NMatD0=    1 NMtDS0=    0 NMtDT0=    0
 Symmetry not used in FoFCou.
 Harris En= -77.2663026426686    
 JPrj=0 DoOrth=F DoCkMO=F.
 Initial guess <Sx>= 0.0000 <Sy>= 0.0000 <Sz>= 0.0000 <S**2>=-0.0000 S=-0.0000
 Leave Link  401 at Tue Dec  3 20:04:31 2024, MaxMem=   536870912 cpu:               1.7 elap:               0.2
 (Enter /home/szhao/Apps/g16/l502.exe)
 Keep R1 and R2 ints in memory in canonical form, NReq=9624198.
 FoFCou: FMM=F IPFlag=           0 FMFlag=           0 FMFlg1=           0
         NFxFlg=           0 DoJE=F BraDBF=F KetDBF=F FulRan=T
         wScrn=  0.000000 ICntrl=       600 IOpCl=  0 I1Cent=           0 NGrid=           0
         NMat0=    1 NMatS0=   1596 NMatT0=    0 NMatD0=    1 NMtDS0=    0 NMtDT0=    0
 Symmetry not used in FoFCou.
 Two-electron integral symmetry not used.
 UHF open shell SCF:
 Using DIIS extrapolation, IDIIS=  1040.
 NGot=   536870912 LenX=   534314338 LenY=   534310533
 Requested convergence on RMS density matrix=1.00D-08 within 128 cycles.
 Requested convergence on MAX density matrix=1.00D-06.
 Requested convergence on             energy=1.00D-06.
 No special actions if energy rises.

 Cycle   1  Pass 1  IDiag  1:
 E= -77.2354857112352    
 DIIS: error= 5.09D-02 at cycle   1 NSaved=   1.
 NSaved= 1 IEnMin= 1 EnMin= -77.2354857112352     IErMin= 1 ErrMin= 5.09D-02
 ErrMax= 5.09D-02  0.00D+00 EMaxC= 1.00D-01 BMatC= 2.37D-01 BMatP= 2.37D-01
 IDIUse=3 WtCom= 4.91D-01 WtEn= 5.09D-01
 Coeff-Com:  0.100D+01
 Coeff-En:   0.100D+01
 Coeff:      0.100D+01
 Gap=     0.379 Goal=   None    Shift=    0.000
 Gap=     0.379 Goal=   None    Shift=    0.000
 GapD=    0.379 DampG=1.000 DampE=0.500 DampFc=0.5000 IDamp=-1.
 Damping current iteration by 5.00D-01
 RMSDP=5.00D-03 MaxDP=6.93D-02              OVMax= 1.33D-01

 Cycle   2  Pass 1  IDiag  1:
 E= -77.2655835227930     Delta-E=       -0.030097811558 Rises=F Damp=T
 DIIS: error= 1.13D-02 at cycle   2 NSaved=   2.
 NSaved= 2 IEnMin= 2 EnMin= -77.2655835227930     IErMin= 2 ErrMin= 1.13D-02
 ErrMax= 1.13D-02  0.00D+00 EMaxC= 1.00D-01 BMatC= 1.37D-02 BMatP= 2.37D-01
 IDIUse=3 WtCom= 8.87D-01 WtEn= 1.13D-01
 Coeff-Com: -0.196D+00 0.120D+01
 Coeff-En:   0.000D+00 0.100D+01
 Coeff:     -0.173D+00 0.117D+01
 Gap=     0.365 Goal=   None    Shift=    0.000
 Gap=     0.365 Goal=   None    Shift=    0.000
 RMSDP=1.34D-03 MaxDP=1.96D-02 DE=-3.01D-02 OVMax= 6.10D-02

 Cycle   3  Pass 1  IDiag  1:
 E= -77.2916401012533     Delta-E=       -0.026056578460 Rises=F Damp=F
 DIIS: error= 1.87D-03 at cycle   3 NSaved=   3.
 NSaved= 3 IEnMin= 3 EnMin= -77.2916401012533     IErMin= 3 ErrMin= 1.87D-03
 ErrMax= 1.87D-03  0.00D+00 EMaxC= 1.00D-01 BMatC= 2.31D-04 BMatP= 1.37D-02
 IDIUse=3 WtCom= 9.81D-01 WtEn= 1.87D-02
 Coeff-Com: -0.431D-01 0.979D-01 0.945D+00
 Coeff-En:   0.000D+00 0.000D+00 0.100D+01
 Coeff:     -0.423D-01 0.960D-01 0.946D+00
 Gap=     0.362 Goal=   None    Shift=    0.000
 Gap=     0.362 Goal=   None    Shift=    0.000
 RMSDP=1.58D-04 MaxDP=1.91D-03 DE=-2.61D-02 OVMax= 2.84D-03

 Cycle   4  Pass 1  IDiag  1:
 E= -77.2917084394937     Delta-E=       -0.000068338240 Rises=F Damp=F
 DIIS: error= 5.99D-05 at cycle   4 NSaved=   4.
 NSaved= 4 IEnMin= 4 EnMin= -77.2917084394937     IErMin= 4 ErrMin= 5.99D-05
 ErrMax= 5.99D-05  0.00D+00 EMaxC= 1.00D-01 BMatC= 4.06D-07 BMatP= 2.31D-04
 IDIUse=1 WtCom= 1.00D+00 WtEn= 0.00D+00
 Coeff-Com:  0.281D-02-0.690D-02-0.264D-01 0.103D+01
 Coeff:      0.281D-02-0.690D-02-0.264D-01 0.103D+01
 Gap=     0.363 Goal=   None    Shift=    0.000
 Gap=     0.363 Goal=   None    Shift=    0.000
 RMSDP=1.99D-05 MaxDP=2.88D-04 DE=-6.83D-05 OVMax= 1.68D-04

 Cycle   5  Pass 1  IDiag  1:
 E= -77.2917085840085     Delta-E=       -0.000000144515 Rises=F Damp=F
 DIIS: error= 5.42D-06 at cycle   5 NSaved=   5.
 NSaved= 5 IEnMin= 5 EnMin= -77.2917085840085     IErMin= 5 ErrMin= 5.42D-06
 ErrMax= 5.42D-06  0.00D+00 EMaxC= 1.00D-01 BMatC= 4.97D-09 BMatP= 4.06D-07
 IDIUse=1 WtCom= 1.00D+00 WtEn= 0.00D+00
 Coeff-Com:  0.125D-03-0.361D-03-0.311D-02-0.375D-01 0.104D+01
 Coeff:      0.125D-03-0.361D-03-0.311D-02-0.375D-01 0.104D+01
 Gap=     0.363 Goal=   None    Shift=    0.000
 Gap=     0.363 Goal=   None    Shift=    0.000
 RMSDP=2.47D-06 MaxDP=3.67D-05 DE=-1.45D-07 OVMax= 3.55D-05

 Cycle   6  Pass 1  IDiag  1:
 E= -77.2917085841968     Delta-E=       -0.000000000188 Rises=F Damp=F
 DIIS: error= 9.93D-06 at cycle   6 NSaved=   6.
 NSaved= 6 IEnMin= 6 EnMin= -77.2917085841968     IErMin= 5 ErrMin= 5.42D-06
 ErrMax= 9.93D-06  0.00D+00 EMaxC= 1.00D-01 BMatC= 8.98D-09 BMatP= 4.97D-09
 IDIUse=1 WtCom= 1.00D+00 WtEn= 0.00D+00
 Coeff-Com:  0.348D-05-0.508D-04-0.125D-02-0.461D-01 0.645D+00 0.402D+00
 Coeff:      0.348D-05-0.508D-04-0.125D-02-0.461D-01 0.645D+00 0.402D+00
 Gap=     0.363 Goal=   None    Shift=    0.000
 Gap=     0.363 Goal=   None    Shift=    0.000
 RMSDP=5.00D-07 MaxDP=6.94D-06 DE=-1.88D-10 OVMax= 2.12D-05

 Cycle   7  Pass 1  IDiag  1:
 E= -77.2917085863968     Delta-E=       -0.000000002200 Rises=F Damp=F
 DIIS: error= 1.56D-06 at cycle   7 NSaved=   7.
 NSaved= 7 IEnMin= 7 EnMin= -77.2917085863968     IErMin= 7 ErrMin= 1.56D-06
 ErrMax= 1.56D-06  0.00D+00 EMaxC= 1.00D-01 BMatC= 2.68D-10 BMatP= 4.97D-09
 IDIUse=1 WtCom= 1.00D+00 WtEn= 0.00D+00
 Coeff-Com: -0.358D-04 0.730D-04 0.207D-03-0.852D-02 0.222D-01 0.144D+00
 Coeff-Com:  0.842D+00
 Coeff:     -0.358D-04 0.730D-04 0.207D-03-0.852D-02 0.222D-01 0.144D+00
 Coeff:      0.842D+00
 Gap=     0.363 Goal=   None    Shift=    0.000
 Gap=     0.363 Goal=   None    Shift=    0.000
 RMSDP=1.69D-07 MaxDP=2.31D-06 DE=-2.20D-09 OVMax= 3.15D-06

 Cycle   8  Pass 1  IDiag  1:
 E= -77.2917085864715     Delta-E=       -0.000000000075 Rises=F Damp=F
 DIIS: error= 1.62D-07 at cycle   8 NSaved=   8.
 NSaved= 8 IEnMin= 8 EnMin= -77.2917085864715     IErMin= 8 ErrMin= 1.62D-07
 ErrMax= 1.62D-07  0.00D+00 EMaxC= 1.00D-01 BMatC= 1.62D-12 BMatP= 2.68D-10
 IDIUse=1 WtCom= 1.00D+00 WtEn= 0.00D+00
 Coeff-Com: -0.400D-05 0.872D-05 0.357D-04 0.384D-03-0.172D-01-0.595D-02
 Coeff-Com:  0.324D-01 0.990D+00
 Coeff:     -0.400D-05 0.872D-05 0.357D-04 0.384D-03-0.172D-01-0.595D-02
 Coeff:      0.324D-01 0.990D+00
 Gap=     0.363 Goal=   None    Shift=    0.000
 Gap=     0.363 Goal=   None    Shift=    0.000
 RMSDP=2.89D-08 MaxDP=4.40D-07 DE=-7.47D-11 OVMax= 4.02D-07

 Cycle   9  Pass 1  IDiag  1:
 E= -77.2917085864722     Delta-E=       -0.000000000001 Rises=F Damp=F
 DIIS: error= 7.55D-09 at cycle   9 NSaved=   9.
 NSaved= 9 IEnMin= 9 EnMin= -77.2917085864722     IErMin= 9 ErrMin= 7.55D-09
 ErrMax= 7.55D-09  0.00D+00 EMaxC= 1.00D-01 BMatC= 8.21D-15 BMatP= 1.62D-12
 IDIUse=1 WtCom= 1.00D+00 WtEn= 0.00D+00
 Coeff-Com:  0.670D-06-0.127D-05-0.543D-05 0.559D-04 0.105D-02-0.366D-03
 Coeff-Com: -0.750D-02-0.110D+00 0.112D+01
 Coeff:      0.670D-06-0.127D-05-0.543D-05 0.559D-04 0.105D-02-0.366D-03
 Coeff:     -0.750D-02-0.110D+00 0.112D+01
 Gap=     0.363 Goal=   None    Shift=    0.000
 Gap=     0.363 Goal=   None    Shift=    0.000
 RMSDP=2.22D-09 MaxDP=3.13D-08 DE=-7.11D-13 OVMax= 3.74D-08

 SCF Done:  E(UM062X) =  -77.2917085865     A.U. after    9 cycles
            NFock=  9  Conv=0.22D-08     -V/T= 2.0118
 <Sx>= 0.0000 <Sy>= 0.0000 <Sz>= 0.0000 <S**2>=-0.0000 S=-0.0000
 <L.S>=  0.00000000000    
 KE= 7.638812843415D+01 PE=-2.247952528606D+02 EE= 4.810825845751D+01
 Annihilation of the first spin contaminant:
 S**2 before annihilation    -0.0000,   after     0.0000
 Leave Link  502 at Tue Dec  3 20:04:33 2024, MaxMem=   536870912 cpu:              22.3 elap:               2.8
 (Enter /home/szhao/Apps/g16/l601.exe)
 Copying SCF densities to generalized density rwf, IOpCl= 1 IROHF=0.

 **********************************************************************

            Population analysis using the SCF density.

 **********************************************************************

 Alpha  occ. eigenvalues --  -10.58018 -10.57871  -0.82862  -0.63273  -0.54434
 Alpha  occ. eigenvalues --   -0.34171  -0.34171
 Alpha virt. eigenvalues --    0.02092   0.02593   0.03095   0.03095   0.07842
 Alpha virt. eigenvalues --    0.07842   0.08831   0.13242   0.13552   0.13552
 Alpha virt. eigenvalues --    0.18334   0.22451   0.37591   0.44015   0.57705
 Alpha virt. eigenvalues --    0.57705   0.64241   0.64241   0.71545   0.71954
 Alpha virt. eigenvalues --    0.80877   0.88995   1.07045   1.07780   1.07780
 Alpha virt. eigenvalues --    1.22373   1.22373   1.43496   1.43496   1.56941
 Alpha virt. eigenvalues --    1.56941   1.69983   1.76492   1.76492   1.98281
 Alpha virt. eigenvalues --    2.36942   2.36942   2.56718   2.66589   2.76834
 Alpha virt. eigenvalues --    2.76834   2.79921   2.96877   2.96877   3.16254
 Alpha virt. eigenvalues --    3.27767   3.68791  23.49518  24.70758
  Beta  occ. eigenvalues --  -10.58018 -10.57871  -0.82862  -0.63273  -0.54434
  Beta  occ. eigenvalues --   -0.34171  -0.34171
  Beta virt. eigenvalues --    0.02092   0.02593   0.03095   0.03095   0.07842
  Beta virt. eigenvalues --    0.07842   0.08831   0.13242   0.13552   0.13552
  Beta virt. eigenvalues --    0.18334   0.22451   0.37591   0.44015   0.57705
  Beta virt. eigenvalues --    0.57705   0.64241   0.64241   0.71545   0.71954
  Beta virt. eigenvalues --    0.80877   0.88995   1.07045   1.07780   1.07780
  Beta virt. eigenvalues --    1.22373   1.22373   1.43496   1.43496   1.56941
  Beta virt. eigenvalues --    1.56941   1.69983   1.76492   1.76492   1.98281
  Beta virt. eigenvalues --    2.36942   2.36942   2.56718   2.66589   2.76834
  Beta virt. eigenvalues --    2.76834   2.79921   2.96877   2.96877   3.16254
  Beta virt. eigenvalues --    3.27767   3.68791  23.49518  24.70758
          Condensed to atoms (all electrons):
               1          2          3          4
     1  C    4.847763   1.009439   0.333031   0.024757
     2  C    1.009439   4.847756   0.024760   0.333037
     3  H    0.333031   0.024760   0.426653   0.000562
     4  H    0.024757   0.333037   0.000562   0.426656
          Atomic-Atomic Spin Densities.
               1          2          3          4
     1  C   -0.000000   0.000000   0.000000  -0.000000
     2  C    0.000000   0.000000  -0.000000   0.000000
     3  H    0.000000  -0.000000   0.000000  -0.000000
     4  H   -0.000000   0.000000  -0.000000   0.000000
 Mulliken charges and spin densities:
               1          2
     1  C   -0.214990  -0.000000
     2  C   -0.214992   0.000000
     3  H    0.214994   0.000000
     4  H    0.214989   0.000000
 Sum of Mulliken charges =  -0.00000   0.00000
 Mulliken charges and spin densities with hydrogens summed into heavy atoms:
               1          2
     1  C    0.000003  -0.000000
     2  C   -0.000003   0.000000
 Electronic spatial extent (au):  <R**2>=             66.8724
 Charge=             -0.0000 electrons
 Dipole moment (field-independent basis, Debye):
    X=             -0.0000    Y=             -0.0000    Z=             -0.0000  Tot=              0.0000
 Quadrupole moment (field-independent basis, Debye-Ang):
   XX=             -5.9630   YY=            -14.4574   ZZ=            -14.4574
   XY=             -0.0000   XZ=              0.0000   YZ=             -0.0000
 Traceless Quadrupole moment (field-independent basis, Debye-Ang):
   XX=              5.6630   YY=             -2.8315   ZZ=             -2.8315
   XY=             -0.0000   XZ=              0.0000   YZ=             -0.0000
 Octapole moment (field-independent basis, Debye-Ang**2):
  XXX=             -0.0002  YYY=              0.0000  ZZZ=             -0.0000  XYY=              0.0000
  XXY=              0.0000  XXZ=             -0.0000  XZZ=              0.0000  YZZ=              0.0000
  YYZ=             -0.0000  XYZ=             -0.0000
 Hexadecapole moment (field-independent basis, Debye-Ang**3):
 XXXX=            -37.9298 YYYY=            -18.7572 ZZZZ=            -18.7572 XXXY=             -0.0000
 XXXZ=             -0.0000 YYYX=             -0.0000 YYYZ=              0.0000 ZZZX=              0.0000
 ZZZY=              0.0000 XXYY=            -14.6811 XXZZ=            -14.6811 YYZZ=             -6.2524
 XXYZ=              0.0000 YYXZ=              0.0000 ZZXY=             -0.0000
 N-N= 2.300715738245D+01 E-N=-2.247952529141D+02  KE= 7.638812843415D+01
                          Isotropic Fermi Contact Couplings
        Atom                 a.u.       MegaHertz       Gauss      10(-4) cm-1
     1  C(13)              0.00000       0.00000       0.00000       0.00000
     2  C(13)             -0.00000      -0.00000      -0.00000      -0.00000
     3  H(1)              -0.00000      -0.00000      -0.00000      -0.00000
     4  H(1)               0.00000       0.00000       0.00000       0.00000
 --------------------------------------------------------
       Center         ----  Spin Dipole Couplings  ----
                      3XX-RR        3YY-RR        3ZZ-RR
 --------------------------------------------------------
     1   Atom       -0.000000      0.000000      0.000000
     2   Atom       -0.000000      0.000000      0.000000
     3   Atom       -0.000000      0.000000      0.000000
     4   Atom       -0.000000      0.000000      0.000000
 --------------------------------------------------------
                        XY            XZ            YZ
 --------------------------------------------------------
     1   Atom       -0.000000     -0.000000      0.000000
     2   Atom        0.000000      0.000000      0.000000
     3   Atom        0.000000      0.000000      0.000000
     4   Atom       -0.000000     -0.000000      0.000000
 --------------------------------------------------------


 ---------------------------------------------------------------------------------
              Anisotropic Spin Dipole Couplings in Principal Axis System
 ---------------------------------------------------------------------------------

       Atom             a.u.   MegaHertz   Gauss  10(-4) cm-1        Axes

              Baa    -0.0000    -0.000    -0.000    -0.000  0.8861  0.0025  0.4634
     1 C(13)  Bbb     0.0000     0.000     0.000     0.000 -0.0015  1.0000 -0.0027
              Bcc     0.0000     0.000     0.000     0.000 -0.4634  0.0017  0.8861
 
              Baa    -0.0000    -0.000    -0.000    -0.000  0.9630 -0.0010 -0.2696
     2 C(13)  Bbb     0.0000     0.000     0.000     0.000  0.0003  1.0000 -0.0026
              Bcc     0.0000     0.000     0.000     0.000  0.2696  0.0025  0.9630
 
              Baa    -0.0000    -0.000    -0.000    -0.000  0.7807 -0.0126 -0.6247
     3 H(1)   Bbb     0.0000     0.000     0.000     0.000  0.0008  0.9998 -0.0191
              Bcc     0.0000     0.000     0.000     0.000  0.6249  0.0144  0.7806
 
              Baa    -0.0000    -0.000    -0.000    -0.000  0.9385  0.0077  0.3452
     4 H(1)   Bbb     0.0000     0.000     0.000     0.000 -0.0001  0.9998 -0.0221
              Bcc     0.0000     0.000     0.000     0.000 -0.3452  0.0207  0.9383
 

 ---------------------------------------------------------------------------------

 No NMR shielding tensors so no spin-rotation constants.
 Leave Link  601 at Tue Dec  3 20:04:34 2024, MaxMem=   536870912 cpu:               1.2 elap:               0.2
 (Enter /home/szhao/Apps/g16/l701.exe)
 ... and contract with generalized density number  0.
 Compute integral first derivatives.
 Leave Link  701 at Tue Dec  3 20:04:34 2024, MaxMem=   536870912 cpu:               0.7 elap:               0.1
 (Enter /home/szhao/Apps/g16/l702.exe)
 L702 exits ... SP integral derivatives will be done elsewhere.
 Leave Link  702 at Tue Dec  3 20:04:34 2024, MaxMem=   536870912 cpu:               0.2 elap:               0.0
 (Enter /home/szhao/Apps/g16/l703.exe)
 Integral derivatives from FoFJK, PRISM(SPDF).
 Compute integral first derivatives, UseDBF=F ICtDFT=           0.
 Calling FoFJK, ICntrl=      2127 FMM=F ISym2X=0 I1Cent= 0 IOpClX= 1 NMat=1 NMatS=1 NMatT=0.
 FoFJK:  IHMeth= 1 ICntrl=    2127 DoSepK=F KAlg= 0 I1Cent=           0 FoldK=F
 IRaf=         0 NMat=       1 IRICut=       1 DoRegI=T DoRafI=F ISym2E= 0 IDoP0=0 IntGTp=1.
 FoFCou: FMM=F IPFlag=           0 FMFlag=      100000 FMFlg1=         800
         NFxFlg=           0 DoJE=F BraDBF=F KetDBF=F FulRan=T
         wScrn=  0.000000 ICntrl=      2127 IOpCl=  1 I1Cent=           0 NGrid=           0
         NMat0=    1 NMatS0=      1 NMatT0=    0 NMatD0=    1 NMtDS0=    0 NMtDT0=    0
 Symmetry not used in FoFCou.
 Leave Link  703 at Tue Dec  3 20:04:34 2024, MaxMem=   536870912 cpu:               5.2 elap:               0.7
 (Enter /home/szhao/Apps/g16/l716.exe)
 Dipole        =-8.42612421D-06-2.10264760D-16-2.00697814D-14
 -------------------------------------------------------------------
 Center     Atomic                   Forces (Hartrees/Bohr)
 Number     Number              X              Y              Z
 -------------------------------------------------------------------
      1        6          -0.000000000   -0.000000000   -0.000000000
      2        6          -0.000000000   -0.000000000   -0.000000000
      3        1           0.051637608   -0.000000000   -0.000000000
      4        1          -0.051629233   -0.000000000    0.000000000
 -------------------------------------------------------------------
 Cartesian Forces:  Max     0.051637608 RMS     0.021079256
 Leave Link  716 at Tue Dec  3 20:04:34 2024, MaxMem=   536870912 cpu:               0.3 elap:               0.0
 (Enter /home/szhao/Apps/g16/l103.exe)

 GradGradGradGradGradGradGradGradGradGradGradGradGradGradGradGradGradGrad
 Berny optimization.
 FormGI is forming the generalized inverse of G from B-inverse, IUseBI=4.
 Internal  Forces:  Max     0.051637608 RMS     0.029810569
 Search for a local minimum.
 Step number   1 out of a maximum of   22
 All quantities printed in internal units (Hartrees-Bohrs-Radians)
 RMS Force = .29811D-01 SwitMx=.10000D-02 MixMth= 1
 Mixed Optimization -- RFO/linear search
 Second derivative matrix not updated -- first step.
 The second derivative matrix:
                          X1        Y1        Z1        X2        Y2
           X1           0.50000
           Y1           0.00000   0.50000
           Z1           0.00000   0.00000   0.50000
           X2           0.00000   0.00000   0.00000   0.50000
           Y2           0.00000   0.00000   0.00000   0.00000   0.50000
           Z2           0.00000   0.00000   0.00000   0.00000   0.00000
           R1           0.00000   0.00000   0.00000   0.00000   0.00000
           R2           0.00000   0.00000   0.00000   0.00000   0.00000
           A1           0.00000   0.00000   0.00000   0.00000   0.00000
           A2           0.00000   0.00000   0.00000   0.00000   0.00000
           A3           0.00000   0.00000   0.00000   0.00000   0.00000
           A4           0.00000   0.00000   0.00000   0.00000   0.00000
                          Z2        R1        R2        A1        A2
           Z2           0.50000
           R1           0.00000   0.28746
           R2           0.00000   0.00000   0.28748
           A1           0.00000   0.00000   0.00000   0.00230
           A2           0.00000   0.00000   0.00000   0.00000   0.00230
           A3           0.00000   0.00000   0.00000   0.00000   0.00000
           A4           0.00000   0.00000   0.00000   0.00000   0.00000
                          A3        A4
           A3           0.00230
           A4           0.00000   0.00230
 ITU=  0
     Eigenvalues ---    0.00230   0.00230   0.00230   0.28746   0.28748
     Eigenvalues --- 1000.000001000.000001000.000001000.000001000.00000
     Eigenvalues --- 1000.000001000.00000
 RFO step:  Lambda=-1.74846813D-02 EMin= 2.30000000D-03
 Linear search not attempted -- first point.
 Iteration  1 RMS(Cart)=  0.06912278 RMS(Int)=  0.00000000
 Iteration  2 RMS(Cart)=  0.00000000 RMS(Int)=  0.00000000
 ITry= 1 IFail=0 DXMaxC= 1.69D-01 DCOld= 1.00D+10 DXMaxT= 3.00D-01 DXLimC= 3.00D+00 Rises=F
 Variable       Old X    -DE/DX   Delta X   Delta X   Delta X     New X
                                 (Linear)    (Quad)   (Total)
    X1       -1.22151   0.05164   0.00000   0.00000   0.00000  -1.22151
    Y1        0.00000   0.00000   0.00000   0.00000   0.00000   0.00000
    Z1        0.00000  -0.00000   0.00000   0.00000   0.00000   0.00000
    X2        1.22151  -0.05163   0.00000   0.00000   0.00000   1.22151
    Y2        0.00000  -0.00000   0.00000   0.00000   0.00000   0.00000
    Z2        0.00000   0.00000   0.00000   0.00000   0.00000   0.00000
    R1        2.17236  -0.05164   0.00000  -0.16933  -0.16933   2.00302
    R2        2.17232  -0.05163   0.00000  -0.16930  -0.16930   2.00303
    A1        3.14159   0.00000   0.00000  -0.00000   0.00000   3.14159
    A2        3.14159   0.00000   0.00000   0.00000   0.00000   3.14159
    A3        3.14159  -0.00000   0.00000  -0.00000   0.00000   3.14159
    A4        3.14159   0.00000   0.00000   0.00000   0.00000   3.14159
         Item               Value     Threshold  Converged?
 Maximum Force            0.051638     0.000450     NO 
 RMS     Force            0.029811     0.000300     NO 
 Maximum Displacement     0.169334     0.001800     NO 
 RMS     Displacement     0.069123     0.001200     NO 
 Predicted change in Energy=-9.243588D-03
 Lowest energy point so far.  Saving SCF results.
 GradGradGradGradGradGradGradGradGradGradGradGradGradGradGradGradGradGrad

 Leave Link  103 at Tue Dec  3 20:04:34 2024, MaxMem=   536870912 cpu:               0.0 elap:               0.0
 (Enter /home/szhao/Apps/g16/l202.exe)
                          Input orientation:                          
 ---------------------------------------------------------------------
 Center     Atomic      Atomic             Coordinates (Angstroms)
 Number     Number       Type             X           Y           Z
 ---------------------------------------------------------------------
      1          6           0       -0.646397    0.000000    0.000000
      2          6           0        0.646397    0.000000    0.000000
      3          1           0       -1.706351   -0.000000    0.000000
      4          1           0        1.706353   -0.000000    0.000000
 ---------------------------------------------------------------------
                    Distance matrix (angstroms):
                    1          2          3          4
     1  C    0.000000
     2  C    1.292793   0.000000
     3  H    1.059954   2.352748   0.000000
     4  H    2.352750   1.059956   3.412704   0.000000
 Symmetry turned off by external request.
 Stoichiometry    C2H2
 Framework group  C*V[C*(HCCH)]
 Deg. of freedom     3
 Full point group                 C*V     NOp   4
 Rotational constants (GHZ):           0.0000000          31.7913800          31.7913800
 Leave Link  202 at Tue Dec  3 20:04:34 2024, MaxMem=   536870912 cpu:               0.0 elap:               0.0
 (Enter /home/szhao/Apps/g16/l301.exe)
 Standard basis: 6-311+G(d,p) (5D, 7F)
 Ernie: Thresh=  0.10000D-02 Tol=  0.10000D-05 Strict=F.
    56 basis functions,    88 primitive gaussians,    58 cartesian basis functions
     7 alpha electrons        7 beta electrons
       nuclear repulsion energy        23.5808503749 Hartrees.
 IExCor= 4336 DFT=T Ex+Corr=M062X ExCW=0 ScaHFX=  0.540000
 ScaDFX=  1.000000  1.000000  1.000000  1.000000 ScalE2=  1.000000  1.000000
 IRadAn=      7 IRanWt=     -1 IRanGd=            0 ICorTp=0 IEmpDi=  4
 NAtoms=    4 NActive=    4 NUniq=    4 SFac= 1.00D+00 NAtFMM=   60 NAOKFM=F Big=F
 Integral buffers will be    131072 words long.
 Raffenetti 2 integral format.
 Two-electron integral symmetry is turned off.
 Leave Link  301 at Tue Dec  3 20:04:34 2024, MaxMem=   536870912 cpu:               0.3 elap:               0.0
 (Enter /home/szhao/Apps/g16/l302.exe)
 NPDir=0 NMtPBC=     1 NCelOv=     1 NCel=       1 NClECP=     1 NCelD=      1
         NCelK=      1 NCelE2=     1 NClLst=     1 CellRange=     0.0.
 One-electron integrals computed using PRISM.
 NBasis=    56 RedAO= T EigKep=  1.54D-04  NBF=    56
 NBsUse=    56 1.00D-06 EigRej= -1.00D+00 NBFU=    56
 Precomputing XC quadrature grid using
 IXCGrd= 4 IRadAn=           7 IRanWt=          -1 IRanGd=           0 AccXCQ= 0.00D+00.
 Generated NRdTot=       0 NPtTot=           0 NUsed=           0 NTot=          32
 NSgBfM=    58    58    58    58    58 MxSgAt=     4 MxSgA2=     4.
 Leave Link  302 at Tue Dec  3 20:04:35 2024, MaxMem=   536870912 cpu:               1.0 elap:               0.1
 (Enter /home/szhao/Apps/g16/l303.exe)
 DipDrv:  MaxL=1.
 Leave Link  303 at Tue Dec  3 20:04:35 2024, MaxMem=   536870912 cpu:               0.3 elap:               0.0
 (Enter /home/szhao/Apps/g16/l401.exe)
 Initial guess from the checkpoint file:  "opt.chk"
 B after Tr=     0.000003   -0.000000    0.000000
         Rot=    0.993127   -0.117038   -0.000000   -0.000000 Ang= -13.44 deg.
 Guess basis will be translated and rotated to current coordinates.
 JPrj=2 DoOrth=T DoCkMO=T.
 Initial guess <Sx>= 0.0000 <Sy>= 0.0000 <Sz>= 0.0000 <S**2>=-0.0000 S=-0.0000
 Generating alternative initial guess.
 ExpMin= 4.38D-02 ExpMax= 4.56D+03 ExpMxC= 6.82D+02 IAcc=3 IRadAn=         5 AccDes= 0.00D+00
 Harris functional with IExCor= 1009 and IRadAn=       5 diagonalized for initial guess.
 HarFok:  IExCor= 1009 AccDes= 0.00D+00 IRadAn=         5 IDoV= 1 UseB2=F ITyADJ=14
 ICtDFT=  3500011 ScaDFX=  1.000000  1.000000  1.000000  1.000000
 FoFCou: FMM=F IPFlag=           0 FMFlag=      100000 FMFlg1=           0
         NFxFlg=           0 DoJE=T BraDBF=F KetDBF=T FulRan=T
         wScrn=  0.000000 ICntrl=       500 IOpCl=  0 I1Cent=   200000004 NGrid=           0
         NMat0=    1 NMatS0=      1 NMatT0=    0 NMatD0=    1 NMtDS0=    0 NMtDT0=    0
 Symmetry not used in FoFCou.
 Harris En= -77.2771938363540    
 Leave Link  401 at Tue Dec  3 20:04:35 2024, MaxMem=   536870912 cpu:               1.4 elap:               0.2
 (Enter /home/szhao/Apps/g16/l502.exe)
 Keep R1 and R2 ints in memory in canonical form, NReq=9624198.
 FoFCou: FMM=F IPFlag=           0 FMFlag=           0 FMFlg1=           0
         NFxFlg=           0 DoJE=F BraDBF=F KetDBF=F FulRan=T
         wScrn=  0.000000 ICntrl=       600 IOpCl=  0 I1Cent=           0 NGrid=           0
         NMat0=    1 NMatS0=   1596 NMatT0=    0 NMatD0=    1 NMtDS0=    0 NMtDT0=    0
 Symmetry not used in FoFCou.
 Two-electron integral symmetry not used.
 UHF open shell SCF:
 Using DIIS extrapolation, IDIIS=  1040.
 NGot=   536870912 LenX=   534314338 LenY=   534310533
 Requested convergence on RMS density matrix=1.00D-08 within 128 cycles.
 Requested convergence on MAX density matrix=1.00D-06.
 Requested convergence on             energy=1.00D-06.
 No special actions if energy rises.

 Cycle   1  Pass 1  IDiag  1:
 E= -77.2980305511853    
 DIIS: error= 9.49D-03 at cycle   1 NSaved=   1.
 NSaved= 1 IEnMin= 1 EnMin= -77.2980305511853     IErMin= 1 ErrMin= 9.49D-03
 ErrMax= 9.49D-03  0.00D+00 EMaxC= 1.00D-01 BMatC= 1.06D-02 BMatP= 1.06D-02
 IDIUse=3 WtCom= 9.05D-01 WtEn= 9.49D-02
 Coeff-Com:  0.100D+01
 Coeff-En:   0.100D+01
 Coeff:      0.100D+01
 Gap=     0.587 Goal=   None    Shift=    0.000
 Gap=     0.587 Goal=   None    Shift=    0.000
 GapD=    0.587 DampG=2.000 DampE=1.000 DampFc=2.0000 IDamp=-1.
 RMSDP=9.53D-04 MaxDP=1.19D-02              OVMax= 2.05D-02

 Cycle   2  Pass 1  IDiag  1:
 E= -77.3003329672303     Delta-E=       -0.002302416045 Rises=F Damp=F
 DIIS: error= 1.46D-03 at cycle   2 NSaved=   2.
 NSaved= 2 IEnMin= 2 EnMin= -77.3003329672303     IErMin= 2 ErrMin= 1.46D-03
 ErrMax= 1.46D-03  0.00D+00 EMaxC= 1.00D-01 BMatC= 2.80D-04 BMatP= 1.06D-02
 IDIUse=3 WtCom= 9.85D-01 WtEn= 1.46D-02
 Coeff-Com:  0.630D-01 0.937D+00
 Coeff-En:   0.000D+00 0.100D+01
 Coeff:      0.621D-01 0.938D+00
 Gap=     0.368 Goal=   None    Shift=    0.000
 Gap=     0.368 Goal=   None    Shift=    0.000
 RMSDP=1.54D-04 MaxDP=1.97D-03 DE=-2.30D-03 OVMax= 3.56D-03

 Cycle   3  Pass 1  IDiag  1:
 E= -77.3003908560201     Delta-E=       -0.000057888790 Rises=F Damp=F
 DIIS: error= 4.36D-04 at cycle   3 NSaved=   3.
 NSaved= 3 IEnMin= 3 EnMin= -77.3003908560201     IErMin= 3 ErrMin= 4.36D-04
 ErrMax= 4.36D-04  0.00D+00 EMaxC= 1.00D-01 BMatC= 2.26D-05 BMatP= 2.80D-04
 IDIUse=3 WtCom= 9.96D-01 WtEn= 4.36D-03
 Coeff-Com: -0.315D-02 0.157D+00 0.846D+00
 Coeff-En:   0.000D+00 0.000D+00 0.100D+01
 Coeff:     -0.314D-02 0.156D+00 0.847D+00
 Gap=     0.370 Goal=   None    Shift=    0.000
 Gap=     0.370 Goal=   None    Shift=    0.000
 RMSDP=3.60D-05 MaxDP=7.08D-04 DE=-5.79D-05 OVMax= 1.14D-03

 Cycle   4  Pass 1  IDiag  1:
 E= -77.3003959737069     Delta-E=       -0.000005117687 Rises=F Damp=F
 DIIS: error= 1.80D-04 at cycle   4 NSaved=   4.
 NSaved= 4 IEnMin= 4 EnMin= -77.3003959737069     IErMin= 4 ErrMin= 1.80D-04
 ErrMax= 1.80D-04  0.00D+00 EMaxC= 1.00D-01 BMatC= 2.65D-06 BMatP= 2.26D-05
 IDIUse=3 WtCom= 9.98D-01 WtEn= 1.80D-03
 Coeff-Com: -0.357D-02 0.269D-02 0.254D+00 0.747D+00
 Coeff-En:   0.000D+00 0.000D+00 0.000D+00 0.100D+01
 Coeff:     -0.357D-02 0.268D-02 0.253D+00 0.748D+00
 Gap=     0.369 Goal=   None    Shift=    0.000
 Gap=     0.369 Goal=   None    Shift=    0.000
 RMSDP=1.06D-05 MaxDP=1.69D-04 DE=-5.12D-06 OVMax= 3.72D-04

 Cycle   5  Pass 1  IDiag  1:
 E= -77.3003967577797     Delta-E=       -0.000000784073 Rises=F Damp=F
 DIIS: error= 3.13D-05 at cycle   5 NSaved=   5.
 NSaved= 5 IEnMin= 5 EnMin= -77.3003967577797     IErMin= 5 ErrMin= 3.13D-05
 ErrMax= 3.13D-05  0.00D+00 EMaxC= 1.00D-01 BMatC= 6.18D-08 BMatP= 2.65D-06
 IDIUse=1 WtCom= 1.00D+00 WtEn= 0.00D+00
 Coeff-Com: -0.126D-03-0.964D-02-0.332D-01 0.681D-01 0.975D+00
 Coeff:     -0.126D-03-0.964D-02-0.332D-01 0.681D-01 0.975D+00
 Gap=     0.369 Goal=   None    Shift=    0.000
 Gap=     0.369 Goal=   None    Shift=    0.000
 RMSDP=3.05D-06 MaxDP=3.37D-05 DE=-7.84D-07 OVMax= 6.39D-05

 Cycle   6  Pass 1  IDiag  1:
 E= -77.3003967742354     Delta-E=       -0.000000016456 Rises=F Damp=F
 DIIS: error= 3.74D-06 at cycle   6 NSaved=   6.
 NSaved= 6 IEnMin= 6 EnMin= -77.3003967742354     IErMin= 6 ErrMin= 3.74D-06
 ErrMax= 3.74D-06  0.00D+00 EMaxC= 1.00D-01 BMatC= 1.39D-09 BMatP= 6.18D-08
 IDIUse=1 WtCom= 1.00D+00 WtEn= 0.00D+00
 Coeff-Com:  0.658D-05-0.243D-02-0.100D-01 0.120D-01 0.226D+00 0.775D+00
 Coeff:      0.658D-05-0.243D-02-0.100D-01 0.120D-01 0.226D+00 0.775D+00
 Gap=     0.369 Goal=   None    Shift=    0.000
 Gap=     0.369 Goal=   None    Shift=    0.000
 RMSDP=4.82D-07 MaxDP=5.54D-06 DE=-1.65D-08 OVMax= 1.63D-05

 Cycle   7  Pass 1  IDiag  1:
 E= -77.3003967740875     Delta-E=        0.000000000148 Rises=F Damp=F
 DIIS: error= 4.78D-06 at cycle   7 NSaved=   7.
 NSaved= 7 IEnMin= 6 EnMin= -77.3003967742354     IErMin= 6 ErrMin= 3.74D-06
 ErrMax= 4.78D-06  0.00D+00 EMaxC= 1.00D-01 BMatC= 2.13D-09 BMatP= 1.39D-09
 IDIUse=1 WtCom= 1.00D+00 WtEn= 0.00D+00
 Coeff-Com:  0.287D-04 0.115D-03-0.664D-03-0.409D-02-0.278D-01 0.571D+00
 Coeff-Com:  0.462D+00
 Coeff:      0.287D-04 0.115D-03-0.664D-03-0.409D-02-0.278D-01 0.571D+00
 Coeff:      0.462D+00
 Gap=     0.369 Goal=   None    Shift=    0.000
 Gap=     0.369 Goal=   None    Shift=    0.000
 RMSDP=2.31D-07 MaxDP=2.89D-06 DE= 1.48D-10 OVMax= 9.15D-06

 Cycle   8  Pass 1  IDiag  1:
 E= -77.3003967746253     Delta-E=       -0.000000000538 Rises=F Damp=F
 DIIS: error= 5.96D-08 at cycle   8 NSaved=   8.
 NSaved= 8 IEnMin= 8 EnMin= -77.3003967746253     IErMin= 8 ErrMin= 5.96D-08
 ErrMax= 5.96D-08  0.00D+00 EMaxC= 1.00D-01 BMatC= 6.36D-13 BMatP= 1.39D-09
 IDIUse=1 WtCom= 1.00D+00 WtEn= 0.00D+00
 Coeff-Com: -0.327D-05 0.299D-04 0.155D-03-0.838D-04 0.975D-04-0.751D-01
 Coeff-Com: -0.495D-01 0.112D+01
 Coeff:     -0.327D-05 0.299D-04 0.155D-03-0.838D-04 0.975D-04-0.751D-01
 Coeff:     -0.495D-01 0.112D+01
 Gap=     0.369 Goal=   None    Shift=    0.000
 Gap=     0.369 Goal=   None    Shift=    0.000
 RMSDP=2.17D-08 MaxDP=1.95D-07 DE=-5.38D-10 OVMax= 3.82D-07

 Cycle   9  Pass 1  IDiag  1:
 E= -77.3003967746257     Delta-E=       -0.000000000000 Rises=F Damp=F
 DIIS: error= 6.59D-09 at cycle   9 NSaved=   9.
 NSaved= 9 IEnMin= 9 EnMin= -77.3003967746257     IErMin= 9 ErrMin= 6.59D-09
 ErrMax= 6.59D-09  0.00D+00 EMaxC= 1.00D-01 BMatC= 3.48D-15 BMatP= 6.36D-13
 IDIUse=1 WtCom= 1.00D+00 WtEn= 0.00D+00
 Coeff-Com: -0.207D-07-0.239D-06-0.554D-05 0.329D-04 0.207D-04 0.136D-02
 Coeff-Com:  0.624D-03-0.519D-01 0.105D+01
 Coeff:     -0.207D-07-0.239D-06-0.554D-05 0.329D-04 0.207D-04 0.136D-02
 Coeff:      0.624D-03-0.519D-01 0.105D+01
 Gap=     0.369 Goal=   None    Shift=    0.000
 Gap=     0.369 Goal=   None    Shift=    0.000
 RMSDP=3.32D-09 MaxDP=5.48D-08 DE=-4.12D-13 OVMax= 1.51D-08

 SCF Done:  E(UM062X) =  -77.3003967746     A.U. after    9 cycles
            NFock=  9  Conv=0.33D-08     -V/T= 2.0088
 <Sx>= 0.0000 <Sy>= 0.0000 <Sz>= 0.0000 <S**2>=-0.0000 S=-0.0000
 <L.S>=  0.00000000000    
 KE= 7.662689449987D+01 PE=-2.260758590515D+02 EE= 4.856771740209D+01
 Annihilation of the first spin contaminant:
 S**2 before annihilation    -0.0000,   after    -0.0000
 Leave Link  502 at Tue Dec  3 20:04:38 2024, MaxMem=   536870912 cpu:              24.1 elap:               3.0
 (Enter /home/szhao/Apps/g16/l701.exe)
 ... and contract with generalized density number  0.
 Compute integral first derivatives.
 Leave Link  701 at Tue Dec  3 20:04:38 2024, MaxMem=   536870912 cpu:               0.7 elap:               0.1
 (Enter /home/szhao/Apps/g16/l702.exe)
 L702 exits ... SP integral derivatives will be done elsewhere.
 Leave Link  702 at Tue Dec  3 20:04:38 2024, MaxMem=   536870912 cpu:               0.3 elap:               0.0
 (Enter /home/szhao/Apps/g16/l703.exe)
 Integral derivatives from FoFJK, PRISM(SPDF).
 Compute integral first derivatives, UseDBF=F ICtDFT=           0.
 Calling FoFJK, ICntrl=      2127 FMM=F ISym2X=0 I1Cent= 0 IOpClX= 1 NMat=1 NMatS=1 NMatT=0.
 FoFJK:  IHMeth= 1 ICntrl=    2127 DoSepK=F KAlg= 0 I1Cent=           0 FoldK=F
 IRaf=         0 NMat=       1 IRICut=       1 DoRegI=T DoRafI=F ISym2E= 0 IDoP0=0 IntGTp=1.
 FoFCou: FMM=F IPFlag=           0 FMFlag=      100000 FMFlg1=         800
         NFxFlg=           0 DoJE=F BraDBF=F KetDBF=F FulRan=T
         wScrn=  0.000000 ICntrl=      2127 IOpCl=  1 I1Cent=           0 NGrid=           0
         NMat0=    1 NMatS0=      1 NMatT0=    0 NMatD0=    1 NMtDS0=    0 NMtDT0=    0
 Symmetry not used in FoFCou.
 Leave Link  703 at Tue Dec  3 20:04:39 2024, MaxMem=   536870912 cpu:               5.4 elap:               0.7
 (Enter /home/szhao/Apps/g16/l716.exe)
 Dipole        = 8.55844123D-07 3.59232347D-13 3.92964246D-13
 -------------------------------------------------------------------
 Center     Atomic                   Forces (Hartrees/Bohr)
 Number     Number              X              Y              Z
 -------------------------------------------------------------------
      1        6          -0.000000000   -0.000000000   -0.000000000
      2        6          -0.000000000   -0.000000000   -0.000000000
      3        1          -0.005125829   -0.000000000    0.000000000
      4        1           0.005124377   -0.000000000    0.000000000
 -------------------------------------------------------------------
 Cartesian Forces:  Max     0.005125829 RMS     0.002092314
 Leave Link  716 at Tue Dec  3 20:04:39 2024, MaxMem=   536870912 cpu:               0.3 elap:               0.0
 (Enter /home/szhao/Apps/g16/l103.exe)

 GradGradGradGradGradGradGradGradGradGradGradGradGradGradGradGradGradGrad
 Berny optimization.
 Using GEDIIS/GDIIS optimizer.
 FormGI is forming the generalized inverse of G from B-inverse, IUseBI=4.
 Internal  Forces:  Max     0.005125829 RMS     0.002958980
 Search for a local minimum.
 Step number   2 out of a maximum of   22
 All quantities printed in internal units (Hartrees-Bohrs-Radians)
 RMS Force = .29590D-02 SwitMx=.10000D-02 MixMth= 1
 Mixed Optimization -- RFO/linear search
 Update second derivatives using D2CorX and points    1    2
 DE= -8.69D-03 DEPred=-9.24D-03 R= 9.40D-01
 TightC=F SS=  1.41D+00  RLast= 2.39D-01 DXNew= 5.0454D-01 7.1835D-01
 Trust test= 9.40D-01 RLast= 2.39D-01 DXMaxT set to 5.05D-01
 The second derivative matrix:
                          X1        Y1        Z1        X2        Y2
           X1           0.66764
           Y1           0.00000   0.50000
           Z1          -0.00000  -0.00000   0.50000
           X2          -0.16761  -0.00000   0.00000   0.66758
           Y2           0.00000   0.00000  -0.00000  -0.00000   0.50000
           Z2           0.00000   0.00000  -0.00000  -0.00000   0.00000
           R1          -0.16764  -0.00000   0.00000   0.16761  -0.00000
           R2          -0.16761  -0.00000   0.00000   0.16758  -0.00000
           A1           0.00000   0.00000  -0.00000  -0.00000   0.00000
           A2          -0.00000  -0.00000   0.00000   0.00000  -0.00000
           A3           0.00000   0.00000  -0.00000  -0.00000   0.00000
           A4          -0.00000  -0.00000   0.00000   0.00000  -0.00000
                          Z2        R1        R2        A1        A2
           Z2           0.50000
           R1          -0.00000   0.31134
           R2          -0.00000   0.02388   0.31135
           A1           0.00000  -0.00000  -0.00000   0.00230
           A2          -0.00000   0.00000   0.00000  -0.00000   0.00230
           A3           0.00000  -0.00000  -0.00000   0.00000  -0.00000
           A4          -0.00000   0.00000   0.00000  -0.00000   0.00000
                          A3        A4
           A3           0.00230
           A4          -0.00000   0.00230
 ITU=  1  0
 Use linear search instead of GDIIS.
     Eigenvalues ---    0.00230   0.00230   0.00230   0.28747   0.33522
     Eigenvalues --- 1000.000001000.000001000.000001000.000001000.00000
     Eigenvalues --- 1000.000001000.00000
 RFO step:  Lambda=-3.39403275D-08 EMin= 2.30000000D-03
 Quartic linear search produced a step of -0.07258.
 Iteration  1 RMS(Cart)=  0.00501684 RMS(Int)=  0.00000000
 Iteration  2 RMS(Cart)=  0.00000000 RMS(Int)=  0.00000000
 ITry= 1 IFail=0 DXMaxC= 1.23D-02 DCOld= 1.00D+10 DXMaxT= 5.05D-01 DXLimC= 3.00D+00 Rises=F
 Variable       Old X    -DE/DX   Delta X   Delta X   Delta X     New X
                                 (Linear)    (Quad)   (Total)
    X1       -1.22151  -0.00513   0.00000   0.00000   0.00000  -1.22151
    Y1        0.00000  -0.00000   0.00000   0.00000   0.00000   0.00000
    Z1        0.00000   0.00000   0.00000   0.00000   0.00000   0.00000
    X2        1.22151   0.00512   0.00000   0.00000   0.00000   1.22151
    Y2        0.00000  -0.00000   0.00000   0.00000   0.00000   0.00000
    Z2        0.00000  -0.00000   0.00000   0.00000   0.00000   0.00000
    R1        2.00302   0.00513   0.01229   0.00000   0.01229   2.01531
    R2        2.00303   0.00512   0.01229  -0.00000   0.01229   2.01531
    A1        3.14159  -0.00000   0.00000  -0.00000   0.00000   3.14159
    A2        3.14159   0.00000   0.00000   0.00000   0.00000   3.14159
    A3        3.14159  -0.00000   0.00000  -0.00000   0.00000   3.14159
    A4        3.14159   0.00000   0.00000   0.00000   0.00000   3.14159
         Item               Value     Threshold  Converged?
 Maximum Force            0.005126     0.000450     NO 
 RMS     Force            0.002959     0.000300     NO 
 Maximum Displacement     0.012291     0.001800     NO 
 RMS     Displacement     0.005017     0.001200     NO 
 Predicted change in Energy=-7.533889D-05
 Lowest energy point so far.  Saving SCF results.
 GradGradGradGradGradGradGradGradGradGradGradGradGradGradGradGradGradGrad

 Leave Link  103 at Tue Dec  3 20:04:39 2024, MaxMem=   536870912 cpu:               0.0 elap:               0.0
 (Enter /home/szhao/Apps/g16/l202.exe)
                          Input orientation:                          
 ---------------------------------------------------------------------
 Center     Atomic      Atomic             Coordinates (Angstroms)
 Number     Number       Type             X           Y           Z
 ---------------------------------------------------------------------
      1          6           0       -0.646397    0.000000    0.000000
      2          6           0        0.646397    0.000000    0.000000
      3          1           0       -1.712855   -0.000000    0.000000
      4          1           0        1.712855   -0.000000    0.000000
 ---------------------------------------------------------------------
                    Distance matrix (angstroms):
                    1          2          3          4
     1  C    0.000000
     2  C    1.292793   0.000000
     3  H    1.066458   2.359252   0.000000
     4  H    2.359251   1.066458   3.425710   0.000000
 Symmetry turned off by external request.
 Stoichiometry    C2H2
 Framework group  C*V[C*(HCCH)]
 Deg. of freedom     3
 Full point group                 C*V     NOp   4
 Rotational constants (GHZ):           0.0000000          31.7020029          31.7020029
 Leave Link  202 at Tue Dec  3 20:04:39 2024, MaxMem=   536870912 cpu:               0.0 elap:               0.0
 (Enter /home/szhao/Apps/g16/l301.exe)
 Standard basis: 6-311+G(d,p) (5D, 7F)
 Ernie: Thresh=  0.10000D-02 Tol=  0.10000D-05 Strict=F.
    56 basis functions,    88 primitive gaussians,    58 cartesian basis functions
     7 alpha electrons        7 beta electrons
       nuclear repulsion energy        23.5362915592 Hartrees.
 IExCor= 4336 DFT=T Ex+Corr=M062X ExCW=0 ScaHFX=  0.540000
 ScaDFX=  1.000000  1.000000  1.000000  1.000000 ScalE2=  1.000000  1.000000
 IRadAn=      7 IRanWt=     -1 IRanGd=            0 ICorTp=0 IEmpDi=  4
 NAtoms=    4 NActive=    4 NUniq=    4 SFac= 1.00D+00 NAtFMM=   60 NAOKFM=F Big=F
 Integral buffers will be    131072 words long.
 Raffenetti 2 integral format.
 Two-electron integral symmetry is turned off.
 Leave Link  301 at Tue Dec  3 20:04:39 2024, MaxMem=   536870912 cpu:               0.3 elap:               0.0
 (Enter /home/szhao/Apps/g16/l302.exe)
 NPDir=0 NMtPBC=     1 NCelOv=     1 NCel=       1 NClECP=     1 NCelD=      1
         NCelK=      1 NCelE2=     1 NClLst=     1 CellRange=     0.0.
 One-electron integrals computed using PRISM.
 NBasis=    56 RedAO= T EigKep=  1.54D-04  NBF=    56
 NBsUse=    56 1.00D-06 EigRej= -1.00D+00 NBFU=    56
 Precomputing XC quadrature grid using
 IXCGrd= 4 IRadAn=           7 IRanWt=          -1 IRanGd=           0 AccXCQ= 0.00D+00.
 Generated NRdTot=       0 NPtTot=           0 NUsed=           0 NTot=          32
 NSgBfM=    58    58    58    58    58 MxSgAt=     4 MxSgA2=     4.
 Leave Link  302 at Tue Dec  3 20:04:39 2024, MaxMem=   536870912 cpu:               1.0 elap:               0.1
 (Enter /home/szhao/Apps/g16/l303.exe)
 DipDrv:  MaxL=1.
 Leave Link  303 at Tue Dec  3 20:04:39 2024, MaxMem=   536870912 cpu:               0.2 elap:               0.0
 (Enter /home/szhao/Apps/g16/l401.exe)
 Initial guess from the checkpoint file:  "opt.chk"
 B after Tr=    -0.000000   -0.000000    0.000000
         Rot=    0.994466   -0.105063   -0.000000   -0.000000 Ang= -12.06 deg.
 Guess basis will be translated and rotated to current coordinates.
 JPrj=2 DoOrth=T DoCkMO=T.
 Initial guess <Sx>= 0.0000 <Sy>= 0.0000 <Sz>= 0.0000 <S**2>=-0.0000 S=-0.0000
 Leave Link  401 at Tue Dec  3 20:04:39 2024, MaxMem=   536870912 cpu:               0.6 elap:               0.1
 (Enter /home/szhao/Apps/g16/l502.exe)
 Keep R1 and R2 ints in memory in canonical form, NReq=9624198.
 FoFCou: FMM=F IPFlag=           0 FMFlag=           0 FMFlg1=           0
         NFxFlg=           0 DoJE=F BraDBF=F KetDBF=F FulRan=T
         wScrn=  0.000000 ICntrl=       600 IOpCl=  0 I1Cent=           0 NGrid=           0
         NMat0=    1 NMatS0=   1596 NMatT0=    0 NMatD0=    1 NMtDS0=    0 NMtDT0=    0
 Symmetry not used in FoFCou.
 Two-electron integral symmetry not used.
 UHF open shell SCF:
 Using DIIS extrapolation, IDIIS=  1040.
 NGot=   536870912 LenX=   534314338 LenY=   534310533
 Requested convergence on RMS density matrix=1.00D-08 within 128 cycles.
 Requested convergence on MAX density matrix=1.00D-06.
 Requested convergence on             energy=1.00D-06.
 No special actions if energy rises.

 Cycle   1  Pass 1  IDiag  1:
 E= -77.3004450723952    
 DIIS: error= 7.46D-04 at cycle   1 NSaved=   1.
 NSaved= 1 IEnMin= 1 EnMin= -77.3004450723952     IErMin= 1 ErrMin= 7.46D-04
 ErrMax= 7.46D-04  0.00D+00 EMaxC= 1.00D-01 BMatC= 6.78D-05 BMatP= 6.78D-05
 IDIUse=3 WtCom= 9.93D-01 WtEn= 7.46D-03
 Coeff-Com:  0.100D+01
 Coeff-En:   0.100D+01
 Coeff:      0.100D+01
 Gap=     0.585 Goal=   None    Shift=    0.000
 Gap=     0.585 Goal=   None    Shift=    0.000
 RMSDP=6.79D-05 MaxDP=7.48D-04              OVMax= 1.55D-03

 Cycle   2  Pass 1  IDiag  1:
 E= -77.3004586989552     Delta-E=       -0.000013626560 Rises=F Damp=F
 DIIS: error= 1.04D-04 at cycle   2 NSaved=   2.
 NSaved= 2 IEnMin= 2 EnMin= -77.3004586989552     IErMin= 2 ErrMin= 1.04D-04
 ErrMax= 1.04D-04  0.00D+00 EMaxC= 1.00D-01 BMatC= 1.45D-06 BMatP= 6.78D-05
 IDIUse=3 WtCom= 9.99D-01 WtEn= 1.04D-03
 Coeff-Com:  0.527D-01 0.947D+00
 Coeff-En:   0.000D+00 0.100D+01
 Coeff:      0.526D-01 0.947D+00
 Gap=     0.369 Goal=   None    Shift=    0.000
 Gap=     0.369 Goal=   None    Shift=    0.000
 RMSDP=1.04D-05 MaxDP=1.27D-04 DE=-1.36D-05 OVMax= 2.41D-04

 Cycle   3  Pass 1  IDiag  1:
 E= -77.3004589968745     Delta-E=       -0.000000297919 Rises=F Damp=F
 DIIS: error= 2.43D-05 at cycle   3 NSaved=   3.
 NSaved= 3 IEnMin= 3 EnMin= -77.3004589968745     IErMin= 3 ErrMin= 2.43D-05
 ErrMax= 2.43D-05  0.00D+00 EMaxC= 1.00D-01 BMatC= 9.15D-08 BMatP= 1.45D-06
 IDIUse=1 WtCom= 1.00D+00 WtEn= 0.00D+00
 Coeff-Com: -0.402D-02 0.133D+00 0.871D+00
 Coeff:     -0.402D-02 0.133D+00 0.871D+00
 Gap=     0.369 Goal=   None    Shift=    0.000
 Gap=     0.369 Goal=   None    Shift=    0.000
 RMSDP=2.37D-06 MaxDP=4.66D-05 DE=-2.98D-07 OVMax= 7.44D-05

 Cycle   4  Pass 1  IDiag  1:
 E= -77.3004590174830     Delta-E=       -0.000000020608 Rises=F Damp=F
 DIIS: error= 1.19D-05 at cycle   4 NSaved=   4.
 NSaved= 4 IEnMin= 4 EnMin= -77.3004590174830     IErMin= 4 ErrMin= 1.19D-05
 ErrMax= 1.19D-05  0.00D+00 EMaxC= 1.00D-01 BMatC= 1.19D-08 BMatP= 9.15D-08
 IDIUse=1 WtCom= 1.00D+00 WtEn= 0.00D+00
 Coeff-Com: -0.303D-02 0.403D-02 0.264D+00 0.735D+00
 Coeff:     -0.303D-02 0.403D-02 0.264D+00 0.735D+00
 Gap=     0.369 Goal=   None    Shift=    0.000
 Gap=     0.369 Goal=   None    Shift=    0.000
 RMSDP=7.22D-07 MaxDP=1.19D-05 DE=-2.06D-08 OVMax= 2.52D-05

 Cycle   5  Pass 1  IDiag  1:
 E= -77.3004590209744     Delta-E=       -0.000000003491 Rises=F Damp=F
 DIIS: error= 2.42D-06 at cycle   5 NSaved=   5.
 NSaved= 5 IEnMin= 5 EnMin= -77.3004590209744     IErMin= 5 ErrMin= 2.42D-06
 ErrMax= 2.42D-06  0.00D+00 EMaxC= 1.00D-01 BMatC= 3.77D-10 BMatP= 1.19D-08
 IDIUse=1 WtCom= 1.00D+00 WtEn= 0.00D+00
 Coeff-Com: -0.917D-04-0.100D-01-0.314D-01 0.952D-01 0.946D+00
 Coeff:     -0.917D-04-0.100D-01-0.314D-01 0.952D-01 0.946D+00
 Gap=     0.369 Goal=   None    Shift=    0.000
 Gap=     0.369 Goal=   None    Shift=    0.000
 RMSDP=2.23D-07 MaxDP=2.50D-06 DE=-3.49D-09 OVMax= 4.68D-06

 Cycle   6  Pass 1  IDiag  1:
 E= -77.3004590210682     Delta-E=       -0.000000000094 Rises=F Damp=F
 DIIS: error= 4.66D-07 at cycle   6 NSaved=   6.
 NSaved= 6 IEnMin= 6 EnMin= -77.3004590210682     IErMin= 6 ErrMin= 4.66D-07
 ErrMax= 4.66D-07  0.00D+00 EMaxC= 1.00D-01 BMatC= 2.08D-11 BMatP= 3.77D-10
 IDIUse=1 WtCom= 1.00D+00 WtEn= 0.00D+00
 Coeff-Com:  0.123D-05-0.415D-02-0.153D-01 0.321D-01 0.372D+00 0.616D+00
 Coeff:      0.123D-05-0.415D-02-0.153D-01 0.321D-01 0.372D+00 0.616D+00
 Gap=     0.369 Goal=   None    Shift=    0.000
 Gap=     0.369 Goal=   None    Shift=    0.000
 RMSDP=4.06D-08 MaxDP=5.20D-07 DE=-9.38D-11 OVMax= 1.60D-06

 Cycle   7  Pass 1  IDiag  1:
 E= -77.3004590210703     Delta-E=       -0.000000000002 Rises=F Damp=F
 DIIS: error= 3.75D-07 at cycle   7 NSaved=   7.
 NSaved= 7 IEnMin= 7 EnMin= -77.3004590210703     IErMin= 7 ErrMin= 3.75D-07
 ErrMax= 3.75D-07  0.00D+00 EMaxC= 1.00D-01 BMatC= 1.32D-11 BMatP= 2.08D-11
 IDIUse=1 WtCom= 1.00D+00 WtEn= 0.00D+00
 Coeff-Com:  0.268D-04 0.693D-04-0.906D-03-0.451D-02-0.255D-01 0.451D+00
 Coeff-Com:  0.580D+00
 Coeff:      0.268D-04 0.693D-04-0.906D-03-0.451D-02-0.255D-01 0.451D+00
 Coeff:      0.580D+00
 Gap=     0.369 Goal=   None    Shift=    0.000
 Gap=     0.369 Goal=   None    Shift=    0.000
 RMSDP=2.06D-08 MaxDP=2.34D-07 DE=-2.10D-12 OVMax= 7.22D-07

 Cycle   8  Pass 1  IDiag  1:
 E= -77.3004590210737     Delta-E=       -0.000000000003 Rises=F Damp=F
 DIIS: error= 5.24D-09 at cycle   8 NSaved=   8.
 NSaved= 8 IEnMin= 8 EnMin= -77.3004590210737     IErMin= 8 ErrMin= 5.24D-09
 ErrMax= 5.24D-09  0.00D+00 EMaxC= 1.00D-01 BMatC= 3.30D-15 BMatP= 1.32D-11
 IDIUse=1 WtCom= 1.00D+00 WtEn= 0.00D+00
 Coeff-Com: -0.335D-05 0.350D-04 0.167D-03-0.113D-03 0.216D-03-0.628D-01
 Coeff-Com: -0.726D-01 0.114D+01
 Coeff:     -0.335D-05 0.350D-04 0.167D-03-0.113D-03 0.216D-03-0.628D-01
 Coeff:     -0.726D-01 0.114D+01
 Gap=     0.369 Goal=   None    Shift=    0.000
 Gap=     0.369 Goal=   None    Shift=    0.000
 RMSDP=1.81D-09 MaxDP=1.72D-08 DE=-3.48D-12 OVMax= 2.97D-08

 SCF Done:  E(UM062X) =  -77.3004590211     A.U. after    8 cycles
            NFock=  8  Conv=0.18D-08     -V/T= 2.0090
 <Sx>= 0.0000 <Sy>= 0.0000 <Sz>= 0.0000 <S**2>=-0.0000 S=-0.0000
 <L.S>=  0.00000000000    
 KE= 7.660752886314D+01 PE=-2.259768310277D+02 EE= 4.853255158424D+01
 Annihilation of the first spin contaminant:
 S**2 before annihilation    -0.0000,   after     0.0000
 Leave Link  502 at Tue Dec  3 20:04:42 2024, MaxMem=   536870912 cpu:              21.0 elap:               2.7
 (Enter /home/szhao/Apps/g16/l701.exe)
 ... and contract with generalized density number  0.
 Compute integral first derivatives.
 Leave Link  701 at Tue Dec  3 20:04:42 2024, MaxMem=   536870912 cpu:               0.7 elap:               0.1
 (Enter /home/szhao/Apps/g16/l702.exe)
 L702 exits ... SP integral derivatives will be done elsewhere.
 Leave Link  702 at Tue Dec  3 20:04:42 2024, MaxMem=   536870912 cpu:               0.3 elap:               0.0
 (Enter /home/szhao/Apps/g16/l703.exe)
 Integral derivatives from FoFJK, PRISM(SPDF).
 Compute integral first derivatives, UseDBF=F ICtDFT=           0.
 Calling FoFJK, ICntrl=      2127 FMM=F ISym2X=0 I1Cent= 0 IOpClX= 1 NMat=1 NMatS=1 NMatT=0.
 FoFJK:  IHMeth= 1 ICntrl=    2127 DoSepK=F KAlg= 0 I1Cent=           0 FoldK=F
 IRaf=         0 NMat=       1 IRICut=       1 DoRegI=T DoRafI=F ISym2E= 0 IDoP0=0 IntGTp=1.
 FoFCou: FMM=F IPFlag=           0 FMFlag=      100000 FMFlg1=         800
         NFxFlg=           0 DoJE=F BraDBF=F KetDBF=F FulRan=T
         wScrn=  0.000000 ICntrl=      2127 IOpCl=  1 I1Cent=           0 NGrid=           0
         NMat0=    1 NMatS0=      1 NMatT0=    0 NMatD0=    1 NMtDS0=    0 NMtDT0=    0
 Symmetry not used in FoFCou.
 Leave Link  703 at Tue Dec  3 20:04:43 2024, MaxMem=   536870912 cpu:               5.0 elap:               0.6
 (Enter /home/szhao/Apps/g16/l716.exe)
 Dipole        =-2.62495885D-07-9.34058704D-10 6.02617449D-10
 -------------------------------------------------------------------
 Center     Atomic                   Forces (Hartrees/Bohr)
 Number     Number              X              Y              Z
 -------------------------------------------------------------------
      1        6          -0.000000000   -0.000000000   -0.000000000
      2        6          -0.000000000   -0.000000000   -0.000000000
      3        1           0.000028976    0.000000000   -0.000000000
      4        1          -0.000028547    0.000000000   -0.000000000
 -------------------------------------------------------------------
 Cartesian Forces:  Max     0.000028976 RMS     0.000011742
 Leave Link  716 at Tue Dec  3 20:04:43 2024, MaxMem=   536870912 cpu:               0.3 elap:               0.0
 (Enter /home/szhao/Apps/g16/l103.exe)

 GradGradGradGradGradGradGradGradGradGradGradGradGradGradGradGradGradGrad
 Berny optimization.
 Using GEDIIS/GDIIS optimizer.
 FormGI is forming the generalized inverse of G from B-inverse, IUseBI=4.
 Internal  Forces:  Max     0.000028976 RMS     0.000016606
 Search for a local minimum.
 Step number   3 out of a maximum of   22
 All quantities printed in internal units (Hartrees-Bohrs-Radians)
 RMS Force = .16606D-04 SwitMx=.10000D-02 MixMth= 2
 Mixed Optimization -- En-DIIS/RFO-DIIS
 Update second derivatives using D2CorX and points    1    2    3
 DE= -6.22D-05 DEPred=-7.53D-05 R= 8.26D-01
 TightC=F SS=  1.41D+00  RLast= 1.74D-02 DXNew= 8.4853D-01 5.2137D-02
 Trust test= 8.26D-01 RLast= 1.74D-02 DXMaxT set to 5.05D-01
 The second derivative matrix:
                          X1        Y1        Z1        X2        Y2
           X1           0.70978
           Y1           0.00000   0.50000
           Z1          -0.00000  -0.00000   0.50000
           X2          -0.20970  -0.00000   0.00000   0.70962
           Y2           0.00000   0.00000  -0.00000  -0.00000   0.50000
           Z2          -0.00000  -0.00000   0.00000   0.00000  -0.00000
           R1          -0.20977  -0.00000   0.00000   0.20969  -0.00000
           R2          -0.20971  -0.00000   0.00000   0.20963  -0.00000
           A1           0.00000   0.00000  -0.00000  -0.00000   0.00000
           A2          -0.00000  -0.00000   0.00000   0.00000  -0.00000
           A3           0.00000   0.00000  -0.00000  -0.00000   0.00000
           A4          -0.00000  -0.00000   0.00000   0.00000  -0.00000
                          Z2        R1        R2        A1        A2
           Z2           0.50000
           R1           0.00000   0.35346
           R2           0.00000   0.06596   0.35341
           A1          -0.00000  -0.00000  -0.00000   0.00230
           A2           0.00000   0.00000   0.00000  -0.00000   0.00230
           A3          -0.00000  -0.00000  -0.00000   0.00000  -0.00000
           A4           0.00000   0.00000   0.00000  -0.00000   0.00000
                          A3        A4
           A3           0.00230
           A4          -0.00000   0.00230
 ITU=  1  1  0
 Use linear search instead of GDIIS.
     Eigenvalues ---    0.00230   0.00230   0.00230   0.28747   0.41940
     Eigenvalues --- 1000.000001000.000001000.000001000.000001000.00000
     Eigenvalues --- 1000.000001000.00000
 RFO step:  Lambda= 0.00000000D+00 EMin= 2.30000000D-03
 Quartic linear search produced a step of -0.00568.
 Iteration  1 RMS(Cart)=  0.00002851 RMS(Int)=  0.00000000
 Iteration  2 RMS(Cart)=  0.00000000 RMS(Int)=  0.00000000
 ITry= 1 IFail=0 DXMaxC= 7.06D-05 DCOld= 1.00D+10 DXMaxT= 5.05D-01 DXLimC= 3.00D+00 Rises=F
 Variable       Old X    -DE/DX   Delta X   Delta X   Delta X     New X
                                 (Linear)    (Quad)   (Total)
    X1       -1.22151   0.00003   0.00000   0.00000   0.00000  -1.22151
    Y1        0.00000   0.00000   0.00000   0.00000   0.00000   0.00000
    Z1        0.00000  -0.00000   0.00000   0.00000   0.00000   0.00000
    X2        1.22151  -0.00003   0.00000   0.00000   0.00000   1.22151
    Y2        0.00000   0.00000   0.00000   0.00000   0.00000   0.00000
    Z2        0.00000  -0.00000   0.00000   0.00000   0.00000   0.00000
    R1        2.01531  -0.00003  -0.00007  -0.00000  -0.00007   2.01524
    R2        2.01531  -0.00003  -0.00007   0.00000  -0.00007   2.01524
    A1        3.14159   0.00000   0.00000   0.00000   0.00000   3.14159
    A2        3.14159  -0.00000   0.00000  -0.00000  -0.00000   3.14159
    A3        3.14159   0.00000   0.00000   0.00000   0.00000   3.14159
    A4        3.14159  -0.00000   0.00000  -0.00000  -0.00000   3.14159
         Item               Value     Threshold  Converged?
 Maximum Force            0.000029     0.000450     YES
 RMS     Force            0.000017     0.000300     YES
 Maximum Displacement     0.000071     0.001800     YES
 RMS     Displacement     0.000029     0.001200     YES
 Predicted change in Energy=-1.971860D-09
 Optimization completed.
    -- Stationary point found.
                           ----------------------------
                           !   Optimized Parameters   !
                           ! (Angstroms and Degrees)  !
 --------------------------                            --------------------------
 ! Name  Definition              Value          Derivative Info.                !
 --------------------------------------------------------------------------------
 ! X1    R(1,-1)                -0.6464         -DE/DX =    0.0                 !
 ! Y1    R(1,-2)                 0.0            -DE/DX =    0.0                 !
 ! Z1    R(1,-3)                 0.0            -DE/DX =    0.0                 !
 ! X2    R(2,-1)                 0.6464         -DE/DX =    0.0                 !
 ! Y2    R(2,-2)                 0.0            -DE/DX =    0.0                 !
 ! Z2    R(2,-3)                 0.0            -DE/DX =    0.0                 !
 ! R1    R(1,3)                  1.0665         -DE/DX =    0.0                 !
 ! R2    R(2,4)                  1.0665         -DE/DX =    0.0                 !
 ! A1    L(2,1,3,-2,-1)        180.0            -DE/DX =    0.0                 !
 ! A2    L(1,2,4,-2,-1)        180.0            -DE/DX =    0.0                 !
 ! A3    L(2,1,3,-3,-2)        180.0            -DE/DX =    0.0                 !
 ! A4    L(1,2,4,-3,-2)        180.0            -DE/DX =    0.0                 !
 --------------------------------------------------------------------------------
 Lowest energy point so far.  Saving SCF results.
 Largest change from initial coordinates is atom    3       0.083 Angstoms.
 GradGradGradGradGradGradGradGradGradGradGradGradGradGradGradGradGradGrad

 Leave Link  103 at Tue Dec  3 20:04:43 2024, MaxMem=   536870912 cpu:               0.0 elap:               0.0
 (Enter /home/szhao/Apps/g16/l202.exe)
                          Input orientation:                          
 ---------------------------------------------------------------------
 Center     Atomic      Atomic             Coordinates (Angstroms)
 Number     Number       Type             X           Y           Z
 ---------------------------------------------------------------------
      1          6           0       -0.646397    0.000000    0.000000
      2          6           0        0.646397    0.000000    0.000000
      3          1           0       -1.712855   -0.000000    0.000000
      4          1           0        1.712855   -0.000000    0.000000
 ---------------------------------------------------------------------
                    Distance matrix (angstroms):
                    1          2          3          4
     1  C    0.000000
     2  C    1.292793   0.000000
     3  H    1.066458   2.359252   0.000000
     4  H    2.359251   1.066458   3.425710   0.000000
 Symmetry turned off by external request.
 Stoichiometry    C2H2
 Framework group  C*V[C*(HCCH)]
 Deg. of freedom     3
 Full point group                 C*V     NOp   4
 Rotational constants (GHZ):           0.0000000          31.7020029          31.7020029
 Leave Link  202 at Tue Dec  3 20:04:43 2024, MaxMem=   536870912 cpu:               0.0 elap:               0.0
 (Enter /home/szhao/Apps/g16/l601.exe)
 Copying SCF densities to generalized density rwf, IOpCl= 1 IROHF=0.

 **********************************************************************

            Population analysis using the SCF density.

 **********************************************************************

 Alpha  occ. eigenvalues --  -10.57498 -10.57350  -0.83434  -0.65915  -0.56519
 Alpha  occ. eigenvalues --   -0.34362  -0.34362
 Alpha virt. eigenvalues --    0.02541   0.02603   0.02960   0.02960   0.07802
 Alpha virt. eigenvalues --    0.07802   0.09303   0.13443   0.13443   0.14833
 Alpha virt. eigenvalues --    0.19203   0.24086   0.37371   0.45161   0.57659
 Alpha virt. eigenvalues --    0.57659   0.64336   0.64336   0.71715   0.72707
 Alpha virt. eigenvalues --    0.83751   0.93286   1.07806   1.07982   1.07982
 Alpha virt. eigenvalues --    1.22185   1.22185   1.46202   1.46202   1.56722
 Alpha virt. eigenvalues --    1.56722   1.70707   1.83172   1.83172   2.05363
 Alpha virt. eigenvalues --    2.44561   2.44561   2.54939   2.67185   2.77789
 Alpha virt. eigenvalues --    2.77789   2.97940   2.97940   2.97940   3.28464
 Alpha virt. eigenvalues --    3.33363   3.73812  23.60637  24.84563
  Beta  occ. eigenvalues --  -10.57498 -10.57350  -0.83434  -0.65915  -0.56519
  Beta  occ. eigenvalues --   -0.34362  -0.34362
  Beta virt. eigenvalues --    0.02541   0.02603   0.02960   0.02960   0.07802
  Beta virt. eigenvalues --    0.07802   0.09303   0.13443   0.13443   0.14833
  Beta virt. eigenvalues --    0.19203   0.24086   0.37371   0.45161   0.57659
  Beta virt. eigenvalues --    0.57659   0.64336   0.64336   0.71715   0.72707
  Beta virt. eigenvalues --    0.83751   0.93286   1.07806   1.07982   1.07982
  Beta virt. eigenvalues --    1.22185   1.22185   1.46202   1.46202   1.56722
  Beta virt. eigenvalues --    1.56722   1.70707   1.83172   1.83172   2.05363
  Beta virt. eigenvalues --    2.44561   2.44561   2.54939   2.67185   2.77789
  Beta virt. eigenvalues --    2.77789   2.97940   2.97940   2.97940   3.28464
  Beta virt. eigenvalues --    3.33363   3.73812  23.60637  24.84563
          Condensed to atoms (all electrons):
               1          2          3          4
     1  C    4.812912   1.010292   0.351948   0.016839
     2  C    1.010292   4.812912   0.016839   0.351948
     3  H    0.351948   0.016839   0.438548   0.000673
     4  H    0.016839   0.351948   0.000673   0.438548
          Atomic-Atomic Spin Densities.
               1          2          3          4
     1  C    0.000000   0.000000   0.000000   0.000000
     2  C    0.000000  -0.000000  -0.000000  -0.000000
     3  H    0.000000  -0.000000  -0.000000   0.000000
     4  H    0.000000  -0.000000   0.000000  -0.000000
 Mulliken charges and spin densities:
               1          2
     1  C   -0.191991   0.000000
     2  C   -0.191991  -0.000000
     3  H    0.191991   0.000000
     4  H    0.191991  -0.000000
 Sum of Mulliken charges =  -0.00000  -0.00000
 Mulliken charges and spin densities with hydrogens summed into heavy atoms:
               1          2
     1  C    0.000000   0.000000
     2  C   -0.000000  -0.000000
 Electronic spatial extent (au):  <R**2>=             64.9129
 Charge=             -0.0000 electrons
 Dipole moment (field-independent basis, Debye):
    X=             -0.0000    Y=             -0.0000    Z=              0.0000  Tot=              0.0000
 Quadrupole moment (field-independent basis, Debye-Ang):
   XX=             -6.5550   YY=            -14.2441   ZZ=            -14.2441
   XY=              0.0000   XZ=             -0.0000   YZ=              0.0000
 Traceless Quadrupole moment (field-independent basis, Debye-Ang):
   XX=              5.1261   YY=             -2.5630   ZZ=             -2.5630
   XY=              0.0000   XZ=             -0.0000   YZ=              0.0000
 Octapole moment (field-independent basis, Debye-Ang**2):
  XXX=             -0.0000  YYY=              0.0000  ZZZ=             -0.0000  XYY=              0.0000
  XXY=             -0.0000  XXZ=              0.0000  XZZ=              0.0000  YZZ=              0.0000
  YYZ=             -0.0000  XYZ=             -0.0000
 Hexadecapole moment (field-independent basis, Debye-Ang**3):
 XXXX=            -39.5782 YYYY=            -18.3575 ZZZZ=            -18.3575 XXXY=              0.0000
 XXXZ=             -0.0000 YYYX=             -0.0000 YYYZ=              0.0000 ZZZX=              0.0000
 ZZZY=              0.0000 XXYY=            -13.7807 XXZZ=            -13.7807 YYZZ=             -6.1192
 XXYZ=              0.0000 YYXZ=              0.0000 ZZXY=             -0.0000
 N-N= 2.353629155921D+01 E-N=-2.259768311426D+02  KE= 7.660752886314D+01
                          Isotropic Fermi Contact Couplings
        Atom                 a.u.       MegaHertz       Gauss      10(-4) cm-1
     1  C(13)             -0.00000      -0.00000      -0.00000      -0.00000
     2  C(13)             -0.00000      -0.00000      -0.00000      -0.00000
     3  H(1)               0.00000       0.00000       0.00000       0.00000
     4  H(1)               0.00000       0.00000       0.00000       0.00000
 --------------------------------------------------------
       Center         ----  Spin Dipole Couplings  ----
                      3XX-RR        3YY-RR        3ZZ-RR
 --------------------------------------------------------
     1   Atom        0.000000     -0.000000     -0.000000
     2   Atom        0.000000     -0.000000     -0.000000
     3   Atom       -0.000000      0.000000      0.000000
     4   Atom       -0.000000      0.000000      0.000000
 --------------------------------------------------------
                        XY            XZ            YZ
 --------------------------------------------------------
     1   Atom       -0.000000      0.000000     -0.000000
     2   Atom        0.000000     -0.000000      0.000000
     3   Atom       -0.000000      0.000000      0.000000
     4   Atom        0.000000     -0.000000      0.000000
 --------------------------------------------------------


 ---------------------------------------------------------------------------------
              Anisotropic Spin Dipole Couplings in Principal Axis System
 ---------------------------------------------------------------------------------

       Atom             a.u.   MegaHertz   Gauss  10(-4) cm-1        Axes

              Baa    -0.0000    -0.000    -0.000    -0.000  0.0074  1.0000 -0.0061
     1 C(13)  Bbb    -0.0000    -0.000    -0.000    -0.000 -0.0043  0.0061  1.0000
              Bcc     0.0000     0.000     0.000     0.000  1.0000 -0.0074  0.0043
 
              Baa    -0.0000    -0.000    -0.000    -0.000  0.0208 -0.0234  0.9995
     2 C(13)  Bbb    -0.0000    -0.000    -0.000    -0.000 -0.0832  0.9962  0.0251
              Bcc     0.0000     0.000     0.000     0.000  0.9963  0.0836 -0.0187
 
              Baa    -0.0000    -0.000    -0.000    -0.000  0.9986  0.0446 -0.0299
     3 H(1)   Bbb     0.0000     0.000     0.000     0.000 -0.0426  0.9970  0.0644
              Bcc     0.0000     0.000     0.000     0.000  0.0327 -0.0630  0.9975
 
              Baa    -0.0000    -0.000    -0.000    -0.000  1.0000 -0.0033  0.0066
     4 H(1)   Bbb     0.0000     0.000     0.000     0.000 -0.0066  0.0038  1.0000
              Bcc     0.0000     0.000     0.000     0.000  0.0033  1.0000 -0.0037
 

 ---------------------------------------------------------------------------------

 No NMR shielding tensors so no spin-rotation constants.
 Leave Link  601 at Tue Dec  3 20:04:43 2024, MaxMem=   536870912 cpu:               1.3 elap:               0.2
 (Enter /home/szhao/Apps/g16/l9999.exe)
 1\1\GINC-NODE01\FOpt\UM062X\6-311+G(d,p)\C2H2\SZHAO\03-Dec-2024\0\\#p 
 opt UM062X/6-311+G** nosymm int=superfine\\Title Card Required\\0,1\C,
 -0.64639674,0.,0.\C,0.64639674,0.,0.\H,-1.7128550624,-0.0000000011,0.0
 000000012\H,1.7128545116,-0.000000001,0.0000000001\\Version=ES64L-G16R
 evA.03\HF=-77.300459\S2=0.\S2-1=0.\S2A=0.\RMSD=1.810e-09\RMSF=1.174e-0
 5\Dipole=-0.0000003,0.,0.\Quadrupole=3.8110939,-1.9055469,-1.9055469,0
 .,0.,0.\PG=C*V [C*(H1C1C1H1)]\\@


 IT IS A SIMPLE TASK TO MAKE THINGS COMPLEX,
 BUT A COMPLEX TASK TO MAKE THEM SIMPLE.
 Job cpu time:       0 days  0 hours  1 minutes 40.5 seconds.
 Elapsed time:       0 days  0 hours  0 minutes 12.7 seconds.
 File lengths (MBytes):  RWF=      6 Int=      0 D2E=      0 Chk=      1 Scr=      1
 Normal termination of Gaussian 16 at Tue Dec  3 20:04:43 2024.
