Title Card Required                                                     
FOpt      UM062X                                                      6-311+G(d,p)        
Number of atoms                            I                4
Info1-9                                    I   N=           9
          14          14           0           0           0         110
           2          18        -502
Full Title                                 C   N=           2
Title Card Required     
Route                                      C   N=           8
#p opt UM062X/6-311+G** nosymm int=superfine SCF=(MaxCycle=2
00,NoVarAcc,noincfock) guess=read   
Charge                                     I                0
Multiplicity                               I                1
Number of electrons                        I               26
Number of alpha electrons                  I               13
Number of beta electrons                   I               13
Number of basis functions                  I               64
Number of independent functions            I               64
Number of point charges in /Mol/           I                0
Number of translation vectors              I                0
Atomic numbers                             I   N=           4
           8          16           1           1
Nuclear charges                            R   N=           4
  8.00000000E+00  1.60000000E+01  1.00000000E+00  1.00000000E+00
Current cartesian coordinates              R   N=          12
 -3.37506314E+00  0.00000000E+00  0.00000000E+00  3.37506314E+00  0.00000000E+00
  0.00000000E+00 -3.38011419E+00 -1.83338615E+00 -1.22590589E-03  3.17580753E+00
 -2.46851478E+00  5.93280140E-01
Number of symbols in /Mol/                 I                0
Force Field                                I                0
Atom Types                                 C   N=           4
                                                
Int Atom Types                             I   N=           4
           0           0           0           0
MM charges                                 R   N=           4
  0.00000000E+00  0.00000000E+00  0.00000000E+00  0.00000000E+00
Integer atomic weights                     I   N=           4
          16          32           1           1
Real atomic weights                        R   N=           4
  1.59949146E+01  3.19720718E+01  1.00782504E+00  1.00782504E+00
Atom fragment info                         I   N=           4
           0           0           0           0
Atom residue num                           I   N=           4
           0           0           0           0
Nuclear spins                              I   N=           4
           0           0           1           1
Nuclear ZEff                               R   N=           4
 -5.60000000E+00 -1.36000000E+01 -1.00000000E+00 -1.00000000E+00
Nuclear ZNuc                               R   N=           4
  8.00000000E+00  1.60000000E+01  1.00000000E+00  1.00000000E+00
Nuclear QMom                               R   N=           4
  0.00000000E+00  0.00000000E+00  0.00000000E+00  0.00000000E+00
Nuclear GFac                               R   N=           4
  0.00000000E+00  0.00000000E+00  2.79284600E+00  2.79284600E+00
MicOpt                                     I   N=           4
          -2          -2          -1          -1
Number of residues                         I                0
Number of secondary structures             I                0
Redundant internal dimensions              I   N=           4
          12           8           4           0
Redundant internal coordinate indices      I   N=          48
           1          -1           0           0           1          -2
           0           0           1          -3           0           0
           2          -1           0           0           2          -2
           0           0           2          -3           0           0
           1           3           0           0           2           4
           0           0           2           1           3          -5
           1           2           4          -5           2           1
           3          -7           1           2           4          -7
Redundant internal coordinates             R   N=          12
 -3.37506314E+00  0.00000000E+00  0.00000000E+00  3.37506314E+00  0.00000000E+00
  0.00000000E+00  1.83339351E+00  2.54661528E+00  1.57355136E+00  4.79293318E+00
  3.37969227E+00  5.03640658E+00
ZRed-IntVec                                I   N=          12
          -1          -1          -1          -1          -1          -1
           0           0           0           0           0           0
ZRed-FPVec                                 R   N=          12
  0.00000000E+00  0.00000000E+00  0.00000000E+00  0.00000000E+00  0.00000000E+00
  0.00000000E+00  0.00000000E+00  0.00000000E+00  0.00000000E+00  0.00000000E+00
  0.00000000E+00  0.00000000E+00
ZRed-Constraint1                           R   N=          12
 -3.37506314E+00  0.00000000E+00  0.00000000E+00  3.37506314E+00  0.00000000E+00
  0.00000000E+00  1.83597177E+00  2.59721753E+00  3.14071774E+00  3.14233270E+00
  3.14159265E+00  3.14158686E+00
ZRed-Constraint2                           R   N=          12
 -3.37506314E+00  0.00000000E+00  0.00000000E+00  3.37506314E+00  0.00000000E+00
  0.00000000E+00  0.00000000E+00  0.00000000E+00  0.00000000E+00  0.00000000E+00
  0.00000000E+00  0.00000000E+00
Number of contracted shells                I               27
Number of primitive shells                 I               49
Pure/Cartesian d shells                    I                0
Pure/Cartesian f shells                    I                0
Highest angular momentum                   I                2
Largest degree of contraction              I                6
Shell types                                I   N=          27
           0          -1          -1          -1          -1          -2
           0           0           0           0           0           0
          -1           1           1           1           1           1
          -2           0           0           0           1           0
           0           0           1
Number of primitives per shell             I   N=          27
           6           3           1           1           1           1
           6           3           1           1           1           1
           1           4           2           1           1           1
           1           3           1           1           1           3
           1           1           1
Shell to atom map                          I   N=          27
           1           1           1           1           1           1
           2           2           2           2           2           2
           2           2           2           2           2           2
           2           3           3           3           3           4
           4           4           4
Primitive exponents                        R   N=          49
  8.58850000E+03  1.29723000E+03  2.99296000E+02  8.73771000E+01  2.56789000E+01
  3.74004000E+00  4.21175000E+01  9.62837000E+00  2.85332000E+00  9.05661000E-01
  2.55611000E-01  8.45000000E-02  1.29200000E+00  9.34134000E+04  1.39617000E+04
  3.16991000E+03  9.02456000E+02  2.97158000E+02  1.08702000E+02  1.08702000E+02
  4.31553000E+01  1.81079000E+01  5.56009000E+00  2.13183000E+00  4.20403000E-01
  1.36045000E-01  4.05000000E-02  4.95040000E+02  1.17221000E+02  3.77749000E+01
  1.40584000E+01  5.56574000E+00  2.26297000E+00  8.07994000E-01  2.77460000E-01
  7.71410000E-02  6.50000000E-01  3.38650000E+01  5.09479000E+00  1.15879000E+00
  3.25840000E-01  1.02741000E-01  7.50000000E-01  3.38650000E+01  5.09479000E+00
  1.15879000E+00  3.25840000E-01  1.02741000E-01  7.50000000E-01
Contraction coefficients                   R   N=          49
  1.89515008E-03  1.43859006E-02  7.07320031E-02  2.40001011E-01  5.94797026E-01
  2.80802012E-01  1.13889012E-01  9.20811101E-01 -3.27447036E-03  1.00000000E+00
  1.00000000E+00  1.00000000E+00  1.00000000E+00  7.42999957E-04  5.79299966E-03
  2.99539983E-02  1.19027993E-01  3.68431979E-01  5.77298966E-01  1.43186060E-01
  6.24465262E-01  2.83366119E-01  1.00000000E+00  1.00000000E+00  1.00000000E+00
  1.00000000E+00  1.00000000E+00  8.30900251E-03  6.40240194E-02  2.77614084E-01
  7.45076225E-01  6.13711672E-01  4.43817763E-01  1.00000000E+00  1.00000000E+00
  1.00000000E+00  1.00000000E+00  2.54938145E-02  1.90373109E-01  8.52161486E-01
  1.00000000E+00  1.00000000E+00  1.00000000E+00  2.54938145E-02  1.90373109E-01
  8.52161486E-01  1.00000000E+00  1.00000000E+00  1.00000000E+00
P(S=P) Contraction coefficients            R   N=          49
  0.00000000E+00  0.00000000E+00  0.00000000E+00  0.00000000E+00  0.00000000E+00
  0.00000000E+00  3.65113974E-02  2.37152983E-01  8.19701941E-01  1.00000000E+00
  1.00000000E+00  1.00000000E+00  0.00000000E+00  0.00000000E+00  0.00000000E+00
  0.00000000E+00  0.00000000E+00  0.00000000E+00  0.00000000E+00  0.00000000E+00
  0.00000000E+00  0.00000000E+00  0.00000000E+00  0.00000000E+00  0.00000000E+00
  0.00000000E+00  1.00000000E+00  0.00000000E+00  0.00000000E+00  0.00000000E+00
  0.00000000E+00  0.00000000E+00  0.00000000E+00  0.00000000E+00  0.00000000E+00
  0.00000000E+00  0.00000000E+00  0.00000000E+00  0.00000000E+00  0.00000000E+00
  0.00000000E+00  0.00000000E+00  0.00000000E+00  0.00000000E+00  0.00000000E+00
  0.00000000E+00  0.00000000E+00  0.00000000E+00  0.00000000E+00
Coordinates of each shell                  R   N=          81
 -3.37506314E+00  0.00000000E+00  0.00000000E+00 -3.37506314E+00  0.00000000E+00
  0.00000000E+00 -3.37506314E+00  0.00000000E+00  0.00000000E+00 -3.37506314E+00
  0.00000000E+00  0.00000000E+00 -3.37506314E+00  0.00000000E+00  0.00000000E+00
 -3.37506314E+00  0.00000000E+00  0.00000000E+00  3.37506314E+00  0.00000000E+00
  0.00000000E+00  3.37506314E+00  0.00000000E+00  0.00000000E+00  3.37506314E+00
  0.00000000E+00  0.00000000E+00  3.37506314E+00  0.00000000E+00  0.00000000E+00
  3.37506314E+00  0.00000000E+00  0.00000000E+00  3.37506314E+00  0.00000000E+00
  0.00000000E+00  3.37506314E+00  0.00000000E+00  0.00000000E+00  3.37506314E+00
  0.00000000E+00  0.00000000E+00  3.37506314E+00  0.00000000E+00  0.00000000E+00
  3.37506314E+00  0.00000000E+00  0.00000000E+00  3.37506314E+00  0.00000000E+00
  0.00000000E+00  3.37506314E+00  0.00000000E+00  0.00000000E+00  3.37506314E+00
  0.00000000E+00  0.00000000E+00 -3.38011419E+00 -1.83338615E+00 -1.22590589E-03
 -3.38011419E+00 -1.83338615E+00 -1.22590589E-03 -3.38011419E+00 -1.83338615E+00
 -1.22590589E-03 -3.38011419E+00 -1.83338615E+00 -1.22590589E-03  3.17580753E+00
 -2.46851478E+00  5.93280140E-01  3.17580753E+00 -2.46851478E+00  5.93280140E-01
  3.17580753E+00 -2.46851478E+00  5.93280140E-01  3.17580753E+00 -2.46851478E+00
  5.93280140E-01
Num ILSW                                   I              100
ILSW                                       I   N=         100
           1           0           0           0           2           0
           0           0           0           0        4336          -1
           7           0           0           0           2           0
           0           0           0           0           1           0
           1           1           0           0           0           0
           0           0      100000           0          -1           0
           0           0           0           0           0           0
           0           0           0           1           0           0
           0 -2000000000           1           0           0           0
           0           0           4          52           0           0
           0           0          55           0           0           0
           0           0           0           4           0           1
           0           0           0           0           0           0
           0           0           0           0           0           0
           0           0           0           0           0           0
           0           0           0           0           0           0
           0           0           0           0
Num RLSW                                   I               52
RLSW                                       R   N=          52
  1.00000000E+00  1.00000000E+00  1.00000000E+00  1.00000000E+00  5.40000000E-01
  0.00000000E+00  0.00000000E+00  1.00000000E+00  0.00000000E+00  0.00000000E+00
  0.00000000E+00  0.00000000E+00  1.00000000E+00  0.00000000E+00  0.00000000E+00
  0.00000000E+00  0.00000000E+00  1.00000000E+00  0.00000000E+00  0.00000000E+00
  0.00000000E+00  0.00000000E+00  1.00000000E+00  0.00000000E+00  0.00000000E+00
  0.00000000E+00  0.00000000E+00  1.00000000E+00  0.00000000E+00  0.00000000E+00
  0.00000000E+00  0.00000000E+00  1.00000000E+00  0.00000000E+00  0.00000000E+00
  0.00000000E+00  0.00000000E+00  0.00000000E+00  1.00000000E+00  1.00000000E+00
  0.00000000E+00  1.00000000E+00  0.00000000E+00  0.00000000E+00  0.00000000E+00
  0.00000000E+00  0.00000000E+00  0.00000000E+00  0.00000000E+00  0.00000000E+00
  0.00000000E+00  0.00000000E+00
MxBond                                     I                2
NBond                                      I   N=           4
           2           2           1           1
IBond                                      I   N=           8
           2           3           1           4           1           0
           2           0
RBond                                      R   N=           8
  1.00000000E-01  1.00000000E+00  1.00000000E-01  1.00000000E+00  1.00000000E+00
  0.00000000E+00  1.00000000E+00  0.00000000E+00
Virial Ratio                               R      2.001657583088594E+00
SCF Energy                                 R     -4.743687527750239E+02
Total Energy                               R     -4.743687527750239E+02
S**2                                       R      6.341593916658894E-13
S**2 after annihilation                    R     -2.913225216617249E-13
RMS Force                                  R      9.727355395838337E-05
RMS Density                                R      3.861050604704190E-09
Job Status                                 I                1
Nuclear derivative order                   I                1
External E-field                           R   N=          35
  0.00000000E+00  0.00000000E+00  0.00000000E+00  0.00000000E+00  0.00000000E+00
  0.00000000E+00  0.00000000E+00  0.00000000E+00  0.00000000E+00  0.00000000E+00
  0.00000000E+00  0.00000000E+00  0.00000000E+00  0.00000000E+00  0.00000000E+00
  0.00000000E+00  0.00000000E+00  0.00000000E+00  0.00000000E+00  0.00000000E+00
  0.00000000E+00  0.00000000E+00  0.00000000E+00  0.00000000E+00  0.00000000E+00
  0.00000000E+00  0.00000000E+00  0.00000000E+00  0.00000000E+00  0.00000000E+00
  0.00000000E+00  0.00000000E+00  0.00000000E+00  0.00000000E+00  0.00000000E+00
IOpCl                                      I                1
IROHF                                      I                0
Alpha Orbital Energies                     R   N=          64
 -8.99793093E+01 -1.96721611E+01 -8.34087803E+00 -6.26285157E+00 -6.25940413E+00
 -6.25355728E+00 -1.08450837E+00 -8.40442824E-01 -5.24743001E-01 -4.98505793E-01
 -3.97120365E-01 -3.58247544E-01 -3.37386970E-01 -2.27840840E-01  9.47172821E-03
  4.01595922E-02  5.24257458E-02  5.42111653E-02  6.50588237E-02  1.27643516E-01
  1.92885921E-01  1.98946008E-01  2.16390843E-01  2.52148642E-01  3.08755882E-01
  3.39885907E-01  3.45593912E-01  3.86766758E-01  5.31222280E-01  5.89166478E-01
  6.96067865E-01  7.12771424E-01  7.84629280E-01  7.92768579E-01  9.66116971E-01
  1.04040601E+00  1.07986819E+00  1.09622417E+00  1.37315367E+00  1.38973447E+00
  1.39664032E+00  1.45020911E+00  1.45197735E+00  1.64118487E+00  1.66068218E+00
  1.67907371E+00  2.05400631E+00  2.08285688E+00  2.47577825E+00  2.51829693E+00
  2.87983749E+00  2.88706390E+00  3.16476497E+00  3.18785210E+00  3.84294901E+00
  5.03301402E+00  5.04303309E+00  5.51180867E+00  7.81124317E+00  1.74049559E+01
  1.74185065E+01  1.74511524E+01  4.98690158E+01  1.89070936E+02
Beta Orbital Energies                      R   N=          64
 -8.99793093E+01 -1.96721611E+01 -8.34087803E+00 -6.26285157E+00 -6.25940413E+00
 -6.25355728E+00 -1.08450837E+00 -8.40442824E-01 -5.24743001E-01 -4.98505793E-01
 -3.97120364E-01 -3.58247545E-01 -3.37386969E-01 -2.27840840E-01  9.47172811E-03
  4.01595923E-02  5.24257445E-02  5.42111652E-02  6.50588242E-02  1.27643516E-01
  1.92885921E-01  1.98946008E-01  2.16390843E-01  2.52148642E-01  3.08755882E-01
  3.39885907E-01  3.45593912E-01  3.86766759E-01  5.31222280E-01  5.89166478E-01
  6.96067865E-01  7.12771424E-01  7.84629278E-01  7.92768580E-01  9.66116971E-01
  1.04040601E+00  1.07986819E+00  1.09622417E+00  1.37315367E+00  1.38973447E+00
  1.39664032E+00  1.45020911E+00  1.45197735E+00  1.64118487E+00  1.66068218E+00
  1.67907371E+00  2.05400631E+00  2.08285688E+00  2.47577825E+00  2.51829693E+00
  2.87983749E+00  2.88706390E+00  3.16476497E+00  3.18785210E+00  3.84294901E+00
  5.03301402E+00  5.04303309E+00  5.51180867E+00  7.81124317E+00  1.74049559E+01
  1.74185065E+01  1.74511524E+01  4.98690158E+01  1.89070936E+02
Alpha MO coefficients                      R   N=        4096
  2.64106494E-07 -1.24313324E-06 -5.04628330E-07 -2.16199775E-07  3.97845165E-08
  9.08096214E-06  2.12295146E-06  7.77023099E-07 -1.35828111E-07 -3.76493386E-05
 -1.55165254E-05  7.45868773E-06  3.60016216E-07  1.61066148E-04  3.61853262E-05
 -8.43070567E-05  2.29803263E-07 -5.00746474E-07  6.15123323E-08 -3.00446132E-08
  8.31728907E-07 -1.22605547E-06  4.10786412E-01  6.54412504E-01  1.53453649E-02
 -4.33987192E-03  1.59852652E-03 -8.90486702E-04  1.36808310E-04 -2.04651144E-05
 -1.95424456E-05  4.59657850E-06 -2.30565925E-05 -7.74834530E-05  1.83530358E-05
  5.58813211E-06  2.52927925E-05 -6.01109767E-06  1.36877177E-06  6.67203663E-06
 -1.62398626E-06 -2.31068332E-05 -1.74154502E-04  4.17896936E-05  5.27816512E-05
  1.78193949E-04 -4.22722994E-05 -4.07290958E-05 -2.65569923E-06 -3.58659464E-05
 -7.02127120E-05  1.04731422E-05 -1.99865263E-06  2.39745685E-05 -1.77174249E-04
 -3.50531203E-06  7.34836633E-07 -2.40449337E-07  2.71951036E-05 -2.18486564E-04
  2.70389706E-04 -1.41285177E-05 -1.68632826E-04  4.04386925E-05  5.52842827E-01
  4.69704131E-01  1.57247554E-04 -1.26589060E-03  1.29221031E-06  8.01986391E-03
 -1.85035510E-05  1.30378313E-04 -7.89840349E-07 -3.01688996E-03 -1.14920164E-04
 -1.77098053E-04  6.41636883E-07  2.36233696E-03  2.96066405E-04 -3.70435781E-04
  1.94395309E-07 -5.47867769E-05  1.71593817E-07  1.22964979E-07 -1.32386429E-04
 -3.74762263E-07  5.96990354E-08 -9.37306306E-07  7.91706890E-06 -1.86359324E-05
  5.15303420E-05 -5.35676647E-05 -4.41143638E-04  2.84393625E-04 -2.28478671E-05
  1.38891597E-08 -3.46630220E-07  9.08850393E-09 -8.59897897E-09  1.26027864E-05
 -1.08226368E-06  2.02974391E-07 -3.95003857E-05  2.89325438E-06 -5.26009163E-07
  3.95977077E-05 -4.27066808E-06  6.36088833E-07  2.03684352E-05  1.85096477E-04
 -4.00155371E-05  1.94727185E-05  7.63243688E-07  5.71001474E-06 -1.21247346E-05
 -3.63590881E-06  5.53156042E-05  1.87487819E-05 -1.06703841E-03  1.82711265E-06
 -4.44171608E-04 -5.43055220E-07  6.31415594E-06 -2.27417625E-05  3.01890171E-04
 -6.19522607E-06  6.56358053E-06 -1.99081623E-06 -1.51610027E-06 -7.70490700E-06
  1.67280009E-05 -2.19927218E-07  3.40099256E-07  7.90676187E-05  1.05268031E-05
  4.85213540E-07 -1.61452317E-06 -3.68272503E-04 -1.08584023E-04  6.48594505E-05
  4.21366470E-06  2.02997653E-03  4.19292882E-04 -1.12421211E-03  3.22112493E-06
 -1.18957191E-05  5.46204942E-07 -2.69463184E-07  6.94662249E-06 -1.50705458E-05
 -1.19758828E-01 -3.20472382E-01  5.15956215E-01  5.99054864E-01  4.27872851E-02
 -1.47787015E-02  2.43953511E-03 -3.23266665E-04 -2.26031810E-04  5.25650918E-05
 -6.16019249E-04 -1.94806236E-03  4.60511291E-04 -1.42574761E-03 -4.40711518E-03
  1.04170652E-03 -1.37841756E-04 -4.10426433E-04  9.62275049E-05 -2.43609692E-04
 -1.88940830E-03  4.52465451E-04  6.86540416E-04  2.25372194E-03 -5.33661717E-04
 -9.07846781E-04 -2.08628281E-05 -5.30006815E-04 -5.10582199E-04  6.05422167E-05
 -2.46055630E-05  2.52021003E-04 -2.35295076E-03 -5.14102274E-05 -1.04247169E-05
 -2.58259809E-06  1.65324753E-04 -2.08867593E-03  3.44600529E-03 -1.39888831E-04
 -1.61742352E-03  3.87778602E-04  2.34451897E-06  1.10033577E-05  1.92525186E-05
  5.20535662E-06 -3.83498620E-07 -1.03837656E-04 -1.03560864E-04 -2.40889170E-05
  1.54871295E-06  2.39217229E-04  2.29409027E-04 -7.73907855E-05 -4.21317810E-06
  2.93151228E-04  2.03412060E-04 -2.49069307E-04  5.33130459E-06 -2.67144261E-05
 -8.97104855E-08  9.49214160E-08 -2.40397595E-06 -4.95918158E-06 -1.37286138E-04
 -3.77495811E-04  7.15432401E-04  5.18606177E-04  1.02107304E-04 -2.75201670E-05
 -1.21393869E-04 -2.46660239E-03  2.79412045E-04 -5.75547083E-05  3.75660047E-01
 -4.78160394E-02  9.75719051E-03  7.03086574E-01 -8.94754047E-02  1.82564028E-02
  5.44843339E-02 -6.92601246E-03  1.41405011E-03 -7.59787511E-03  9.06177009E-04
 -1.84695371E-04  4.70449089E-03 -4.76461026E-04  9.74349361E-05  2.45764421E-05
  1.24900781E-04 -3.51587430E-05 -1.92601480E-04 -5.30394008E-04 -1.09288379E-05
 -1.35283923E-04 -4.63086301E-04 -2.63374467E-05 -4.72325057E-05  2.24068155E-07
  2.69741464E-05 -2.29746153E-05  6.94900834E-05  6.45764113E-05 -5.87363269E-05
  1.35804491E-05  2.72822090E-07  1.17198665E-06  3.31973300E-06 -6.32094440E-06
  1.45533538E-06 -9.85540200E-06 -2.02809319E-05  2.81322532E-05 -6.24632255E-06
  2.64651529E-07  3.62425270E-05 -8.61987748E-05  1.53049846E-05  2.06416706E-04
  5.26417823E-05  9.30548173E-06 -1.65971839E-05 -4.54440213E-06  8.43650964E-07
 -4.69391858E-07 -2.33351462E-06 -9.88501061E-07 -8.09995369E-04 -2.19185160E-03
  3.88015920E-03  3.92831416E-03 -7.23389488E-04 -3.20900411E-04 -4.91684549E-04
 -2.19646789E-04 -1.94454591E-03  4.67279115E-04  4.88386225E-02  3.65877103E-01
 -8.79165511E-02  9.12615878E-02  6.83555369E-01 -1.64251502E-01  6.94082729E-03
  5.19760120E-02 -1.24897220E-02 -9.30311783E-04 -6.73934306E-03  1.61963915E-03
  5.89575726E-04  4.26635441E-03 -1.02469035E-03  3.60197194E-04  5.10711264E-05
  3.05856847E-04  5.85569013E-04 -2.13493072E-04 -1.09545611E-05 -2.78592724E-05
 -1.21774153E-04  1.11676974E-05 -1.27554603E-06 -2.60235413E-06 -5.54440803E-04
 -8.02905413E-05  1.13288362E-03  3.53393573E-05  6.43070948E-04 -1.54837896E-04
  2.57953156E-08  1.61595090E-07  7.67091826E-08 -1.45213589E-06 -5.47806915E-06
 -1.72329207E-06 -3.80311568E-07  6.44515636E-06  2.34756683E-05  4.88591441E-06
 -7.65744912E-07 -1.81352681E-05 -5.58324936E-05  3.61797720E-06  1.67711789E-06
  1.53685170E-05  7.15932241E-05 -4.95653057E-07 -3.10335129E-06  1.76063557E-06
 -6.79555215E-07 -3.27484613E-08 -3.52680530E-06 -9.57253286E-06  1.71846442E-05
  1.62937754E-05 -2.09546922E-06  4.45437814E-07 -1.61686558E-06 -1.06105075E-05
 -4.98800243E-04 -2.08126253E-03  1.67752421E-03  8.86350792E-02  3.69799079E-01
  3.12747354E-03  1.65298369E-01  6.89649515E-01  2.29933408E-04  1.21008894E-02
  5.04885242E-02 -3.23921301E-05 -1.62583447E-03 -6.78252428E-03  2.09384675E-05
  9.41120977E-04  3.92379795E-03  1.79143834E-04 -1.15148975E-04 -4.11137727E-04
  1.03613185E-04 -2.97998055E-05 -1.55504495E-06 -7.37700006E-06 -2.36291346E-06
  3.27124357E-06  4.66632843E-07  8.13532319E-06  5.97168943E-08 -4.38706664E-07
  7.54656154E-07  3.26649829E-07  2.09528594E-05  8.96504228E-05 -1.18635261E-01
 -1.95531593E-01  1.17101215E-04 -4.77792485E-02  1.59518029E-05  5.74843489E-01
  5.30935529E-04 -7.65080987E-02  2.11301009E-05  4.17445274E-01  1.81022736E-03
 -2.88602959E-02  1.04702406E-04 -1.85196416E-02 -4.08747435E-03  5.75220603E-03
  2.37089928E-05 -9.32088410E-03 -8.19870056E-06  3.75674436E-07 -5.89090618E-03
 -1.04679501E-04  2.57400489E-04  7.35666711E-04 -1.57791773E-03 -2.60821542E-03
  3.44713714E-03  5.53119883E-03  7.49993741E-03 -4.09253905E-03  2.02961948E-04
 -4.78526812E-05  6.65098801E-04  3.32651500E-05 -7.62360706E-06  1.20655121E-03
  6.47937604E-05 -1.45097723E-05 -1.20789989E-03 -3.72296474E-06 -1.94613969E-06
 -4.74252092E-03 -3.19479317E-04  9.46082822E-05 -2.90132626E-03 -3.49193618E-03
  7.58778395E-04 -7.25188247E-04 -3.91350563E-05 -1.62710721E-04  6.13988990E-04
  2.06467690E-04  1.10936673E-01  9.05317862E-02  1.67823762E-02  1.55850182E-04
  2.62807820E-02  6.27003392E-05  6.23288075E-04 -1.76826924E-04 -4.82355685E-03
  2.81348706E-05 -7.70964145E-05  2.09382018E-05  1.38474517E-03  2.31805058E-03
  4.02726167E-03  9.97706958E-04  1.07224587E-05 -7.51038316E-03  6.15800784E-03
  1.47142693E-03  2.48133120E-05 -2.47098932E-03  6.47281164E-03  1.86190540E-04
 -2.22488450E-05 -8.43324590E-03 -1.08943683E-03  4.53285958E-03  2.72102057E-05
 -9.09918814E-05  1.68421322E-06 -7.26299671E-07  3.86815579E-04 -2.01889287E-04
  3.33212070E-02  9.46798687E-02 -1.98655162E-01 -3.67925684E-01  6.67745147E-01
  4.04030629E-01 -1.12213884E-02  5.77210690E-05 -3.11686336E-04  2.14046852E-04
  6.94058288E-04  1.70546011E-02 -4.05191851E-03  1.48492049E-03  3.40675029E-02
 -8.09629557E-03 -2.58267275E-03 -4.72838666E-02  1.12631098E-02  6.32215776E-04
 -6.41961856E-02  1.51434960E-02 -3.07623926E-05 -1.09147995E-02  2.17872879E-03
 -1.81167054E-02 -4.56049971E-04 -1.10665298E-02 -1.22707358E-02  1.74248404E-03
 -1.60072910E-03 -3.23786569E-03  1.05529823E-02  7.24340724E-04 -4.99820169E-04
  2.86975987E-06  1.02170098E-01  1.35951280E-01  4.80174150E-03  2.15301492E-03
  2.30180399E-02 -5.58915941E-03 -3.97286259E-02 -6.65321699E-02  2.43804925E-04
  2.50926312E-01  1.66394569E-04  2.03089840E-01  4.69692032E-04  3.61407913E-01
  2.41903166E-04  2.90100742E-01  9.81261696E-04  2.40206701E-01  2.12426724E-04
  6.20984276E-02 -1.63825110E-03  2.30349680E-02 -1.25348432E-04  8.19137822E-03
 -6.17364711E-06 -2.96169614E-06  1.75445141E-02  5.28302486E-04  6.74264630E-04
  1.93063734E-03 -4.18643562E-03 -7.40662970E-03  1.28305971E-02  1.91210505E-02
  3.60743405E-03  8.84769896E-04 -1.87280121E-04  2.15522392E-04  5.43554695E-04
 -4.86544794E-03  9.80215825E-04  1.02284955E-03 -9.48346625E-03  1.91268107E-03
 -1.20840428E-03  1.37896617E-02 -2.77924064E-03 -3.61778188E-03  2.34804907E-02
 -4.67568242E-03 -4.12429215E-03  5.49521285E-03 -5.43613633E-04  8.17456442E-04
  5.39811197E-05  1.12275852E-03  3.19887053E-03 -7.89331599E-04 -1.66138947E-01
 -2.61889418E-01 -8.76929493E-02 -7.39798809E-04 -2.97884113E-02 -1.22946696E-04
 -9.72708932E-03 -1.69824822E-02 -1.15692647E-02  5.00717897E-07 -1.69524132E-03
  4.54536525E-04  2.79259927E-03  4.68351478E-03  4.30662814E-03 -1.66192260E-02
 -9.21489178E-04 -1.44486802E-02  6.56645686E-03 -2.37015841E-02 -1.40170098E-03
 -2.03260016E-02  6.09096797E-03 -1.66977041E-02 -1.00821827E-03  1.68819137E-03
  2.84752944E-03 -3.01181614E-03 -6.59565770E-04 -6.17101263E-04 -3.60340802E-05
  4.74437864E-05 -9.66952617E-04 -1.41903987E-04  1.26249836E-02  3.60642754E-02
 -7.74737519E-02 -1.41901787E-01  2.61957576E-01  3.08022671E-01  2.46435176E-02
 -3.83072226E-03 -2.21074940E-02  5.33670896E-03 -7.80675210E-03 -7.94515597E-02
  1.91459881E-02 -1.51867540E-02 -1.54740726E-01  3.72866652E-02  2.20644356E-02
  2.25545584E-01 -5.43326869E-02  3.96802075E-02  3.92146299E-01 -9.45929174E-02
  1.57970141E-02  9.73774296E-02 -2.35117950E-02  1.79174120E-02  1.68673187E-03
  1.94484924E-02  4.56028921E-02 -7.13790824E-03  1.04175180E-02  1.80059273E-02
 -1.30237046E-03  3.39316646E-04  1.97296776E-03 -1.28126893E-04 -1.57319308E-01
 -2.88098109E-01 -1.45042604E-01 -2.65570248E-03 -2.56666858E-02  6.28993756E-03
  6.18530322E-05  1.03489254E-04  8.90143528E-04 -2.57922192E-04  3.04752954E-01
 -3.30765006E-04  1.33158913E-03 -3.55611520E-04  4.46868946E-01 -5.68457116E-04
  1.14964426E-03 -4.89326189E-04  4.02501401E-01  2.02623358E-03  7.31448232E-04
 -8.47054877E-04  8.74301450E-02  1.86825420E-05  6.62260615E-04 -1.47239353E-02
 -1.10247863E-05 -4.60207838E-05  4.75210519E-05  1.35086554E-04 -2.84697029E-04
 -5.64032154E-04  1.07896406E-03  9.33570362E-04 -1.12521838E-03  1.06799905E-04
 -7.04863539E-04 -8.10530146E-05 -1.49738820E-05 -1.58820956E-03 -4.87847045E-03
 -3.06165568E-05 -3.07362968E-03 -9.38446160E-03  6.34627445E-05  4.55985632E-03
  1.36472491E-02  6.49502600E-06  8.68908034E-03  2.82929448E-02  2.47399133E-04
  5.16198315E-03  1.49768764E-02  4.19433119E-04 -9.53844260E-04 -7.00644253E-04
  4.39433847E-04 -2.39262992E-05 -4.57914768E-06 -1.21801006E-04 -1.12642457E-03
  1.09360261E-04 -4.35222979E-05  3.64933053E-02 -7.20575153E-04 -2.34928153E-03
  1.58404740E-03 -1.23355864E-04  8.59516030E-05  1.08840138E-03  3.91608460E-05
  6.27815030E-05 -2.61878998E-03 -1.03674474E-03 -1.83834888E-02 -1.03110417E-04
 -3.93843454E-03 -1.42817091E-03 -2.67924936E-02 -1.09832362E-03 -3.65965469E-03
 -8.94246683E-04 -2.50476137E-02  3.72268615E-03 -7.75376550E-04 -1.75662670E-03
 -4.54279110E-03 -9.80234760E-06  2.30785037E-04  8.92818864E-04 -7.33607182E-05
  2.02661367E-04  4.48877816E-05  1.26692101E-04 -2.58750704E-04 -5.74961956E-04
  1.57093740E-03 -3.33401022E-04 -2.35426888E-03 -6.84185407E-04 -1.40005392E-02
 -5.85176644E-02 -1.37625330E-03 -2.40401774E-02 -1.00501646E-01 -2.66111513E-03
 -4.63026995E-02 -1.93592657E-01  3.80161635E-03  6.82086399E-02  2.85300411E-01
  7.99049862E-03  1.40668119E-01  5.87424468E-01  5.56141282E-03  7.87095636E-02
  3.22458328E-01  7.07506255E-03 -2.64730987E-04 -1.64603752E-02  4.03984943E-03
 -3.72647012E-04  5.55994869E-04  1.88280664E-03 -4.38788644E-03 -4.53864509E-04
  2.54719783E-04 -2.03398503E-03  1.63775110E-04  6.90104757E-04  1.53672784E-03
  2.90612944E-04  5.32497193E-03  2.17605712E-02 -3.00243158E-03 -5.04976492E-03
 -2.13049960E-01  1.09287708E-03  1.10756344E-03  1.59599501E-02 -3.22187973E-01