Title Card Required                                                     
Force     UM062X                                                      6-311+G(d,p)        
Number of atoms                            I                6
Info1-9                                    I   N=           9
          15          15           0           0           0         100
           5          18        -502
Full Title                                 C   N=           2
Title Card Required     
Route                                      C   N=           4
#p UM062X/6-311+G** force int=superfine         
Charge                                     I                0
Multiplicity                               I                1
Number of electrons                        I               16
Number of alpha electrons                  I                8
Number of beta electrons                   I                8
Number of basis functions                  I               68
Number of independent functions            I               68
Number of point charges in /Mol/           I                0
Number of translation vectors              I                0
Atomic numbers                             I   N=           6
           6           6           1           1           1           1
Nuclear charges                            R   N=           6
  6.00000000E+00  6.00000000E+00  1.00000000E+00  1.00000000E+00  1.00000000E+00
  1.00000000E+00
Current cartesian coordinates              R   N=          18
 -8.96501123E-21  9.26957907E-01  0.00000000E+00 -1.13504662E-16 -9.26957907E-01
  0.00000000E+00 -1.67377200E+00  2.14824066E+00  0.00000000E+00  1.67405924E+00
  2.14811216E+00  0.00000000E+00  1.67377200E+00 -2.14824066E+00  0.00000000E+00
 -1.67405924E+00 -2.14811216E+00  0.00000000E+00
Number of symbols in /Mol/                 I                0
Force Field                                I                0
Atom Types                                 C   N=           6
                                                            
            
Int Atom Types                             I   N=           6
           0           0           0           0           0           0
MM charges                                 R   N=           6
  0.00000000E+00  0.00000000E+00  0.00000000E+00  0.00000000E+00  0.00000000E+00
  0.00000000E+00
Integer atomic weights                     I   N=           6
          12          12           1           1           1           1
Real atomic weights                        R   N=           6
  1.20000000E+01  1.20000000E+01  1.00782504E+00  1.00782504E+00  1.00782504E+00
  1.00782504E+00
Atom fragment info                         I   N=           6
           0           0           0           0           0           0
Atom residue num                           I   N=           6
           0           0           0           0           0           0
Nuclear spins                              I   N=           6
           0           0           1           1           1           1
Nuclear ZEff                               R   N=           6
 -3.60000000E+00 -3.60000000E+00 -1.00000000E+00 -1.00000000E+00 -1.00000000E+00
 -1.00000000E+00
Nuclear ZNuc                               R   N=           6
  6.00000000E+00  6.00000000E+00  1.00000000E+00  1.00000000E+00  1.00000000E+00
  1.00000000E+00
Nuclear QMom                               R   N=           6
  0.00000000E+00  0.00000000E+00  0.00000000E+00  0.00000000E+00  0.00000000E+00
  0.00000000E+00
Nuclear GFac                               R   N=           6
  0.00000000E+00  0.00000000E+00  2.79284600E+00  2.79284600E+00  2.79284600E+00
  2.79284600E+00
MicOpt                                     I   N=           6
          -1          -1          -1          -1          -1          -1
Number of residues                         I                0
Number of secondary structures             I                0
SymInf integers                            I   N=          26
           2           4           1           1           1          -1
          -1           1           1           1          -1          -1
          -1          -1           0           0           0           0
           0           0           0           0           0           0
           0           0
RotTr to input orientation                 R   N=          12
  7.07322511E-17  1.00000000E+00  0.00000000E+00 -1.00000000E+00  7.07290273E-17
  0.00000000E+00  0.00000000E+00  0.00000000E+00  1.00000000E+00  5.55111512E-17
  0.00000000E+00  0.00000000E+00
Number of contracted shells                I               28
Number of primitive shells                 I               50
Pure/Cartesian d shells                    I                0
Pure/Cartesian f shells                    I                0
Highest angular momentum                   I                2
Largest degree of contraction              I                6
Shell types                                I   N=          28
           0          -1          -1          -1          -1          -2
           0          -1          -1          -1          -1          -2
           0           0           0           1           0           0
           0           1           0           0           0           1
           0           0           0           1
Number of primitives per shell             I   N=          28
           6           3           1           1           1           1
           6           3           1           1           1           1
           3           1           1           1           3           1
           1           1           3           1           1           1
           3           1           1           1
Shell to atom map                          I   N=          28
           1           1           1           1           1           1
           2           2           2           2           2           2
           3           3           3           3           4           4
           4           4           5           5           5           5
           6           6           6           6
Primitive exponents                        R   N=          50
  4.56324000E+03  6.82024000E+02  1.54973000E+02  4.44553000E+01  1.30290000E+01
  1.82773000E+00  2.09642000E+01  4.80331000E+00  1.45933000E+00  4.83456000E-01
  1.45585000E-01  4.38000000E-02  6.26000000E-01  4.56324000E+03  6.82024000E+02
  1.54973000E+02  4.44553000E+01  1.30290000E+01  1.82773000E+00  2.09642000E+01
  4.80331000E+00  1.45933000E+00  4.83456000E-01  1.45585000E-01  4.38000000E-02
  6.26000000E-01  3.38650000E+01  5.09479000E+00  1.15879000E+00  3.25840000E-01
  1.02741000E-01  7.50000000E-01  3.38650000E+01  5.09479000E+00  1.15879000E+00
  3.25840000E-01  1.02741000E-01  7.50000000E-01  3.38650000E+01  5.09479000E+00
  1.15879000E+00  3.25840000E-01  1.02741000E-01  7.50000000E-01  3.38650000E+01
  5.09479000E+00  1.15879000E+00  3.25840000E-01  1.02741000E-01  7.50000000E-01
Contraction coefficients                   R   N=          50
  1.96665025E-03  1.52306019E-02  7.61269097E-02  2.60801033E-01  6.16462078E-01
  2.21006028E-01  1.14660081E-01  9.19999648E-01 -3.03068213E-03  1.00000000E+00
  1.00000000E+00  1.00000000E+00  1.00000000E+00  1.96665025E-03  1.52306019E-02
  7.61269097E-02  2.60801033E-01  6.16462078E-01  2.21006028E-01  1.14660081E-01
  9.19999648E-01 -3.03068213E-03  1.00000000E+00  1.00000000E+00  1.00000000E+00
  1.00000000E+00  2.54938145E-02  1.90373109E-01  8.52161486E-01  1.00000000E+00
  1.00000000E+00  1.00000000E+00  2.54938145E-02  1.90373109E-01  8.52161486E-01
  1.00000000E+00  1.00000000E+00  1.00000000E+00  2.54938145E-02  1.90373109E-01
  8.52161486E-01  1.00000000E+00  1.00000000E+00  1.00000000E+00  2.54938145E-02
  1.90373109E-01  8.52161486E-01  1.00000000E+00  1.00000000E+00  1.00000000E+00
P(S=P) Contraction coefficients            R   N=          50
  0.00000000E+00  0.00000000E+00  0.00000000E+00  0.00000000E+00  0.00000000E+00
  0.00000000E+00  4.02486927E-02  2.37593957E-01  8.15853851E-01  1.00000000E+00
  1.00000000E+00  1.00000000E+00  0.00000000E+00  0.00000000E+00  0.00000000E+00
  0.00000000E+00  0.00000000E+00  0.00000000E+00  0.00000000E+00  4.02486927E-02
  2.37593957E-01  8.15853851E-01  1.00000000E+00  1.00000000E+00  1.00000000E+00
  0.00000000E+00  0.00000000E+00  0.00000000E+00  0.00000000E+00  0.00000000E+00
  0.00000000E+00  0.00000000E+00  0.00000000E+00  0.00000000E+00  0.00000000E+00
  0.00000000E+00  0.00000000E+00  0.00000000E+00  0.00000000E+00  0.00000000E+00
  0.00000000E+00  0.00000000E+00  0.00000000E+00  0.00000000E+00  0.00000000E+00
  0.00000000E+00  0.00000000E+00  0.00000000E+00  0.00000000E+00  0.00000000E+00
Coordinates of each shell                  R   N=          84
 -5.97667415E-21  9.26957907E-01  0.00000000E+00 -5.97667415E-21  9.26957907E-01
  0.00000000E+00 -5.97667415E-21  9.26957907E-01  0.00000000E+00 -5.97667415E-21
  9.26957907E-01  0.00000000E+00 -5.97667415E-21  9.26957907E-01  0.00000000E+00
 -5.97667415E-21  9.26957907E-01  0.00000000E+00 -1.13507650E-16 -9.26957907E-01
  0.00000000E+00 -1.13507650E-16 -9.26957907E-01  0.00000000E+00 -1.13507650E-16
 -9.26957907E-01  0.00000000E+00 -1.13507650E-16 -9.26957907E-01  0.00000000E+00
 -1.13507650E-16 -9.26957907E-01  0.00000000E+00 -1.13507650E-16 -9.26957907E-01
  0.00000000E+00 -1.67377200E+00  2.14824066E+00  0.00000000E+00 -1.67377200E+00
  2.14824066E+00  0.00000000E+00 -1.67377200E+00  2.14824066E+00  0.00000000E+00
 -1.67377200E+00  2.14824066E+00  0.00000000E+00  1.67405924E+00  2.14811216E+00
  0.00000000E+00  1.67405924E+00  2.14811216E+00  0.00000000E+00  1.67405924E+00
  2.14811216E+00  0.00000000E+00  1.67405924E+00  2.14811216E+00  0.00000000E+00
  1.67377200E+00 -2.14824066E+00  0.00000000E+00  1.67377200E+00 -2.14824066E+00
  0.00000000E+00  1.67377200E+00 -2.14824066E+00  0.00000000E+00  1.67377200E+00
 -2.14824066E+00  0.00000000E+00 -1.67405924E+00 -2.14811216E+00  0.00000000E+00
 -1.67405924E+00 -2.14811216E+00  0.00000000E+00 -1.67405924E+00 -2.14811216E+00
  0.00000000E+00 -1.67405924E+00 -2.14811216E+00  0.00000000E+00
Num ILSW                                   I              100
ILSW                                       I   N=         100
           1           0           0           0           2           0
           0           0           0           0        4336          -1
           7           0           0           0           2           0
           0           0           0           0           1           0
           1           0           0           0           0           0
           0           0      100000           0          -1           0
           0           0           0           0           0           0
           0           0           0           1           0           0
           0 -2000000000           1           0           0           0
           0           0           4          52           0           0
           0           0          55           0           0           0
           0           0           0           6           0           1
           0           0           0           0           0           0
           0           0           0           0           0           0
           0           0           0           0           0           0
           0           0           0           0           0           0
           0           0           0           0
Num RLSW                                   I               52
RLSW                                       R   N=          52
  1.00000000E+00  1.00000000E+00  1.00000000E+00  1.00000000E+00  5.40000000E-01
  0.00000000E+00  0.00000000E+00  1.00000000E+00  0.00000000E+00  0.00000000E+00
  0.00000000E+00  0.00000000E+00  1.00000000E+00  0.00000000E+00  0.00000000E+00
  0.00000000E+00  0.00000000E+00  1.00000000E+00  0.00000000E+00  0.00000000E+00
  0.00000000E+00  0.00000000E+00  1.00000000E+00  0.00000000E+00  0.00000000E+00
  0.00000000E+00  0.00000000E+00  1.00000000E+00  0.00000000E+00  0.00000000E+00
  0.00000000E+00  0.00000000E+00  1.00000000E+00  0.00000000E+00  0.00000000E+00
  0.00000000E+00  0.00000000E+00  0.00000000E+00  1.00000000E+00  1.00000000E+00
  0.00000000E+00  1.00000000E+00  0.00000000E+00  0.00000000E+00  0.00000000E+00
  0.00000000E+00  0.00000000E+00  0.00000000E+00  0.00000000E+00  0.00000000E+00
  0.00000000E+00  0.00000000E+00
MxBond                                     I                3
NBond                                      I   N=           6
           3           3           1           1           1           1
IBond                                      I   N=          18
           2           3           4           1           5           6
           1           0           0           1           0           0
           2           0           0           2           0           0
RBond                                      R   N=          18
  3.00000000E+00  1.00000000E+00  1.00000000E+00  3.00000000E+00  1.00000000E+00
  1.00000000E+00  1.00000000E+00  0.00000000E+00  0.00000000E+00  1.00000000E+00
  0.00000000E+00  0.00000000E+00  1.00000000E+00  0.00000000E+00  0.00000000E+00
  1.00000000E+00  0.00000000E+00  0.00000000E+00
Virial Ratio                               R      1.978121954294811E+00
SCF Energy                                 R     -7.829159368624035E+01
Total Energy                               R     -7.829159368624035E+01
S**2                                       R     -3.197442310920451E-14
S**2 after annihilation                    R     -8.526512829121081E-14
RMS Force                                  R      3.855084885695894E-01
RMS Density                                R      3.411016070965640E-09
Job Status                                 I                1
Nuclear derivative order                   I                1
External E-field                           R   N=          35
  0.00000000E+00  0.00000000E+00  0.00000000E+00  0.00000000E+00  0.00000000E+00
  0.00000000E+00  0.00000000E+00  0.00000000E+00  0.00000000E+00  0.00000000E+00
  0.00000000E+00  0.00000000E+00  0.00000000E+00  0.00000000E+00  0.00000000E+00
  0.00000000E+00  0.00000000E+00  0.00000000E+00  0.00000000E+00  0.00000000E+00
  0.00000000E+00  0.00000000E+00  0.00000000E+00  0.00000000E+00  0.00000000E+00
  0.00000000E+00  0.00000000E+00  0.00000000E+00  0.00000000E+00  0.00000000E+00
  0.00000000E+00  0.00000000E+00  0.00000000E+00  0.00000000E+00  0.00000000E+00
IOpCl                                      I                1
IROHF                                      I                0
Alpha Orbital Energies                     R   N=          68
 -1.04916479E+01 -1.04760126E+01 -9.44217253E-01 -6.27314177E-01 -5.83400211E-01
 -5.29978153E-01 -4.23324192E-01 -3.43868772E-01  3.29568574E-02  4.26473512E-02
  4.30502216E-02  6.66977688E-02  7.08108478E-02  8.84779464E-02  9.83292988E-02
  1.61089947E-01  1.78124448E-01  1.82594774E-01  1.93710033E-01  2.49266424E-01
  3.45099192E-01  4.17639858E-01  4.30455959E-01  4.72623965E-01  5.17397094E-01
  5.23552855E-01  6.01032854E-01  6.21256473E-01  7.10444068E-01  7.58571027E-01
  7.83253979E-01  8.16306065E-01  8.50295906E-01  1.01935222E+00  1.23159098E+00
  1.27187290E+00  1.28792065E+00  1.35370298E+00  1.55463377E+00  1.57176971E+00
  1.69835058E+00  1.73006458E+00  1.74554313E+00  1.76562565E+00  1.77712006E+00
  1.93772444E+00  2.10456094E+00  2.19124422E+00  2.21097707E+00  2.32542153E+00
  2.33496922E+00  2.41844539E+00  2.48695503E+00  2.56437079E+00  2.59396572E+00
  2.67017505E+00  2.73540985E+00  2.75815895E+00  2.82074367E+00  3.00128669E+00
  3.37344976E+00  3.49054634E+00  3.51902238E+00  3.73469448E+00  3.98881094E+00
  4.07885602E+00  2.39327587E+01  2.57450965E+01
Beta Orbital Energies                      R   N=          68
 -1.04916479E+01 -1.04760126E+01 -9.44217253E-01 -6.27314177E-01 -5.83400211E-01
 -5.29978153E-01 -4.23324192E-01 -3.43868772E-01  3.29568574E-02  4.26473512E-02
  4.30502216E-02  6.66977688E-02  7.08108478E-02  8.84779464E-02  9.83292988E-02
  1.61089947E-01  1.78124448E-01  1.82594774E-01  1.93710033E-01  2.49266424E-01
  3.45099192E-01  4.17639858E-01  4.30455959E-01  4.72623965E-01  5.17397094E-01
  5.23552855E-01  6.01032854E-01  6.21256473E-01  7.10444068E-01  7.58571027E-01
  7.83253979E-01  8.16306065E-01  8.50295906E-01  1.01935222E+00  1.23159098E+00
  1.27187290E+00  1.28792065E+00  1.35370298E+00  1.55463377E+00  1.57176971E+00
  1.69835058E+00  1.73006458E+00  1.74554313E+00  1.76562565E+00  1.77712006E+00
  1.93772444E+00  2.10456094E+00  2.19124422E+00  2.21097707E+00  2.32542153E+00
  2.33496922E+00  2.41844539E+00  2.48695503E+00  2.56437079E+00  2.59396572E+00
  2.67017505E+00  2.73540985E+00  2.75815895E+00  2.82074367E+00  3.00128669E+00
  3.37344976E+00  3.49054634E+00  3.51902238E+00  3.73469448E+00  3.98881094E+00
  4.07885602E+00  2.39327587E+01  2.57450965E+01
Alpha MO coefficients                      R   N=        4624
  3.97601939E-01  3.27370500E-01  1.65064140E-07 -1.60815092E-03  0.00000000E+00
  8.83662570E-03 -5.65109912E-07  1.27666310E-03  0.00000000E+00 -1.78580851E-03
 -1.29944973E-06  2.15941529E-04  0.00000000E+00 -6.25447640E-04  5.57774495E-07
 -8.47423544E-04  0.00000000E+00 -1.48722569E-03  0.00000000E+00  0.00000000E+00
 -1.43134230E-03 -1.25362544E-06  3.97601939E-01  3.27370500E-01 -1.65064140E-07
  1.60815092E-03  0.00000000E+00  8.83662570E-03  5.65109912E-07 -1.27666310E-03
  0.00000000E+00 -1.78580851E-03  1.29944973E-06 -2.15941529E-04  0.00000000E+00
 -6.25447640E-04 -5.57774495E-07  8.47423544E-04  0.00000000E+00 -1.48722569E-03
  0.00000000E+00  0.00000000E+00 -1.43134230E-03 -1.25362544E-06  2.72595013E-04
 -2.28933208E-03  1.49029634E-03 -1.35655630E-03  2.97715329E-04  0.00000000E+00
  2.72931890E-04 -2.28654627E-03  1.48955493E-03  1.35544952E-03  2.96986123E-04
  0.00000000E+00  2.72595013E-04 -2.28933208E-03  1.49029634E-03  1.35655630E-03
 -2.97715329E-04  0.00000000E+00  2.72931890E-04 -2.28654627E-03  1.48955493E-03
 -1.35544952E-03 -2.96986123E-04  0.00000000E+00  3.99099686E-01  3.27096347E-01
  8.41901966E-08 -7.49416390E-04  0.00000000E+00  3.86584805E-02 -2.31676204E-07
 -2.88290384E-02  0.00000000E+00  3.93843805E-03  5.40006716E-08  1.70230334E-03
  0.00000000E+00 -6.88012324E-03 -1.31457782E-08  1.59378042E-03  0.00000000E+00
 -4.38443943E-03  0.00000000E+00  0.00000000E+00 -8.57029118E-03 -1.09826512E-07
 -3.99099686E-01 -3.27096347E-01  8.41901966E-08 -7.49416390E-04  0.00000000E+00
 -3.86584805E-02 -2.31676204E-07 -2.88290384E-02  0.00000000E+00 -3.93843805E-03
  5.40006716E-08  1.70230334E-03  0.00000000E+00  6.88012324E-03 -1.31457782E-08
  1.59378042E-03  0.00000000E+00  4.38443943E-03  0.00000000E+00  0.00000000E+00
  8.57029118E-03  1.09826512E-07  6.94991435E-04  5.22467522E-04 -1.49220347E-03
  2.46426312E-04 -1.93073449E-04  0.00000000E+00  6.95000785E-04  5.22520430E-04
 -1.49192868E-03 -2.46858927E-04 -1.93051158E-04  0.00000000E+00 -6.94991435E-04
 -5.22467522E-04  1.49220347E-03  2.46426312E-04 -1.93073449E-04  0.00000000E+00
 -6.95000785E-04 -5.22520430E-04  1.49192868E-03 -2.46858927E-04 -1.93051158E-04
  0.00000000E+00 -1.01152211E-01 -1.61076798E-01 -1.22608936E-06 -1.12003580E-01
  0.00000000E+00  3.52586675E-01 -1.46486014E-06 -9.33248079E-02  0.00000000E+00
  1.50225004E-01 -4.01077919E-06 -2.59506416E-02  0.00000000E+00 -1.52775229E-03
  6.64663015E-07  1.22950063E-02  0.00000000E+00 -1.41661892E-02  0.00000000E+00
  0.00000000E+00 -1.49902557E-02 -3.89509665E-06 -1.01152211E-01 -1.61076798E-01
  1.22608936E-06  1.12003580E-01  0.00000000E+00  3.52586675E-01  1.46486014E-06
  9.33248079E-02  0.00000000E+00  1.50225004E-01  4.01077919E-06  2.59506416E-02
  0.00000000E+00 -1.52775229E-03 -6.64663015E-07 -1.22950063E-02  0.00000000E+00
 -1.41661892E-02  0.00000000E+00  0.00000000E+00 -1.49902557E-02 -3.89509665E-06
  3.95087562E-02  3.80042217E-02  8.40666601E-05  2.36245105E-03 -6.95799977E-03
  0.00000000E+00  3.95061620E-02  3.80074208E-02  8.43122538E-05 -2.36622384E-03
 -6.95838704E-03  0.00000000E+00  3.95087562E-02  3.80042217E-02  8.40666601E-05
 -2.36245105E-03  6.95799977E-03  0.00000000E+00  3.95061620E-02  3.80074208E-02
  8.43122538E-05  2.36622384E-03  6.95838704E-03  0.00000000E+00 -5.95087049E-02
 -9.67614087E-02 -4.20657149E-05  8.45587874E-02  0.00000000E+00  2.24563597E-01
 -5.08207547E-05  1.45644333E-01  0.00000000E+00  2.14769858E-01 -2.41186063E-05
  6.11170684E-02  0.00000000E+00 -1.97089480E-01 -1.19816568E-06  4.22722238E-02
  0.00000000E+00 -4.66506295E-03  0.00000000E+00  0.00000000E+00  1.06103846E-02
  2.95687911E-06  5.95087049E-02  9.67614087E-02 -4.20657149E-05  8.45587874E-02
  0.00000000E+00 -2.24563597E-01 -5.08207547E-05  1.45644333E-01  0.00000000E+00
 -2.14769858E-01 -2.41186063E-05  6.11170684E-02  0.00000000E+00  1.97089480E-01
 -1.19816568E-06  4.22722238E-02  0.00000000E+00  4.66506295E-03  0.00000000E+00
  0.00000000E+00 -1.06103846E-02 -2.95687911E-06  9.41664211E-02  1.18628442E-01
  2.35535325E-02  1.18700337E-02 -4.30664155E-03  0.00000000E+00  9.41095959E-02
  1.18556933E-01  2.35467489E-02 -1.18640115E-02 -4.29763728E-03  0.00000000E+00
 -9.41664211E-02 -1.18628442E-01 -2.35535325E-02  1.18700337E-02 -4.30664155E-03
  0.00000000E+00 -9.41095959E-02 -1.18556933E-01 -2.35467489E-02 -1.18640115E-02
 -4.29763728E-03  0.00000000E+00 -1.37729203E-05 -2.24078560E-05  1.67398322E-01
  1.76102014E-05  0.00000000E+00  4.43700229E-05  2.14420807E-01  4.82170643E-05
  0.00000000E+00  5.49052724E-05  1.13234469E-01  1.67452932E-05  0.00000000E+00
 -3.17629699E-05  6.47736671E-03  6.99701110E-06  0.00000000E+00 -6.43915560E-07
  0.00000000E+00  0.00000000E+00  6.62884998E-06 -1.85553362E-02  1.37729203E-05
  2.24078560E-05  1.67398322E-01  1.76102014E-05  0.00000000E+00 -4.43700229E-05
  2.14420807E-01  4.82170643E-05  0.00000000E+00 -5.49052724E-05  1.13234469E-01
  1.67452932E-05  0.00000000E+00  3.17629699E-05  6.47736671E-03  6.99701110E-06
  0.00000000E+00  6.43915560E-07  0.00000000E+00  0.00000000E+00 -6.62884998E-06
  1.85553362E-02 -8.74108172E-02 -1.23287778E-01 -1.50628542E-02 -1.05539977E-02
  1.37787129E-02  0.00000000E+00  8.74579763E-02  1.23349985E-01  1.50824730E-02
 -1.05602661E-02 -1.37773524E-02  0.00000000E+00  8.74108172E-02  1.23287778E-01
  1.50628542E-02 -1.05539977E-02  1.37787129E-02  0.00000000E+00 -8.74579763E-02
 -1.23349985E-01 -1.50824730E-02 -1.05602661E-02 -1.37773524E-02  0.00000000E+00
  1.12502569E-02  1.69028688E-02 -1.20549157E-05  2.19053783E-01  0.00000000E+00
 -6.82319531E-03 -1.10400117E-05  2.42609990E-01  0.00000000E+00  8.69353387E-02
 -8.85601060E-06  1.35969547E-01  0.00000000E+00  1.00548965E-02 -8.08114972E-06
 -1.64802519E-04  0.00000000E+00  4.74757214E-03  0.00000000E+00  0.00000000E+00
  1.96413321E-02 -1.58035842E-06  1.12502569E-02  1.69028688E-02  1.20549157E-05
 -2.19053783E-01  0.00000000E+00 -6.82319531E-03  1.10400117E-05 -2.42609990E-01
  0.00000000E+00  8.69353387E-02  8.85601060E-06 -1.35969547E-01  0.00000000E+00
  1.00548965E-02  8.08114972E-06  1.64802519E-04  0.00000000E+00  4.74757214E-03
  0.00000000E+00  0.00000000E+00  1.96413321E-02 -1.58035842E-06  8.42797797E-02
  1.21977439E-01  3.07327076E-02  1.53097227E-02  4.95326529E-04  0.00000000E+00
  8.42450846E-02  1.21928347E-01  3.07303671E-02 -1.53037874E-02  5.00886926E-04
  0.00000000E+00  8.42797797E-02  1.21977439E-01  3.07327076E-02 -1.53097227E-02
 -4.95326529E-04  0.00000000E+00  8.42450846E-02  1.21928347E-01  3.07303671E-02
  1.53037874E-02 -5.00886926E-04  0.00000000E+00  0.00000000E+00  0.00000000E+00
  0.00000000E+00  0.00000000E+00  1.99545176E-01  0.00000000E+00  0.00000000E+00
  0.00000000E+00  2.88732352E-01  0.00000000E+00  0.00000000E+00  0.00000000E+00
  1.91574694E-01  0.00000000E+00  0.00000000E+00  0.00000000E+00  8.41004818E-03
  0.00000000E+00  3.22427090E-07 -2.96879239E-02  0.00000000E+00  0.00000000E+00
  0.00000000E+00  0.00000000E+00  0.00000000E+00  0.00000000E+00  1.99545176E-01
  0.00000000E+00  0.00000000E+00  0.00000000E+00  2.88732352E-01  0.00000000E+00
  0.00000000E+00  0.00000000E+00  1.91574694E-01  0.00000000E+00  0.00000000E+00
  0.00000000E+00  8.41004818E-03  0.00000000E+00 -3.22427090E-07  2.96879239E-02
  0.00000000E+00  0.00000000E+00  0.00000000E+00  0.00000000E+00  0.00000000E+00
  0.00000000E+00  0.00000000E+00  1.21566743E-02  0.00000000E+00  0.00000000E+00
  0.00000000E+00  0.00000000E+00  0.00000000E+00  1.21550666E-02  0.00000000E+00
  0.00000000E+00  0.00000000E+00  0.00000000E+00  0.00000000E+00  1.21566743E-02
  0.00000000E+00  0.00000000E+00  0.00000000E+00  0.00000000E+00  0.00000000E+00
  1.21550666E-02  3.71005765E-06  6.12644549E-06  1.17918342E-01  1.55342314E-05
  0.00000000E+00 -1.25763824E-05  1.76481279E-01  1.77733691E-05  0.00000000E+00
 -2.19823045E-06  2.16214681E-01  1.10348070E-05  0.00000000E+00  5.03651022E-06
  5.68568417E-02 -6.15810400E-07  0.00000000E+00  3.84576003E-07  0.00000000E+00
  0.00000000E+00  5.86758862E-06  5.06733055E-02  3.71005765E-06  6.12644549E-06
 -1.17918342E-01 -1.55342314E-05  0.00000000E+00 -1.25763824E-05 -1.76481279E-01
 -1.77733691E-05  0.00000000E+00 -2.19823045E-06 -2.16214681E-01 -1.10348070E-05
  0.00000000E+00  5.03651022E-06 -5.68568417E-02  6.15810400E-07  0.00000000E+00
  3.84576003E-07  0.00000000E+00  0.00000000E+00  5.86758862E-06  5.06733055E-02
 -1.22491916E-01 -1.86863072E-01 -1.15839722E-01 -1.89549364E-04  6.05288735E-03
  0.00000000E+00  1.22512064E-01  1.86906616E-01  1.15869879E-01 -1.95049436E-04
 -6.05186701E-03  0.00000000E+00 -1.22491916E-01 -1.86863072E-01 -1.15839722E-01
  1.89549364E-04 -6.05288735E-03  0.00000000E+00  1.22512064E-01  1.86906616E-01
  1.15869879E-01  1.95049436E-04  6.05186701E-03  0.00000000E+00  1.37644259E-02
  2.41964682E-02 -3.04183385E-06 -4.54680870E-02  0.00000000E+00 -7.31312465E-02
  3.38874139E-06 -6.93648585E-02  0.00000000E+00 -2.34288914E-01 -1.11089584E-04
 -1.51102662E-01  0.00000000E+00  1.20947294E+00 -3.11829716E-04  8.96458679E-01
  0.00000000E+00  1.03504805E-02  0.00000000E+00  0.00000000E+00 -6.26668471E-03
  3.40800473E-06  1.37644259E-02  2.41964682E-02  3.04183385E-06  4.54680870E-02
  0.00000000E+00 -7.31312465E-02 -3.38874139E-06  6.93648585E-02  0.00000000E+00
 -2.34288914E-01  1.11089584E-04  1.51102662E-01  0.00000000E+00  1.20947294E+00
  3.11829716E-04 -8.96458679E-01  0.00000000E+00  1.03504805E-02  0.00000000E+00
  0.00000000E+00 -6.26668471E-03  3.40800473E-06 -2.30772565E-02  8.52829386E-02
 -4.28986175E-01 -1.47267523E-03  2.89852636E-03  0.00000000E+00 -2.30765088E-02
  8.52763502E-02 -4.28720437E-01  1.47461000E-03  2.89809838E-03  0.00000000E+00
 -2.30772565E-02  8.52829386E-02 -4.28986175E-01  1.47267523E-03 -2.89852636E-03
  0.00000000E+00 -2.30765088E-02  8.52763502E-02 -4.28720437E-01 -1.47461000E-03
 -2.89809838E-03  0.00000000E+00 -1.66844190E-02 -2.80005849E-02 -6.93899233E-05
  2.35073900E-02  0.00000000E+00  5.75426495E-02 -1.03192363E-04  8.96729853E-02
  0.00000000E+00 -6.20238820E-01 -1.51955936E-04  3.38937309E-01  0.00000000E+00
  2.78176479E+01  7.85599824E-04 -6.28088237E+00  0.00000000E+00  5.52686214E-03
  0.00000000E+00  0.00000000E+00  2.01054027E-02  8.03897570E-06  1.66844190E-02
  2.80005849E-02 -6.93899233E-05  2.35073900E-02  0.00000000E+00 -5.75426495E-02
 -1.03192363E-04  8.96729853E-02  0.00000000E+00  6.20238820E-01 -1.51955936E-04
  3.38937309E-01  0.00000000E+00 -2.78176479E+01  7.85599824E-04 -6.28088237E+00
  0.00000000E+00 -5.52686214E-03  0.00000000E+00  0.00000000E+00 -2.01054027E-02
 -8.03897570E-06  1.29981712E-02 -4.85174034E-02  2.21461720E-01  7.01897004E-04
 -9.56965483E-03  0.00000000E+00  1.29905243E-02 -4.82746955E-02  2.20679298E-01
 -6.87579122E-04 -9.56286420E-03  0.00000000E+00 -1.29981712E-02  4.85174034E-02
 -2.21461720E-01  7.01897004E-04 -9.56965483E-03  0.00000000E+00 -1.29905243E-02
  4.82746955E-02 -2.20679298E-01 -6.87579122E-04 -9.56286420E-03  0.00000000E+00
  1.84143797E-05  3.10130708E-05 -7.04451908E-02 -2.66447600E-05  0.00000000E+00
 -6.72470424E-05 -9.97380901E-02 -8.84807704E-05  0.00000000E+00  6.54909197E-04
 -1.62116566E-01 -3.75993353E-04  0.00000000E+00 -2.69213617E-02  7.49902055E-01
  6.13658460E-03  0.00000000E+00 -5.13773035E-06  0.00000000E+00  0.00000000E+00
 -1.99337921E-05  1.12103721E-02 -1.84143797E-05 -3.10130708E-05 -7.04451908E-02
 -2.66447600E-05  0.00000000E+00  6.72470424E-05 -9.97380901E-02 -8.84807704E-05
  0.00000000E+00 -6.54909197E-04 -1.62116566E-01 -3.75993353E-04  0.00000000E+00
  2.69213617E-02  7.49902055E-01  6.13658460E-03  0.00000000E+00  5.13773035E-06
  0.00000000E+00  0.00000000E+00  1.99337921E-05 -1.12103721E-02  1.13139538E-03
 -1.13968739E-01  3.34164489E-01  8.17752464E-03 -4.23886145E-03  0.00000000E+00
 -1.15468904E-03  1.14091690E-01 -3.34662619E-01  8.18141279E-03  4.25932207E-03
  0.00000000E+00 -1.13139538E-03  1.13968739E-01 -3.34164489E-01  8.17752464E-03
 -4.23886145E-03  0.00000000E+00  1.15468904E-03 -1.14091690E-01  3.34662619E-01
  8.18141279E-03  4.25932207E-03  0.00000000E+00  0.00000000E+00  0.00000000E+00
  0.00000000E+00  0.00000000E+00 -6.26120391E-02  0.00000000E+00  0.00000000E+00
  0.00000000E+00 -4.42637651E-02  0.00000000E+00  0.00000000E+00  0.00000000E+00
 -2.37953751E-01  0.00000000E+00  0.00000000E+00  0.00000000E+00  6.23382151E-01
  0.00000000E+00  1.17315936E-07  1.50689491E-02  0.00000000E+00  0.00000000E+00
  0.00000000E+00  0.00000000E+00  0.00000000E+00  0.00000000E+00 -6.26120391E-02
  0.00000000E+00  0.00000000E+00  0.00000000E+00 -4.42637651E-02  0.00000000E+00
  0.00000000E+00  0.00000000E+00 -2.37953751E-01  0.00000000E+00  0.00000000E+00
  0.00000000E+00  6.23382151E-01  0.00000000E+00 -1.17315936E-07 -1.50689491E-02