Title Card Required                                                     
FOpt      UM062X                                                      6-311+G(d,p)        
Number of atoms                            I                4
Info1-9                                    I   N=           9
          13          13           0           0           0         110
           2          18        -502
Full Title                                 C   N=           2
Title Card Required     
Route                                      C   N=           5
#p opt UM062X/6-311+G** nosymm int=superfine SCF=NoVarAcc   
Charge                                     I                0
Multiplicity                               I                1
Number of electrons                        I               14
Number of alpha electrons                  I                7
Number of beta electrons                   I                7
Number of basis functions                  I               56
Number of independent functions            I               56
Number of point charges in /Mol/           I                0
Number of translation vectors              I                0
Atomic numbers                             I   N=           4
           6           6           1           1
Nuclear charges                            R   N=           4
  6.00000000E+00  6.00000000E+00  1.00000000E+00  1.00000000E+00
Current cartesian coordinates              R   N=          12
 -6.48672114E+00  0.00000000E+00  0.00000000E+00  6.48672114E+00  0.00000000E+00
  0.00000000E+00 -8.60430085E+00 -1.69069805E-05  1.69069139E-05  8.60430077E+00
  1.23293683E-05 -1.23292405E-05
Number of symbols in /Mol/                 I                0
Force Field                                I                0
Atom Types                                 C   N=           4
                                                
Int Atom Types                             I   N=           4
           0           0           0           0
MM charges                                 R   N=           4
  0.00000000E+00  0.00000000E+00  0.00000000E+00  0.00000000E+00
Integer atomic weights                     I   N=           4
          12          12           1           1
Real atomic weights                        R   N=           4
  1.20000000E+01  1.20000000E+01  1.00782504E+00  1.00782504E+00
Atom fragment info                         I   N=           4
           0           0           0           0
Atom residue num                           I   N=           4
           0           0           0           0
Nuclear spins                              I   N=           4
           0           0           1           1
Nuclear ZEff                               R   N=           4
 -3.60000000E+00 -3.60000000E+00 -1.00000000E+00 -1.00000000E+00
Nuclear ZNuc                               R   N=           4
  6.00000000E+00  6.00000000E+00  1.00000000E+00  1.00000000E+00
Nuclear QMom                               R   N=           4
  0.00000000E+00  0.00000000E+00  0.00000000E+00  0.00000000E+00
Nuclear GFac                               R   N=           4
  0.00000000E+00  0.00000000E+00  2.79284600E+00  2.79284600E+00
MicOpt                                     I   N=           4
          -2          -2          -1          -1
Number of residues                         I                0
Number of secondary structures             I                0
Redundant internal dimensions              I   N=           4
          12           8           4           0
Redundant internal coordinate indices      I   N=          48
           1          -1           0           0           1          -2
           0           0           1          -3           0           0
           2          -1           0           0           2          -2
           0           0           2          -3           0           0
           1           3           0           0           2           4
           0           0           2           1           3          -4
           1           2           4          -4           2           1
           3          -8           1           2           4          -8
Redundant internal coordinates             R   N=          12
 -6.48672114E+00  0.00000000E+00  0.00000000E+00  6.48672114E+00  0.00000000E+00
  0.00000000E+00  2.11757971E+00  2.11757963E+00  3.14158467E+00  3.14158683E+00
  3.14158467E+00  3.14158683E+00
ZRed-IntVec                                I   N=          12
          -1          -1          -1          -1          -1          -1
           0           0           0           0           0           0
ZRed-FPVec                                 R   N=          12
  0.00000000E+00  0.00000000E+00  0.00000000E+00  0.00000000E+00  0.00000000E+00
  0.00000000E+00  0.00000000E+00  0.00000000E+00  0.00000000E+00  0.00000000E+00
  0.00000000E+00  0.00000000E+00
ZRed-Constraint1                           R   N=          12
 -6.48672114E+00  0.00000000E+00  0.00000000E+00  6.48672114E+00  0.00000000E+00
  0.00000000E+00  2.12190166E+00  2.12189977E+00  3.14158731E+00  3.14158909E+00
  3.14158731E+00  3.14158909E+00
ZRed-Constraint2                           R   N=          12
 -6.48672114E+00  0.00000000E+00  0.00000000E+00  6.48672114E+00  0.00000000E+00
  0.00000000E+00  0.00000000E+00  0.00000000E+00  0.00000000E+00  0.00000000E+00
  0.00000000E+00  0.00000000E+00
Number of contracted shells                I               20
Number of primitive shells                 I               38
Pure/Cartesian d shells                    I                0
Pure/Cartesian f shells                    I                0
Highest angular momentum                   I                2
Largest degree of contraction              I                6
Shell types                                I   N=          20
           0          -1          -1          -1          -1          -2
           0          -1          -1          -1          -1          -2
           0           0           0           1           0           0
           0           1
Number of primitives per shell             I   N=          20
           6           3           1           1           1           1
           6           3           1           1           1           1
           3           1           1           1           3           1
           1           1
Shell to atom map                          I   N=          20
           1           1           1           1           1           1
           2           2           2           2           2           2
           3           3           3           3           4           4
           4           4
Primitive exponents                        R   N=          38
  4.56324000E+03  6.82024000E+02  1.54973000E+02  4.44553000E+01  1.30290000E+01
  1.82773000E+00  2.09642000E+01  4.80331000E+00  1.45933000E+00  4.83456000E-01
  1.45585000E-01  4.38000000E-02  6.26000000E-01  4.56324000E+03  6.82024000E+02
  1.54973000E+02  4.44553000E+01  1.30290000E+01  1.82773000E+00  2.09642000E+01
  4.80331000E+00  1.45933000E+00  4.83456000E-01  1.45585000E-01  4.38000000E-02
  6.26000000E-01  3.38650000E+01  5.09479000E+00  1.15879000E+00  3.25840000E-01
  1.02741000E-01  7.50000000E-01  3.38650000E+01  5.09479000E+00  1.15879000E+00
  3.25840000E-01  1.02741000E-01  7.50000000E-01
Contraction coefficients                   R   N=          38
  1.96665025E-03  1.52306019E-02  7.61269097E-02  2.60801033E-01  6.16462078E-01
  2.21006028E-01  1.14660081E-01  9.19999648E-01 -3.03068213E-03  1.00000000E+00
  1.00000000E+00  1.00000000E+00  1.00000000E+00  1.96665025E-03  1.52306019E-02
  7.61269097E-02  2.60801033E-01  6.16462078E-01  2.21006028E-01  1.14660081E-01
  9.19999648E-01 -3.03068213E-03  1.00000000E+00  1.00000000E+00  1.00000000E+00
  1.00000000E+00  2.54938145E-02  1.90373109E-01  8.52161486E-01  1.00000000E+00
  1.00000000E+00  1.00000000E+00  2.54938145E-02  1.90373109E-01  8.52161486E-01
  1.00000000E+00  1.00000000E+00  1.00000000E+00
P(S=P) Contraction coefficients            R   N=          38
  0.00000000E+00  0.00000000E+00  0.00000000E+00  0.00000000E+00  0.00000000E+00
  0.00000000E+00  4.02486927E-02  2.37593957E-01  8.15853851E-01  1.00000000E+00
  1.00000000E+00  1.00000000E+00  0.00000000E+00  0.00000000E+00  0.00000000E+00
  0.00000000E+00  0.00000000E+00  0.00000000E+00  0.00000000E+00  4.02486927E-02
  2.37593957E-01  8.15853851E-01  1.00000000E+00  1.00000000E+00  1.00000000E+00
  0.00000000E+00  0.00000000E+00  0.00000000E+00  0.00000000E+00  0.00000000E+00
  0.00000000E+00  0.00000000E+00  0.00000000E+00  0.00000000E+00  0.00000000E+00
  0.00000000E+00  0.00000000E+00  0.00000000E+00
Coordinates of each shell                  R   N=          60
 -6.48672114E+00  0.00000000E+00  0.00000000E+00 -6.48672114E+00  0.00000000E+00
  0.00000000E+00 -6.48672114E+00  0.00000000E+00  0.00000000E+00 -6.48672114E+00
  0.00000000E+00  0.00000000E+00 -6.48672114E+00  0.00000000E+00  0.00000000E+00
 -6.48672114E+00  0.00000000E+00  0.00000000E+00  6.48672114E+00  0.00000000E+00
  0.00000000E+00  6.48672114E+00  0.00000000E+00  0.00000000E+00  6.48672114E+00
  0.00000000E+00  0.00000000E+00  6.48672114E+00  0.00000000E+00  0.00000000E+00
  6.48672114E+00  0.00000000E+00  0.00000000E+00  6.48672114E+00  0.00000000E+00
  0.00000000E+00 -8.60430085E+00 -1.69069805E-05  1.69069139E-05 -8.60430085E+00
 -1.69069805E-05  1.69069139E-05 -8.60430085E+00 -1.69069805E-05  1.69069139E-05
 -8.60430085E+00 -1.69069805E-05  1.69069139E-05  8.60430077E+00  1.23293683E-05
 -1.23292405E-05  8.60430077E+00  1.23293683E-05 -1.23292405E-05  8.60430077E+00
  1.23293683E-05 -1.23292405E-05  8.60430077E+00  1.23293683E-05 -1.23292405E-05
Num ILSW                                   I              100
ILSW                                       I   N=         100
           1           0           0           1           2           0
           0           0           0           0        4336          -1
           7           0           0           0           2           0
           0           0           0           0           1           0
           1           1           0           0           0           0
           0           0      100000           0          -1           0
           0           0           0           0           0           0
           0           0           0           1           0           0
           0 -2000000000           1           0           0           0
           0           0           4          52           0           0
           0           0          55           0           0           0
           0           0           0           4           0           1
           0           0           0           0           0           0
           0           0           0           0           0           0
           0           0           0           0           0           0
           0           0           0           0           0           0
           0           0           0           0
Num RLSW                                   I               52
RLSW                                       R   N=          52
  1.00000000E+00  1.00000000E+00  1.00000000E+00  1.00000000E+00  5.40000000E-01
  0.00000000E+00  0.00000000E+00  1.00000000E+00  0.00000000E+00  0.00000000E+00
  0.00000000E+00  0.00000000E+00  1.00000000E+00  0.00000000E+00  0.00000000E+00
  0.00000000E+00  0.00000000E+00  1.00000000E+00  0.00000000E+00  0.00000000E+00
  0.00000000E+00  0.00000000E+00  1.00000000E+00  0.00000000E+00  0.00000000E+00
  0.00000000E+00  0.00000000E+00  1.00000000E+00  0.00000000E+00  0.00000000E+00
  0.00000000E+00  0.00000000E+00  1.00000000E+00  0.00000000E+00  0.00000000E+00
  0.00000000E+00  0.00000000E+00  0.00000000E+00  1.00000000E+00  1.00000000E+00
  0.00000000E+00  1.00000000E+00  0.00000000E+00  0.00000000E+00  0.00000000E+00
  0.00000000E+00  0.00000000E+00  0.00000000E+00  0.00000000E+00  0.00000000E+00
  0.00000000E+00  0.00000000E+00
MxBond                                     I                2
NBond                                      I   N=           4
           2           2           1           1
IBond                                      I   N=           8
           2           3           1           4           1           0
           2           0
RBond                                      R   N=           8
  1.00000000E-01  1.00000000E+00  1.00000000E-01  1.00000000E+00  1.00000000E+00
  0.00000000E+00  1.00000000E+00  0.00000000E+00
Virial Ratio                               R      2.003228886562135E+00
SCF Energy                                 R     -7.682395511498362E+01
Total Energy                               R     -7.682395511498362E+01
S**2                                       R     -1.776356839400250E-14
S**2 after annihilation                    R     -1.119104808822145E-13
RMS Force                                  R      2.768614261857010E-05
RMS Density                                R      8.993753014236367E-10
Job Status                                 I                1
Nuclear derivative order                   I                1
External E-field                           R   N=          35
  0.00000000E+00  0.00000000E+00  0.00000000E+00  0.00000000E+00  0.00000000E+00
  0.00000000E+00  0.00000000E+00  0.00000000E+00  0.00000000E+00  0.00000000E+00
  0.00000000E+00  0.00000000E+00  0.00000000E+00  0.00000000E+00  0.00000000E+00
  0.00000000E+00  0.00000000E+00  0.00000000E+00  0.00000000E+00  0.00000000E+00
  0.00000000E+00  0.00000000E+00  0.00000000E+00  0.00000000E+00  0.00000000E+00
  0.00000000E+00  0.00000000E+00  0.00000000E+00  0.00000000E+00  0.00000000E+00
  0.00000000E+00  0.00000000E+00  0.00000000E+00  0.00000000E+00  0.00000000E+00
IOpCl                                      I                1
IROHF                                      I                0
Alpha Orbital Energies                     R   N=          56
 -1.06649102E+01 -1.06649099E+01 -7.22848698E-01 -7.22712155E-01 -3.84336330E-01
 -3.84118128E-01 -1.99543772E-01 -1.58628969E-01 -9.48418082E-02 -9.46375982E-02
  3.29580279E-02  3.58639365E-02  6.09179780E-02  7.83159508E-02  8.68067476E-02
  8.78554005E-02  9.63377203E-02  1.23305465E-01  1.73817829E-01  1.80931699E-01
  4.56037599E-01  4.61816687E-01  5.70633737E-01  5.76047305E-01  5.78259164E-01
  5.83893023E-01  6.14518992E-01  6.15576752E-01  6.70629643E-01  7.28229363E-01
  1.12820063E+00  1.12822992E+00  1.13839812E+00  1.13854837E+00  1.33586312E+00
  1.33595899E+00  1.34821223E+00  1.34831322E+00  1.58179180E+00  1.58612185E+00
  1.85005164E+00  1.85035265E+00  1.86094326E+00  1.86126775E+00  2.38464476E+00
  2.38847603E+00  2.49043950E+00  2.49164613E+00  2.70388044E+00  2.70785884E+00
  2.70929299E+00  2.71326756E+00  3.16628668E+00  3.18625702E+00  2.35067782E+01
  2.35214970E+01
Beta Orbital Energies                      R   N=          56
 -1.06649102E+01 -1.06649099E+01 -7.22848698E-01 -7.22712155E-01 -3.84336330E-01
 -3.84118128E-01 -1.99543772E-01 -1.58628969E-01 -9.48418082E-02 -9.46375982E-02
  3.29580279E-02  3.58639365E-02  6.09179780E-02  7.83159508E-02  8.68067476E-02
  8.78554005E-02  9.63377203E-02  1.23305465E-01  1.73817829E-01  1.80931699E-01
  4.56037599E-01  4.61816687E-01  5.70633737E-01  5.76047305E-01  5.78259164E-01
  5.83893023E-01  6.14518992E-01  6.15576752E-01  6.70629643E-01  7.28229363E-01
  1.12820063E+00  1.12822992E+00  1.13839812E+00  1.13854837E+00  1.33586312E+00
  1.33595899E+00  1.34821223E+00  1.34831322E+00  1.58179180E+00  1.58612185E+00
  1.85005164E+00  1.85035265E+00  1.86094326E+00  1.86126775E+00  2.38464476E+00
  2.38847603E+00  2.49043950E+00  2.49164613E+00  2.70388044E+00  2.70785884E+00
  2.70929299E+00  2.71326756E+00  3.16628668E+00  3.18625702E+00  2.35067782E+01
  2.35214970E+01
Alpha MO coefficients                      R   N=        3136
  4.01710384E-01  3.30936470E-01 -1.30483214E-03 -1.02546191E-08  1.02545375E-08
  6.80552054E-03 -9.29624504E-04 -7.97245373E-09  7.97242399E-09 -3.04493311E-03
 -1.37614467E-04  1.69613542E-10 -1.69622903E-10  3.17385772E-04  7.34419649E-04
  4.18432538E-09 -4.18430981E-09 -3.83232974E-04 -1.02354101E-08 -4.31555225E-05
  6.63807279E-04  1.02356770E-08 -3.95904693E-01 -3.26153413E-01 -1.28623569E-03
 -7.37031600E-09  7.37022668E-09 -6.70877163E-03 -9.15291211E-04 -5.75860091E-09
  5.75852963E-09  3.00573840E-03 -1.37572741E-04  1.98012019E-10 -1.98018285E-10
 -3.13218993E-04  7.29481274E-04  2.92912456E-09 -2.92909586E-09  3.77700475E-04
  7.35483162E-09  4.25413763E-05 -6.54224307E-04 -7.35507361E-09  2.61519124E-04
 -2.06733006E-03  1.88250878E-03 -1.36344657E-03 -1.09120539E-08  1.09120100E-08
 -2.58257738E-04  2.03949107E-03 -1.86123639E-03 -1.34347359E-03 -7.84362485E-09
  7.84354347E-09  3.95903762E-01  3.26167998E-01 -1.26800325E-03 -1.01887709E-08
  1.01886978E-08  6.59674992E-03 -9.77901576E-04 -7.53719737E-09  7.53718346E-09
 -2.67035177E-03 -1.86372942E-06 -6.52937714E-10  6.52936531E-10  2.83920979E-04
  3.33904384E-04  3.52021033E-09 -3.52019220E-09 -3.77277976E-04 -1.01219765E-08
 -4.18751082E-05  6.53492079E-04  1.01222389E-08  4.01709467E-01  3.30950844E-01
  1.28686318E-03  7.55515251E-09 -7.55507153E-09  6.69511850E-03  9.91330822E-04
  5.54999538E-09 -5.54994377E-09 -2.71439351E-03  3.86675798E-06  5.31541674E-10
 -5.31545994E-10  2.88510896E-04 -3.44559931E-04 -2.67891235E-09  2.67888256E-09
 -3.82816784E-04 -7.49035203E-09 -4.24988792E-05  6.63085986E-04  7.49059839E-09
  2.22135910E-04 -1.89741766E-03  1.44764698E-03 -1.36216085E-03 -1.08538193E-08
  1.08537751E-08  2.25919210E-04 -1.92731109E-03  1.47489739E-03  1.38186437E-03
  8.02839540E-09 -8.02831181E-09 -7.66035806E-02 -1.23986186E-01 -5.45275324E-02
 -4.33702187E-07  4.33701055E-07  3.52892209E-01 -8.20891197E-02 -6.53672236E-07
  6.53670330E-07  2.45189579E-01 -3.34137598E-02 -2.59255881E-07  2.59255954E-07
 -5.89509475E-04 -1.57583638E-04 -5.76972967E-09  5.77006703E-09 -5.17913629E-03
 -1.17963528E-07 -3.18390223E-03  8.97261569E-03  1.17980911E-07 -7.66096551E-02
 -1.23996016E-01  5.45318619E-02  3.16058905E-07 -3.16056559E-07  3.52920168E-01
  8.20956544E-02  4.76419487E-07 -4.76415873E-07  2.45209107E-01  3.34163543E-02
  1.88057848E-07 -1.88057378E-07 -5.89571843E-04  1.57759914E-04  4.36619763E-09
 -4.36671229E-09 -5.17954698E-03 -8.60371334E-08 -3.18415776E-03  8.97332718E-03
  8.60505841E-08  1.02516362E-01  1.30255191E-01  1.64151860E-02  1.58197529E-02
  1.26270991E-07 -1.26270412E-07  1.02524495E-01  1.30265585E-01  1.64163442E-02
 -1.58210066E-02 -9.21099465E-08  9.21088991E-08 -7.66003725E-02 -1.23960965E-01
 -5.45339224E-02 -4.34222233E-07  4.34219449E-07  3.52592478E-01 -8.23393263E-02
 -6.52946544E-07  6.52942068E-07  2.46349779E-01 -3.27077384E-02 -2.61994110E-07
  2.61991489E-07 -7.83782781E-04 -2.22303584E-03 -9.03003607E-09  9.02957225E-09
 -5.17277807E-03 -1.17537260E-07 -3.22424311E-03  8.96162939E-03  1.17554756E-07
  7.65942958E-02  1.23951130E-01 -5.45296018E-02 -3.16412682E-07  3.16408094E-07
 -3.52564482E-01 -8.23328194E-02 -4.75694499E-07  4.75687406E-07 -2.46330321E-01
 -3.27050885E-02 -1.90409055E-07  1.90404906E-07  7.83736253E-04 -2.22302333E-03
 -6.19618596E-09  6.19554901E-09  5.17236770E-03  8.57155163E-08  3.22399038E-03
 -8.96091844E-03 -8.57290489E-08  1.02468233E-01  1.31009457E-01  1.46097577E-02
  1.58024592E-02  1.26334427E-07 -1.26333921E-07 -1.02460108E-01 -1.30999130E-01
 -1.46084551E-02  1.58012049E-02  9.21518477E-08 -9.21509146E-08 -4.29481490E-02
 -7.09397579E-02  1.53433570E-01  1.22464362E-06 -1.22463603E-06  2.08777524E-01
  2.21155500E-01  1.76489936E-06 -1.76488828E-06  2.99108289E-01  1.44648412E-01
  1.15836599E-06 -1.15835732E-06  4.25850864E-02  8.86570025E-03  7.53374987E-08
 -7.53360742E-08  1.23948963E-02  3.63875395E-07 -2.85134400E-03 -2.14667198E-02
 -3.63862211E-07 -4.29483586E-02 -7.09401043E-02 -1.53434316E-01 -8.93304850E-07
  8.93292507E-07  2.08778544E-01 -2.21156573E-01 -1.28741867E-06  1.28740067E-06
  2.99109751E-01 -1.44649111E-01 -8.45686834E-07  8.45673345E-07  4.25852947E-02
 -8.86574708E-03 -5.60972781E-08  5.60956503E-08  1.23949565E-02  2.65153172E-07
 -2.85135809E-03 -2.14668241E-02 -2.65145056E-07 -9.48991527E-02 -1.76270955E-01
 -1.17712400E-01 -7.23739643E-03 -5.81514721E-08  5.81514282E-08 -9.48996113E-02
 -1.76271807E-01 -1.17712965E-01  7.23743118E-03  4.24833737E-08 -4.24831552E-08
 -4.30269862E-02 -7.10782433E-02  1.53504052E-01  1.22572122E-06 -1.22571700E-06
  2.09344219E-01  2.21259784E-01  1.76605877E-06 -1.76605287E-06  2.98765412E-01
  1.44784712E-01  1.16243620E-06 -1.16243322E-06  4.24628857E-02  9.76338212E-03
  7.73787377E-08 -7.73787868E-08  1.24037514E-02  3.64364402E-07 -2.89580267E-03
 -2.14820281E-02 -3.64350947E-07  4.30267789E-02  7.10779010E-02  1.53503310E-01
  8.94109071E-07 -8.94101447E-07 -2.09343211E-01  2.21258712E-01  1.28816520E-06
 -1.28815435E-06 -2.98763975E-01  1.44784008E-01  8.49027022E-07 -8.49021735E-07
 -4.24626816E-02  9.76333860E-03  5.69784908E-08 -5.69785720E-08 -1.24036914E-02
 -2.65506997E-07  2.89578889E-03  2.14819242E-02  2.65498586E-07 -9.48878580E-02
 -1.76383173E-01 -1.16835989E-01 -7.20345905E-03 -5.79097905E-08  5.79095236E-08
  9.48873961E-02  1.76382315E-01  1.16835416E-01 -7.20342376E-03 -4.23156565E-08
  4.23151142E-08 -2.84835796E-13 -4.57449730E-13 -3.50137532E-10  1.32228469E-01
  1.32185110E-01  1.70644834E-12 -5.36696416E-10  2.02540831E-01  2.02474416E-01
  3.05655381E-13 -5.89860181E-10  2.24056636E-01  2.23983167E-01 -6.46448620E-12
 -1.80088976E-10  6.75044991E-02  6.74823599E-02  1.60248024E-07 -1.13693122E-02
  2.98060468E-11  9.25798993E-08 -1.13730415E-02 -2.19144974E-14 -6.06720281E-14
 -2.60637315E-10  1.32228469E-01  1.32185110E-01  1.02713357E-13 -3.99482989E-10
  2.02540830E-01  2.02474415E-01  1.14130308E-12 -4.38450094E-10  2.24056635E-01
  2.23983167E-01  2.43064132E-12 -1.35160999E-10  6.75044991E-02  6.74823599E-02
 -1.16588497E-07  1.13693126E-02 -2.13198401E-11 -6.73574938E-08  1.13730419E-02
  3.87590659E-13  2.72077694E-12  2.73966286E-12 -3.24086654E-11  1.23025655E-02
  1.22985313E-02 -4.14423565E-13 -3.05778875E-12 -5.40678620E-13 -2.40810132E-11
  1.23025659E-02  1.22985318E-02  1.40209035E-12  2.33039751E-12 -3.52145008E-10
  1.32215729E-01  1.32172374E-01 -7.40367026E-12 -5.38762459E-10  2.02595641E-01
  2.02529208E-01 -1.11548811E-11 -5.98909824E-10  2.23746499E-01  2.23673131E-01
  1.64231750E-11 -1.73683052E-10  6.84296577E-02  6.84072196E-02  1.59600957E-07
 -1.19817249E-02  2.97267365E-11  9.22091608E-08 -1.19856551E-02  9.82523427E-13
  1.60727521E-12  2.61638423E-10 -1.32215729E-01 -1.32172374E-01 -4.74488761E-12
  3.99998711E-10 -2.02595641E-01 -2.02529208E-01 -1.02925538E-11  4.46250901E-10
 -2.23746499E-01 -2.23673131E-01  1.27641029E-11  1.24040317E-10 -6.84296578E-02
 -6.84072196E-02  1.16134592E-07 -1.19817254E-02  2.12192210E-11  6.70974948E-08
 -1.19856556E-02  6.08162768E-13 -7.32393130E-13  8.46745755E-13 -3.35254814E-11
  1.26212018E-02  1.26170632E-02  4.27205721E-13 -1.96737193E-12  4.31332708E-12
  2.48846950E-11 -1.26212023E-02 -1.26170637E-02 -6.08229158E-09 -1.02476936E-08
  1.95979204E-06 -1.22305626E-01  1.22345745E-01  3.33210208E-08  3.09768092E-06
 -1.93417648E-01  1.93481092E-01  5.25851793E-08  3.42434160E-06 -2.14376526E-01
  2.14446849E-01 -8.88587116E-08  1.71555960E-06 -1.06875852E-01  1.06910902E-01
  1.46100168E-07 -1.05720336E-02 -1.67166583E-07 -2.52999278E-07  1.05685669E-02
  6.92737182E-09  1.16573541E-08  1.43255545E-06 -1.22305392E-01  1.22345511E-01
 -3.73018253E-08  2.26280463E-06 -1.93417278E-01  1.93480723E-01 -6.19273342E-08
  2.49915984E-06 -2.14376116E-01  2.14446439E-01  1.04670398E-07  1.25920915E-06
 -1.06875651E-01  1.06910701E-01 -1.06640523E-07  1.05720138E-02  1.21756025E-07
  1.84668396E-07 -1.05685470E-02 -1.91588824E-09 -1.96476454E-08  2.54998582E-08
  1.92531424E-07 -1.20703500E-02  1.20743093E-02  2.71952150E-09  2.57804934E-08
 -3.46989351E-08  1.40140906E-07 -1.20703274E-02  1.20742867E-02 -8.09016414E-10
 -1.42163523E-09  1.95613015E-06 -1.22634454E-01  1.22674680E-01  7.18702560E-09
  3.09072306E-06 -1.93814579E-01  1.93878154E-01 -8.23556185E-09  3.45048559E-06
 -2.15365995E-01  2.15436638E-01 -5.39463783E-08  1.70039316E-06 -1.05822263E-01
  1.05856975E-01  1.45753082E-07 -1.06193897E-02 -1.67065909E-07 -2.52398371E-07
  1.06159075E-02  2.86526387E-10  4.72952735E-10 -1.42467487E-06  1.22634686E-01
 -1.22674912E-01  5.92990755E-10 -2.25095872E-06  1.93814947E-01 -1.93878521E-01
 -1.42186931E-08 -2.52125436E-06  2.15366403E-01 -2.15437046E-01 -3.43761118E-08
 -1.22883972E-06  1.05822466E-01 -1.05857179E-01  1.06110984E-07 -1.06194101E-02
 -1.21329481E-07 -1.83751667E-07  1.06159279E-02  4.00570910E-09  9.74949655E-09
  4.14605516E-08  1.93792909E-07 -1.20952975E-02  1.20992649E-02  4.09086936E-09
  1.72917678E-08  2.44711878E-08 -1.41639583E-07  1.20953209E-02 -1.20992883E-02
  2.07065122E-02  3.40041138E-02  3.55913421E-02  2.61416687E-07 -2.61411736E-07
 -8.48257249E-02  7.71722541E-02  6.18447427E-07 -6.18438674E-07 -4.01496970E-01
  9.26098707E-02  5.67150173E-07 -5.67140046E-07  1.07767170E+00 -5.92849681E-01
 -4.37165056E-06  4.37162985E-06  8.80119191E-03  2.33044059E-07  1.45091240E-03
 -1.52450633E-02 -2.33053193E-07 -2.07065175E-02 -3.40041228E-02  3.55913470E-02
  2.03054410E-07 -2.03049189E-07  8.48257501E-02  7.71722753E-02  4.61669379E-07
 -4.61659303E-07  4.01497066E-01  9.26098706E-02  4.66807713E-07 -4.66798370E-07
 -1.07767202E+00 -5.92849833E-01 -3.27892668E-06  3.27889331E-06 -8.80119516E-03
 -1.71239994E-07 -1.45091275E-03  1.52450689E-02  1.71247943E-07 -1.92886337E-02
  1.26300997E-01 -4.47388003E-01 -3.67148717E-04  6.07415114E-10 -6.06994727E-10
  1.92886413E-02 -1.26301030E-01  4.47388153E-01 -3.67146159E-04  5.72007110E-10
 -5.71597968E-10  2.23464467E-02  3.62977643E-02  3.15410095E-02  2.63461114E-07
 -2.63461566E-07 -8.49820984E-02  8.04255390E-02  6.26606343E-07 -6.26605921E-07
 -4.69554703E-01  5.26898770E-02  5.47152372E-07 -5.47153569E-07  1.12485278E+00
 -4.63212295E-01 -3.95155400E-06  3.95153519E-06  8.08209490E-03  2.09753143E-07
  1.63009670E-03 -1.39996683E-02 -2.09762291E-07  2.23464405E-02  3.62977544E-02
 -3.15409951E-02 -1.65279754E-07  1.65275956E-07 -8.49820775E-02 -8.04255165E-02
 -4.30094836E-07  4.30089025E-07 -4.69554566E-01 -5.26898329E-02 -2.92301117E-07
  2.92285626E-07  1.12485250E+00  4.63212147E-01  2.69270817E-06 -2.69265097E-06
  8.08209346E-03  1.50419769E-07  1.63009623E-03 -1.39996658E-02 -1.50427733E-07
 -1.60160920E-02  1.08828037E-01 -3.77233318E-01  3.16231752E-04 -6.88709832E-10
  6.88475642E-10 -1.60160895E-02  1.08828005E-01 -3.77233240E-01 -3.16234520E-04
  9.68099484E-10 -9.67887764E-10  1.47260129E-02  2.31707584E-02 -4.41476766E-02
  2.75197361E-07 -2.75275639E-07 -4.53591230E-02 -2.39156042E-02  4.46412964E-07
 -4.46498484E-07 -3.76066945E-01 -2.04706582E-01  8.67187190E-07 -8.67494953E-07
  2.79426267E-01  7.67395156E-01  1.36612119E-06 -1.36561767E-06 -5.44955962E-03
 -9.83263087E-08  1.20660461E-03  9.43812267E-03  9.83272774E-08  1.47260133E-02
  2.31707590E-02  4.41476765E-02 -1.93956648E-07  1.94003397E-07 -4.53591238E-02
  2.39156023E-02 -3.18589174E-07  3.18642928E-07 -3.76066956E-01  2.04706582E-01
 -6.04887193E-07  6.05063628E-07  2.79426308E-01 -7.67395125E-01 -1.05134547E-06
  1.05106977E-06 -5.44955910E-03 -7.21763027E-08  1.20660462E-03  9.43812177E-03
  7.21766647E-08  2.47863371E-02 -1.66697125E-02  2.99707118E-01  6.77231535E-03
  6.21095487E-08 -6.21109209E-08  2.47863360E-02 -1.66697071E-02  2.99707083E-01
 -6.77231603E-03 -4.52743936E-08  4.52754039E-08 -1.65724718E-07 -2.64069005E-07
 -7.42292485E-07  7.03454027E-02 -7.03684033E-02  5.71780880E-07 -9.53994555E-07
  6.95016698E-02 -6.95244026E-02  4.05167278E-06 -2.75585124E-06  2.92435214E-01
 -2.92530817E-01 -3.91382903E-06  2.45636901E-06 -5.96894055E-01  5.97089145E-01
 -3.55011727E-08  5.97897942E-03  8.04849462E-08  6.14684861E-08 -5.97702510E-03
  1.15160499E-07  1.83587772E-07 -5.36545802E-07  7.03454019E-02 -7.03684025E-02
 -3.98432808E-07 -6.76173365E-07  6.95016691E-02 -6.95244019E-02 -2.80486687E-06
 -2.02699798E-06  2.92435212E-01 -2.92530815E-01  2.64508546E-06  1.84161176E-06
 -5.96894049E-01  5.97089139E-01  2.54983105E-08 -5.97897971E-03 -5.90389955E-08
 -4.41489821E-08  5.97702539E-03 -2.19011381E-07  1.07323038E-07 -2.57934547E-06
 -5.13449148E-08 -1.56741589E-04  1.56791938E-04  1.58701693E-07 -7.14055250E-08
  1.82885058E-06 -3.81781267E-08 -1.56741176E-04  1.56791525E-04  3.31447171E-11
  5.30734130E-11  8.55975978E-11 -6.34298290E-02 -6.34091112E-02 -1.19817967E-10
  1.21311367E-10 -5.95974201E-02 -5.95779621E-02 -7.80857345E-10  2.81503470E-10
 -2.67295986E-01 -2.67208666E-01  8.43722702E-10 -1.42331432E-10  5.99725960E-01
  5.99529997E-01 -7.22874763E-08  5.33886022E-03 -1.08097021E-11 -4.17416828E-08
  5.34060458E-03 -2.85843842E-11 -4.58245105E-11  5.00643296E-11 -6.34298284E-02
 -6.34091105E-02  1.04280064E-10  8.07586357E-11 -5.95974196E-02 -5.95779616E-02
  6.66140388E-10  1.47107157E-10 -2.67295984E-01 -2.67208665E-01 -7.19227319E-10
  9.65761685E-11  5.99725956E-01  5.99529993E-01  5.26571268E-08 -5.33886053E-03
  7.33269876E-12  3.04031281E-08 -5.34060489E-03  4.20095141E-11 -2.26549472E-11
  4.28566890E-10  9.11720890E-12  7.83598726E-04  7.83341856E-04 -3.71298011E-11
  1.75410543E-11 -3.62571133E-10  8.68437530E-12  7.83598349E-04  7.83341479E-04
 -1.32271850E-07 -2.12226653E-07 -6.14126425E-07  7.12234019E-02 -7.12467786E-02
  4.88697204E-07 -8.41388865E-07  7.23549391E-02 -7.23786861E-02  2.85766968E-06
 -1.94048673E-06  2.92856897E-01 -2.92953020E-01 -3.86461820E-06  2.40477189E-06
 -6.16663432E-01  6.16865845E-01 -3.20415226E-08  5.85233664E-03  8.30737701E-08