 Entering Gaussian System, Link 0=g16
 Initial command:
 /home/szhao/Apps/g16/l1.exe "/home/szhao/tmp/Gau-75393.inp" -scrdir="/home/szhao/tmp/"
 Default is to use a total of  16 processors:
                               16 via shared-memory
                                1 via Linda
 Entering Link 1 = /home/szhao/Apps/g16/l1.exe PID=     75394.
  
 Copyright (c) 1988,1990,1992,1993,1995,1998,2003,2009,2016,
            Gaussian, Inc.  All Rights Reserved.
  
 This is part of the Gaussian(R) 16 program.  It is based on
 the Gaussian(R) 09 system (copyright 2009, Gaussian, Inc.),
 the Gaussian(R) 03 system (copyright 2003, Gaussian, Inc.),
 the Gaussian(R) 98 system (copyright 1998, Gaussian, Inc.),
 the Gaussian(R) 94 system (copyright 1995, Gaussian, Inc.),
 the Gaussian 92(TM) system (copyright 1992, Gaussian, Inc.),
 the Gaussian 90(TM) system (copyright 1990, Gaussian, Inc.),
 the Gaussian 88(TM) system (copyright 1988, Gaussian, Inc.),
 the Gaussian 86(TM) system (copyright 1986, Carnegie Mellon
 University), and the Gaussian 82(TM) system (copyright 1983,
 Carnegie Mellon University). Gaussian is a federally registered
 trademark of Gaussian, Inc.
  
 This software contains proprietary and confidential information,
 including trade secrets, belonging to Gaussian, Inc.
  
 This software is provided under written license and may be
 used, copied, transmitted, or stored only in accord with that
 written license.
  
 The following legend is applicable only to US Government
 contracts under FAR:
  
                    RESTRICTED RIGHTS LEGEND
  
 Use, reproduction and disclosure by the US Government is
 subject to restrictions as set forth in subparagraphs (a)
 and (c) of the Commercial Computer Software - Restricted
 Rights clause in FAR 52.227-19.
  
 Gaussian, Inc.
 340 Quinnipiac St., Bldg. 40, Wallingford CT 06492
  
  
 ---------------------------------------------------------------
 Warning -- This program may not be used in any manner that
 competes with the business of Gaussian, Inc. or will provide
 assistance to any competitor of Gaussian, Inc.  The licensee
 of this program is prohibited from giving any competitor of
 Gaussian, Inc. access to this program.  By using this program,
 the user acknowledges that Gaussian, Inc. is engaged in the
 business of creating and licensing software in the field of
 computational chemistry and represents and warrants to the
 licensee that it is not a competitor of Gaussian, Inc. and that
 it will not use this program in any manner prohibited above.
 ---------------------------------------------------------------
  

 Cite this work as:
 Gaussian 16, Revision A.03,
 M. J. Frisch, G. W. Trucks, H. B. Schlegel, G. E. Scuseria, 
 M. A. Robb, J. R. Cheeseman, G. Scalmani, V. Barone, 
 G. A. Petersson, H. Nakatsuji, X. Li, M. Caricato, A. V. Marenich, 
 J. Bloino, B. G. Janesko, R. Gomperts, B. Mennucci, H. P. Hratchian, 
 J. V. Ortiz, A. F. Izmaylov, J. L. Sonnenberg, D. Williams-Young, 
 F. Ding, F. Lipparini, F. Egidi, J. Goings, B. Peng, A. Petrone, 
 T. Henderson, D. Ranasinghe, V. G. Zakrzewski, J. Gao, N. Rega, 
 G. Zheng, W. Liang, M. Hada, M. Ehara, K. Toyota, R. Fukuda, 
 J. Hasegawa, M. Ishida, T. Nakajima, Y. Honda, O. Kitao, H. Nakai, 
 T. Vreven, K. Throssell, J. A. Montgomery, Jr., J. E. Peralta, 
 F. Ogliaro, M. J. Bearpark, J. J. Heyd, E. N. Brothers, K. N. Kudin, 
 V. N. Staroverov, T. A. Keith, R. Kobayashi, J. Normand, 
 K. Raghavachari, A. P. Rendell, J. C. Burant, S. S. Iyengar, 
 J. Tomasi, M. Cossi, J. M. Millam, M. Klene, C. Adamo, R. Cammi, 
 J. W. Ochterski, R. L. Martin, K. Morokuma, O. Farkas, 
 J. B. Foresman, and D. J. Fox, Gaussian, Inc., Wallingford CT, 2016.
 
 ******************************************
 Gaussian 16:  ES64L-G16RevA.03 25-Dec-2016
                22-Apr-2025 
 ******************************************
 %oldchk=../00105/opt.chk
 %chk=opt.chk
 %mem=4GB
 %nprocshared=8
 Will use up to    8 processors via shared memory.
 Copying data from "../00105/opt.chk" to current chk file "opt.chk"
 IOpt=  2 FromEx=T IUOpen= 4 IOptOp= 5 NList=   0 IFRang= 0 IUIn= 4 IUOut= 2.
 ----------------------------------------------------------------------
 #p opt UM062X/6-311+G** nosymm int=superfine SCF=(MaxCycle=200,NoVarAc
 c,noincfock) guess=read
 ----------------------------------------------------------------------
 1/18=20,19=15,26=5,38=1/1,3;
 2/9=110,12=2,15=1,17=6,18=5,40=1/2;
 3/5=4,6=6,7=111,11=2,25=1,30=1,71=1,74=-55,75=-7,116=2/1,2,3;
 4/5=1/1;
 5/5=100002,7=200,38=6/2;
 6/7=2,8=2,9=2,10=2,28=1/1;
 7/30=1/1,2,3,16;
 1/18=20,19=15,26=5/3(2);
 2/9=110,15=1/2;
 99//99;
 2/9=110,15=1/2;
 3/5=4,6=6,7=111,11=2,25=1,30=1,71=1,74=-55,75=-7,116=2/1,2,3;
 4/5=5,16=3,69=1/1;
 5/5=100002,7=200,38=1/2;
 7/30=1/1,2,3,16;
 1/18=20,19=15,26=5/3(-5);
 2/9=110,15=1/2;
 6/7=2,8=2,9=2,10=2,19=2,28=1/1;
 99/9=1/99;
 Leave Link    1 at Tue Apr 22 05:20:42 2025, MaxMem=   536870912 cpu:               1.2 elap:               0.1
 (Enter /home/szhao/Apps/g16/l101.exe)
 -------------------
 Title Card Required
 -------------------
 Symbolic Z-matrix:
 Charge =  0 Multiplicity = 1
 O                    -1   -1.66101  -0.00014  -0.00009 
 S                    -1    1.66102   0.00019   0.00017 
 H                    0    -1.67589  -0.12103  -0.96199 
 H                    0     1.39562  -0.80361   1.03854 
 
 Add virtual bond connecting atoms S2         and O1         Dist= 6.28D+00.
 Add virtual bond connecting atoms S2         and H3         Dist= 6.57D+00.
 Add virtual bond connecting atoms H4         and O1         Dist= 6.29D+00.
 ITRead=  2  2  0  0
 MicOpt= -2 -2 -1 -1
 NAtoms=      4 NQM=        2 NQMF=       2 NMMI=      0 NMMIF=      0
                NMic=       0 NMicF=      0.
                    Isotopes and Nuclear Properties:
 (Nuclear quadrupole moments (NQMom) in fm**2, nuclear magnetic moments (NMagM)
  in nuclear magnetons)

  Atom         1           2           3           4
 IAtWgt=          16          32           1           1
 AtmWgt=  15.9949146  31.9720718   1.0078250   1.0078250
 NucSpn=           0           0           1           1
 AtZEff=  -0.0000000  -0.0000000  -0.0000000  -0.0000000
 NQMom=    0.0000000   0.0000000   0.0000000   0.0000000
 NMagM=    0.0000000   0.0000000   2.7928460   2.7928460
 AtZNuc=   8.0000000  16.0000000   1.0000000   1.0000000
 Leave Link  101 at Tue Apr 22 05:20:43 2025, MaxMem=   536870912 cpu:               4.3 elap:               0.5
 (Enter /home/szhao/Apps/g16/l103.exe)

 GradGradGradGradGradGradGradGradGradGradGradGradGradGradGradGradGradGrad
 Berny optimization.
 Initialization pass.
                           ----------------------------
                           !    Initial Parameters    !
                           ! (Angstroms and Degrees)  !
 --------------------------                            --------------------------
 ! Name  Definition              Value          Derivative Info.                !
 --------------------------------------------------------------------------------
 ! X1    R(1,-1)                -1.661          Frozen                          !
 ! Y1    R(1,-2)                -0.0001         Frozen                          !
 ! Z1    R(1,-3)                -0.0001         Frozen                          !
 ! X2    R(2,-1)                 1.661          Frozen                          !
 ! Y2    R(2,-2)                 0.0002         Frozen                          !
 ! Z2    R(2,-3)                 0.0002         Frozen                          !
 ! R1    R(1,3)                  0.9696         estimate D2E/DX2                !
 ! R2    R(1,4)                  3.3268         estimate D2E/DX2                !
 ! R3    R(2,3)                  3.475          estimate D2E/DX2                !
 ! R4    R(2,4)                  1.3397         estimate D2E/DX2                !
 ! A1    A(3,1,4)              107.081          estimate D2E/DX2                !
 ! A2    A(3,2,4)               90.1975         estimate D2E/DX2                !
 --------------------------------------------------------------------------------
 Trust Radius=3.00D-01 FncErr=1.00D-07 GrdErr=1.00D-07 EigMax=2.50D+02 EigMin=1.00D-04
 Number of steps in this run=     22 maximum allowed number of steps=    100.
 GradGradGradGradGradGradGradGradGradGradGradGradGradGradGradGradGradGrad

 Leave Link  103 at Tue Apr 22 05:20:43 2025, MaxMem=   536870912 cpu:               0.1 elap:               0.0
 (Enter /home/szhao/Apps/g16/l202.exe)
                          Input orientation:                          
 ---------------------------------------------------------------------
 Center     Atomic      Atomic             Coordinates (Angstroms)
 Number     Number       Type             X           Y           Z
 ---------------------------------------------------------------------
      1          8           0       -1.661005   -0.000137   -0.000090
      2         16           0        1.661016    0.000190    0.000166
      3          1           0       -1.675889   -0.121032   -0.961987
      4          1           0        1.395623   -0.803607    1.038543
 ---------------------------------------------------------------------
                    Distance matrix (angstroms):
                    1          2          3          4
     1  O    0.000000
     2  S    3.322021   0.000000
     3  H    0.969579   3.474963   0.000000
     4  H    3.326755   1.339683   3.728567   0.000000
 Symmetry turned off by external request.
 Stoichiometry    H2OS
 Framework group  C1[X(H2OS)]
 Deg. of freedom     6
 Full point group                 C1      NOp   1
 Rotational constants (GHZ):         195.1663284           4.0838293           4.0212945
 Leave Link  202 at Tue Apr 22 05:20:43 2025, MaxMem=   536870912 cpu:               0.0 elap:               0.0
 (Enter /home/szhao/Apps/g16/l301.exe)
 Standard basis: 6-311+G(d,p) (5D, 7F)
 Ernie: Thresh=  0.10000D-02 Tol=  0.10000D-05 Strict=F.
    64 basis functions,   102 primitive gaussians,    66 cartesian basis functions
    13 alpha electrons       13 beta electrons
       nuclear repulsion energy        34.9268624801 Hartrees.
 IExCor= 4336 DFT=T Ex+Corr=M062X ExCW=0 ScaHFX=  0.540000
 ScaDFX=  1.000000  1.000000  1.000000  1.000000 ScalE2=  1.000000  1.000000
 IRadAn=      7 IRanWt=     -1 IRanGd=            0 ICorTp=0 IEmpDi=  4
 NAtoms=    4 NActive=    4 NUniq=    4 SFac= 1.00D+00 NAtFMM=   60 NAOKFM=F Big=F
 Integral buffers will be    131072 words long.
 Raffenetti 2 integral format.
 Two-electron integral symmetry is turned off.
 Leave Link  301 at Tue Apr 22 05:20:43 2025, MaxMem=   536870912 cpu:               0.4 elap:               0.1
 (Enter /home/szhao/Apps/g16/l302.exe)
 NPDir=0 NMtPBC=     1 NCelOv=     1 NCel=       1 NClECP=     1 NCelD=      1
         NCelK=      1 NCelE2=     1 NClLst=     1 CellRange=     0.0.
 One-electron integrals computed using PRISM.
 NBasis=    64 RedAO= T EigKep=  6.15D-03  NBF=    64
 NBsUse=    64 1.00D-06 EigRej= -1.00D+00 NBFU=    64
 Precomputing XC quadrature grid using
 IXCGrd= 4 IRadAn=           7 IRanWt=          -1 IRanGd=           0 AccXCQ= 0.00D+00.
 Generated NRdTot=       0 NPtTot=           0 NUsed=           0 NTot=          32
 NSgBfM=    66    66    66    66    66 MxSgAt=     4 MxSgA2=     4.
 Leave Link  302 at Tue Apr 22 05:20:43 2025, MaxMem=   536870912 cpu:               1.3 elap:               0.2
 (Enter /home/szhao/Apps/g16/l303.exe)
 DipDrv:  MaxL=1.
 Leave Link  303 at Tue Apr 22 05:20:43 2025, MaxMem=   536870912 cpu:               0.3 elap:               0.0
 (Enter /home/szhao/Apps/g16/l401.exe)
 Initial guess from the checkpoint file:  "opt.chk"
 B after Tr=     0.028552   -0.000615   -0.200218
         Rot=    0.725839    0.687003    0.026075    0.022451 Ang=  86.92 deg.
 Guess basis will be translated and rotated to current coordinates.
 JPrj=2 DoOrth=T DoCkMO=T.
 Initial guess <Sx>= 0.0000 <Sy>= 0.0000 <Sz>= 0.0000 <S**2>= 0.0000 S= 0.0000
 Leave Link  401 at Tue Apr 22 05:20:43 2025, MaxMem=   536870912 cpu:               0.7 elap:               0.1
 (Enter /home/szhao/Apps/g16/l502.exe)
 Keep R1 and R2 ints in memory in canonical form, NReq=11470680.
 FoFCou: FMM=F IPFlag=           0 FMFlag=           0 FMFlg1=           0
         NFxFlg=           0 DoJE=F BraDBF=F KetDBF=F FulRan=T
         wScrn=  0.000000 ICntrl=       600 IOpCl=  0 I1Cent=           0 NGrid=           0
         NMat0=    1 NMatS0=   2080 NMatT0=    0 NMatD0=    1 NMtDS0=    0 NMtDT0=    0
 Symmetry not used in FoFCou.
 Two-electron integral symmetry not used.
 UHF open shell SCF:
 Using DIIS extrapolation, IDIIS=  1040.
 NGot=   536870912 LenX=   532532574 LenY=   532527777
 Requested convergence on RMS density matrix=1.00D-08 within 200 cycles.
 Requested convergence on MAX density matrix=1.00D-06.
 Requested convergence on             energy=1.00D-06.
 No special actions if energy rises.

 Cycle   1  Pass 1  IDiag  1:
 E= -473.270580073617    
 DIIS: error= 6.37D-02 at cycle   1 NSaved=   1.
 NSaved= 1 IEnMin= 1 EnMin= -473.270580073617     IErMin= 1 ErrMin= 6.37D-02
 ErrMax= 6.37D-02  0.00D+00 EMaxC= 1.00D-01 BMatC= 1.55D+00 BMatP= 1.55D+00
 IDIUse=3 WtCom= 3.63D-01 WtEn= 6.37D-01
 Coeff-Com:  0.100D+01
 Coeff-En:   0.100D+01
 Coeff:      0.100D+01
 Gap=     0.116 Goal=   None    Shift=    0.000
 Gap=     0.116 Goal=   None    Shift=    0.000
 GapD=    0.116 DampG=1.000 DampE=0.500 DampFc=0.5000 IDamp=-1.
 Damping current iteration by 5.00D-01
 RMSDP=1.80D-02 MaxDP=3.28D-01              OVMax= 6.84D-01

 Cycle   2  Pass 1  IDiag  1:
 E= -473.674182636637     Delta-E=       -0.403602563021 Rises=F Damp=T
 DIIS: error= 3.71D-02 at cycle   2 NSaved=   2.
 NSaved= 2 IEnMin= 2 EnMin= -473.674182636637     IErMin= 2 ErrMin= 3.71D-02
 ErrMax= 3.71D-02  0.00D+00 EMaxC= 1.00D-01 BMatC= 4.87D-01 BMatP= 1.55D+00
 IDIUse=3 WtCom= 6.29D-01 WtEn= 3.71D-01
 Coeff-Com:  0.978D-01 0.902D+00
 Coeff-En:   0.000D+00 0.100D+01
 Coeff:      0.615D-01 0.938D+00
 Gap=     0.227 Goal=   None    Shift=    0.000
 Gap=     0.227 Goal=   None    Shift=    0.000
 RMSDP=1.15D-02 MaxDP=2.06D-01 DE=-4.04D-01 OVMax= 8.34D-01

 Cycle   3  Pass 1  IDiag  1:
 E= -473.979390952875     Delta-E=       -0.305208316238 Rises=F Damp=F
 DIIS: error= 6.68D-02 at cycle   3 NSaved=   3.
 NSaved= 3 IEnMin= 3 EnMin= -473.979390952875     IErMin= 2 ErrMin= 3.71D-02
 ErrMax= 6.68D-02  0.00D+00 EMaxC= 1.00D-01 BMatC= 1.37D+00 BMatP= 4.87D-01
 IDIUse=2 WtCom= 0.00D+00 WtEn= 1.00D+00
 Coeff-En:   0.000D+00 0.225D+00 0.775D+00
 Coeff:      0.000D+00 0.225D+00 0.775D+00
 Gap=     0.175 Goal=   None    Shift=    0.000
 Gap=     0.175 Goal=   None    Shift=    0.000
 RMSDP=1.56D-02 MaxDP=3.65D-01 DE=-3.05D-01 OVMax= 9.45D-01

 Cycle   4  Pass 1  IDiag  1:
 E= -473.166745989447     Delta-E=        0.812644963428 Rises=F Damp=F
 DIIS: error= 1.50D-01 at cycle   4 NSaved=   4.
 NSaved= 4 IEnMin= 3 EnMin= -473.979390952875     IErMin= 2 ErrMin= 3.71D-02
 ErrMax= 1.50D-01  0.00D+00 EMaxC= 1.00D-01 BMatC= 3.88D+00 BMatP= 4.87D-01
 IDIUse=2 WtCom= 0.00D+00 WtEn= 1.00D+00
 Coeff-En:   0.000D+00 0.000D+00 0.672D+00 0.328D+00
 Coeff:      0.000D+00 0.000D+00 0.672D+00 0.328D+00
 Gap=     0.292 Goal=   None    Shift=    0.000
 Gap=     0.292 Goal=   None    Shift=    0.000
 RMSDP=8.60D-03 MaxDP=1.29D-01 DE= 8.13D-01 OVMax= 4.31D-01

 Cycle   5  Pass 1  IDiag  1:
 E= -474.215019196567     Delta-E=       -1.048273207119 Rises=F Damp=F
 DIIS: error= 4.66D-02 at cycle   5 NSaved=   5.
 NSaved= 5 IEnMin= 5 EnMin= -474.215019196567     IErMin= 2 ErrMin= 3.71D-02
 ErrMax= 4.66D-02  0.00D+00 EMaxC= 1.00D-01 BMatC= 5.48D-01 BMatP= 4.87D-01
 IDIUse=2 WtCom= 0.00D+00 WtEn= 1.00D+00
 Coeff-En:   0.000D+00 0.000D+00 0.364D+00 0.000D+00 0.636D+00
 Coeff:      0.000D+00 0.000D+00 0.364D+00 0.000D+00 0.636D+00
 Gap=     0.065 Goal=   None    Shift=    0.000
 Gap=     0.065 Goal=   None    Shift=    0.000
 RMSDP=5.93D-03 MaxDP=1.68D-01 DE=-1.05D+00 OVMax= 4.67D-01

 Cycle   6  Pass 1  IDiag  1:
 E= -474.339474731395     Delta-E=       -0.124455534828 Rises=F Damp=F
 DIIS: error= 2.32D-02 at cycle   6 NSaved=   6.
 NSaved= 6 IEnMin= 6 EnMin= -474.339474731395     IErMin= 6 ErrMin= 2.32D-02
 ErrMax= 2.32D-02  0.00D+00 EMaxC= 1.00D-01 BMatC= 1.37D-01 BMatP= 4.87D-01
 IDIUse=3 WtCom= 7.68D-01 WtEn= 2.32D-01
 Coeff-Com:  0.275D-01-0.147D-01-0.112D+00-0.477D-01 0.364D+00 0.783D+00
 Coeff-En:   0.000D+00 0.000D+00 0.000D+00 0.000D+00 0.304D+00 0.696D+00
 Coeff:      0.211D-01-0.113D-01-0.859D-01-0.366D-01 0.350D+00 0.763D+00
 Gap=     0.137 Goal=   None    Shift=    0.000
 Gap=     0.137 Goal=   None    Shift=    0.000
 RMSDP=2.56D-03 MaxDP=6.87D-02 DE=-1.24D-01 OVMax= 2.04D-01

 Cycle   7  Pass 1  IDiag  1:
 E= -474.382081809663     Delta-E=       -0.042607078268 Rises=F Damp=F
 DIIS: error= 5.17D-03 at cycle   7 NSaved=   7.
 NSaved= 7 IEnMin= 7 EnMin= -474.382081809663     IErMin= 7 ErrMin= 5.17D-03
 ErrMax= 5.17D-03  0.00D+00 EMaxC= 1.00D-01 BMatC= 6.68D-03 BMatP= 1.37D-01
 IDIUse=3 WtCom= 9.48D-01 WtEn= 5.17D-02
 Coeff-Com: -0.169D-02-0.250D-02-0.620D-02 0.176D-02-0.566D-01 0.121D+00
 Coeff-Com:  0.944D+00
 Coeff-En:   0.000D+00 0.000D+00 0.000D+00 0.000D+00 0.000D+00 0.909D-01
 Coeff-En:   0.909D+00
 Coeff:     -0.160D-02-0.237D-02-0.588D-02 0.167D-02-0.536D-01 0.119D+00
 Coeff:      0.942D+00
 Gap=     0.126 Goal=   None    Shift=    0.000
 Gap=     0.126 Goal=   None    Shift=    0.000
 RMSDP=4.15D-04 MaxDP=9.30D-03 DE=-4.26D-02 OVMax= 2.99D-02

 Cycle   8  Pass 1  IDiag  1:
 E= -474.383977566553     Delta-E=       -0.001895756890 Rises=F Damp=F
 DIIS: error= 7.69D-04 at cycle   8 NSaved=   8.
 NSaved= 8 IEnMin= 8 EnMin= -474.383977566553     IErMin= 8 ErrMin= 7.69D-04
 ErrMax= 7.69D-04  0.00D+00 EMaxC= 1.00D-01 BMatC= 1.05D-04 BMatP= 6.68D-03
 IDIUse=3 WtCom= 9.92D-01 WtEn= 7.69D-03
 Coeff-Com:  0.133D-03-0.919D-03 0.362D-02 0.215D-02-0.286D-01-0.110D-02
 Coeff-Com:  0.163D+00 0.862D+00
 Coeff-En:   0.000D+00 0.000D+00 0.000D+00 0.000D+00 0.000D+00 0.000D+00
 Coeff-En:   0.000D+00 0.100D+01
 Coeff:      0.132D-03-0.912D-03 0.359D-02 0.213D-02-0.284D-01-0.109D-02
 Coeff:      0.161D+00 0.863D+00
 Gap=     0.127 Goal=   None    Shift=    0.000
 Gap=     0.127 Goal=   None    Shift=    0.000
 RMSDP=4.95D-05 MaxDP=6.88D-04 DE=-1.90D-03 OVMax= 2.20D-03

 Cycle   9  Pass 1  IDiag  1:
 E= -474.383999710100     Delta-E=       -0.000022143547 Rises=F Damp=F
 DIIS: error= 3.32D-04 at cycle   9 NSaved=   9.
 NSaved= 9 IEnMin= 9 EnMin= -474.383999710100     IErMin= 9 ErrMin= 3.32D-04
 ErrMax= 3.32D-04  0.00D+00 EMaxC= 1.00D-01 BMatC= 2.74D-05 BMatP= 1.05D-04
 IDIUse=3 WtCom= 9.97D-01 WtEn= 3.32D-03
 Coeff-Com: -0.313D-04 0.425D-04 0.409D-03 0.157D-03-0.427D-02 0.255D-02
 Coeff-Com: -0.157D-01 0.668D-01 0.950D+00
 Coeff-En:   0.000D+00 0.000D+00 0.000D+00 0.000D+00 0.000D+00 0.000D+00
 Coeff-En:   0.000D+00 0.000D+00 0.100D+01
 Coeff:     -0.312D-04 0.423D-04 0.408D-03 0.157D-03-0.426D-02 0.254D-02
 Coeff:     -0.157D-01 0.666D-01 0.950D+00
 Gap=     0.127 Goal=   None    Shift=    0.000
 Gap=     0.127 Goal=   None    Shift=    0.000
 RMSDP=3.69D-05 MaxDP=5.96D-04 DE=-2.21D-05 OVMax= 2.08D-03

 Cycle  10  Pass 1  IDiag  1:
 E= -474.384009368826     Delta-E=       -0.000009658726 Rises=F Damp=F
 DIIS: error= 1.09D-04 at cycle  10 NSaved=  10.
 NSaved=10 IEnMin=10 EnMin= -474.384009368826     IErMin=10 ErrMin= 1.09D-04
 ErrMax= 1.09D-04  0.00D+00 EMaxC= 1.00D-01 BMatC= 2.70D-06 BMatP= 2.74D-05
 IDIUse=3 WtCom= 9.99D-01 WtEn= 1.09D-03
 Coeff-Com: -0.336D-04-0.134D-04-0.164D-03-0.532D-04 0.929D-03 0.992D-03
 Coeff-Com: -0.555D-03-0.914D-01-0.310D+00 0.140D+01
 Coeff-En:   0.000D+00 0.000D+00 0.000D+00 0.000D+00 0.000D+00 0.000D+00
 Coeff-En:   0.000D+00 0.000D+00 0.000D+00 0.100D+01
 Coeff:     -0.336D-04-0.134D-04-0.163D-03-0.531D-04 0.928D-03 0.991D-03
 Coeff:     -0.554D-03-0.913D-01-0.310D+00 0.140D+01
 Gap=     0.127 Goal=   None    Shift=    0.000
 Gap=     0.127 Goal=   None    Shift=    0.000
 RMSDP=4.02D-05 MaxDP=6.97D-04 DE=-9.66D-06 OVMax= 2.79D-03

 Cycle  11  Pass 1  IDiag  1:
 E= -474.384012883731     Delta-E=       -0.000003514905 Rises=F Damp=F
 DIIS: error= 5.64D-05 at cycle  11 NSaved=  11.
 NSaved=11 IEnMin=11 EnMin= -474.384012883731     IErMin=11 ErrMin= 5.64D-05
 ErrMax= 5.64D-05  0.00D+00 EMaxC= 1.00D-01 BMatC= 3.30D-07 BMatP= 2.70D-06
 IDIUse=1 WtCom= 1.00D+00 WtEn= 0.00D+00
 Coeff-Com: -0.105D-04 0.193D-03-0.109D-03-0.922D-04 0.167D-02-0.185D-02
 Coeff-Com: -0.801D-03 0.286D-01-0.101D+00-0.800D+00 0.187D+01
 Coeff:     -0.105D-04 0.193D-03-0.109D-03-0.922D-04 0.167D-02-0.185D-02
 Coeff:     -0.801D-03 0.286D-01-0.101D+00-0.800D+00 0.187D+01
 Gap=     0.127 Goal=   None    Shift=    0.000
 Gap=     0.127 Goal=   None    Shift=    0.000
 RMSDP=5.13D-05 MaxDP=8.52D-04 DE=-3.51D-06 OVMax= 3.72D-03

 Cycle  12  Pass 1  IDiag  1:
 E= -474.384015486484     Delta-E=       -0.000002602753 Rises=F Damp=F
 DIIS: error= 5.17D-05 at cycle  12 NSaved=  12.
 NSaved=12 IEnMin=12 EnMin= -474.384015486484     IErMin=12 ErrMin= 5.17D-05
 ErrMax= 5.17D-05  0.00D+00 EMaxC= 1.00D-01 BMatC= 6.09D-07 BMatP= 3.30D-07
 IDIUse=1 WtCom= 1.00D+00 WtEn= 0.00D+00
 Coeff-Com:  0.165D-04-0.343D-04 0.213D-04-0.514D-04 0.821D-03-0.186D-02
 Coeff-Com: -0.403D-02 0.567D-01 0.255D+00-0.912D+00-0.426D+00 0.203D+01
 Coeff:      0.165D-04-0.343D-04 0.213D-04-0.514D-04 0.821D-03-0.186D-02
 Coeff:     -0.403D-02 0.567D-01 0.255D+00-0.912D+00-0.426D+00 0.203D+01
 Gap=     0.127 Goal=   None    Shift=    0.000
 Gap=     0.127 Goal=   None    Shift=    0.000
 RMSDP=7.00D-05 MaxDP=1.13D-03 DE=-2.60D-06 OVMax= 5.13D-03

 Cycle  13  Pass 1  IDiag  1:
 E= -474.384017437705     Delta-E=       -0.000001951221 Rises=F Damp=F
 DIIS: error= 1.46D-05 at cycle  13 NSaved=  13.
 NSaved=13 IEnMin=13 EnMin= -474.384017437705     IErMin=13 ErrMin= 1.46D-05
 ErrMax= 1.46D-05  0.00D+00 EMaxC= 1.00D-01 BMatC= 7.63D-08 BMatP= 3.30D-07
 IDIUse=1 WtCom= 1.00D+00 WtEn= 0.00D+00
 Coeff-Com:  0.189D-04-0.765D-04 0.148D-04 0.142D-04-0.358D-03 0.536D-03
 Coeff-Com:  0.149D-02-0.790D-02 0.192D-01 0.313D+00-0.528D+00-0.117D+00
 Coeff-Com:  0.132D+01
 Coeff:      0.189D-04-0.765D-04 0.148D-04 0.142D-04-0.358D-03 0.536D-03
 Coeff:      0.149D-02-0.790D-02 0.192D-01 0.313D+00-0.528D+00-0.117D+00
 Coeff:      0.132D+01
 Gap=     0.126 Goal=   None    Shift=    0.000
 Gap=     0.126 Goal=   None    Shift=    0.000
 RMSDP=2.06D-05 MaxDP=3.11D-04 DE=-1.95D-06 OVMax= 1.51D-03

 Cycle  14  Pass 1  IDiag  1:
 E= -474.384017584165     Delta-E=       -0.000000146461 Rises=F Damp=F
 DIIS: error= 1.35D-05 at cycle  14 NSaved=  14.
 NSaved=14 IEnMin=14 EnMin= -474.384017584165     IErMin=14 ErrMin= 1.35D-05
 ErrMax= 1.35D-05  0.00D+00 EMaxC= 1.00D-01 BMatC= 4.57D-08 BMatP= 7.63D-08
 IDIUse=1 WtCom= 1.00D+00 WtEn= 0.00D+00
 Coeff-Com:  0.426D-05-0.592D-05-0.531D-06 0.962D-05-0.199D-03 0.431D-03
 Coeff-Com:  0.428D-03-0.867D-02-0.277D-01 0.118D+00-0.171D-01-0.185D+00
 Coeff-Com:  0.132D+00 0.988D+00
 Coeff:      0.426D-05-0.592D-05-0.531D-06 0.962D-05-0.199D-03 0.431D-03
 Coeff:      0.428D-03-0.867D-02-0.277D-01 0.118D+00-0.171D-01-0.185D+00
 Coeff:      0.132D+00 0.988D+00
 Gap=     0.126 Goal=   None    Shift=    0.000
 Gap=     0.126 Goal=   None    Shift=    0.000
 RMSDP=3.32D-06 MaxDP=5.18D-05 DE=-1.46D-07 OVMax= 2.25D-04

 Cycle  15  Pass 1  IDiag  1:
 E= -474.384017604668     Delta-E=       -0.000000020503 Rises=F Damp=F
 DIIS: error= 5.76D-06 at cycle  15 NSaved=  15.
 NSaved=15 IEnMin=15 EnMin= -474.384017604668     IErMin=15 ErrMin= 5.76D-06
 ErrMax= 5.76D-06  0.00D+00 EMaxC= 1.00D-01 BMatC= 7.21D-09 BMatP= 4.57D-08
 IDIUse=1 WtCom= 1.00D+00 WtEn= 0.00D+00
 Coeff-Com:  0.199D-06 0.377D-06-0.279D-05-0.315D-06-0.171D-04 0.884D-04
 Coeff-Com: -0.540D-04 0.127D-03-0.308D-02-0.251D-01 0.529D-01 0.987D-02
 Coeff-Com: -0.145D+00-0.135D-01 0.112D+01
 Coeff:      0.199D-06 0.377D-06-0.279D-05-0.315D-06-0.171D-04 0.884D-04
 Coeff:     -0.540D-04 0.127D-03-0.308D-02-0.251D-01 0.529D-01 0.987D-02
 Coeff:     -0.145D+00-0.135D-01 0.112D+01
 Gap=     0.127 Goal=   None    Shift=    0.000
 Gap=     0.126 Goal=   None    Shift=    0.000
 RMSDP=1.48D-06 MaxDP=3.09D-05 DE=-2.05D-08 OVMax= 9.91D-05

 Cycle  16  Pass 1  IDiag  1:
 E= -474.384017615151     Delta-E=       -0.000000010483 Rises=F Damp=F
 DIIS: error= 4.20D-06 at cycle  16 NSaved=  16.
 NSaved=16 IEnMin=16 EnMin= -474.384017615151     IErMin=16 ErrMin= 4.20D-06
 ErrMax= 4.20D-06  0.00D+00 EMaxC= 1.00D-01 BMatC= 2.48D-09 BMatP= 7.21D-09
 IDIUse=1 WtCom= 1.00D+00 WtEn= 0.00D+00
 Coeff-Com: -0.572D-06 0.186D-05-0.381D-05-0.151D-05 0.208D-06 0.686D-04
 Coeff-Com: -0.132D-03 0.146D-02-0.791D-03-0.553D-01 0.835D-01 0.419D-01
 Coeff-Com: -0.246D+00-0.161D+00 0.175D+01-0.410D+00
 Coeff:     -0.572D-06 0.186D-05-0.381D-05-0.151D-05 0.208D-06 0.686D-04
 Coeff:     -0.132D-03 0.146D-02-0.791D-03-0.553D-01 0.835D-01 0.419D-01
 Coeff:     -0.246D+00-0.161D+00 0.175D+01-0.410D+00
 Gap=     0.126 Goal=   None    Shift=    0.000
 Gap=     0.126 Goal=   None    Shift=    0.000
 RMSDP=6.02D-07 MaxDP=1.75D-05 DE=-1.05D-08 OVMax= 4.97D-05

 Cycle  17  Pass 1  IDiag  1:
 E= -474.384017611820     Delta-E=        0.000000003331 Rises=F Damp=F
 DIIS: error= 3.84D-06 at cycle  17 NSaved=  17.
 NSaved=17 IEnMin=16 EnMin= -474.384017615151     IErMin=17 ErrMin= 3.84D-06
 ErrMax= 3.84D-06  0.00D+00 EMaxC= 1.00D-01 BMatC= 1.43D-09 BMatP= 2.48D-09
 IDIUse=1 WtCom= 1.00D+00 WtEn= 0.00D+00
 Coeff-Com: -0.199D-05 0.473D-05-0.369D-06-0.795D-05 0.155D-03-0.303D-03
 Coeff-Com: -0.342D-03 0.451D-02 0.158D-01-0.530D-01-0.130D-01 0.876D-01
 Coeff-Com:  0.369D-01-0.494D+00-0.870D+00-0.179D+01 0.407D+01
 Coeff:     -0.199D-05 0.473D-05-0.369D-06-0.795D-05 0.155D-03-0.303D-03
 Coeff:     -0.342D-03 0.451D-02 0.158D-01-0.530D-01-0.130D-01 0.876D-01
 Coeff:      0.369D-01-0.494D+00-0.870D+00-0.179D+01 0.407D+01
 Gap=     0.126 Goal=   None    Shift=    0.000
 Gap=     0.126 Goal=   None    Shift=    0.000
 RMSDP=2.14D-06 MaxDP=3.39D-05 DE= 3.33D-09 OVMax= 1.71D-04

 Cycle  18  Pass 1  IDiag  1:
 E= -474.384017617667     Delta-E=       -0.000000005847 Rises=F Damp=F
 DIIS: error= 4.27D-06 at cycle  18 NSaved=  18.
 NSaved=18 IEnMin=18 EnMin= -474.384017617667     IErMin=17 ErrMin= 3.84D-06
 ErrMax= 4.27D-06  0.00D+00 EMaxC= 1.00D-01 BMatC= 3.90D-09 BMatP= 1.43D-09
 IDIUse=1 WtCom= 1.00D+00 WtEn= 0.00D+00
 Coeff-Com:  0.435D-06 0.411D-05-0.141D-06-0.288D-05 0.798D-04-0.180D-03
 Coeff-Com: -0.385D-04 0.526D-04 0.253D-02 0.291D-01-0.422D-01-0.439D-01
 Coeff-Com:  0.153D+00 0.149D+00-0.113D+01 0.755D+00-0.104D+01 0.217D+01
 Coeff:      0.435D-06 0.411D-05-0.141D-06-0.288D-05 0.798D-04-0.180D-03
 Coeff:     -0.385D-04 0.526D-04 0.253D-02 0.291D-01-0.422D-01-0.439D-01
 Coeff:      0.153D+00 0.149D+00-0.113D+01 0.755D+00-0.104D+01 0.217D+01
 Gap=     0.126 Goal=   None    Shift=    0.000
 Gap=     0.126 Goal=   None    Shift=    0.000
 RMSDP=3.45D-06 MaxDP=5.54D-05 DE=-5.85D-09 OVMax= 2.75D-04

 Cycle  19  Pass 1  IDiag  1:
 E= -474.384017626015     Delta-E=       -0.000000008348 Rises=F Damp=F
 DIIS: error= 2.57D-06 at cycle  19 NSaved=  19.
 NSaved=19 IEnMin=19 EnMin= -474.384017626015     IErMin=19 ErrMin= 2.57D-06
 ErrMax= 2.57D-06  0.00D+00 EMaxC= 1.00D-01 BMatC= 1.39D-09 BMatP= 1.43D-09
 IDIUse=1 WtCom= 1.00D+00 WtEn= 0.00D+00
 Coeff-Com:  0.201D-06-0.165D-05 0.166D-06 0.818D-06-0.599D-05 0.772D-05
 Coeff-Com: -0.433D-04-0.278D-04-0.299D-02-0.117D-01 0.263D-01 0.356D-02
 Coeff-Com: -0.809D-01 0.620D-01 0.830D+00 0.712D+00-0.187D+01-0.298D+00
 Coeff-Com:  0.163D+01
 Coeff:      0.201D-06-0.165D-05 0.166D-06 0.818D-06-0.599D-05 0.772D-05
 Coeff:     -0.433D-04-0.278D-04-0.299D-02-0.117D-01 0.263D-01 0.356D-02
 Coeff:     -0.809D-01 0.620D-01 0.830D+00 0.712D+00-0.187D+01-0.298D+00
 Coeff:      0.163D+01
 Gap=     0.126 Goal=   None    Shift=    0.000
 Gap=     0.126 Goal=   None    Shift=    0.000
 RMSDP=2.30D-06 MaxDP=3.61D-05 DE=-8.35D-09 OVMax= 1.78D-04

 Cycle  20  Pass 1  IDiag  1:
 E= -474.384017627957     Delta-E=       -0.000000001941 Rises=F Damp=F
 DIIS: error= 1.67D-07 at cycle  20 NSaved=  20.
 NSaved=20 IEnMin=20 EnMin= -474.384017627957     IErMin=20 ErrMin= 1.67D-07
 ErrMax= 1.67D-07  0.00D+00 EMaxC= 1.00D-01 BMatC= 3.86D-12 BMatP= 1.39D-09
 IDIUse=1 WtCom= 1.00D+00 WtEn= 0.00D+00
 Coeff-Com:  0.264D-07-0.158D-06 0.106D-05 0.734D-06-0.103D-04 0.835D-05
 Coeff-Com:  0.540D-04-0.235D-03-0.266D-03 0.376D-02-0.396D-02-0.368D-03
 Coeff-Com:  0.884D-02-0.114D-01-0.103D+00-0.172D+00 0.407D+00-0.574D-01
 Coeff-Com: -0.322D+00 0.125D+01
 Coeff:      0.264D-07-0.158D-06 0.106D-05 0.734D-06-0.103D-04 0.835D-05
 Coeff:      0.540D-04-0.235D-03-0.266D-03 0.376D-02-0.396D-02-0.368D-03
 Coeff:      0.884D-02-0.114D-01-0.103D+00-0.172D+00 0.407D+00-0.574D-01
 Coeff:     -0.322D+00 0.125D+01
 Gap=     0.126 Goal=   None    Shift=    0.000
 Gap=     0.126 Goal=   None    Shift=    0.000
 RMSDP=1.32D-07 MaxDP=2.59D-06 DE=-1.94D-09 OVMax= 1.29D-05

 Cycle  21  Pass 1  IDiag  1:
 E= -474.384017627969     Delta-E=       -0.000000000013 Rises=F Damp=F
 DIIS: error= 1.53D-07 at cycle  21 NSaved=  20.
 NSaved=20 IEnMin=20 EnMin= -474.384017627969     IErMin=20 ErrMin= 1.53D-07
 ErrMax= 1.53D-07  0.00D+00 EMaxC= 1.00D-01 BMatC= 7.43D-12 BMatP= 3.86D-12
 IDIUse=1 WtCom= 1.00D+00 WtEn= 0.00D+00
 Coeff-Com: -0.345D-07 0.103D-06-0.236D-06-0.175D-05 0.521D-05 0.985D-05
 Coeff-Com: -0.456D-04-0.917D-04 0.221D-02-0.299D-02-0.656D-03 0.714D-02
 Coeff-Com: -0.155D-02-0.679D-01-0.519D-01 0.142D+00 0.156D-01-0.111D+00
 Coeff-Com:  0.767D-01 0.993D+00
 Coeff:     -0.345D-07 0.103D-06-0.236D-06-0.175D-05 0.521D-05 0.985D-05
 Coeff:     -0.456D-04-0.917D-04 0.221D-02-0.299D-02-0.656D-03 0.714D-02
 Coeff:     -0.155D-02-0.679D-01-0.519D-01 0.142D+00 0.156D-01-0.111D+00
 Coeff:      0.767D-01 0.993D+00
 Gap=     0.126 Goal=   None    Shift=    0.000
 Gap=     0.126 Goal=   None    Shift=    0.000
 RMSDP=3.91D-08 MaxDP=5.84D-07 DE=-1.27D-11 OVMax= 2.99D-06

 Cycle  22  Pass 1  IDiag  1:
 E= -474.384017627976     Delta-E=       -0.000000000007 Rises=F Damp=F
 DIIS: error= 1.61D-07 at cycle  22 NSaved=  20.
 NSaved=20 IEnMin=20 EnMin= -474.384017627976     IErMin=19 ErrMin= 1.53D-07
 ErrMax= 1.61D-07  0.00D+00 EMaxC= 1.00D-01 BMatC= 2.09D-12 BMatP= 3.86D-12
 IDIUse=1 WtCom= 1.00D+00 WtEn= 0.00D+00
 Coeff-Com:  0.132D-06-0.599D-06-0.326D-05 0.106D-04 0.210D-04-0.745D-04
 Coeff-Com: -0.146D-03 0.511D-02-0.711D-02-0.172D-02 0.174D-01-0.427D-02
 Coeff-Com: -0.157D+00-0.114D+00 0.315D+00 0.436D-01-0.250D+00 0.863D-01
 Coeff-Com:  0.244D+01-0.137D+01
 Coeff:      0.132D-06-0.599D-06-0.326D-05 0.106D-04 0.210D-04-0.745D-04
 Coeff:     -0.146D-03 0.511D-02-0.711D-02-0.172D-02 0.174D-01-0.427D-02
 Coeff:     -0.157D+00-0.114D+00 0.315D+00 0.436D-01-0.250D+00 0.863D-01
 Coeff:      0.244D+01-0.137D+01
 Gap=     0.126 Goal=   None    Shift=    0.000
 Gap=     0.126 Goal=   None    Shift=    0.000
 RMSDP=4.75D-08 MaxDP=6.98D-07 DE=-6.88D-12 OVMax= 3.50D-06

 Cycle  23  Pass 1  IDiag  1:
 E= -474.384017627968     Delta-E=        0.000000000008 Rises=F Damp=F
 DIIS: error= 1.28D-07 at cycle  23 NSaved=  20.
 NSaved=20 IEnMin=19 EnMin= -474.384017627976     IErMin=20 ErrMin= 1.28D-07
 ErrMax= 1.28D-07  0.00D+00 EMaxC= 1.00D-01 BMatC= 2.75D-12 BMatP= 2.09D-12
 IDIUse=1 WtCom= 1.00D+00 WtEn= 0.00D+00
 Coeff-Com:  0.248D-07-0.680D-06 0.115D-05-0.119D-04 0.267D-05-0.206D-03
 Coeff-Com: -0.350D-03 0.120D-02-0.146D-02-0.187D-02 0.153D-01 0.146D-01
 Coeff-Com:  0.685D-01-0.149D+00 0.391D-01 0.992D-01-0.582D+00 0.200D+00
 Coeff-Com: -0.278D+01 0.408D+01
 Coeff:      0.248D-07-0.680D-06 0.115D-05-0.119D-04 0.267D-05-0.206D-03
 Coeff:     -0.350D-03 0.120D-02-0.146D-02-0.187D-02 0.153D-01 0.146D-01
 Coeff:      0.685D-01-0.149D+00 0.391D-01 0.992D-01-0.582D+00 0.200D+00
 Coeff:     -0.278D+01 0.408D+01
 Gap=     0.126 Goal=   None    Shift=    0.000
 Gap=     0.126 Goal=   None    Shift=    0.000
 RMSDP=1.21D-07 MaxDP=1.84D-06 DE= 8.07D-12 OVMax= 9.21D-06

 Cycle  24  Pass 1  IDiag  1:
 E= -474.384017627960     Delta-E=        0.000000000008 Rises=F Damp=F
 DIIS: error= 3.65D-08 at cycle  24 NSaved=  20.
 NSaved=20 IEnMin=18 EnMin= -474.384017627976     IErMin=20 ErrMin= 3.65D-08
 ErrMax= 3.65D-08  0.00D+00 EMaxC= 1.00D-01 BMatC= 3.38D-13 BMatP= 2.09D-12
 IDIUse=1 WtCom= 1.00D+00 WtEn= 0.00D+00
 Large coefficients: NSaved= 20 BigCof=    0.00 CofMax=   10.00 Det=-9.33D-15
 Inversion failed.  Reducing to 19 matrices.
 Large coefficients: NSaved= 19 BigCof=    0.00 CofMax=   10.00 Det=-9.34D-15
 Inversion failed.  Reducing to 18 matrices.
 Large coefficients: NSaved= 18 BigCof=    0.00 CofMax=   10.00 Det=-9.35D-15
 Inversion failed.  Reducing to 17 matrices.
 Coeff-Com:  0.100D-04 0.838D-05-0.770D-03 0.111D-02 0.168D-03-0.273D-02
 Coeff-Com:  0.215D-02 0.192D-01 0.223D-01-0.556D-01 0.732D-03 0.432D-01
 Coeff-Com: -0.674D-01-0.142D+00-0.168D+00 0.277D+00 0.107D+01
 Coeff:      0.100D-04 0.838D-05-0.770D-03 0.111D-02 0.168D-03-0.273D-02
 Coeff:      0.215D-02 0.192D-01 0.223D-01-0.556D-01 0.732D-03 0.432D-01
 Coeff:     -0.674D-01-0.142D+00-0.168D+00 0.277D+00 0.107D+01
 Gap=     0.126 Goal=   None    Shift=    0.000
 Gap=     0.126 Goal=   None    Shift=    0.000
 RMSDP=2.10D-08 MaxDP=2.91D-07 DE= 8.41D-12 OVMax= 1.43D-06

 Cycle  25  Pass 1  IDiag  1:
 E= -474.384017627960     Delta-E=       -0.000000000000 Rises=F Damp=F
 DIIS: error= 2.00D-08 at cycle  25 NSaved=  18.
 NSaved=18 IEnMin=15 EnMin= -474.384017627976     IErMin=18 ErrMin= 2.00D-08
 ErrMax= 2.00D-08  0.00D+00 EMaxC= 1.00D-01 BMatC= 3.77D-14 BMatP= 3.38D-13
 IDIUse=1 WtCom= 1.00D+00 WtEn= 0.00D+00
 Large coefficients: NSaved= 18 BigCof=    0.00 CofMax=   10.00 Det=-5.98D-15
 Inversion failed.  Reducing to 17 matrices.
 Large coefficients: NSaved= 17 BigCof=    0.00 CofMax=   10.00 Det=-6.04D-15
 Inversion failed.  Reducing to 16 matrices.
 Large coefficients: NSaved= 16 BigCof=    0.00 CofMax=   10.00 Det=-6.05D-15
 Inversion failed.  Reducing to 15 matrices.
 Coeff-Com: -0.611D-05-0.266D-04 0.497D-04 0.224D-03-0.532D-03 0.215D-02
 Coeff-Com: -0.406D-02 0.175D-02 0.376D-02-0.116D-01 0.342D-02-0.961D-02
 Coeff-Com: -0.233D-01 0.296D+00 0.742D+00
 Coeff:     -0.611D-05-0.266D-04 0.497D-04 0.224D-03-0.532D-03 0.215D-02
 Coeff:     -0.406D-02 0.175D-02 0.376D-02-0.116D-01 0.342D-02-0.961D-02
 Coeff:     -0.233D-01 0.296D+00 0.742D+00
 Gap=     0.126 Goal=   None    Shift=    0.000
 Gap=     0.126 Goal=   None    Shift=    0.000
 RMSDP=4.65D-09 MaxDP=8.23D-08 DE=-2.27D-13 OVMax= 3.64D-07

 SCF Done:  E(UM062X) =  -474.384017628     A.U. after   25 cycles
            NFock= 25  Conv=0.46D-08     -V/T= 2.0017
 <Sx>= 0.0000 <Sy>= 0.0000 <Sz>= 0.0000 <S**2>= 0.0000 S= 0.0000
 <L.S>=  0.00000000000    
 KE= 4.735658473716D+02 PE=-1.197123115681D+03 EE= 2.142463882014D+02
 Annihilation of the first spin contaminant:
 S**2 before annihilation     0.0000,   after    -0.0000
 Leave Link  502 at Tue Apr 22 05:20:58 2025, MaxMem=   536870912 cpu:             112.3 elap:              14.4
 (Enter /home/szhao/Apps/g16/l601.exe)
 Copying SCF densities to generalized density rwf, IOpCl= 1 IROHF=0.

 **********************************************************************

            Population analysis using the SCF density.

 **********************************************************************

 Alpha  occ. eigenvalues --  -89.97828 -19.67255  -8.33983  -6.26197  -6.25826
 Alpha  occ. eigenvalues --   -6.25260  -1.08450  -0.83899  -0.52521  -0.49719
 Alpha  occ. eigenvalues --   -0.39744  -0.35715  -0.34562
 Alpha virt. eigenvalues --   -0.21912   0.01687   0.04052   0.04630   0.05498
 Alpha virt. eigenvalues --    0.06989   0.13656   0.19329   0.19846   0.21348
 Alpha virt. eigenvalues --    0.25194   0.30891   0.33935   0.34567   0.39474
 Alpha virt. eigenvalues --    0.53649   0.58907   0.70139   0.71490   0.78672
 Alpha virt. eigenvalues --    0.80444   0.97223   1.04066   1.08167   1.09646
 Alpha virt. eigenvalues --    1.37127   1.39312   1.39917   1.46304   1.47710
 Alpha virt. eigenvalues --    1.64003   1.66248   1.67843   2.06021   2.09895
 Alpha virt. eigenvalues --    2.47911   2.53322   2.88276   2.88791   3.16638
 Alpha virt. eigenvalues --    3.18867   3.84394   5.03565   5.04525   5.51509
 Alpha virt. eigenvalues --    7.81822  17.40603  17.42127  17.45558  49.87168
 Alpha virt. eigenvalues --  189.07880
  Beta  occ. eigenvalues --  -89.97828 -19.67255  -8.33983  -6.26197  -6.25826
  Beta  occ. eigenvalues --   -6.25260  -1.08450  -0.83899  -0.52521  -0.49719
  Beta  occ. eigenvalues --   -0.39744  -0.35715  -0.34562
  Beta virt. eigenvalues --   -0.21912   0.01687   0.04052   0.04630   0.05498
  Beta virt. eigenvalues --    0.06989   0.13656   0.19329   0.19846   0.21348
  Beta virt. eigenvalues --    0.25194   0.30891   0.33935   0.34567   0.39474
  Beta virt. eigenvalues --    0.53649   0.58907   0.70139   0.71490   0.78672
  Beta virt. eigenvalues --    0.80444   0.97223   1.04066   1.08167   1.09646
  Beta virt. eigenvalues --    1.37127   1.39312   1.39917   1.46304   1.47710
  Beta virt. eigenvalues --    1.64003   1.66248   1.67843   2.06021   2.09895
  Beta virt. eigenvalues --    2.47911   2.53322   2.88276   2.88791   3.16638
  Beta virt. eigenvalues --    3.18867   3.84394   5.03565   5.04525   5.51509
  Beta virt. eigenvalues --    7.81822  17.40603  17.42127  17.45558  49.87168
  Beta virt. eigenvalues --  189.07880
          Condensed to atoms (all electrons):
               1          2          3          4
     1  O    8.069799   0.082739   0.254890  -0.002053
     2  S    0.082739  15.603203   0.000530   0.266158
     3  H    0.254890   0.000530   0.496380   0.000090
     4  H   -0.002053   0.266158   0.000090   0.625910
          Atomic-Atomic Spin Densities.
               1          2          3          4
     1  O   -0.000000  -0.000000   0.000000   0.000000
     2  S   -0.000000   0.000000  -0.000000   0.000000
     3  H    0.000000  -0.000000   0.000000  -0.000000
     4  H    0.000000   0.000000  -0.000000  -0.000000
 Mulliken charges and spin densities:
               1          2
     1  O   -0.405375  -0.000000
     2  S    0.047370   0.000000
     3  H    0.248109   0.000000
     4  H    0.109896  -0.000000
 Sum of Mulliken charges =  -0.00000   0.00000
 Mulliken charges and spin densities with hydrogens summed into heavy atoms:
               1          2
     1  O   -0.157266  -0.000000
     2  S    0.157266   0.000000
 Electronic spatial extent (au):  <R**2>=            305.3742
 Charge=             -0.0000 electrons
 Dipole moment (field-independent basis, Debye):
    X=              2.1762    Y=             -0.9470    Z=             -0.7870  Tot=              2.5004
 Quadrupole moment (field-independent basis, Debye-Ang):
   XX=            -18.2221   YY=            -21.1359   ZZ=            -17.6925
   XY=             -0.7366   XZ=              4.5536   YZ=             -1.6678
 Traceless Quadrupole moment (field-independent basis, Debye-Ang):
   XX=              0.7947   YY=             -2.1190   ZZ=              1.3243
   XY=             -0.7366   XZ=              4.5536   YZ=             -1.6678
 Octapole moment (field-independent basis, Debye-Ang**2):
  XXX=            -25.7150  YYY=              1.0918  ZZZ=             -1.1704  XYY=            -11.1298
  XXY=             -2.1430  XXZ=             -3.0829  XZZ=            -13.6501  YZZ=             -0.4081
  YYZ=              0.3915  XYZ=             -3.6242
 Hexadecapole moment (field-independent basis, Debye-Ang**3):
 XXXX=           -322.9770 YYYY=            -29.3185 ZZZZ=            -27.4986 XXXY=             -0.5003
 XXXZ=              8.3868 YYYX=              0.9602 YYYZ=             -0.7783 ZZZX=             -0.0536
 ZZZY=             -0.9950 XXYY=            -65.9668 XXZZ=            -56.8531 YYZZ=             -9.2038
 XXYZ=             -4.0658 YYXZ=             -0.5896 ZZXY=             -0.0094
 N-N= 3.492686248007D+01 E-N=-1.197123115539D+03  KE= 4.735658473716D+02
                          Isotropic Fermi Contact Couplings
        Atom                 a.u.       MegaHertz       Gauss      10(-4) cm-1
     1  O(17)             -0.00000       0.00000       0.00000       0.00000
     2  S(33)             -0.00000      -0.00000      -0.00000      -0.00000
     3  H(1)               0.00000       0.00000       0.00000       0.00000
     4  H(1)              -0.00000      -0.00000      -0.00000      -0.00000
 --------------------------------------------------------
       Center         ----  Spin Dipole Couplings  ----
                      3XX-RR        3YY-RR        3ZZ-RR
 --------------------------------------------------------
     1   Atom       -0.000001      0.000001      0.000000
     2   Atom        0.000001     -0.000007      0.000006
     3   Atom       -0.000000      0.000000     -0.000000
     4   Atom        0.000000     -0.000000      0.000000
 --------------------------------------------------------
                        XY            XZ            YZ
 --------------------------------------------------------
     1   Atom        0.000009     -0.000002     -0.000000
     2   Atom        0.000023      0.000018      0.000001
     3   Atom        0.000000      0.000000      0.000000
     4   Atom        0.000000      0.000000      0.000000
 --------------------------------------------------------


 ---------------------------------------------------------------------------------
              Anisotropic Spin Dipole Couplings in Principal Axis System
 ---------------------------------------------------------------------------------

       Atom             a.u.   MegaHertz   Gauss  10(-4) cm-1        Axes

              Baa    -0.0000     0.001     0.000     0.000  0.7321 -0.6713  0.1154
     1 O(17)  Bbb     0.0000    -0.000    -0.000    -0.000  0.0106  0.1805  0.9835
              Bcc     0.0000    -0.001    -0.000    -0.000  0.6811  0.7188 -0.1393
 
              Baa    -0.0000    -0.001    -0.000    -0.000  0.6760 -0.6581 -0.3317
     2 S(33)  Bbb    -0.0000    -0.000    -0.000    -0.000 -0.2088 -0.6027  0.7702
              Bcc     0.0000     0.001     0.000     0.000  0.7067  0.4514  0.5448
 
              Baa    -0.0000    -0.000    -0.000    -0.000  0.7325 -0.6778  0.0640
     3 H(1)   Bbb    -0.0000    -0.000    -0.000    -0.000 -0.0845  0.0028  0.9964
              Bcc     0.0000     0.000     0.000     0.000  0.6755  0.7353  0.0552
 
              Baa    -0.0000    -0.000    -0.000    -0.000 -0.6395  0.7317  0.2361
     4 H(1)   Bbb     0.0000     0.000     0.000     0.000 -0.3527 -0.5521  0.7555
              Bcc     0.0000     0.000     0.000     0.000  0.6831  0.3999  0.6111
 

 ---------------------------------------------------------------------------------

 No NMR shielding tensors so no spin-rotation constants.
 Leave Link  601 at Tue Apr 22 05:20:58 2025, MaxMem=   536870912 cpu:               2.0 elap:               0.3
 (Enter /home/szhao/Apps/g16/l701.exe)
 ... and contract with generalized density number  0.
 Compute integral first derivatives.
 Leave Link  701 at Tue Apr 22 05:20:58 2025, MaxMem=   536870912 cpu:               1.1 elap:               0.1
 (Enter /home/szhao/Apps/g16/l702.exe)
 L702 exits ... SP integral derivatives will be done elsewhere.
 Leave Link  702 at Tue Apr 22 05:20:58 2025, MaxMem=   536870912 cpu:               0.3 elap:               0.0
 (Enter /home/szhao/Apps/g16/l703.exe)
 Integral derivatives from FoFJK, PRISM(SPDF).
 Compute integral first derivatives, UseDBF=F ICtDFT=           0.
 Calling FoFJK, ICntrl=      2127 FMM=F ISym2X=0 I1Cent= 0 IOpClX= 1 NMat=1 NMatS=1 NMatT=0.
 FoFJK:  IHMeth= 1 ICntrl=    2127 DoSepK=F KAlg= 0 I1Cent=           0 FoldK=F
 IRaf=         0 NMat=       1 IRICut=       1 DoRegI=T DoRafI=F ISym2E= 0 IDoP0=0 IntGTp=1.
 FoFCou: FMM=F IPFlag=           0 FMFlag=      100000 FMFlg1=         800
         NFxFlg=           0 DoJE=F BraDBF=F KetDBF=F FulRan=T
         wScrn=  0.000000 ICntrl=      2127 IOpCl=  1 I1Cent=           0 NGrid=           0
         NMat0=    1 NMatS0=      1 NMatT0=    0 NMatD0=    1 NMtDS0=    0 NMtDT0=    0
 Symmetry not used in FoFCou.
 Leave Link  703 at Tue Apr 22 05:20:59 2025, MaxMem=   536870912 cpu:               9.3 elap:               1.2
 (Enter /home/szhao/Apps/g16/l716.exe)
 Dipole        = 8.56179957D-01-3.72594533D-01-3.09618179D-01
 -------------------------------------------------------------------
 Center     Atomic                   Forces (Hartrees/Bohr)
 Number     Number              X              Y              Z
 -------------------------------------------------------------------
      1        8          -0.000000000   -0.000000000   -0.000000000
      2       16          -0.000000000   -0.000000000   -0.000000000
      3        1           0.000639062    0.000028018   -0.000635912
      4        1          -0.000411100   -0.002254194    0.003100976
 -------------------------------------------------------------------
 Cartesian Forces:  Max     0.003100976 RMS     0.001143096
 Leave Link  716 at Tue Apr 22 05:20:59 2025, MaxMem=   536870912 cpu:               0.4 elap:               0.1
 (Enter /home/szhao/Apps/g16/l103.exe)

 GradGradGradGradGradGradGradGradGradGradGradGradGradGradGradGradGradGrad
 Berny optimization.
 FormGI is forming the generalized inverse of G from B-inverse, IUseBI=4.
 Internal  Forces:  Max     0.003740409 RMS     0.001616801
 Search for a local minimum.
 Step number   1 out of a maximum of   22
 All quantities printed in internal units (Hartrees-Bohrs-Radians)
 RMS Force = .16371D-02 SwitMx=.10000D-02 MixMth= 1
 Mixed Optimization -- RFO/linear search
 Second derivative matrix not updated -- first step.
 The second derivative matrix:
                          X1        Y1        Z1        X2        Y2
           X1           0.50000
           Y1           0.00000   0.50000
           Z1           0.00000   0.00000   0.50000
           X2           0.00000   0.00000   0.00000   0.50000
           Y2           0.00000   0.00000   0.00000   0.00000   0.50000
           Z2           0.00000   0.00000   0.00000   0.00000   0.00000
           R1           0.00000   0.00000   0.00000   0.00000   0.00000
           R2           0.00000   0.00000   0.00000   0.00000   0.00000
           R3           0.00000   0.00000   0.00000   0.00000   0.00000
           R4           0.00000   0.00000   0.00000   0.00000   0.00000
           A1           0.00000   0.00000   0.00000   0.00000   0.00000
           A2           0.00000   0.00000   0.00000   0.00000   0.00000
                          Z2        R1        R2        R3        R4
           Z2           0.50000
           R1           0.00000   0.53463
           R2           0.00000   0.00000   0.00830
           R3           0.00000   0.00000   0.00000   0.00841
           R4           0.00000   0.00000   0.00000   0.00000   0.26448
           A1           0.00000   0.00000   0.00000   0.00000   0.00000
           A2           0.00000   0.00000   0.00000   0.00000   0.00000
                          A1        A2
           A1           0.16000
           A2           0.00000   0.16000
 ITU=  0
     Eigenvalues ---    0.00836   0.03591   0.16000   0.26291   0.52415
     Eigenvalues --- 1000.000001000.000001000.000001000.000001000.00000
     Eigenvalues --- 1000.000001000.00000
 RFO step:  Lambda=-1.10108815D-04 EMin= 8.35709051D-03
 Linear search not attempted -- first point.
 Iteration  1 RMS(Cart)=  0.05469046 RMS(Int)=  0.00282388
 Iteration  2 RMS(Cart)=  0.00387852 RMS(Int)=  0.00001469
 Iteration  3 RMS(Cart)=  0.00000857 RMS(Int)=  0.00001215
 Iteration  4 RMS(Cart)=  0.00000000 RMS(Int)=  0.00001215
 ITry= 1 IFail=0 DXMaxC= 1.83D-01 DCOld= 1.00D+10 DXMaxT= 3.00D-01 DXLimC= 3.00D+00 Rises=F
 Variable       Old X    -DE/DX   Delta X   Delta X   Delta X     New X
                                 (Linear)    (Quad)   (Total)
    X1       -3.13884  -0.00011   0.00000   0.00000   0.00000  -3.13884
    Y1       -0.00026  -0.00006   0.00000   0.00000   0.00000  -0.00026
    Z1       -0.00017  -0.00071   0.00000   0.00000   0.00000  -0.00017
    X2        3.13887   0.00033   0.00000   0.00000   0.00000   3.13887
    Y2        0.00036  -0.00217   0.00000   0.00000   0.00000   0.00036
    Z2        0.00031   0.00316   0.00000   0.00000   0.00000   0.00031
    R1        1.83224   0.00085   0.00000   0.00114   0.00115   1.83339
    R2        6.28666   0.00021   0.00000  -0.02797  -0.02796   6.25870
    R3        6.56673  -0.00094   0.00000  -0.06006  -0.06007   6.50665
    R4        2.53163   0.00374   0.00000   0.01477   0.01476   2.54640
    A1        1.86892   0.00051   0.00000  -0.00132  -0.00130   1.86761
    A2        1.57424   0.00041   0.00000   0.00938   0.00935   1.58359
         Item               Value     Threshold  Converged?
 Maximum Force            0.003740     0.000450     NO 
 RMS     Force            0.001637     0.000300     NO 
 Maximum Displacement     0.182876     0.001800     NO 
 RMS     Displacement     0.057036     0.001200     NO 
 Predicted change in Energy=-5.537637D-05
 Lowest energy point so far.  Saving SCF results.
 GradGradGradGradGradGradGradGradGradGradGradGradGradGradGradGradGradGrad

 Leave Link  103 at Tue Apr 22 05:20:59 2025, MaxMem=   536870912 cpu:               0.1 elap:               0.0
 (Enter /home/szhao/Apps/g16/l202.exe)
                          Input orientation:                          
 ---------------------------------------------------------------------
 Center     Atomic      Atomic             Coordinates (Angstroms)
 Number     Number       Type             X           Y           Z
 ---------------------------------------------------------------------
      1          8           0       -1.661005   -0.000137   -0.000090
      2         16           0        1.661016    0.000190    0.000166
      3          1           0       -1.642619   -0.024258   -0.969802
      4          1           0        1.377680   -0.800131    1.046566
 ---------------------------------------------------------------------
                    Distance matrix (angstroms):
                    1          2          3          4
     1  O    0.000000
     2  S    3.322021   0.000000
     3  H    0.970186   3.443173   0.000000
     4  H    3.311961   1.347496   3.713479   0.000000
 Symmetry turned off by external request.
 Stoichiometry    H2OS
 Framework group  C1[X(H2OS)]
 Deg. of freedom     6
 Full point group                 C1      NOp   1
 Rotational constants (GHZ):         194.0209605           4.0922760           4.0239680
 Leave Link  202 at Tue Apr 22 05:21:00 2025, MaxMem=   536870912 cpu:               0.0 elap:               0.0
 (Enter /home/szhao/Apps/g16/l301.exe)
 Standard basis: 6-311+G(d,p) (5D, 7F)
 Ernie: Thresh=  0.10000D-02 Tol=  0.10000D-05 Strict=F.
    64 basis functions,   102 primitive gaussians,    66 cartesian basis functions
    13 alpha electrons       13 beta electrons
       nuclear repulsion energy        34.9162394785 Hartrees.
 IExCor= 4336 DFT=T Ex+Corr=M062X ExCW=0 ScaHFX=  0.540000
 ScaDFX=  1.000000  1.000000  1.000000  1.000000 ScalE2=  1.000000  1.000000
 IRadAn=      7 IRanWt=     -1 IRanGd=            0 ICorTp=0 IEmpDi=  4
 NAtoms=    4 NActive=    4 NUniq=    4 SFac= 1.00D+00 NAtFMM=   60 NAOKFM=F Big=F
 Integral buffers will be    131072 words long.
 Raffenetti 2 integral format.
 Two-electron integral symmetry is turned off.
 Leave Link  301 at Tue Apr 22 05:21:00 2025, MaxMem=   536870912 cpu:               0.5 elap:               0.1
 (Enter /home/szhao/Apps/g16/l302.exe)
 NPDir=0 NMtPBC=     1 NCelOv=     1 NCel=       1 NClECP=     1 NCelD=      1
         NCelK=      1 NCelE2=     1 NClLst=     1 CellRange=     0.0.
 One-electron integrals computed using PRISM.
 NBasis=    64 RedAO= T EigKep=  6.14D-03  NBF=    64
 NBsUse=    64 1.00D-06 EigRej= -1.00D+00 NBFU=    64
 Precomputing XC quadrature grid using
 IXCGrd= 4 IRadAn=           7 IRanWt=          -1 IRanGd=           0 AccXCQ= 0.00D+00.
 Generated NRdTot=       0 NPtTot=           0 NUsed=           0 NTot=          32
 NSgBfM=    66    66    66    66    66 MxSgAt=     4 MxSgA2=     4.
 Leave Link  302 at Tue Apr 22 05:21:00 2025, MaxMem=   536870912 cpu:               1.5 elap:               0.2
 (Enter /home/szhao/Apps/g16/l303.exe)
 DipDrv:  MaxL=1.
 Leave Link  303 at Tue Apr 22 05:21:00 2025, MaxMem=   536870912 cpu:               0.4 elap:               0.1
 (Enter /home/szhao/Apps/g16/l401.exe)
 Initial guess from the checkpoint file:  "opt.chk"
 B after Tr=     0.001254    0.009292    0.000779
         Rot=    0.999887   -0.015005    0.000677    0.000976 Ang=  -1.72 deg.
 Guess basis will be translated and rotated to current coordinates.
 JPrj=2 DoOrth=T DoCkMO=T.
 Initial guess <Sx>= 0.0000 <Sy>= 0.0000 <Sz>= 0.0000 <S**2>= 0.0000 S= 0.0000
 Generating alternative initial guess.
 ExpMin= 4.05D-02 ExpMax= 9.34D+04 ExpMxC= 3.17D+03 IAcc=3 IRadAn=         5 AccDes= 0.00D+00
 Harris functional with IExCor= 1009 and IRadAn=       5 diagonalized for initial guess.
 HarFok:  IExCor= 1009 AccDes= 0.00D+00 IRadAn=         5 IDoV= 1 UseB2=F ITyADJ=14
 ICtDFT=  3500011 ScaDFX=  1.000000  1.000000  1.000000  1.000000
 FoFCou: FMM=F IPFlag=           0 FMFlag=      100000 FMFlg1=           0
         NFxFlg=           0 DoJE=T BraDBF=F KetDBF=T FulRan=T
         wScrn=  0.000000 ICntrl=       500 IOpCl=  0 I1Cent=   200000004 NGrid=           0
         NMat0=    1 NMatS0=      1 NMatT0=    0 NMatD0=    1 NMtDS0=    0 NMtDT0=    0
 Symmetry not used in FoFCou.
 Harris En= -474.277365089976    
 Leave Link  401 at Tue Apr 22 05:21:00 2025, MaxMem=   536870912 cpu:               2.1 elap:               0.3
 (Enter /home/szhao/Apps/g16/l502.exe)
 Keep R1 and R2 ints in memory in canonical form, NReq=11470680.
 FoFCou: FMM=F IPFlag=           0 FMFlag=           0 FMFlg1=           0
         NFxFlg=           0 DoJE=F BraDBF=F KetDBF=F FulRan=T
         wScrn=  0.000000 ICntrl=       600 IOpCl=  0 I1Cent=           0 NGrid=           0
         NMat0=    1 NMatS0=   2080 NMatT0=    0 NMatD0=    1 NMtDS0=    0 NMtDT0=    0
 Symmetry not used in FoFCou.
 Two-electron integral symmetry not used.
 UHF open shell SCF:
 Using DIIS extrapolation, IDIIS=  1040.
 NGot=   536870912 LenX=   532532574 LenY=   532527777
 Requested convergence on RMS density matrix=1.00D-08 within 200 cycles.
 Requested convergence on MAX density matrix=1.00D-06.
 Requested convergence on             energy=1.00D-06.
 No special actions if energy rises.

 Cycle   1  Pass 1  IDiag  1:
 E= -474.382970600929    
 DIIS: error= 4.11D-03 at cycle   1 NSaved=   1.
 NSaved= 1 IEnMin= 1 EnMin= -474.382970600929     IErMin= 1 ErrMin= 4.11D-03
 ErrMax= 4.11D-03  0.00D+00 EMaxC= 1.00D-01 BMatC= 2.95D-03 BMatP= 2.95D-03
 IDIUse=3 WtCom= 9.59D-01 WtEn= 4.11D-02
 Coeff-Com:  0.100D+01
 Coeff-En:   0.100D+01
 Coeff:      0.100D+01
 Gap=     0.533 Goal=   None    Shift=    0.000
 Gap=     0.533 Goal=   None    Shift=    0.000
 GapD=    0.533 DampG=2.000 DampE=1.000 DampFc=2.0000 IDamp=-1.
 RMSDP=4.69D-04 MaxDP=6.55D-03              OVMax= 1.25D-02

 Cycle   2  Pass 1  IDiag  1:
 E= -474.383996760178     Delta-E=       -0.001026159249 Rises=F Damp=F
 DIIS: error= 5.59D-04 at cycle   2 NSaved=   2.
 NSaved= 2 IEnMin= 2 EnMin= -474.383996760178     IErMin= 2 ErrMin= 5.59D-04
 ErrMax= 5.59D-04  0.00D+00 EMaxC= 1.00D-01 BMatC= 1.17D-04 BMatP= 2.95D-03
 IDIUse=3 WtCom= 9.94D-01 WtEn= 5.59D-03
 Coeff-Com: -0.131D+00 0.113D+01
 Coeff-En:   0.000D+00 0.100D+01
 Coeff:     -0.130D+00 0.113D+01
 Gap=     0.127 Goal=   None    Shift=    0.000
 Gap=     0.127 Goal=   None    Shift=    0.000
 RMSDP=1.79D-04 MaxDP=3.09D-03 DE=-1.03D-03 OVMax= 8.96D-03

 Cycle   3  Pass 1  IDiag  1:
 E= -474.383947999772     Delta-E=        0.000048760406 Rises=F Damp=F
 DIIS: error= 1.23D-03 at cycle   3 NSaved=   3.
 NSaved= 3 IEnMin= 2 EnMin= -474.383996760178     IErMin= 2 ErrMin= 5.59D-04
 ErrMax= 1.23D-03  0.00D+00 EMaxC= 1.00D-01 BMatC= 4.27D-04 BMatP= 1.17D-04
 IDIUse=3 WtCom= 2.22D-01 WtEn= 7.78D-01
 Coeff-Com: -0.113D+00 0.863D+00 0.251D+00
 Coeff-En:   0.000D+00 0.717D+00 0.283D+00
 Coeff:     -0.252D-01 0.749D+00 0.276D+00
 Gap=     0.126 Goal=   None    Shift=    0.000
 Gap=     0.126 Goal=   None    Shift=    0.000
 RMSDP=1.66D-04 MaxDP=4.56D-03 DE= 4.88D-05 OVMax= 1.32D-02

 Cycle   4  Pass 1  IDiag  1:
 E= -474.384008136006     Delta-E=       -0.000060136233 Rises=F Damp=F
 DIIS: error= 7.80D-04 at cycle   4 NSaved=   4.
 NSaved= 4 IEnMin= 4 EnMin= -474.384008136006     IErMin= 2 ErrMin= 5.59D-04
 ErrMax= 7.80D-04  0.00D+00 EMaxC= 1.00D-01 BMatC= 1.94D-04 BMatP= 1.17D-04
 IDIUse=3 WtCom= 2.64D-01 WtEn= 7.36D-01
 Coeff-Com: -0.457D-02-0.962D-01 0.430D+00 0.671D+00
 Coeff-En:   0.000D+00 0.000D+00 0.386D+00 0.614D+00
 Coeff:     -0.121D-02-0.254D-01 0.397D+00 0.629D+00
 Gap=     0.127 Goal=   None    Shift=    0.000
 Gap=     0.127 Goal=   None    Shift=    0.000
 RMSDP=9.04D-05 MaxDP=2.27D-03 DE=-6.01D-05 OVMax= 6.49D-03

 Cycle   5  Pass 1  IDiag  1:
 E= -474.384062335175     Delta-E=       -0.000054199169 Rises=F Damp=F
 DIIS: error= 1.82D-04 at cycle   5 NSaved=   5.
 NSaved= 5 IEnMin= 5 EnMin= -474.384062335175     IErMin= 5 ErrMin= 1.82D-04
 ErrMax= 1.82D-04  0.00D+00 EMaxC= 1.00D-01 BMatC= 8.08D-06 BMatP= 1.17D-04
 IDIUse=3 WtCom= 9.98D-01 WtEn= 1.82D-03
 Coeff-Com:  0.968D-02-0.113D+00-0.608D-01 0.144D+00 0.102D+01
 Coeff-En:   0.000D+00 0.000D+00 0.000D+00 0.585D-01 0.941D+00
 Coeff:      0.967D-02-0.113D+00-0.607D-01 0.143D+00 0.102D+01
 Gap=     0.127 Goal=   None    Shift=    0.000
 Gap=     0.127 Goal=   None    Shift=    0.000
 RMSDP=2.45D-05 MaxDP=4.45D-04 DE=-5.42D-05 OVMax= 1.29D-03

 Cycle   6  Pass 1  IDiag  1:
 E= -474.384065309752     Delta-E=       -0.000002974577 Rises=F Damp=F
 DIIS: error= 1.98D-05 at cycle   6 NSaved=   6.
 NSaved= 6 IEnMin= 6 EnMin= -474.384065309752     IErMin= 6 ErrMin= 1.98D-05
 ErrMax= 1.98D-05  0.00D+00 EMaxC= 1.00D-01 BMatC= 1.27D-07 BMatP= 8.08D-06
 IDIUse=1 WtCom= 1.00D+00 WtEn= 0.00D+00
 Coeff-Com:  0.129D-02 0.175D-03-0.415D-01-0.696D-01 0.497D-01 0.106D+01
 Coeff:      0.129D-02 0.175D-03-0.415D-01-0.696D-01 0.497D-01 0.106D+01
 Gap=     0.127 Goal=   None    Shift=    0.000
 Gap=     0.127 Goal=   None    Shift=    0.000
 RMSDP=7.61D-06 MaxDP=7.63D-05 DE=-2.97D-06 OVMax= 3.88D-04

 Cycle   7  Pass 1  IDiag  1:
 E= -474.384065465293     Delta-E=       -0.000000155542 Rises=F Damp=F
 DIIS: error= 1.01D-05 at cycle   7 NSaved=   7.
 NSaved= 7 IEnMin= 7 EnMin= -474.384065465293     IErMin= 7 ErrMin= 1.01D-05
 ErrMax= 1.01D-05  0.00D+00 EMaxC= 1.00D-01 BMatC= 2.57D-08 BMatP= 1.27D-07
 IDIUse=1 WtCom= 1.00D+00 WtEn= 0.00D+00
 Coeff-Com: -0.128D-02 0.175D-01-0.298D-04-0.294D-01-0.135D+00 0.213D+00
 Coeff-Com:  0.936D+00
 Coeff:     -0.128D-02 0.175D-01-0.298D-04-0.294D-01-0.135D+00 0.213D+00
 Coeff:      0.936D+00
 Gap=     0.127 Goal=   None    Shift=    0.000
 Gap=     0.127 Goal=   None    Shift=    0.000
 RMSDP=4.28D-06 MaxDP=6.46D-05 DE=-1.56D-07 OVMax= 2.78D-04

 Cycle   8  Pass 1  IDiag  1:
 E= -474.384065515957     Delta-E=       -0.000000050663 Rises=F Damp=F
 DIIS: error= 8.37D-06 at cycle   8 NSaved=   8.
 NSaved= 8 IEnMin= 8 EnMin= -474.384065515957     IErMin= 8 ErrMin= 8.37D-06
 ErrMax= 8.37D-06  0.00D+00 EMaxC= 1.00D-01 BMatC= 6.48D-09 BMatP= 2.57D-08
 IDIUse=1 WtCom= 1.00D+00 WtEn= 0.00D+00
 Coeff-Com: -0.268D-03 0.776D-03 0.575D-02 0.900D-02-0.217D-02-0.172D+00
 Coeff-Com: -0.805D-01 0.124D+01
 Coeff:     -0.268D-03 0.776D-03 0.575D-02 0.900D-02-0.217D-02-0.172D+00
 Coeff:     -0.805D-01 0.124D+01
 Gap=     0.127 Goal=   None    Shift=    0.000
 Gap=     0.127 Goal=   None    Shift=    0.000
 RMSDP=4.33D-06 MaxDP=6.90D-05 DE=-5.07D-08 OVMax= 3.08D-04

 Cycle   9  Pass 1  IDiag  1:
 E= -474.384065552286     Delta-E=       -0.000000036329 Rises=F Damp=F
 DIIS: error= 6.01D-06 at cycle   9 NSaved=   9.
 NSaved= 9 IEnMin= 9 EnMin= -474.384065552286     IErMin= 9 ErrMin= 6.01D-06
 ErrMax= 6.01D-06  0.00D+00 EMaxC= 1.00D-01 BMatC= 3.53D-09 BMatP= 6.48D-09
 IDIUse=1 WtCom= 1.00D+00 WtEn= 0.00D+00
 Coeff-Com:  0.812D-03-0.961D-02-0.513D-02 0.840D-02 0.779D-01-0.832D-02
 Coeff-Com: -0.449D+00-0.626D+00 0.201D+01
 Coeff:      0.812D-03-0.961D-02-0.513D-02 0.840D-02 0.779D-01-0.832D-02
 Coeff:     -0.449D+00-0.626D+00 0.201D+01
 Gap=     0.127 Goal=   None    Shift=    0.000
 Gap=     0.127 Goal=   None    Shift=    0.000
 RMSDP=6.72D-06 MaxDP=1.09D-04 DE=-3.63D-08 OVMax= 4.85D-04

 Cycle  10  Pass 1  IDiag  1:
 E= -474.384065590930     Delta-E=       -0.000000038644 Rises=F Damp=F
 DIIS: error= 3.48D-06 at cycle  10 NSaved=  10.
 NSaved=10 IEnMin=10 EnMin= -474.384065590930     IErMin=10 ErrMin= 3.48D-06
 ErrMax= 3.48D-06  0.00D+00 EMaxC= 1.00D-01 BMatC= 1.29D-09 BMatP= 3.53D-09
 IDIUse=1 WtCom= 1.00D+00 WtEn= 0.00D+00
 Coeff-Com: -0.176D-03 0.358D-02-0.714D-03-0.818D-02-0.287D-01 0.927D-01
 Coeff-Com:  0.271D+00-0.366D+00-0.121D+01 0.224D+01
 Coeff:     -0.176D-03 0.358D-02-0.714D-03-0.818D-02-0.287D-01 0.927D-01
 Coeff:      0.271D+00-0.366D+00-0.121D+01 0.224D+01
 Gap=     0.127 Goal=   None    Shift=    0.000
 Gap=     0.127 Goal=   None    Shift=    0.000
 RMSDP=7.42D-06 MaxDP=1.22D-04 DE=-3.86D-08 OVMax= 5.38D-04

 Cycle  11  Pass 1  IDiag  1:
 E= -474.384065609791     Delta-E=       -0.000000018861 Rises=F Damp=F
 DIIS: error= 1.27D-06 at cycle  11 NSaved=  11.
 NSaved=11 IEnMin=11 EnMin= -474.384065609791     IErMin=11 ErrMin= 1.27D-06
 ErrMax= 1.27D-06  0.00D+00 EMaxC= 1.00D-01 BMatC= 2.30D-10 BMatP= 1.29D-09
 IDIUse=1 WtCom= 1.00D+00 WtEn= 0.00D+00
 Coeff-Com: -0.130D-03 0.211D-02 0.302D-04-0.377D-02-0.167D-01 0.296D-01
 Coeff-Com:  0.124D+00-0.352D-01-0.581D+00 0.700D+00 0.782D+00
 Coeff:     -0.130D-03 0.211D-02 0.302D-04-0.377D-02-0.167D-01 0.296D-01
 Coeff:      0.124D+00-0.352D-01-0.581D+00 0.700D+00 0.782D+00
 Gap=     0.127 Goal=   None    Shift=    0.000
 Gap=     0.127 Goal=   None    Shift=    0.000
 RMSDP=9.79D-07 MaxDP=1.66D-05 DE=-1.89D-08 OVMax= 6.38D-05

 Cycle  12  Pass 1  IDiag  1:
 E= -474.384065611651     Delta-E=       -0.000000001860 Rises=F Damp=F
 DIIS: error= 2.55D-06 at cycle  12 NSaved=  12.
 NSaved=12 IEnMin=12 EnMin= -474.384065611651     IErMin=11 ErrMin= 1.27D-06
 ErrMax= 2.55D-06  0.00D+00 EMaxC= 1.00D-01 BMatC= 6.65D-10 BMatP= 2.30D-10
 IDIUse=1 WtCom= 1.00D+00 WtEn= 0.00D+00
 Coeff-Com: -0.223D-03 0.317D-02 0.618D-03-0.456D-02-0.255D-01 0.215D-01
 Coeff-Com:  0.157D+00 0.107D+00-0.765D+00 0.509D+00 0.184D+01-0.839D+00
 Coeff:     -0.223D-03 0.317D-02 0.618D-03-0.456D-02-0.255D-01 0.215D-01
 Coeff:      0.157D+00 0.107D+00-0.765D+00 0.509D+00 0.184D+01-0.839D+00
 Gap=     0.127 Goal=   None    Shift=    0.000
 Gap=     0.127 Goal=   None    Shift=    0.000
 RMSDP=8.00D-07 MaxDP=2.07D-05 DE=-1.86D-09 OVMax= 6.14D-05

 Cycle  13  Pass 1  IDiag  1:
 E= -474.384065610067     Delta-E=        0.000000001584 Rises=F Damp=F
 DIIS: error= 6.12D-07 at cycle  13 NSaved=  13.
 NSaved=13 IEnMin=12 EnMin= -474.384065611651     IErMin=13 ErrMin= 6.12D-07
 ErrMax= 6.12D-07  0.00D+00 EMaxC= 1.00D-01 BMatC= 4.02D-11 BMatP= 2.30D-10
 IDIUse=1 WtCom= 1.00D+00 WtEn= 0.00D+00
 Coeff-Com:  0.920D-05-0.207D-03-0.126D-03 0.431D-03 0.284D-02-0.642D-02
 Coeff-Com: -0.230D-01 0.346D-01 0.104D+00-0.235D+00 0.148D+00-0.272D+00
 Coeff-Com:  0.125D+01
 Coeff:      0.920D-05-0.207D-03-0.126D-03 0.431D-03 0.284D-02-0.642D-02
 Coeff:     -0.230D-01 0.346D-01 0.104D+00-0.235D+00 0.148D+00-0.272D+00
 Coeff:      0.125D+01
 Gap=     0.127 Goal=   None    Shift=    0.000
 Gap=     0.127 Goal=   None    Shift=    0.000
 RMSDP=3.77D-07 MaxDP=5.83D-06 DE= 1.58D-09 OVMax= 3.02D-05

 Cycle  14  Pass 1  IDiag  1:
 E= -474.384065610105     Delta-E=       -0.000000000038 Rises=F Damp=F
 DIIS: error= 4.07D-07 at cycle  14 NSaved=  14.
 NSaved=14 IEnMin=12 EnMin= -474.384065611651     IErMin=14 ErrMin= 4.07D-07
 ErrMax= 4.07D-07  0.00D+00 EMaxC= 1.00D-01 BMatC= 1.19D-11 BMatP= 4.02D-11
 IDIUse=1 WtCom= 1.00D+00 WtEn= 0.00D+00
 Coeff-Com:  0.148D-04-0.212D-03-0.103D-03 0.251D-03 0.213D-02-0.164D-02
 Coeff-Com: -0.138D-01-0.778D-02 0.705D-01-0.635D-01-0.104D+00 0.251D-01
 Coeff-Com:  0.141D+00 0.952D+00
 Coeff:      0.148D-04-0.212D-03-0.103D-03 0.251D-03 0.213D-02-0.164D-02
 Coeff:     -0.138D-01-0.778D-02 0.705D-01-0.635D-01-0.104D+00 0.251D-01
 Coeff:      0.141D+00 0.952D+00
 Gap=     0.127 Goal=   None    Shift=    0.000
 Gap=     0.127 Goal=   None    Shift=    0.000
 RMSDP=1.19D-07 MaxDP=2.13D-06 DE=-3.75D-11 OVMax= 1.01D-05

 Cycle  15  Pass 1  IDiag  1:
 E= -474.384065610156     Delta-E=       -0.000000000051 Rises=F Damp=F
 DIIS: error= 3.97D-07 at cycle  15 NSaved=  15.
 NSaved=15 IEnMin=12 EnMin= -474.384065611651     IErMin=15 ErrMin= 3.97D-07
 ErrMax= 3.97D-07  0.00D+00 EMaxC= 1.00D-01 BMatC= 1.06D-11 BMatP= 1.19D-11
 IDIUse=1 WtCom= 1.00D+00 WtEn= 0.00D+00
 Coeff-Com: -0.101D-05 0.355D-04-0.305D-04-0.127D-03-0.291D-03 0.198D-02
 Coeff-Com:  0.260D-02-0.120D-01-0.943D-02 0.451D-01-0.513D-01 0.682D-01
 Coeff-Com: -0.273D+00 0.312D-01 0.120D+01
 Coeff:     -0.101D-05 0.355D-04-0.305D-04-0.127D-03-0.291D-03 0.198D-02
 Coeff:      0.260D-02-0.120D-01-0.943D-02 0.451D-01-0.513D-01 0.682D-01
 Coeff:     -0.273D+00 0.312D-01 0.120D+01
 Gap=     0.127 Goal=   None    Shift=    0.000
 Gap=     0.127 Goal=   None    Shift=    0.000
 RMSDP=1.65D-07 MaxDP=2.87D-06 DE=-5.10D-11 OVMax= 1.31D-05

 Cycle  16  Pass 1  IDiag  1:
 E= -474.384065610231     Delta-E=       -0.000000000075 Rises=F Damp=F
 DIIS: error= 3.84D-07 at cycle  16 NSaved=  16.
 NSaved=16 IEnMin=12 EnMin= -474.384065611651     IErMin=16 ErrMin= 3.84D-07
 ErrMax= 3.84D-07  0.00D+00 EMaxC= 1.00D-01 BMatC= 1.13D-11 BMatP= 1.06D-11
 IDIUse=1 WtCom= 1.00D+00 WtEn= 0.00D+00
 Coeff-Com: -0.117D-04 0.227D-03 0.227D-04-0.472D-03-0.233D-02 0.634D-02
 Coeff-Com:  0.176D-01-0.279D-01-0.805D-01 0.180D+00-0.881D-01 0.190D+00
 Coeff-Com: -0.915D+00-0.459D+00 0.380D+01-0.162D+01
 Coeff:     -0.117D-04 0.227D-03 0.227D-04-0.472D-03-0.233D-02 0.634D-02
 Coeff:      0.176D-01-0.279D-01-0.805D-01 0.180D+00-0.881D-01 0.190D+00
 Coeff:     -0.915D+00-0.459D+00 0.380D+01-0.162D+01
 Gap=     0.127 Goal=   None    Shift=    0.000
 Gap=     0.127 Goal=   None    Shift=    0.000
 RMSDP=1.27D-07 MaxDP=2.34D-06 DE=-7.50D-11 OVMax= 1.03D-05

 Cycle  17  Pass 1  IDiag  1:
 E= -474.384065610179     Delta-E=        0.000000000051 Rises=F Damp=F
 DIIS: error= 3.68D-07 at cycle  17 NSaved=  17.
 NSaved=17 IEnMin=12 EnMin= -474.384065611651     IErMin=17 ErrMin= 3.68D-07
 ErrMax= 3.68D-07  0.00D+00 EMaxC= 1.00D-01 BMatC= 9.62D-12 BMatP= 1.06D-11
 IDIUse=1 WtCom= 1.00D+00 WtEn= 0.00D+00
 Large coefficients: NSaved= 17 BigCof=   10.83 CofMax=   10.00 Det=-2.33D-14
 Inversion failed.  Reducing to 16 matrices.
 Large coefficients: NSaved= 16 BigCof=   10.85 CofMax=   10.00 Det=-2.46D-14
 Inversion failed.  Reducing to 15 matrices.
 Large coefficients: NSaved= 15 BigCof=   10.75 CofMax=   10.00 Det=-2.48D-14
 Inversion failed.  Reducing to 14 matrices.
 Large coefficients: NSaved= 14 BigCof=   10.47 CofMax=   10.00 Det=-3.04D-14
 Inversion failed.  Reducing to 13 matrices.
 Coeff-Com: -0.197D-03-0.150D-02-0.340D-02 0.236D-01 0.936D-02-0.100D+00
 Coeff-Com:  0.211D+00-0.212D+00 0.704D+00-0.747D+00-0.593D+01-0.269D+01
 Coeff-Com:  0.974D+01
 Coeff:     -0.197D-03-0.150D-02-0.340D-02 0.236D-01 0.936D-02-0.100D+00
 Coeff:      0.211D+00-0.212D+00 0.704D+00-0.747D+00-0.593D+01-0.269D+01
 Coeff:      0.974D+01
 Gap=     0.127 Goal=   None    Shift=    0.000
 Gap=     0.127 Goal=   None    Shift=    0.000
 RMSDP=3.75D-07 MaxDP=6.60D-06 DE= 5.14D-11 OVMax= 3.05D-05

 Cycle  18  Pass 1  IDiag  1:
 E= -474.384065610190     Delta-E=       -0.000000000010 Rises=F Damp=F
 DIIS: error= 1.76D-07 at cycle  18 NSaved=  14.
 NSaved=14 IEnMin= 8 EnMin= -474.384065611651     IErMin=14 ErrMin= 1.76D-07
 ErrMax= 1.76D-07  0.00D+00 EMaxC= 1.00D-01 BMatC= 3.58D-12 BMatP= 9.62D-12
 IDIUse=1 WtCom= 1.00D+00 WtEn= 0.00D+00
 Coeff-Com:  0.428D-03-0.150D-02-0.759D-02 0.122D-01 0.515D-01-0.119D+00
 Coeff-Com:  0.845D-01-0.137D+00 0.588D+00 0.761D+00-0.315D+01 0.149D+01
 Coeff-Com: -0.338D+00 0.177D+01
 Coeff:      0.428D-03-0.150D-02-0.759D-02 0.122D-01 0.515D-01-0.119D+00
 Coeff:      0.845D-01-0.137D+00 0.588D+00 0.761D+00-0.315D+01 0.149D+01
 Coeff:     -0.338D+00 0.177D+01
 Gap=     0.127 Goal=   None    Shift=    0.000
 Gap=     0.127 Goal=   None    Shift=    0.000
 RMSDP=2.82D-07 MaxDP=4.66D-06 DE=-1.03D-11 OVMax= 2.24D-05

 Cycle  19  Pass 1  IDiag  1:
 E= -474.384065610216     Delta-E=       -0.000000000026 Rises=F Damp=F
 DIIS: error= 1.50D-07 at cycle  19 NSaved=  15.
 NSaved=15 IEnMin= 8 EnMin= -474.384065611651     IErMin=15 ErrMin= 1.50D-07
 ErrMax= 1.50D-07  0.00D+00 EMaxC= 1.00D-01 BMatC= 1.52D-12 BMatP= 3.58D-12
 IDIUse=1 WtCom= 1.00D+00 WtEn= 0.00D+00
 Coeff-Com:  0.510D-04 0.227D-03-0.835D-03-0.400D-02 0.837D-02-0.122D-02
 Coeff-Com: -0.196D-01 0.158D-01-0.445D-01 0.336D+00 0.455D-01 0.612D+00
 Coeff-Com: -0.124D+01 0.357D+00 0.938D+00
 Coeff:      0.510D-04 0.227D-03-0.835D-03-0.400D-02 0.837D-02-0.122D-02
 Coeff:     -0.196D-01 0.158D-01-0.445D-01 0.336D+00 0.455D-01 0.612D+00
 Coeff:     -0.124D+01 0.357D+00 0.938D+00
 Gap=     0.127 Goal=   None    Shift=    0.000
 Gap=     0.127 Goal=   None    Shift=    0.000
 RMSDP=6.48D-08 MaxDP=1.36D-06 DE=-2.65D-11 OVMax= 6.74D-06

 Cycle  20  Pass 1  IDiag  1:
 E= -474.384065610224     Delta-E=       -0.000000000008 Rises=F Damp=F
 DIIS: error= 1.54D-07 at cycle  20 NSaved=  16.
 NSaved=16 IEnMin= 8 EnMin= -474.384065611651     IErMin=15 ErrMin= 1.50D-07
 ErrMax= 1.54D-07  0.00D+00 EMaxC= 1.00D-01 BMatC= 1.68D-12 BMatP= 1.52D-12
 IDIUse=1 WtCom= 1.00D+00 WtEn= 0.00D+00
 Coeff-Com: -0.150D-04 0.161D-02 0.140D-02-0.226D-01 0.238D-02 0.651D-01
 Coeff-Com: -0.131D+00 0.142D+00-0.501D+00 0.797D+00 0.232D+01 0.168D+01
 Coeff-Com: -0.514D+01 0.438D+00 0.392D+01-0.258D+01
 Coeff:     -0.150D-04 0.161D-02 0.140D-02-0.226D-01 0.238D-02 0.651D-01
 Coeff:     -0.131D+00 0.142D+00-0.501D+00 0.797D+00 0.232D+01 0.168D+01
 Coeff:     -0.514D+01 0.438D+00 0.392D+01-0.258D+01
 Gap=     0.127 Goal=   None    Shift=    0.000
 Gap=     0.127 Goal=   None    Shift=    0.000
 RMSDP=7.39D-08 MaxDP=1.33D-06 DE=-7.90D-12 OVMax= 6.91D-06

 Cycle  21  Pass 1  IDiag  1:
 E= -474.384065610213     Delta-E=        0.000000000011 Rises=F Damp=F
 DIIS: error= 1.05D-07 at cycle  21 NSaved=  17.
 NSaved=17 IEnMin= 8 EnMin= -474.384065611651     IErMin=17 ErrMin= 1.05D-07
 ErrMax= 1.05D-07  0.00D+00 EMaxC= 1.00D-01 BMatC= 8.32D-13 BMatP= 1.52D-12
 IDIUse=1 WtCom= 1.00D+00 WtEn= 0.00D+00
 Large coefficients: NSaved= 17 BigCof=    0.00 CofMax=   10.00 Det=-8.00D-15
 Inversion failed.  Reducing to 16 matrices.
 Large coefficients: NSaved= 16 BigCof=    0.00 CofMax=   10.00 Det=-8.17D-15
 Inversion failed.  Reducing to 15 matrices.
 Coeff-Com: -0.129D-02 0.454D-02-0.106D-02-0.513D-02 0.134D-02-0.271D-02
 Coeff-Com:  0.942D-02 0.228D+00-0.171D+00 0.465D-01 0.260D-01-0.246D+00
 Coeff-Com: -0.560D+00-0.145D+01 0.312D+01
 Coeff:     -0.129D-02 0.454D-02-0.106D-02-0.513D-02 0.134D-02-0.271D-02
 Coeff:      0.942D-02 0.228D+00-0.171D+00 0.465D-01 0.260D-01-0.246D+00
 Coeff:     -0.560D+00-0.145D+01 0.312D+01
 Gap=     0.127 Goal=   None    Shift=    0.000
 Gap=     0.127 Goal=   None    Shift=    0.000
 RMSDP=1.36D-07 MaxDP=2.55D-06 DE= 1.10D-11 OVMax= 1.33D-05

 Cycle  22  Pass 1  IDiag  1:
 E= -474.384065610205     Delta-E=        0.000000000008 Rises=F Damp=F
 DIIS: error= 1.85D-08 at cycle  22 NSaved=  16.
 NSaved=16 IEnMin= 6 EnMin= -474.384065611651     IErMin=16 ErrMin= 1.85D-08
 ErrMax= 1.85D-08  0.00D+00 EMaxC= 1.00D-01 BMatC= 1.10D-13 BMatP= 8.32D-13
 IDIUse=1 WtCom= 1.00D+00 WtEn= 0.00D+00
 Coeff-Com:  0.988D-03 0.280D-03-0.855D-02 0.132D-01 0.127D-02 0.122D-01
 Coeff-Com: -0.757D-01-0.965D-01 0.204D+00-0.330D+00 0.446D+00-0.282D+00
 Coeff-Com: -0.193D+00-0.189D+00 0.574D+00 0.924D+00
 Coeff:      0.988D-03 0.280D-03-0.855D-02 0.132D-01 0.127D-02 0.122D-01
 Coeff:     -0.757D-01-0.965D-01 0.204D+00-0.330D+00 0.446D+00-0.282D+00
 Coeff:     -0.193D+00-0.189D+00 0.574D+00 0.924D+00
 Gap=     0.127 Goal=   None    Shift=    0.000
 Gap=     0.127 Goal=   None    Shift=    0.000
 RMSDP=1.73D-08 MaxDP=3.25D-07 DE= 7.62D-12 OVMax= 1.68D-06

 Cycle  23  Pass 1  IDiag  1:
 E= -474.384065610205     Delta-E=        0.000000000000 Rises=F Damp=F
 DIIS: error= 5.84D-09 at cycle  23 NSaved=  17.
 NSaved=17 IEnMin= 6 EnMin= -474.384065611651     IErMin=17 ErrMin= 5.84D-09
 ErrMax= 5.84D-09  0.00D+00 EMaxC= 1.00D-01 BMatC= 7.80D-15 BMatP= 1.10D-13
 IDIUse=1 WtCom= 1.00D+00 WtEn= 0.00D+00
 Large coefficients: NSaved= 17 BigCof=    0.00 CofMax=   10.00 Det=-9.15D-15
 Inversion failed.  Reducing to 16 matrices.
 Large coefficients: NSaved= 16 BigCof=    0.00 CofMax=   10.00 Det=-9.36D-15
 Inversion failed.  Reducing to 15 matrices.
 Coeff-Com:  0.493D-03-0.140D-02 0.338D-02-0.239D-02 0.521D-02-0.473D-02
 Coeff-Com: -0.430D-01-0.192D-01 0.658D-01 0.136D-01-0.710D-01 0.989D-01
 Coeff-Com: -0.101D+00 0.159D+00 0.896D+00
 Coeff:      0.493D-03-0.140D-02 0.338D-02-0.239D-02 0.521D-02-0.473D-02
 Coeff:     -0.430D-01-0.192D-01 0.658D-01 0.136D-01-0.710D-01 0.989D-01
 Coeff:     -0.101D+00 0.159D+00 0.896D+00
 Gap=     0.127 Goal=   None    Shift=    0.000
 Gap=     0.127 Goal=   None    Shift=    0.000
 RMSDP=1.71D-09 MaxDP=2.63D-08 DE= 4.55D-13 OVMax= 1.32D-07

 SCF Done:  E(UM062X) =  -474.384065610     A.U. after   23 cycles
            NFock= 23  Conv=0.17D-08     -V/T= 2.0018
 <Sx>= 0.0000 <Sy>= 0.0000 <Sz>= 0.0000 <S**2>=-0.0000 S=-0.0000
 <L.S>=  0.00000000000    
 KE= 4.735552068460D+02 PE=-1.197088714121D+03 EE= 2.142332021863D+02
 Annihilation of the first spin contaminant:
 S**2 before annihilation    -0.0000,   after     0.0000
 Leave Link  502 at Tue Apr 22 05:21:14 2025, MaxMem=   536870912 cpu:             108.6 elap:              13.9
 (Enter /home/szhao/Apps/g16/l701.exe)
 ... and contract with generalized density number  0.
 Compute integral first derivatives.
 Leave Link  701 at Tue Apr 22 05:21:14 2025, MaxMem=   536870912 cpu:               0.9 elap:               0.1
 (Enter /home/szhao/Apps/g16/l702.exe)
 L702 exits ... SP integral derivatives will be done elsewhere.
 Leave Link  702 at Tue Apr 22 05:21:14 2025, MaxMem=   536870912 cpu:               0.3 elap:               0.0
 (Enter /home/szhao/Apps/g16/l703.exe)
 Integral derivatives from FoFJK, PRISM(SPDF).
 Compute integral first derivatives, UseDBF=F ICtDFT=           0.
 Calling FoFJK, ICntrl=      2127 FMM=F ISym2X=0 I1Cent= 0 IOpClX= 1 NMat=1 NMatS=1 NMatT=0.
 FoFJK:  IHMeth= 1 ICntrl=    2127 DoSepK=F KAlg= 0 I1Cent=           0 FoldK=F
 IRaf=         0 NMat=       1 IRICut=       1 DoRegI=T DoRafI=F ISym2E= 0 IDoP0=0 IntGTp=1.
 FoFCou: FMM=F IPFlag=           0 FMFlag=      100000 FMFlg1=         800
         NFxFlg=           0 DoJE=F BraDBF=F KetDBF=F FulRan=T
         wScrn=  0.000000 ICntrl=      2127 IOpCl=  1 I1Cent=           0 NGrid=           0
         NMat0=    1 NMatS0=      1 NMatT0=    0 NMatD0=    1 NMtDS0=    0 NMtDT0=    0
 Symmetry not used in FoFCou.
 Leave Link  703 at Tue Apr 22 05:21:15 2025, MaxMem=   536870912 cpu:               8.8 elap:               1.1
 (Enter /home/szhao/Apps/g16/l716.exe)
 Dipole        = 8.67518140D-01-3.03125668D-01-3.14563850D-01
 -------------------------------------------------------------------
 Center     Atomic                   Forces (Hartrees/Bohr)
 Number     Number              X              Y              Z
 -------------------------------------------------------------------
      1        8          -0.000000000   -0.000000000   -0.000000000
      2       16          -0.000000000   -0.000000000   -0.000000000
      3        1           0.000014357    0.000051448   -0.000025736
      4        1           0.000609875    0.000172138   -0.000094172
 -------------------------------------------------------------------
 Cartesian Forces:  Max     0.000609875 RMS     0.000185733
 Leave Link  716 at Tue Apr 22 05:21:16 2025, MaxMem=   536870912 cpu:               0.4 elap:               0.1
 (Enter /home/szhao/Apps/g16/l103.exe)

 GradGradGradGradGradGradGradGradGradGradGradGradGradGradGradGradGradGrad
 Berny optimization.
 Using GEDIIS/GDIIS optimizer.
 FormGI is forming the generalized inverse of G from B-inverse, IUseBI=4.
 Internal  Forces:  Max     0.000427239 RMS     0.000285006
 Search for a local minimum.
 Step number   2 out of a maximum of   22
 All quantities printed in internal units (Hartrees-Bohrs-Radians)
 RMS Force = .31061D-03 SwitMx=.10000D-02 MixMth= 2
 Mixed Optimization -- En-DIIS/RFO-DIIS
 Update second derivatives using D2CorX and points    1    2
 DE= -4.80D-05 DEPred=-5.54D-05 R= 8.66D-01
 TightC=F SS=  1.41D+00  RLast= 6.85D-02 DXNew= 5.0454D-01 2.0565D-01
 Trust test= 8.66D-01 RLast= 6.85D-02 DXMaxT set to 3.00D-01
 The second derivative matrix:
                          X1        Y1        Z1        X2        Y2
           X1           0.50106
           Y1          -0.00001   0.50000
           Z1           0.00260  -0.00003   0.50635
           X2           0.00013  -0.00000   0.00033   0.50002
           Y2           0.00740  -0.00008   0.01811   0.00094   0.55164
           Z2          -0.01040   0.00011  -0.02544  -0.00131  -0.07252
           R1          -0.00255   0.00003  -0.00624  -0.00032  -0.01778
           R2           0.00059  -0.00001   0.00143   0.00007   0.00408
           R3           0.00248  -0.00003   0.00607   0.00031   0.01731
           R4          -0.01253   0.00013  -0.03064  -0.00158  -0.08735
           A1          -0.00087   0.00001  -0.00213  -0.00011  -0.00608
           A2           0.00005  -0.00000   0.00011   0.00001   0.00033
                          Z2        R1        R2        R3        R4
           Z2           0.60186
           R1           0.02498   0.53732
           R2          -0.00574  -0.00011   0.00813
           R3          -0.02431  -0.00313   0.00030   0.01188
           R4           0.12268   0.00819   0.00136  -0.01125   0.27294
           A1           0.00854   0.00326  -0.00092  -0.00300   0.01773
           A2          -0.00046  -0.00850   0.00319   0.00702  -0.05391
                          A1        A2
           A1           0.16032
           A2           0.00281   0.13956
 ITU=  1  0
 Use linear search instead of GDIIS.
     Eigenvalues ---    0.01008   0.02992   0.15532   0.28677   0.52357
     Eigenvalues --- 1000.000001000.000001000.000001000.000001000.00000
     Eigenvalues --- 1000.000001000.00000
 RFO step:  Lambda=-1.01858620D-05 EMin= 1.00754943D-02
 Quartic linear search produced a step of -0.06731.
 Iteration  1 RMS(Cart)=  0.00847322 RMS(Int)=  0.00004170
 Iteration  2 RMS(Cart)=  0.00005489 RMS(Int)=  0.00000215
 Iteration  3 RMS(Cart)=  0.00000000 RMS(Int)=  0.00000215
 ITry= 1 IFail=0 DXMaxC= 2.11D-02 DCOld= 1.00D+10 DXMaxT= 3.00D-01 DXLimC= 3.00D+00 Rises=F
 Variable       Old X    -DE/DX   Delta X   Delta X   Delta X     New X
                                 (Linear)    (Quad)   (Total)
    X1       -3.13884   0.00025   0.00000   0.00000   0.00000  -3.13884
    Y1       -0.00026  -0.00006   0.00000   0.00000   0.00000  -0.00026
    Z1       -0.00017   0.00015   0.00000   0.00000   0.00000  -0.00017
    X2        3.13887   0.00038   0.00000   0.00000   0.00000   3.13887
    Y2        0.00036   0.00029   0.00000   0.00000   0.00000   0.00036
    Z2        0.00031  -0.00029   0.00000   0.00000   0.00000   0.00031
    R1        1.83339   0.00001  -0.00008   0.00000  -0.00008   1.83331
    R2        6.25870   0.00041   0.00188   0.01934   0.02122   6.27992
    R3        6.50665  -0.00012   0.00404   0.00086   0.00490   6.51156
    R4        2.54640  -0.00041  -0.00099   0.00117   0.00017   2.54657
    A1        1.86761   0.00022   0.00009  -0.00083  -0.00075   1.86686
[...]
 Leave Link  716 at Tue Apr 22 05:26:07 2025, MaxMem=   536870912 cpu:               0.5 elap:               0.1
 (Enter /home/szhao/Apps/g16/l103.exe)

 GradGradGradGradGradGradGradGradGradGradGradGradGradGradGradGradGradGrad
 Berny optimization.
 Using GEDIIS/GDIIS optimizer.
 FormGI is forming the generalized inverse of G from B-inverse, IUseBI=4.
 Internal  Forces:  Max     0.000040361 RMS     0.000020149
 Search for a local minimum.
 Step number  22 out of a maximum of   22
 All quantities printed in internal units (Hartrees-Bohrs-Radians)
 RMS Force = .20035D-04 SwitMx=.10000D-02 MixMth= 2
 Mixed Optimization -- En-DIIS/RFO-DIIS
 Swapping is turned off.
 Update second derivatives using D2CorX and points   10   11   12   13   15
                                                     16   17   19   20   21
                                                     22
 DE=  5.42D-07 DEPred=-4.85D-07 R=-1.12D+00
 Trust test=-1.12D+00 RLast= 1.24D-02 DXMaxT set to 5.00D-02
 The second derivative matrix:
                          X1        Y1        Z1        X2        Y2
           X1           0.50711
           Y1          -0.00180   0.50348
           Z1           0.00549  -0.02037   0.62887
           X2          -0.00424   0.00030  -0.00748   0.51815
           Y2          -0.00029  -0.00008  -0.01638   0.03033   0.60360
           Z2          -0.00017  -0.00011   0.02242  -0.03791  -0.13617
           R1          -0.00352   0.02571  -0.16175   0.00394   0.01310
           R2           0.00556  -0.00388   0.02124  -0.00503  -0.00824
           R3           0.00329   0.00032  -0.00200  -0.00592   0.00621
           R4           0.00076   0.00024   0.02610  -0.04988  -0.17028
           A1          -0.00352  -0.00237   0.01971  -0.00040  -0.01204
           A2          -0.00275   0.00179  -0.01367   0.01069   0.02058
                          Z2        R1        R2        R3        R4
           Z2           0.67942
           R1          -0.01873   0.24048
           R2           0.01073  -0.01781   0.01088
           R3          -0.00981   0.00513  -0.00191   0.01046
           R4           0.22383  -0.01944   0.01223  -0.00836   0.28086
           A1           0.01657  -0.01685   0.00711  -0.00883   0.01712
           A2          -0.02614   0.01399  -0.01218   0.00623  -0.02939
                          A1        A2
           A1           0.01677
           A2          -0.01456   0.02823
 ITU= -1  0 -1  0 -1 -1  0  0 -1  0  0 -1  0
     Eigenvalues ---    0.00306   0.00415   0.01171   0.23306   0.29648
     Eigenvalues --- 1000.000001000.000001000.000001000.000001000.00000
     Eigenvalues --- 1000.000001000.00000
 En-DIIS/RFO-DIIS/Sim-DIIS IScMMF=       -3 using points:    22   21   20   19   18   17   16   15   14   13
 RFO step:  Lambda=-9.17762445D-09.
 NNeg= 0 NGDIIS=10 SimSw=  2.50D-03 Rises=T DC=  5.42D-07 SmlDif=  1.00D-05
 NRisDI= 6 DoIntr=T SqrtH=F CThrHd= 10.0 CDAdj=  3.0
 RMS Error=  0.2781183394D-03 NUsed=10 OKEnD=T EnDIS=T
 InvSVX:  RCond= 6.88D-23 Info=          12 Equed=N FErr=  0.00D+00 BErr=  0.00D+00
 DIIS inversion failure, remove point  10.
 InvSVX:  RCond= 4.66D-23 Info=          11 Equed=N FErr=  0.00D+00 BErr=  0.00D+00
 DIIS inversion failure, remove point   9.
 InvSVX:  RCond= 2.52D-21 Info=          10 Equed=N FErr=  0.00D+00 BErr=  0.00D+00
 DIIS inversion failure, remove point   8.
 InvSVX:  RCond= 3.45D-21 Info=           9 Equed=N FErr=  0.00D+00 BErr=  0.00D+00
 DIIS inversion failure, remove point   7.
 InvSVX:  RCond= 7.23D-12 Info=           0 Equed=N FErr=  3.77D-09 BErr=  1.04D-16
 DIIS inversion failure, remove point   6.
 InvSVX:  RCond= 8.23D-10 Info=           0 Equed=N FErr=  2.65D-11 BErr=  4.12D-17
 DIIS inversion failure, remove point   5.
 InvSVX:  RCond= 1.21D-09 Info=           0 Equed=N FErr=  8.35D-12 BErr=  7.97D-17
 DIIS inversion failure, remove point   4.
 InvSVX:  RCond= 2.11D-08 Info=           0 Equed=N FErr=  5.48D-14 BErr=  7.69D-17
 DIIS inversion failure, remove point   3.
 InvSVX:  RCond= 1.74D-04 Info=           0 Equed=N FErr=  9.60D-16 BErr=  3.04D-17
 RFO-DIIS uses    2 points instead of   10
 EnCoef did   100 forward-backward iterations
 IWarn =    2
 Energies =   -474.384103461      -474.384102735      -474.384103143      -474.384103357      -474.384102927    
 Energies =   -474.384102812      -474.384103230      -474.384102816      -474.384103157      -474.384102616    
 Point number   2 has energy  -0.4743841027D+03 and has been removed
 EnCoef did   100 forward-backward iterations
 IWarn =    2
 Energies =   -474.384103461      -474.384103143      -474.384103357      -474.384102927      -474.384102812    
 Energies =   -474.384103230      -474.384102816      -474.384103157      -474.384102616    
 Point number   5 has energy  -0.4743841028D+03 and has been removed
 EnCoef did   100 forward-backward iterations
 Rare condition: small coef for last iteration:  0.461D-06
 IWarn =    1
 Energies =   -474.384103461      -474.384103143      -474.384103357      -474.384102927      -474.384103230    
 Energies =   -474.384102816      -474.384103157      -474.384102616    
 Point number   6 has energy  -0.4743841028D+03 and has been removed
 EnCoef did   100 forward-backward iterations
 Rare condition: small coef for last iteration:  0.422D-06
 IWarn =    1
 Energies =   -474.384103461      -474.384103143      -474.384103357      -474.384102927      -474.384103230    
 Energies =   -474.384103157      -474.384102616    
 Point number   4 has energy  -0.4743841029D+03 and has been removed
 EnCoef did   100 forward-backward iterations
 IWarn =    2
 Energies =   -474.384103461      -474.384103143      -474.384103357      -474.384103230      -474.384103157    
 Energies =   -474.384102616    
 Point number   2 has energy  -0.4743841031D+03 and has been removed
 EnCoef did   100 forward-backward iterations
 IWarn =    2
 Energies =   -474.384103461      -474.384103357      -474.384103230      -474.384103157      -474.384102616    
 Point number   4 has energy  -0.4743841032D+03 and has been removed
 EnCoef did   100 forward-backward iterations
 IWarn =    2
 Energies =   -474.384103461      -474.384103357      -474.384103230      -474.384102616    
 Point number   3 has energy  -0.4743841032D+03 and has been removed
 IWarn =    0
 DidBck=T Rises=T En-DIIS coefs:    0.22318    0.00000    0.00000    0.00000    0.00000
                  En-DIIS coefs:    0.00000    0.77682    0.00000    0.00000    0.00000
 Iteration  1 RMS(Cart)=  0.02250689 RMS(Int)=  0.00049891
 Iteration  2 RMS(Cart)=  0.00048328 RMS(Int)=  0.00000123
 Iteration  3 RMS(Cart)=  0.00000035 RMS(Int)=  0.00000123
 ITry= 1 IFail=0 DXMaxC= 7.63D-02 DCOld= 1.00D+10 DXMaxT= 5.00D-02 DXLimC= 3.00D+00 Rises=F
 Variable       Old X    -DE/DX   Delta X   Delta X   Delta X     New X
                                 (Linear)    (Quad)   (Total)
    X1       -3.13884   0.00001   0.00000   0.00000   0.00000  -3.13884
    Y1       -0.00026   0.00001   0.00000   0.00000   0.00000  -0.00026
    Z1       -0.00017  -0.00004   0.00000   0.00000   0.00000  -0.00017
    X2        3.13887  -0.00001   0.00000   0.00000   0.00000   3.13887
    Y2        0.00036  -0.00002   0.00000   0.00000   0.00000   0.00036
    Z2        0.00031   0.00002   0.00000   0.00000   0.00000   0.00031
    R1        1.83331   0.00004   0.00028   0.00000   0.00028   1.83359
    R2        6.37448  -0.00000   0.00375   0.00000   0.00374   6.37823
    R3        6.49623   0.00000  -0.00262   0.00000  -0.00262   6.49360
    R4        2.54519   0.00003  -0.00081   0.00000  -0.00081   2.54438
    A1        1.90696  -0.00001  -0.01063   0.00000  -0.01063   1.89633
    A2        1.66243  -0.00000  -0.00427   0.00000  -0.00427   1.65817
         Item               Value     Threshold  Converged?
 Maximum Force            0.000040     0.000450     YES
 RMS     Force            0.000020     0.000300     YES
 Maximum Displacement     0.076282     0.001800     NO 
 RMS     Displacement     0.022553     0.001200     NO 
 Predicted change in Energy=-4.557963D-07
 Optimization stopped.
    -- Number of steps exceeded,  NStep=  22
    -- Flag reset to prevent archiving.
                           ----------------------------
                           ! Non-Optimized Parameters !
                           ! (Angstroms and Degrees)  !
 --------------------------                            --------------------------
 ! Name  Definition              Value          Derivative Info.                !
 --------------------------------------------------------------------------------
 ! X1    R(1,-1)                -1.661          -DE/DX =    0.0                 !
 ! Y1    R(1,-2)                -0.0001         -DE/DX =    0.0                 !
 ! Z1    R(1,-3)                -0.0001         -DE/DX =    0.0                 !
 ! X2    R(2,-1)                 1.661          -DE/DX =    0.0                 !
 ! Y2    R(2,-2)                 0.0002         -DE/DX =    0.0                 !
 ! Z2    R(2,-3)                 0.0002         -DE/DX =    0.0                 !
 ! R1    R(1,3)                  0.9703         -DE/DX =    0.0                 !
 ! R2    R(1,4)                  3.3752         -DE/DX =    0.0                 !
 ! R3    R(2,3)                  3.4363         -DE/DX =    0.0                 !
 ! R4    R(2,4)                  1.3464         -DE/DX =    0.0                 !
 ! A1    A(3,1,4)              108.6515         -DE/DX =    0.0                 !
 ! A2    A(3,2,4)               95.0061         -DE/DX =    0.0                 !
 --------------------------------------------------------------------------------
 Largest change from initial coordinates is atom    3       0.048 Angstoms.
 GradGradGradGradGradGradGradGradGradGradGradGradGradGradGradGradGradGrad

 Leave Link  103 at Tue Apr 22 05:26:07 2025, MaxMem=   536870912 cpu:               0.1 elap:               0.0
 (Enter /home/szhao/Apps/g16/l202.exe)
                          Input orientation:                          
 ---------------------------------------------------------------------
 Center     Atomic      Atomic             Coordinates (Angstroms)
 Number     Number       Type             X           Y           Z
 ---------------------------------------------------------------------
      1          8           0       -1.661005   -0.000137   -0.000090
      2         16           0        1.661016    0.000190    0.000166
      3          1           0       -1.636938    0.181500   -0.952776
      4          1           0        1.439590   -0.803225    1.058236
 ---------------------------------------------------------------------
                    Distance matrix (angstroms):
                    1          2          3          4
     1  O    0.000000
     2  S    3.322021   0.000000
     3  H    0.970145   3.437655   0.000000
     4  H    3.373232   1.346855   3.805112   0.000000
 Symmetry turned off by external request.
 Stoichiometry    H2OS
 Framework group  C1[X(H2OS)]
 Deg. of freedom     6
 Full point group                 C1      NOp   1
 Rotational constants (GHZ):         192.0894619           4.0935403           4.0158806
 Leave Link  202 at Tue Apr 22 05:26:07 2025, MaxMem=   536870912 cpu:               0.1 elap:               0.0
 (Enter /home/szhao/Apps/g16/l601.exe)
 Copying SCF densities to generalized density rwf, IOpCl= 1 IROHF=0.

 **********************************************************************

            Population analysis using the SCF density.

 **********************************************************************

 Alpha  occ. eigenvalues --  -89.97853 -19.67324  -8.33994  -6.26209  -6.25839
 Alpha  occ. eigenvalues --   -6.25272  -1.08479  -0.83787  -0.52564  -0.49647
 Alpha  occ. eigenvalues --   -0.39789  -0.35682  -0.34601
 Alpha virt. eigenvalues --   -0.21912   0.01613   0.03881   0.04693   0.05464
 Alpha virt. eigenvalues --    0.06979   0.13617   0.19294   0.19914   0.21165
 Alpha virt. eigenvalues --    0.25645   0.30844   0.33985   0.34533   0.39155
 Alpha virt. eigenvalues --    0.53508   0.59202   0.70107   0.71536   0.78678
 Alpha virt. eigenvalues --    0.80560   0.96842   1.04029   1.08134   1.09566
 Alpha virt. eigenvalues --    1.37430   1.39276   1.39859   1.45919   1.47083
 Alpha virt. eigenvalues --    1.64113   1.66218   1.67887   2.05904   2.08990
 Alpha virt. eigenvalues --    2.47828   2.53139   2.88239   2.88716   3.16516
 Alpha virt. eigenvalues --    3.18767   3.84325   5.03503   5.04426   5.51283
 Alpha virt. eigenvalues --    7.81610  17.40589  17.42136  17.45284  49.87118
 Alpha virt. eigenvalues --  189.07603
  Beta  occ. eigenvalues --  -89.97853 -19.67324  -8.33994  -6.26209  -6.25839
  Beta  occ. eigenvalues --   -6.25272  -1.08479  -0.83787  -0.52564  -0.49647
  Beta  occ. eigenvalues --   -0.39789  -0.35682  -0.34601
  Beta virt. eigenvalues --   -0.21912   0.01613   0.03881   0.04693   0.05464
  Beta virt. eigenvalues --    0.06979   0.13617   0.19294   0.19914   0.21165
  Beta virt. eigenvalues --    0.25645   0.30844   0.33985   0.34533   0.39155
  Beta virt. eigenvalues --    0.53508   0.59202   0.70107   0.71536   0.78678
  Beta virt. eigenvalues --    0.80560   0.96842   1.04029   1.08134   1.09566
  Beta virt. eigenvalues --    1.37430   1.39276   1.39859   1.45919   1.47083
  Beta virt. eigenvalues --    1.64113   1.66218   1.67887   2.05904   2.08990
  Beta virt. eigenvalues --    2.47828   2.53139   2.88239   2.88716   3.16516
  Beta virt. eigenvalues --    3.18767   3.84325   5.03503   5.04426   5.51283
  Beta virt. eigenvalues --    7.81610  17.40589  17.42136  17.45284  49.87118
  Beta virt. eigenvalues --  189.07603
          Condensed to atoms (all electrons):
               1          2          3          4
     1  O    8.063656   0.081518   0.255626  -0.001627
     2  S    0.081518  15.607994   0.001693   0.267008
     3  H    0.255626   0.001693   0.496487   0.000093
     4  H   -0.001627   0.267008   0.000093   0.623240
          Atomic-Atomic Spin Densities.
               1          2          3          4
     1  O   -0.000000  -0.000000   0.000000   0.000000
     2  S   -0.000000   0.000000   0.000000   0.000000
     3  H    0.000000   0.000000  -0.000000   0.000000
     4  H    0.000000   0.000000   0.000000  -0.000000
 Mulliken charges and spin densities:
               1          2
     1  O   -0.399173  -0.000000
     2  S    0.041787   0.000000
     3  H    0.246100   0.000000
     4  H    0.111286  -0.000000
 Sum of Mulliken charges =  -0.00000  -0.00000
 Mulliken charges and spin densities with hydrogens summed into heavy atoms:
               1          2
     1  O   -0.153073  -0.000000
     2  S    0.153073   0.000000
 Electronic spatial extent (au):  <R**2>=            305.5857
 Charge=             -0.0000 electrons
 Dipole moment (field-independent basis, Debye):
    X=              2.2412    Y=             -0.3952    Z=             -0.7681  Tot=              2.4019
 Quadrupole moment (field-independent basis, Debye-Ang):
   XX=            -18.3470   YY=            -21.1218   ZZ=            -17.6888
   XY=             -1.7342   XZ=              4.5172   YZ=             -2.4477
 Traceless Quadrupole moment (field-independent basis, Debye-Ang):
   XX=              0.7055   YY=             -2.0693   ZZ=              1.3637
   XY=             -1.7342   XZ=              4.5172   YZ=             -2.4477
 Octapole moment (field-independent basis, Debye-Ang**2):
  XXX=            -25.2495  YYY=              0.7186  ZZZ=             -1.1627  XYY=            -11.3082
  XXY=             -0.6923  XXZ=             -2.7363  XZZ=            -13.4570  YZZ=             -0.0587
  YYZ=              0.3388  XYZ=             -2.3739
 Hexadecapole moment (field-independent basis, Debye-Ang**3):
 XXXX=           -324.0054 YYYY=            -29.4323 ZZZZ=            -27.5774 XXXY=             -2.6768
 XXXZ=              7.8925 YYYX=              1.5324 YYYZ=             -0.5782 ZZZX=             -0.1793
 ZZZY=             -1.4614 XXYY=            -65.9171 XXZZ=            -57.0266 YYZZ=             -9.1674
 XXYZ=             -6.1918 YYXZ=             -0.5241 ZZXY=             -0.7593
 N-N= 3.489671152959D+01 E-N=-1.197052085369D+03  KE= 4.735555259431D+02
                          Isotropic Fermi Contact Couplings
        Atom                 a.u.       MegaHertz       Gauss      10(-4) cm-1
     1  O(17)              0.00000      -0.00000      -0.00000      -0.00000
     2  S(33)              0.00000       0.00000       0.00000       0.00000
     3  H(1)               0.00000       0.00000       0.00000       0.00000
     4  H(1)              -0.00000      -0.00000      -0.00000      -0.00000
 --------------------------------------------------------
       Center         ----  Spin Dipole Couplings  ----
                      3XX-RR        3YY-RR        3ZZ-RR
 --------------------------------------------------------
     1   Atom       -0.000000      0.000000      0.000000
     2   Atom        0.000000      0.000000     -0.000000
     3   Atom        0.000000      0.000000     -0.000000
     4   Atom       -0.000000      0.000000     -0.000000
 --------------------------------------------------------
                        XY            XZ            YZ
 --------------------------------------------------------
     1   Atom       -0.000000      0.000000     -0.000000
     2   Atom       -0.000000     -0.000000     -0.000000
     3   Atom       -0.000000     -0.000000      0.000000
     4   Atom       -0.000000     -0.000000     -0.000000
 --------------------------------------------------------


 ---------------------------------------------------------------------------------
              Anisotropic Spin Dipole Couplings in Principal Axis System
 ---------------------------------------------------------------------------------

       Atom             a.u.   MegaHertz   Gauss  10(-4) cm-1        Axes

              Baa    -0.0000     0.000     0.000     0.000  0.8034  0.4069 -0.4348
     1 O(17)  Bbb     0.0000    -0.000    -0.000    -0.000 -0.0152  0.7439  0.6681
              Bcc     0.0000    -0.000    -0.000    -0.000  0.5953 -0.5301  0.6039
 
              Baa    -0.0000    -0.000    -0.000    -0.000  0.6294  0.5655  0.5330
     2 S(33)  Bbb    -0.0000    -0.000    -0.000    -0.000 -0.1740 -0.5659  0.8059
              Bcc     0.0000     0.000     0.000     0.000  0.7574 -0.6000 -0.2578
 
              Baa    -0.0000    -0.000    -0.000    -0.000  0.4740 -0.0654  0.8781
     3 H(1)   Bbb     0.0000     0.000     0.000     0.000  0.4508  0.8747 -0.1782
              Bcc     0.0000     0.000     0.000     0.000  0.7564 -0.4803 -0.4441
 
              Baa    -0.0000    -0.000    -0.000    -0.000  0.6163  0.5076  0.6022
     4 H(1)   Bbb     0.0000     0.000     0.000     0.000 -0.4851 -0.3577  0.7980
              Bcc     0.0000     0.000     0.000     0.000 -0.6204  0.7839 -0.0258
 

 ---------------------------------------------------------------------------------

 No NMR shielding tensors so no spin-rotation constants.
 Leave Link  601 at Tue Apr 22 05:26:07 2025, MaxMem=   536870912 cpu:               2.0 elap:               0.3
 (Enter /home/szhao/Apps/g16/l9999.exe)


 THE MORE PROGRESS PHYSICAL SCIENCES MAKE, THE MORE THEY TEND TO ENTER
 THE DOMAIN OF MATHEMATICS, WHICH IS A KIND OF CENTRE TO WHICH THEY ALL
 CONVERGE.  WE MAY EVEN JUDGE THE DEGREE OF PERFECTION TO WHICH A 
 SCIENCE HAS ARRIVED BY THE FACILITY WITH WHICH IT MAY BE SUBMITTED
 TO CALCULATION.

                               -- ADOLPHE QUETELET, 1796-1874
 Error termination request processed by link 9999.
 Error termination via Lnk1e in /home/szhao/Apps/g16/l9999.exe at Tue Apr 22 05:26:07 2025.
 Job cpu time:       0 days  0 hours 41 minutes 31.6 seconds.
 Elapsed time:       0 days  0 hours  5 minutes 19.3 seconds.
 File lengths (MBytes):  RWF=     10 Int=      0 D2E=      0 Chk=      2 Scr=      1
