Title Card Required                                                     
FOpt      UM062X                                                      6-311+G(d,p)        
Number of atoms                            I                4
Info1-9                                    I   N=           9
          15          14           0           0           0         110
           2          18        -502
Full Title                                 C   N=           2
Title Card Required     
Route                                      C   N=           8
#p opt UM062X/6-311+G** nosymm int=superfine SCF=(MaxCycle=2
00,NoVarAcc,noincfock) guess=read   
Charge                                     I                0
Multiplicity                               I                1
Number of electrons                        I               26
Number of alpha electrons                  I               13
Number of beta electrons                   I               13
Number of basis functions                  I               64
Number of independent functions            I               64
Number of point charges in /Mol/           I                0
Number of translation vectors              I                0
Atomic numbers                             I   N=           4
           8          16           1           1
Nuclear charges                            R   N=           4
  8.00000000E+00  1.60000000E+01  1.00000000E+00  1.00000000E+00
Current cartesian coordinates              R   N=          12
 -3.13884454E+00 -2.58892479E-04 -1.70075351E-04  3.13886533E+00  3.59047964E-04
  3.13694537E-04 -3.09336407E+00  3.42984407E-01 -1.80048596E+00  2.72043003E+00
 -1.51787570E+00  1.99977707E+00
Number of symbols in /Mol/                 I                0
Force Field                                I                0
Atom Types                                 C   N=           4
                                                
Int Atom Types                             I   N=           4
           0           0           0           0
MM charges                                 R   N=           4
  0.00000000E+00  0.00000000E+00  0.00000000E+00  0.00000000E+00
Integer atomic weights                     I   N=           4
          16          32           1           1
Real atomic weights                        R   N=           4
  1.59949146E+01  3.19720718E+01  1.00782504E+00  1.00782504E+00
Atom fragment info                         I   N=           4
           0           0           0           0
Atom residue num                           I   N=           4
           0           0           0           0
Nuclear spins                              I   N=           4
           0           0           1           1
Nuclear ZEff                               R   N=           4
 -5.60000000E+00 -1.36000000E+01 -1.00000000E+00 -1.00000000E+00
Nuclear ZNuc                               R   N=           4
  8.00000000E+00  1.60000000E+01  1.00000000E+00  1.00000000E+00
Nuclear QMom                               R   N=           4
  0.00000000E+00  0.00000000E+00  0.00000000E+00  0.00000000E+00
Nuclear GFac                               R   N=           4
  0.00000000E+00  0.00000000E+00  2.79284600E+00  2.79284600E+00
MicOpt                                     I   N=           4
          -2          -2          -1          -1
Number of residues                         I                0
Number of secondary structures             I                0
Redundant internal dimensions              I   N=           4
          12          10           2           0
Redundant internal coordinate indices      I   N=          48
           1          -1           0           0           1          -2
           0           0           1          -3           0           0
           2          -1           0           0           2          -2
           0           0           2          -3           0           0
           1           3           0           0           1           4
           0           0           2           3           0           0
           2           4           0           0           3           1
           4           0           3           2           4           0
Redundant internal coordinates             R   N=          12
 -3.13884454E+00 -2.58892479E-04 -1.70075351E-04  3.13886533E+00  3.59047964E-04
  3.13694537E-04  1.83330895E+00  6.37448412E+00  6.49622620E+00  2.54518735E+00
  1.90695979E+00  1.66243436E+00
ZRed-IntVec                                I   N=          12
          -1          -1          -1          -1          -1          -1
           0           0           0           0           0           0
ZRed-FPVec                                 R   N=          12
  0.00000000E+00  0.00000000E+00  0.00000000E+00  0.00000000E+00  0.00000000E+00
  0.00000000E+00  0.00000000E+00  0.00000000E+00  0.00000000E+00  0.00000000E+00
  0.00000000E+00  0.00000000E+00
ZRed-Constraint1                           R   N=          12
 -3.13884454E+00 -2.58892479E-04 -1.70075351E-04  3.13886533E+00  3.59047964E-04
  3.13694537E-04  1.83223831E+00  6.28665539E+00  6.56672844E+00  2.53163348E+00
  1.86891528E+00  1.57424365E+00
ZRed-Constraint2                           R   N=          12
 -3.13884454E+00 -2.58892479E-04 -1.70075351E-04  3.13886533E+00  3.59047964E-04
  3.13694537E-04  0.00000000E+00  0.00000000E+00  0.00000000E+00  0.00000000E+00
  0.00000000E+00  0.00000000E+00
Number of contracted shells                I               27
Number of primitive shells                 I               49
Pure/Cartesian d shells                    I                0
Pure/Cartesian f shells                    I                0
Highest angular momentum                   I                2
Largest degree of contraction              I                6
Shell types                                I   N=          27
           0          -1          -1          -1          -1          -2
           0           0           0           0           0           0
          -1           1           1           1           1           1
          -2           0           0           0           1           0
           0           0           1
Number of primitives per shell             I   N=          27
           6           3           1           1           1           1
           6           3           1           1           1           1
           1           4           2           1           1           1
           1           3           1           1           1           3
           1           1           1
Shell to atom map                          I   N=          27
           1           1           1           1           1           1
           2           2           2           2           2           2
           2           2           2           2           2           2
           2           3           3           3           3           4
           4           4           4
Primitive exponents                        R   N=          49
  8.58850000E+03  1.29723000E+03  2.99296000E+02  8.73771000E+01  2.56789000E+01
  3.74004000E+00  4.21175000E+01  9.62837000E+00  2.85332000E+00  9.05661000E-01
  2.55611000E-01  8.45000000E-02  1.29200000E+00  9.34134000E+04  1.39617000E+04
  3.16991000E+03  9.02456000E+02  2.97158000E+02  1.08702000E+02  1.08702000E+02
  4.31553000E+01  1.81079000E+01  5.56009000E+00  2.13183000E+00  4.20403000E-01
  1.36045000E-01  4.05000000E-02  4.95040000E+02  1.17221000E+02  3.77749000E+01
  1.40584000E+01  5.56574000E+00  2.26297000E+00  8.07994000E-01  2.77460000E-01
  7.71410000E-02  6.50000000E-01  3.38650000E+01  5.09479000E+00  1.15879000E+00
  3.25840000E-01  1.02741000E-01  7.50000000E-01  3.38650000E+01  5.09479000E+00
  1.15879000E+00  3.25840000E-01  1.02741000E-01  7.50000000E-01
Contraction coefficients                   R   N=          49
  1.89515008E-03  1.43859006E-02  7.07320031E-02  2.40001011E-01  5.94797026E-01
  2.80802012E-01  1.13889012E-01  9.20811101E-01 -3.27447036E-03  1.00000000E+00
  1.00000000E+00  1.00000000E+00  1.00000000E+00  7.42999957E-04  5.79299966E-03
  2.99539983E-02  1.19027993E-01  3.68431979E-01  5.77298966E-01  1.43186060E-01
  6.24465262E-01  2.83366119E-01  1.00000000E+00  1.00000000E+00  1.00000000E+00
  1.00000000E+00  1.00000000E+00  8.30900251E-03  6.40240194E-02  2.77614084E-01
  7.45076225E-01  6.13711672E-01  4.43817763E-01  1.00000000E+00  1.00000000E+00
  1.00000000E+00  1.00000000E+00  2.54938145E-02  1.90373109E-01  8.52161486E-01
  1.00000000E+00  1.00000000E+00  1.00000000E+00  2.54938145E-02  1.90373109E-01
  8.52161486E-01  1.00000000E+00  1.00000000E+00  1.00000000E+00
P(S=P) Contraction coefficients            R   N=          49
  0.00000000E+00  0.00000000E+00  0.00000000E+00  0.00000000E+00  0.00000000E+00
  0.00000000E+00  3.65113974E-02  2.37152983E-01  8.19701941E-01  1.00000000E+00
  1.00000000E+00  1.00000000E+00  0.00000000E+00  0.00000000E+00  0.00000000E+00
  0.00000000E+00  0.00000000E+00  0.00000000E+00  0.00000000E+00  0.00000000E+00
  0.00000000E+00  0.00000000E+00  0.00000000E+00  0.00000000E+00  0.00000000E+00
  0.00000000E+00  1.00000000E+00  0.00000000E+00  0.00000000E+00  0.00000000E+00
  0.00000000E+00  0.00000000E+00  0.00000000E+00  0.00000000E+00  0.00000000E+00
  0.00000000E+00  0.00000000E+00  0.00000000E+00  0.00000000E+00  0.00000000E+00
  0.00000000E+00  0.00000000E+00  0.00000000E+00  0.00000000E+00  0.00000000E+00
  0.00000000E+00  0.00000000E+00  0.00000000E+00  0.00000000E+00
Coordinates of each shell                  R   N=          81
 -3.13884454E+00 -2.58892479E-04 -1.70075351E-04 -3.13884454E+00 -2.58892479E-04
 -1.70075351E-04 -3.13884454E+00 -2.58892479E-04 -1.70075351E-04 -3.13884454E+00
 -2.58892479E-04 -1.70075351E-04 -3.13884454E+00 -2.58892479E-04 -1.70075351E-04
 -3.13884454E+00 -2.58892479E-04 -1.70075351E-04  3.13886533E+00  3.59047964E-04
  3.13694537E-04  3.13886533E+00  3.59047964E-04  3.13694537E-04  3.13886533E+00
  3.59047964E-04  3.13694537E-04  3.13886533E+00  3.59047964E-04  3.13694537E-04
  3.13886533E+00  3.59047964E-04  3.13694537E-04  3.13886533E+00  3.59047964E-04
  3.13694537E-04  3.13886533E+00  3.59047964E-04  3.13694537E-04  3.13886533E+00
  3.59047964E-04  3.13694537E-04  3.13886533E+00  3.59047964E-04  3.13694537E-04
  3.13886533E+00  3.59047964E-04  3.13694537E-04  3.13886533E+00  3.59047964E-04
  3.13694537E-04  3.13886533E+00  3.59047964E-04  3.13694537E-04  3.13886533E+00
  3.59047964E-04  3.13694537E-04 -3.09336407E+00  3.42984407E-01 -1.80048596E+00
 -3.09336407E+00  3.42984407E-01 -1.80048596E+00 -3.09336407E+00  3.42984407E-01
 -1.80048596E+00 -3.09336407E+00  3.42984407E-01 -1.80048596E+00  2.72043003E+00
 -1.51787570E+00  1.99977707E+00  2.72043003E+00 -1.51787570E+00  1.99977707E+00
  2.72043003E+00 -1.51787570E+00  1.99977707E+00  2.72043003E+00 -1.51787570E+00
  1.99977707E+00
Num ILSW                                   I              100
ILSW                                       I   N=         100
           1           0           0           0           2           0
           0           0           0           0        4336          -1
           7           0           0           0           0           0
           0           0           0           0           1           0
           0           1           1           0           0           0
           0           0      100000           0          -1           0
           0           0           0           0           0           0
           0           0           0           1           0           0
           0 -2000000000           1           0           0           0
           0           0           4          52           0           0
           0           0          55           0           0           0
           0           0           0           4           0           1
           0           0           0           0           0           0
           0           0           0           0           0           0
           0           0           0           0           0           0
           0           0           0           0           0           0
           0           0           0           0
Num RLSW                                   I               52
RLSW                                       R   N=          52
  1.00000000E+00  1.00000000E+00  1.00000000E+00  1.00000000E+00  5.40000000E-01
  0.00000000E+00  0.00000000E+00  1.00000000E+00  0.00000000E+00  0.00000000E+00
  0.00000000E+00  0.00000000E+00  1.00000000E+00  0.00000000E+00  0.00000000E+00
  0.00000000E+00  0.00000000E+00  1.00000000E+00  0.00000000E+00  0.00000000E+00
  0.00000000E+00  0.00000000E+00  1.00000000E+00  0.00000000E+00  0.00000000E+00
  0.00000000E+00  0.00000000E+00  1.00000000E+00  0.00000000E+00  0.00000000E+00
  0.00000000E+00  0.00000000E+00  1.00000000E+00  0.00000000E+00  0.00000000E+00
  0.00000000E+00  0.00000000E+00  0.00000000E+00  1.00000000E+00  1.00000000E+00
  0.00000000E+00  1.00000000E+00  0.00000000E+00  0.00000000E+00  0.00000000E+00
  0.00000000E+00  0.00000000E+00  0.00000000E+00  0.00000000E+00  0.00000000E+00
  0.00000000E+00  0.00000000E+00
MxBond                                     I                3
NBond                                      I   N=           4
           3           3           2           2
IBond                                      I   N=          12
           2           3           4           1           3           4
           1           2           0           1           2           0
RBond                                      R   N=          12
  1.00000000E-01  1.00000000E+00  1.00000000E-01  1.00000000E-01  1.00000000E-01
  1.00000000E+00  1.00000000E+00  1.00000000E-01  0.00000000E+00  1.00000000E-01
  1.00000000E+00  0.00000000E+00
Virial Ratio                               R      2.001749692754759E+00
SCF Energy                                 R     -4.743841026158306E+02
Total Energy                               R     -4.743841026158306E+02
S**2                                       R     -3.730349362740526E-14
S**2 after annihilation                    R      8.881784197001237E-14
RMS Force                                  R      1.574133162916758E-05
RMS Density                                R      7.337358550480637E-10
Job Status                                 I                3
Nuclear derivative order                   I                1
External E-field                           R   N=          35
  0.00000000E+00  0.00000000E+00  0.00000000E+00  0.00000000E+00  0.00000000E+00
  0.00000000E+00  0.00000000E+00  0.00000000E+00  0.00000000E+00  0.00000000E+00
  0.00000000E+00  0.00000000E+00  0.00000000E+00  0.00000000E+00  0.00000000E+00
  0.00000000E+00  0.00000000E+00  0.00000000E+00  0.00000000E+00  0.00000000E+00
  0.00000000E+00  0.00000000E+00  0.00000000E+00  0.00000000E+00  0.00000000E+00
  0.00000000E+00  0.00000000E+00  0.00000000E+00  0.00000000E+00  0.00000000E+00
  0.00000000E+00  0.00000000E+00  0.00000000E+00  0.00000000E+00  0.00000000E+00
IOpCl                                      I                1
IROHF                                      I                0
Alpha Orbital Energies                     R   N=          64
 -8.99785323E+01 -1.96732388E+01 -8.33994286E+00 -6.26208961E+00 -6.25838979E+00
 -6.25272397E+00 -1.08479417E+00 -8.37873185E-01 -5.25641483E-01 -4.96474787E-01
 -3.97892370E-01 -3.56817425E-01 -3.46006206E-01 -2.19124244E-01  1.61254706E-02
  3.88108992E-02  4.69284066E-02  5.46359197E-02  6.97882817E-02  1.36167049E-01
  1.92941321E-01  1.99141458E-01  2.11649556E-01  2.56451637E-01  3.08439965E-01
  3.39849445E-01  3.45332397E-01  3.91552781E-01  5.35076928E-01  5.92022078E-01
  7.01071967E-01  7.15361485E-01  7.86775577E-01  8.05600434E-01  9.68423461E-01
  1.04029357E+00  1.08134213E+00  1.09565687E+00  1.37429997E+00  1.39275627E+00
  1.39858744E+00  1.45918948E+00  1.47083373E+00  1.64112699E+00  1.66217788E+00
  1.67887455E+00  2.05903856E+00  2.08989575E+00  2.47827731E+00  2.53139229E+00
  2.88239009E+00  2.88716171E+00  3.16515515E+00  3.18766864E+00  3.84324762E+00
  5.03503265E+00  5.04425804E+00  5.51283089E+00  7.81610353E+00  1.74058895E+01
  1.74213627E+01  1.74528413E+01  4.98711827E+01  1.89076028E+02
Beta Orbital Energies                      R   N=          64
 -8.99785323E+01 -1.96732388E+01 -8.33994286E+00 -6.26208961E+00 -6.25838979E+00
 -6.25272397E+00 -1.08479417E+00 -8.37873185E-01 -5.25641483E-01 -4.96474787E-01
 -3.97892370E-01 -3.56817425E-01 -3.46006206E-01 -2.19124244E-01  1.61254706E-02
  3.88108992E-02  4.69284066E-02  5.46359197E-02  6.97882817E-02  1.36167049E-01
  1.92941321E-01  1.99141458E-01  2.11649556E-01  2.56451637E-01  3.08439965E-01
  3.39849445E-01  3.45332397E-01  3.91552781E-01  5.35076928E-01  5.92022078E-01
  7.01071967E-01  7.15361485E-01  7.86775577E-01  8.05600434E-01  9.68423461E-01
  1.04029357E+00  1.08134213E+00  1.09565687E+00  1.37429997E+00  1.39275627E+00
  1.39858744E+00  1.45918948E+00  1.47083373E+00  1.64112699E+00  1.66217788E+00
  1.67887455E+00  2.05903856E+00  2.08989575E+00  2.47827731E+00  2.53139229E+00
  2.88239009E+00  2.88716171E+00  3.16515515E+00  3.18766864E+00  3.84324762E+00
  5.03503265E+00  5.04425804E+00  5.51283089E+00  7.81610353E+00  1.74058895E+01
  1.74213627E+01  1.74528413E+01  4.98711827E+01  1.89076028E+02
Alpha MO coefficients                      R   N=        4096
  1.60704481E-07 -6.26051872E-07  1.66440953E-06 -3.09026816E-07  4.47082367E-07
  5.42493055E-06 -5.04754066E-06  1.11539529E-06 -2.06516664E-06 -2.75519025E-05
 -2.42240681E-06 -1.96829319E-06  1.65015252E-06  1.77535861E-04  4.76492829E-05
  1.79879609E-05 -8.61252965E-05  1.03586198E-06 -1.75321148E-06 -7.32783850E-07
  2.08762043E-06  2.60431035E-07  4.10786421E-01  6.54412183E-01  1.53469234E-02
 -4.34233914E-03  1.60408562E-03 -8.99868435E-04  1.27038354E-04 -2.59457576E-05
 -1.32481637E-05  1.69610023E-05 -3.21095537E-05 -4.54425465E-05  5.87037740E-05
  8.17389738E-06  1.50391959E-05 -1.94861396E-05  2.70020722E-06  4.26021227E-06
 -5.83373438E-06 -4.16137135E-05 -1.06785281E-04  1.40704685E-04  8.50758586E-05
  1.11464026E-04 -1.45250457E-04  3.71817824E-05 -1.89638738E-05 -7.39121277E-05
 -2.29976103E-05  1.39822607E-05  1.92708033E-07  4.66300328E-06 -1.78334797E-04
 -6.46679327E-06  2.12655518E-07 -3.30178685E-06  2.62927302E-05 -2.15870412E-04
  2.76271530E-04 -2.96951671E-05 -1.03421020E-04  1.36503325E-04  5.52844382E-01
  4.69701353E-01  2.33426945E-04  2.28840892E-04 -1.21874663E-03  8.03328570E-03
 -3.27545985E-05 -2.12421707E-05  1.20324875E-04 -3.06652839E-03 -1.20881462E-04
  3.05901898E-05 -1.72178603E-04  2.47283842E-03  3.51400450E-04  7.19720113E-05
 -3.67985221E-04  1.34603501E-04 -7.97424702E-06 -4.17701781E-05 -2.20880338E-05
  6.75596783E-07  4.02530035E-08 -5.15258619E-07  4.72048679E-06 -1.23738728E-05
  4.66985436E-05 -5.93525452E-05 -4.66954793E-04  3.33953414E-04  3.09416854E-06
 -2.18620498E-05 -8.75100349E-07 -2.18522615E-07  2.32926946E-07  1.65929484E-05
 -4.78189246E-07  4.08655808E-07 -5.74403119E-05  9.13299523E-07 -6.59324670E-07
  8.67922871E-05 -2.06644072E-06  2.40625374E-06  4.40273458E-06  8.34076106E-05
 -9.86842874E-05  1.32447470E-05  1.29987647E-06  8.09731681E-06 -2.61431672E-05
 -9.71275119E-07  6.13608466E-05  4.02493452E-06 -1.07143336E-03  1.29934017E-05
  8.23509192E-05 -4.34174801E-04  1.32181532E-05 -2.91280188E-05  2.52549497E-04
  7.32194564E-06  2.59753572E-07  1.48225688E-06 -3.07541677E-07 -3.46023798E-07
  4.03902471E-05 -2.91266366E-06  6.92020894E-06  9.32866523E-06 -7.81215059E-05
  1.40279034E-05 -3.18445360E-05 -1.81858595E-04  9.72211544E-05 -1.67876275E-05
 -1.34971941E-05  2.15956402E-03  5.37468226E-04  2.33802384E-04 -1.12648917E-03
  1.60455480E-05 -2.12120492E-05 -1.09775068E-05  2.91098348E-05  3.65036297E-06
 -1.19758977E-01 -3.20472563E-01  5.15958853E-01  5.99044776E-01  4.28415113E-02
 -1.48952927E-02  2.33456633E-03 -4.03699649E-04 -1.53508358E-04  1.94924842E-04
 -8.34704121E-04 -1.12742161E-03  1.44968577E-03 -1.92720476E-03 -2.54938965E-03
  3.27902655E-03 -1.70815835E-04 -2.26361222E-04  2.82165152E-04 -4.50327493E-04
 -1.15124456E-03  1.51750746E-03  1.09159573E-03  1.40677565E-03 -1.83146302E-03
  2.43560956E-04 -1.34072977E-04 -1.09033012E-03  1.84812432E-04  7.80372828E-05
 -5.45545105E-06  6.40035319E-06 -2.33065568E-03 -8.56711042E-05  7.08771087E-06
 -6.02979133E-05  1.54676668E-04 -2.03744210E-03  3.51400346E-03 -2.88317671E-04
 -9.81439564E-04  1.29548360E-03  2.89557507E-06  1.51347053E-05  9.14257717E-06
  1.20114856E-06  8.33021145E-07 -1.49659654E-04 -7.55228844E-05 -5.90236211E-06
 -3.96827491E-07  3.49451122E-04  2.49785940E-04  2.70390808E-05 -5.97275620E-05
  1.61787309E-05  1.98097079E-04 -2.14493279E-06 -7.93683258E-05  8.50391824E-07
  2.55023098E-06 -5.49954763E-06  2.50792831E-05  2.11466371E-07 -1.65902242E-04
 -4.55917768E-04  8.61634991E-04  6.34958466E-04  1.16924783E-04 -5.01413334E-05
 -1.06908968E-04 -2.49516173E-03  3.17382714E-04 -3.65130778E-04  3.70183105E-01
 -5.28641839E-02  6.05111539E-02  6.92862936E-01 -9.89290575E-02  1.13232973E-01
  5.37286792E-02 -7.66061011E-03  8.77082533E-03 -7.53296377E-03  1.02940854E-03
 -1.17711525E-03  4.73168097E-03 -5.73976460E-04  6.56303195E-04  1.41622586E-04
  3.66870668E-04 -1.12135335E-04 -2.01539383E-04 -2.86110317E-04 -4.91680816E-05
 -5.83577986E-06 -2.47111991E-04  1.96900177E-05  2.14265535E-06 -1.73302092E-05
  1.93364840E-05  2.49536234E-06  4.71042338E-05  6.22836115E-05 -3.97547913E-05
  5.07557795E-05 -6.29639041E-07 -2.76838033E-06 -2.45833295E-06  5.14600513E-06
 -7.60209278E-06  2.65375243E-05  2.42854393E-05 -2.30325912E-05  3.57212894E-05
 -6.85490726E-05 -8.77947819E-05  5.44844814E-05 -6.58230781E-05 -9.37409937E-05
 -2.86269719E-05 -5.96947016E-05  9.93675166E-05 -3.69663657E-07  1.14991921E-07
  2.19189705E-07 -4.76582769E-06  2.82385870E-06  7.72621314E-04  2.09059342E-03
 -3.69997960E-03 -3.74795924E-03  6.75580144E-04  3.35950753E-04  4.82675673E-04
  4.15119104E-04  1.18895500E-03 -1.57418514E-03 -8.02749092E-02 -2.23589406E-01
  2.95912759E-01 -1.49993499E-01 -4.17695926E-01  5.52806778E-01 -1.14023378E-02
 -3.17287769E-02  4.19919650E-02  1.52178540E-03  4.11811618E-03 -5.45168357E-03
 -9.87861577E-04 -2.60671194E-03  3.44890594E-03  2.72097232E-04 -2.56198644E-04
 -5.94831053E-04 -1.51845856E-04  1.94989219E-04 -8.24488668E-06  2.03664564E-05
  5.67684388E-05  2.34779999E-05 -4.66457092E-06  1.38220517E-05  5.57114780E-04
  9.65302053E-05 -1.14314746E-03 -8.49095839E-05 -3.88144614E-04  5.12899421E-04
  5.95827752E-08  4.29937560E-07  1.72876251E-07 -5.75620360E-06 -4.83583051E-06
 -3.71910072E-06 -1.10438447E-06  2.53029376E-05  2.27914937E-05 -1.74170974E-06
 -2.77447651E-06 -6.46539061E-05 -4.62610939E-05  2.01505174E-05  4.43843976E-06
  6.00566747E-05  3.28391349E-05  2.04138709E-07 -9.57449784E-07  1.64868118E-06
  5.63347711E-07 -5.84026537E-06 -1.26301906E-05 -3.43979149E-05  6.23649669E-05
  5.72468831E-05 -8.24951214E-06  2.31407656E-06 -4.76210647E-06 -3.53609982E-05
 -1.70114500E-03 -1.29481731E-03  5.59232755E-03  3.02642033E-01  2.30191354E-01
  1.04270512E-02  5.64405007E-01  4.29289403E-01  7.65768411E-04  4.13169521E-02
  3.14256005E-02 -1.06156356E-04 -5.55477049E-03 -4.22253857E-03  6.76523599E-05
  3.21061739E-03  2.44119268E-03  3.49919497E-04 -9.47504636E-05  1.05194625E-04
  2.01177694E-04 -1.34252936E-04 -9.43696081E-06  1.39866701E-05 -2.71865413E-05
  1.39902006E-05  6.39082306E-06  7.82713722E-06 -8.51068297E-07 -3.89587828E-06
  4.59994157E-06  1.02366636E-06  7.50443820E-05  5.84536181E-05 -1.18694630E-01
 -1.95608083E-01  1.59372548E-03  8.74059317E-03 -4.64909284E-02  5.74773323E-01
  2.79324052E-03  1.40181940E-02 -7.45355648E-02  4.19446235E-01  3.67305630E-03
  4.99575606E-03 -2.78590866E-02 -2.03193244E-02 -5.23852423E-03 -1.19589116E-03
  6.03579168E-03  9.04729557E-03 -4.22992276E-04 -4.05321573E-03  4.79007923E-03
  2.28519760E-04  3.92070510E-04  1.11596942E-03 -2.35654410E-03 -4.09708267E-03
  5.69978890E-03  8.06627720E-03  7.77053188E-03 -4.69175009E-03  1.01391778E-04
 -1.25522171E-04  8.78222491E-04 -3.89225815E-06  6.82780236E-06  1.57127530E-03
 -7.33991951E-06  1.07468751E-05 -1.33335741E-03  7.30454276E-05 -8.40242977E-05
 -7.08181900E-03 -4.47832846E-05  6.54851636E-05 -3.03349307E-03 -1.63893123E-03
  1.93472089E-03 -6.50872114E-04 -6.14034845E-05 -3.88110184E-04  1.35368653E-03
  7.73608681E-05  1.10478420E-01  8.92800219E-02  1.70196918E-02 -7.76120127E-04
 -4.86005852E-03  2.56001052E-02  8.32725278E-04  1.99581026E-04 -4.41385433E-03
 -6.02495654E-05  5.15882259E-06 -5.60250235E-06  2.09751077E-03  3.49128002E-03
  5.18886466E-03 -3.61791407E-04  1.83598935E-03 -1.09263648E-02  8.21090290E-03
 -5.54655899E-04  2.79878860E-03 -5.60329374E-03  7.32859804E-03 -1.50158630E-04
  1.16537402E-03 -9.26492794E-03 -1.70019765E-03 -1.03836538E-03  4.85101882E-03
 -4.94400737E-04 -2.21633398E-04  9.75261387E-05  3.60139596E-04  4.21851069E-05
  3.34241293E-02  9.49796810E-02 -1.99349750E-01 -3.68918040E-01  6.69355719E-01
  4.07668541E-01 -1.02031355E-02  5.69413438E-04 -5.77859794E-04  1.35108178E-03
  1.94894181E-03  1.02537066E-02 -1.33137983E-02  3.98368172E-03  2.04869653E-02
 -2.66125451E-02 -6.05800171E-03 -2.85433569E-02  3.71839391E-02 -3.33207546E-03
 -3.83833297E-02  4.93347785E-02 -1.94463251E-03 -6.14833753E-03  6.49983924E-03
  6.09139476E-03 -2.72128972E-03 -2.30979972E-02  2.28390056E-03  1.85978794E-03
 -2.70646966E-03 -3.23017615E-03  1.04637597E-02  1.01837004E-03  1.27676398E-04
 -6.20837528E-04  1.01031947E-01  1.33449411E-01  1.93684653E-03  4.89768448E-03
  1.40167657E-02 -1.85005995E-02 -3.92428703E-02 -6.57090406E-02 -5.65805522E-03
 -4.76458485E-02  2.46833043E-01  2.00433470E-01 -8.23316579E-03 -6.86099152E-02
  3.55389274E-01  2.86150281E-01 -3.70347822E-03 -4.62819339E-02  2.37949165E-01
  6.00444729E-02 -1.36339561E-03 -5.27367733E-03  2.53133811E-02 -1.81122878E-02
  1.60539546E-03  5.72572876E-03  2.17552976E-03 -2.75933016E-04 -9.75555056E-04
 -2.78183161E-03  5.93145393E-03  1.10736708E-02 -2.15224879E-02 -1.88902207E-02
 -1.71819404E-03  1.95458806E-03  7.91402892E-04 -1.21327703E-03  2.00346249E-03
  2.40062048E-03 -4.13006825E-03  3.85107384E-03  4.66671531E-03 -8.01095254E-03
 -5.18086717E-03 -6.67040866E-03  1.14281337E-02 -1.14983177E-02 -1.18978436E-02
  2.08692794E-02 -6.45271723E-03 -2.92344901E-03  7.88727079E-03  9.52547704E-04
 -1.86490935E-03 -2.23808851E-03 -3.56636653E-04  8.58629352E-04 -1.65763909E-01
 -2.59267946E-01 -8.09359423E-02  1.62098161E-04  5.60771008E-03 -2.93817397E-02
  8.97499091E-03  1.35762327E-02  9.65097113E-03 -3.43284631E-04  8.52335031E-04
 -9.84126551E-04  2.28914947E-03  3.84079502E-03 -4.26756006E-03  3.76650914E-04
 -1.81877833E-02 -1.17329456E-02 -6.84305174E-03  4.61762996E-04 -2.63072710E-02
 -1.73858104E-02 -5.31188289E-03 -4.20511889E-04 -1.77665453E-02 -8.72903021E-03
 -5.11738777E-03 -1.34080120E-03  5.22984748E-04  1.46309161E-03  2.99827742E-04
 -2.93068462E-04 -2.95408053E-04 -1.84104912E-04 -1.21330143E-02 -3.46648337E-02
  7.45201138E-02  1.36192896E-01 -2.50224494E-01 -2.97478439E-01 -2.36342270E-02
  3.84322086E-03  1.43557953E-02 -1.93205825E-02  1.38116292E-02  4.92569024E-02
 -6.51469750E-02  2.69049140E-02  9.59136698E-02 -1.26850200E-01 -3.93653937E-02
 -1.39765057E-01  1.84775330E-01 -6.90366691E-02 -2.44168220E-01  3.23249126E-01
 -1.87996566E-02 -6.50985159E-02  8.73385194E-02  2.37061399E-02 -1.18946445E-02
 -3.99066690E-02 -1.93867979E-02  9.19725302E-03  1.17721405E-02  1.94029135E-02
  7.78851492E-03 -1.12987801E-03 -7.73988755E-04  2.09002689E-03  1.57391280E-01
  2.84810122E-01  1.31475948E-01  6.18654834E-03  1.57186661E-02 -2.08866434E-02
 -1.82634024E-04 -3.07069474E-04 -6.30263361E-03  2.98772293E-01  5.69881336E-02
  1.02561694E-03 -9.29805245E-03  4.37903371E-01  8.35275984E-02  1.16321784E-03
 -8.38323744E-03  3.94824493E-01  7.54630626E-02 -2.85160960E-03 -2.48587223E-03
  8.60713148E-02  1.69658488E-02 -4.54077315E-03  5.48914063E-04 -1.34289465E-02
 -2.60227630E-03  1.18258352E-03 -1.10017222E-04 -3.16134504E-04  6.95853817E-04
  1.19537982E-03 -1.94870084E-03 -4.31224780E-03 -2.21537580E-03  3.29456209E-04
 -5.10069737E-04 -2.38534966E-03 -2.04974182E-04 -4.81052487E-03 -5.30409049E-03
 -3.94783319E-04 -9.23370274E-03 -1.02379901E-02  5.23568055E-04  1.33569727E-02
  1.50019312E-02  1.31099244E-03  2.81966338E-02  2.99787424E-02  1.00360083E-03
  1.77201419E-02  1.36846997E-02  1.42847491E-03 -5.06367086E-04 -5.37269094E-04
  5.87951812E-05 -1.53418727E-03 -2.72222133E-05  1.87226735E-04  1.82351730E-03
 -7.36129314E-04  3.52488170E-02  6.80542086E-03  2.67430291E-03  4.32983952E-03
  4.99374702E-03  5.98200888E-04  1.43077992E-03  5.52476799E-04 -3.87308404E-05
 -6.58719075E-05 -1.29663835E-02 -2.44075960E-02 -8.01553863E-03  2.45590964E-04
 -1.95658554E-02 -3.55852550E-02 -1.16553815E-02  2.01590502E-04 -1.80174552E-02
 -3.35784612E-02 -1.02538702E-02 -4.02057328E-03 -5.27580753E-03 -7.11187739E-03
  2.53899128E-04  7.42103452E-04  9.00092939E-04  1.04662503E-03  2.53566570E-05
  9.73832900E-05  1.99763200E-04  5.67321204E-04 -1.19046800E-03 -2.42848794E-03
  5.85345049E-03  1.34875152E-03 -4.81096871E-03 -3.17193938E-03 -4.77036815E-02
 -3.60720366E-02 -5.81917742E-03 -8.16028282E-02 -6.27109007E-02 -1.12414159E-02
 -1.57177053E-01 -1.20806786E-01  1.58985911E-02  2.31746067E-01  1.78062046E-01
  3.43466862E-02  4.76820051E-01  3.66143090E-01  2.10869401E-02  2.63367979E-01
  2.01175822E-01  1.40128110E-02 -6.16447763E-05  3.91610143E-03  7.53511436E-03
 -1.62280674E-03  1.88335696E-03  2.75760813E-03  3.68522255E-03 -1.94571494E-03
 -2.84753932E-03 -4.48997387E-05 -2.15581687E-04 -3.20034485E-05  2.62154011E-03