 Entering Gaussian System, Link 0=g16
 Initial command:
 /home/szhao/Apps/g16/l1.exe "/home/szhao/tmp/Gau-67191.inp" -scrdir="/home/szhao/tmp/"
 Default is to use a total of  16 processors:
                               16 via shared-memory
                                1 via Linda
 Entering Link 1 = /home/szhao/Apps/g16/l1.exe PID=     67192.
  
 Copyright (c) 1988,1990,1992,1993,1995,1998,2003,2009,2016,
            Gaussian, Inc.  All Rights Reserved.
  
 This is part of the Gaussian(R) 16 program.  It is based on
 the Gaussian(R) 09 system (copyright 2009, Gaussian, Inc.),
 the Gaussian(R) 03 system (copyright 2003, Gaussian, Inc.),
 the Gaussian(R) 98 system (copyright 1998, Gaussian, Inc.),
 the Gaussian(R) 94 system (copyright 1995, Gaussian, Inc.),
 the Gaussian 92(TM) system (copyright 1992, Gaussian, Inc.),
 the Gaussian 90(TM) system (copyright 1990, Gaussian, Inc.),
 the Gaussian 88(TM) system (copyright 1988, Gaussian, Inc.),
 the Gaussian 86(TM) system (copyright 1986, Carnegie Mellon
 University), and the Gaussian 82(TM) system (copyright 1983,
 Carnegie Mellon University). Gaussian is a federally registered
 trademark of Gaussian, Inc.
  
 This software contains proprietary and confidential information,
 including trade secrets, belonging to Gaussian, Inc.
  
 This software is provided under written license and may be
 used, copied, transmitted, or stored only in accord with that
 written license.
  
 The following legend is applicable only to US Government
 contracts under FAR:
  
                    RESTRICTED RIGHTS LEGEND
  
 Use, reproduction and disclosure by the US Government is
 subject to restrictions as set forth in subparagraphs (a)
 and (c) of the Commercial Computer Software - Restricted
 Rights clause in FAR 52.227-19.
  
 Gaussian, Inc.
 340 Quinnipiac St., Bldg. 40, Wallingford CT 06492
  
  
 ---------------------------------------------------------------
 Warning -- This program may not be used in any manner that
 competes with the business of Gaussian, Inc. or will provide
 assistance to any competitor of Gaussian, Inc.  The licensee
 of this program is prohibited from giving any competitor of
 Gaussian, Inc. access to this program.  By using this program,
 the user acknowledges that Gaussian, Inc. is engaged in the
 business of creating and licensing software in the field of
 computational chemistry and represents and warrants to the
 licensee that it is not a competitor of Gaussian, Inc. and that
 it will not use this program in any manner prohibited above.
 ---------------------------------------------------------------
  

 Cite this work as:
 Gaussian 16, Revision A.03,
 M. J. Frisch, G. W. Trucks, H. B. Schlegel, G. E. Scuseria, 
 M. A. Robb, J. R. Cheeseman, G. Scalmani, V. Barone, 
 G. A. Petersson, H. Nakatsuji, X. Li, M. Caricato, A. V. Marenich, 
 J. Bloino, B. G. Janesko, R. Gomperts, B. Mennucci, H. P. Hratchian, 
 J. V. Ortiz, A. F. Izmaylov, J. L. Sonnenberg, D. Williams-Young, 
 F. Ding, F. Lipparini, F. Egidi, J. Goings, B. Peng, A. Petrone, 
 T. Henderson, D. Ranasinghe, V. G. Zakrzewski, J. Gao, N. Rega, 
 G. Zheng, W. Liang, M. Hada, M. Ehara, K. Toyota, R. Fukuda, 
 J. Hasegawa, M. Ishida, T. Nakajima, Y. Honda, O. Kitao, H. Nakai, 
 T. Vreven, K. Throssell, J. A. Montgomery, Jr., J. E. Peralta, 
 F. Ogliaro, M. J. Bearpark, J. J. Heyd, E. N. Brothers, K. N. Kudin, 
 V. N. Staroverov, T. A. Keith, R. Kobayashi, J. Normand, 
 K. Raghavachari, A. P. Rendell, J. C. Burant, S. S. Iyengar, 
 J. Tomasi, M. Cossi, J. M. Millam, M. Klene, C. Adamo, R. Cammi, 
 J. W. Ochterski, R. L. Martin, K. Morokuma, O. Farkas, 
 J. B. Foresman, and D. J. Fox, Gaussian, Inc., Wallingford CT, 2016.
 
 ******************************************
 Gaussian 16:  ES64L-G16RevA.03 25-Dec-2016
                15-Nov-2024 
 ******************************************
 %chk=opt.chk
 %mem=24GB
 %nprocshared=28
 Will use up to   28 processors via shared memory.
 --------------------------------------------
 #p opt UM062X/6-311+G** nosymm int=superfine
 --------------------------------------------
 1/18=20,19=15,26=5,38=1/1,3;
 2/9=110,12=2,15=1,17=6,18=5,40=1/2;
 3/5=4,6=6,7=111,11=2,25=1,30=1,71=1,74=-55,75=-7,116=2/1,2,3;
 4//1;
 5/5=2,38=5/2;
 6/7=2,8=2,9=2,10=2,28=1/1;
 7/30=1/1,2,3,16;
 1/18=20,19=15,26=5/3(2);
 2/9=110,15=1/2;
 99//99;
 2/9=110,15=1/2;
 3/5=4,6=6,7=111,11=2,25=1,30=1,71=1,74=-55,75=-7,116=2/1,2,3;
 4/5=5,16=3,69=1/1;
 5/5=2,38=5/2;
 7/30=1/1,2,3,16;
 1/18=20,19=15,26=5/3(-5);
 2/9=110,15=1/2;
 6/7=2,8=2,9=2,10=2,19=2,28=1/1;
 99/9=1/99;
 Leave Link    1 at Fri Nov 15 09:02:32 2024, MaxMem=  3221225472 cpu:               1.4 elap:               0.1
 (Enter /home/szhao/Apps/g16/l101.exe)
 -------------------
 Title Card Required
 -------------------
 Symbolic Z-matrix:
 Charge =  1 Multiplicity = 2
 C                    -1   -1.74049   0.        0. 
 C                    -1    1.74049   0.        0. 
 C                    0    -0.00001  -2.05545  -0.00218 
 C                    0    -0.00002  -3.45663  -0.00371 
 C                    0    -1.20186  -4.28965   0.19342 
 C                    0    -1.4028   -1.46623   0.1642 
 C                    0     0.70503  -5.68273  -0.12501 
 H                    0     1.37607  -6.55103  -0.24207 
 C                    0    -1.76215   0.76446   1.22074 
 C                    0    -0.7051   -5.68298   0.11279 
 H                    0    -1.37613  -6.55152   0.22811 
 C                    0     1.20181  -4.28923  -0.20263 
 C                    0     1.40278  -1.46588  -0.16728 
 C                    0     1.89437   2.19169  -1.3377 
 C                    0    -1.8601    0.40954  -1.37421 
 C                    0    -1.95359   2.76909   2.62285 
 H                    0    -2.07229   3.84515   2.68869 
 C                    0    -2.49068  -3.70309   0.41334 
 H                    0    -3.4476   -4.27951   0.58257 
 C                    0    -1.85187   1.75683  -1.86868 
 C                    0     2.5579   -2.28649  -0.38846 
 H                    0     3.5866   -1.81329  -0.50709 
 C                    0     1.86014   0.40666   1.37506 
 C                    0     1.85191   1.7529    1.87236 
 C                    0     2.49067  -3.70221  -0.42114 
 H                    0     3.4476   -4.27827  -0.59154 
 C                    0    -1.8946    2.18887   1.34229 
 C                    0    -1.60848   0.04225   2.44255 
 H                    0    -1.45825  -1.02703   2.40771 
 C                    0     1.93525  -0.6279    2.36195 
 H                    0     1.97244  -1.65906   2.04522 
 C                    0    -1.85792   2.02408   3.78017 
 H                    0    -1.91716   2.50708   4.74815 
 C                    0    -2.55791  -2.2873    0.38372 
 H                    0    -3.5866   -1.81434   0.50343 
 C                    0    -1.87499   1.98025  -3.26009 
 H                    0    -1.84942   3.00603  -3.6092 
 C                    0     1.76211   0.76702  -1.21914 
 C                    0    -1.89667   3.13594   0.25924 
 H                    0    -1.92581   4.17143   0.58431 
 C                    0    -1.94764   0.95519  -4.17546 
 H                    0    -1.98265   1.17003  -5.2367 
 C                    0    -1.84397   2.95543  -1.07579 
 H                    0    -1.82614   3.86784  -1.66424 
 C                    0     1.87525   1.9734    3.26424 
 H                    0     1.84971   2.99844   3.61551 
 C                    0    -1.66197   0.64359   3.67979 
 H                    0    -1.54966   0.03773   4.57152 
 C                    0    -1.93514  -0.62294  -2.36328 
 H                    0    -1.97239  -1.65476  -2.0487 
 C                    0     1.94804   0.94641   4.17744 
 H                    0     1.98323   1.15903   5.23912 
 C                    0     1.95336   2.7746   -2.61703 
 H                    0     2.07191   3.85082  -2.6806 
 C                    0     1.9962   -0.37237   3.71002 
 H                    0     2.07683  -1.19838   4.40662 
 C                    0     1.85789   2.03202  -3.77592 
 H                    0     1.91715   2.51706  -4.74288 
 C                    0     1.8962    3.13649  -0.25266 
 H                    0     1.92503   4.17267  -0.57555 
 C                    0    -1.99591  -0.36457  -3.71082 
 H                    0    -2.07651  -1.18911  -4.40915 
 C                    0     1.84366   2.95316   1.082 
 H                    0     1.82568   3.86434   1.67236 
 C                    0     1.60855   0.04736  -2.44247 
 H                    0     1.45842  -1.02199  -2.40988 
 C                    0     1.66208   0.6513   -3.67844 
 H                    0     1.54989   0.0473   -4.57144 
 
 ITRead=  2  2  0  0  0  0  0  0  0  0  0  0  0  0  0  0  0  0  0  0
 ITRead=  0  0  0  0  0  0  0  0  0  0  0  0  0  0  0  0  0  0  0  0
 ITRead=  0  0  0  0  0  0  0  0  0  0  0  0  0  0  0  0  0  0  0  0
 ITRead=  0  0  0  0  0  0  0  0
 MicOpt= -2 -2 -1 -1 -1 -1 -1 -1 -1 -1 -1 -1 -1 -1 -1 -1 -1 -1 -1 -1
 MicOpt= -1 -1 -1 -1 -1 -1 -1 -1 -1 -1 -1 -1 -1 -1 -1 -1 -1 -1 -1 -1
 MicOpt= -1 -1 -1 -1 -1 -1 -1 -1 -1 -1 -1 -1 -1 -1 -1 -1 -1 -1 -1 -1
 MicOpt= -1 -1 -1 -1 -1 -1 -1 -1
 NAtoms=     68 NQM=       66 NQMF=       2 NMMI=      0 NMMIF=      0
                NMic=       0 NMicF=      0.
                    Isotopes and Nuclear Properties:
 (Nuclear quadrupole moments (NQMom) in fm**2, nuclear magnetic moments (NMagM)
  in nuclear magnetons)

  Atom         1           2           3           4           5           6           7           8           9          10
 IAtWgt=          12          12          12          12          12          12          12           1          12          12
 AtmWgt=  12.0000000  12.0000000  12.0000000  12.0000000  12.0000000  12.0000000  12.0000000   1.0078250  12.0000000  12.0000000
 NucSpn=           0           0           0           0           0           0           0           1           0           0
 AtZEff=  -0.0000000  -0.0000000  -0.0000000  -0.0000000  -0.0000000  -0.0000000  -0.0000000  -0.0000000  -0.0000000  -0.0000000
 NQMom=    0.0000000   0.0000000   0.0000000   0.0000000   0.0000000   0.0000000   0.0000000   0.0000000   0.0000000   0.0000000
 NMagM=    0.0000000   0.0000000   0.0000000   0.0000000   0.0000000   0.0000000   0.0000000   2.7928460   0.0000000   0.0000000
 AtZNuc=   6.0000000   6.0000000   6.0000000   6.0000000   6.0000000   6.0000000   6.0000000   1.0000000   6.0000000   6.0000000

  Atom        11          12          13          14          15          16          17          18          19          20
 IAtWgt=           1          12          12          12          12          12           1          12           1          12
 AtmWgt=   1.0078250  12.0000000  12.0000000  12.0000000  12.0000000  12.0000000   1.0078250  12.0000000   1.0078250  12.0000000
 NucSpn=           1           0           0           0           0           0           1           0           1           0
 AtZEff=  -0.0000000  -0.0000000  -0.0000000  -0.0000000  -0.0000000  -0.0000000  -0.0000000  -0.0000000  -0.0000000  -0.0000000
 NQMom=    0.0000000   0.0000000   0.0000000   0.0000000   0.0000000   0.0000000   0.0000000   0.0000000   0.0000000   0.0000000
 NMagM=    2.7928460   0.0000000   0.0000000   0.0000000   0.0000000   0.0000000   2.7928460   0.0000000   2.7928460   0.0000000
 AtZNuc=   1.0000000   6.0000000   6.0000000   6.0000000   6.0000000   6.0000000   1.0000000   6.0000000   1.0000000   6.0000000

  Atom        21          22          23          24          25          26          27          28          29          30
 IAtWgt=          12           1          12          12          12           1          12          12           1          12
 AtmWgt=  12.0000000   1.0078250  12.0000000  12.0000000  12.0000000   1.0078250  12.0000000  12.0000000   1.0078250  12.0000000
 NucSpn=           0           1           0           0           0           1           0           0           1           0
 AtZEff=  -0.0000000  -0.0000000  -0.0000000  -0.0000000  -0.0000000  -0.0000000  -0.0000000  -0.0000000  -0.0000000  -0.0000000
 NQMom=    0.0000000   0.0000000   0.0000000   0.0000000   0.0000000   0.0000000   0.0000000   0.0000000   0.0000000   0.0000000
 NMagM=    0.0000000   2.7928460   0.0000000   0.0000000   0.0000000   2.7928460   0.0000000   0.0000000   2.7928460   0.0000000
 AtZNuc=   6.0000000   1.0000000   6.0000000   6.0000000   6.0000000   1.0000000   6.0000000   6.0000000   1.0000000   6.0000000

  Atom        31          32          33          34          35          36          37          38          39          40
 IAtWgt=           1          12           1          12           1          12           1          12          12           1
 AtmWgt=   1.0078250  12.0000000   1.0078250  12.0000000   1.0078250  12.0000000   1.0078250  12.0000000  12.0000000   1.0078250
 NucSpn=           1           0           1           0           1           0           1           0           0           1
 AtZEff=  -0.0000000  -0.0000000  -0.0000000  -0.0000000  -0.0000000  -0.0000000  -0.0000000  -0.0000000  -0.0000000  -0.0000000
 NQMom=    0.0000000   0.0000000   0.0000000   0.0000000   0.0000000   0.0000000   0.0000000   0.0000000   0.0000000   0.0000000
 NMagM=    2.7928460   0.0000000   2.7928460   0.0000000   2.7928460   0.0000000   2.7928460   0.0000000   0.0000000   2.7928460
 AtZNuc=   1.0000000   6.0000000   1.0000000   6.0000000   1.0000000   6.0000000   1.0000000   6.0000000   6.0000000   1.0000000

  Atom        41          42          43          44          45          46          47          48          49          50
 IAtWgt=          12           1          12           1          12           1          12           1          12           1
 AtmWgt=  12.0000000   1.0078250  12.0000000   1.0078250  12.0000000   1.0078250  12.0000000   1.0078250  12.0000000   1.0078250
 NucSpn=           0           1           0           1           0           1           0           1           0           1
 AtZEff=  -0.0000000  -0.0000000  -0.0000000  -0.0000000  -0.0000000  -0.0000000  -0.0000000  -0.0000000  -0.0000000  -0.0000000
 NQMom=    0.0000000   0.0000000   0.0000000   0.0000000   0.0000000   0.0000000   0.0000000   0.0000000   0.0000000   0.0000000
 NMagM=    0.0000000   2.7928460   0.0000000   2.7928460   0.0000000   2.7928460   0.0000000   2.7928460   0.0000000   2.7928460
 AtZNuc=   6.0000000   1.0000000   6.0000000   1.0000000   6.0000000   1.0000000   6.0000000   1.0000000   6.0000000   1.0000000

  Atom        51          52          53          54          55          56          57          58          59          60
 IAtWgt=          12           1          12           1          12           1          12           1          12           1
 AtmWgt=  12.0000000   1.0078250  12.0000000   1.0078250  12.0000000   1.0078250  12.0000000   1.0078250  12.0000000   1.0078250
 NucSpn=           0           1           0           1           0           1           0           1           0           1
 AtZEff=  -0.0000000  -0.0000000  -0.0000000  -0.0000000  -0.0000000  -0.0000000  -0.0000000  -0.0000000  -0.0000000  -0.0000000
 NQMom=    0.0000000   0.0000000   0.0000000   0.0000000   0.0000000   0.0000000   0.0000000   0.0000000   0.0000000   0.0000000
 NMagM=    0.0000000   2.7928460   0.0000000   2.7928460   0.0000000   2.7928460   0.0000000   2.7928460   0.0000000   2.7928460
 AtZNuc=   6.0000000   1.0000000   6.0000000   1.0000000   6.0000000   1.0000000   6.0000000   1.0000000   6.0000000   1.0000000

  Atom        61          62          63          64          65          66          67          68
 IAtWgt=          12           1          12           1          12           1          12           1
 AtmWgt=  12.0000000   1.0078250  12.0000000   1.0078250  12.0000000   1.0078250  12.0000000   1.0078250
 NucSpn=           0           1           0           1           0           1           0           1
 AtZEff=  -0.0000000  -0.0000000  -0.0000000  -0.0000000  -0.0000000  -0.0000000  -0.0000000  -0.0000000
 NQMom=    0.0000000   0.0000000   0.0000000   0.0000000   0.0000000   0.0000000   0.0000000   0.0000000
 NMagM=    0.0000000   2.7928460   0.0000000   2.7928460   0.0000000   2.7928460   0.0000000   2.7928460
 AtZNuc=   6.0000000   1.0000000   6.0000000   1.0000000   6.0000000   1.0000000   6.0000000   1.0000000
 Leave Link  101 at Fri Nov 15 09:02:32 2024, MaxMem=  3221225472 cpu:               9.7 elap:               0.4
 (Enter /home/szhao/Apps/g16/l103.exe)

 GradGradGradGradGradGradGradGradGradGradGradGradGradGradGradGradGradGrad
 Berny optimization.
 Initialization pass.
                           ----------------------------
                           !    Initial Parameters    !
                           ! (Angstroms and Degrees)  !
 --------------------------                            --------------------------
 ! Name  Definition              Value          Derivative Info.                !
 --------------------------------------------------------------------------------
 ! X1    R(1,-1)                -1.7405         Frozen                          !
 ! Y1    R(1,-2)                 0.0            Frozen                          !
 ! Z1    R(1,-3)                 0.0            Frozen                          !
 ! X2    R(2,-1)                 1.7405         Frozen                          !
 ! Y2    R(2,-2)                 0.0            Frozen                          !
 ! Z2    R(2,-3)                 0.0            Frozen                          !
 ! R1    R(1,6)                  1.5136         estimate D2E/DX2                !
 ! R2    R(1,9)                  1.4405         estimate D2E/DX2                !
 ! R3    R(1,15)                 1.4389         estimate D2E/DX2                !
 ! R4    R(2,13)                 1.5136         estimate D2E/DX2                !
 ! R5    R(2,23)                 1.4389         estimate D2E/DX2                !
 ! R6    R(2,38)                 1.4405         estimate D2E/DX2                !
 ! R7    R(3,4)                  1.4012         estimate D2E/DX2                !
 ! R8    R(3,6)                  1.5306         estimate D2E/DX2                !
 ! R9    R(3,13)                 1.5306         estimate D2E/DX2                !
 ! R10   R(4,5)                  1.4755         estimate D2E/DX2                !
 ! R11   R(4,12)                 1.4755         estimate D2E/DX2                !
 ! R12   R(5,10)                 1.4814         estimate D2E/DX2                !
 ! R13   R(5,18)                 1.433          estimate D2E/DX2                !
 ! R14   R(6,34)                 1.4341         estimate D2E/DX2                !
 ! R15   R(7,8)                  1.1036         estimate D2E/DX2                !
 ! R16   R(7,10)                 1.43           estimate D2E/DX2                !
 ! R17   R(7,12)                 1.4814         estimate D2E/DX2                !
 ! R18   R(9,27)                 1.4357         estimate D2E/DX2                !
 ! R19   R(9,28)                 1.4276         estimate D2E/DX2                !
 ! R20   R(10,11)                1.1036         estimate D2E/DX2                !
 ! R21   R(12,25)                1.433          estimate D2E/DX2                !
 ! R22   R(13,21)                1.4341         estimate D2E/DX2                !
 ! R23   R(14,38)                1.4357         estimate D2E/DX2                !
 ! R24   R(14,53)                1.4071         estimate D2E/DX2                !
 ! R25   R(14,59)                1.4387         estimate D2E/DX2                !
 ! R26   R(15,20)                1.4352         estimate D2E/DX2                !
 ! R27   R(15,49)                1.4318         estimate D2E/DX2                !
 ! R28   R(16,17)                1.0846         estimate D2E/DX2                !
 ! R29   R(16,27)                1.4071         estimate D2E/DX2                !
 ! R30   R(16,32)                1.3797         estimate D2E/DX2                !
 ! R31   R(18,19)                1.1299         estimate D2E/DX2                !
 ! R32   R(18,34)                1.4177         estimate D2E/DX2                !
 ! R33   R(20,36)                1.4094         estimate D2E/DX2                !
 ! R34   R(20,43)                1.4371         estimate D2E/DX2                !
 ! R35   R(21,22)                1.1385         estimate D2E/DX2                !
 ! R36   R(21,25)                1.4177         estimate D2E/DX2                !
 ! R37   R(23,24)                1.4352         estimate D2E/DX2                !
 ! R38   R(23,30)                1.4318         estimate D2E/DX2                !
 ! R39   R(24,45)                1.4094         estimate D2E/DX2                !
 ! R40   R(24,63)                1.4371         estimate D2E/DX2                !
 ! R41   R(25,26)                1.1299         estimate D2E/DX2                !
 ! R42   R(27,39)                1.4387         estimate D2E/DX2                !
 ! R43   R(28,29)                1.0803         estimate D2E/DX2                !
 ! R44   R(28,47)                1.3767         estimate D2E/DX2                !
 ! R45   R(30,31)                1.0794         estimate D2E/DX2                !
 ! R46   R(30,55)                1.3734         estimate D2E/DX2                !
 ! R47   R(32,33)                1.0834         estimate D2E/DX2                !
 ! R48   R(32,47)                1.3979         estimate D2E/DX2                !
 ! R49   R(34,35)                1.1385         estimate D2E/DX2                !
 ! R50   R(36,37)                1.0839         estimate D2E/DX2                !
 ! R51   R(36,41)                1.3762         estimate D2E/DX2                !
 ! R52   R(38,65)                1.4276         estimate D2E/DX2                !
 ! R53   R(39,40)                1.0857         estimate D2E/DX2                !
 ! R54   R(39,43)                1.3482         estimate D2E/DX2                !
 ! R55   R(41,42)                1.0833         estimate D2E/DX2                !
 ! R56   R(41,61)                1.4            estimate D2E/DX2                !
 ! R57   R(43,44)                1.0859         estimate D2E/DX2                !
 ! R58   R(45,46)                1.0839         estimate D2E/DX2                !
 ! R59   R(45,51)                1.3762         estimate D2E/DX2                !
 ! R60   R(47,48)                1.0839         estimate D2E/DX2                !
 ! R61   R(49,50)                1.0794         estimate D2E/DX2                !
 ! R62   R(49,61)                1.3734         estimate D2E/DX2                !
 ! R63   R(51,52)                1.0833         estimate D2E/DX2                !
 ! R64   R(51,55)                1.4            estimate D2E/DX2                !
 ! R65   R(53,54)                1.0846         estimate D2E/DX2                !
 ! R66   R(53,57)                1.3797         estimate D2E/DX2                !
 ! R67   R(55,56)                1.0835         estimate D2E/DX2                !
 ! R68   R(57,58)                1.0834         estimate D2E/DX2                !
 ! R69   R(57,67)                1.3979         estimate D2E/DX2                !
 ! R70   R(59,60)                1.0857         estimate D2E/DX2                !
 ! R71   R(59,63)                1.3482         estimate D2E/DX2                !
 ! R72   R(61,62)                1.0835         estimate D2E/DX2                !
 ! R73   R(63,64)                1.0859         estimate D2E/DX2                !
 ! R74   R(65,66)                1.0803         estimate D2E/DX2                !
 ! R75   R(65,67)                1.3767         estimate D2E/DX2                !
 ! R76   R(67,68)                1.0839         estimate D2E/DX2                !
 ! A1    A(6,1,9)              115.1831         estimate D2E/DX2                !
 ! A2    A(6,1,15)             113.4452         estimate D2E/DX2                !
 ! A3    A(9,1,15)             131.0743         estimate D2E/DX2                !
 ! A4    A(13,2,23)            113.4457         estimate D2E/DX2                !
 ! A5    A(13,2,38)            115.1824         estimate D2E/DX2                !
 ! A6    A(23,2,38)            131.0743         estimate D2E/DX2                !
 ! A7    A(4,3,6)              112.6484         estimate D2E/DX2                !
 ! A8    A(4,3,13)             112.6488         estimate D2E/DX2                !
 ! A9    A(6,3,13)             134.7028         estimate D2E/DX2                !
 ! A10   A(3,4,5)              124.3614         estimate D2E/DX2                !
 ! A11   A(3,4,12)             124.3615         estimate D2E/DX2                !
 ! A12   A(5,4,12)             111.277          estimate D2E/DX2                !
 ! A13   A(4,5,10)             104.512          estimate D2E/DX2                !
 ! A14   A(4,5,18)             121.4654         estimate D2E/DX2                !
 ! A15   A(10,5,18)            134.0208         estimate D2E/DX2                !
 ! A16   A(1,6,3)              124.4455         estimate D2E/DX2                !
 ! A17   A(1,6,34)             113.05           estimate D2E/DX2                !
 ! A18   A(3,6,34)             122.3063         estimate D2E/DX2                !
 ! A19   A(8,7,10)             128.1034         estimate D2E/DX2                !
 ! A20   A(8,7,12)             122.0476         estimate D2E/DX2                !
 ! A21   A(10,7,12)            109.849          estimate D2E/DX2                !
 ! A22   A(1,9,27)             126.8442         estimate D2E/DX2                !
 ! A23   A(1,9,28)             117.0774         estimate D2E/DX2                !
 ! A24   A(27,9,28)            116.0645         estimate D2E/DX2                !
 ! A25   A(5,10,7)             109.8488         estimate D2E/DX2                !
 ! A26   A(5,10,11)            122.0477         estimate D2E/DX2                !
 ! A27   A(7,10,11)            128.1035         estimate D2E/DX2                !
 ! A28   A(4,12,7)             104.5119         estimate D2E/DX2                !
 ! A29   A(4,12,25)            121.4652         estimate D2E/DX2                !
 ! A30   A(7,12,25)            134.0211         estimate D2E/DX2                !
 ! A31   A(2,13,3)             124.4467         estimate D2E/DX2                !
 ! A32   A(2,13,21)            113.0488         estimate D2E/DX2                !
 ! A33   A(3,13,21)            122.3063         estimate D2E/DX2                !
 ! A34   A(38,14,53)           119.342          estimate D2E/DX2                !
 ! A35   A(38,14,59)           126.1203         estimate D2E/DX2                !
 ! A36   A(53,14,59)           114.4301         estimate D2E/DX2                !
 ! A37   A(1,15,20)            126.5661         estimate D2E/DX2                !
 ! A38   A(1,15,49)            117.3135         estimate D2E/DX2                !
 ! A39   A(20,15,49)           116.0565         estimate D2E/DX2                !
 ! A40   A(17,16,27)           117.9652         estimate D2E/DX2                !
 ! A41   A(17,16,32)           119.4987         estimate D2E/DX2                !
 ! A42   A(27,16,32)           122.5348         estimate D2E/DX2                !
 ! A43   A(5,18,19)            125.1615         estimate D2E/DX2                !
 ! A44   A(5,18,34)            116.6293         estimate D2E/DX2                !
 ! A45   A(19,18,34)           118.1936         estimate D2E/DX2                !
 ! A46   A(15,20,36)           119.2649         estimate D2E/DX2                !
 ! A47   A(15,20,43)           126.362          estimate D2E/DX2                !
 ! A48   A(36,20,43)           114.3648         estimate D2E/DX2                !
 ! A49   A(13,21,22)           120.3989         estimate D2E/DX2                !
 ! A50   A(13,21,25)           122.4643         estimate D2E/DX2                !
 ! A51   A(22,21,25)           117.0974         estimate D2E/DX2                !
 ! A52   A(2,23,24)            126.5665         estimate D2E/DX2                !
 ! A53   A(2,23,30)            117.3131         estimate D2E/DX2                !
 ! A54   A(24,23,30)           116.0566         estimate D2E/DX2                !
 ! A55   A(23,24,45)           119.2649         estimate D2E/DX2                !
 ! A56   A(23,24,63)           126.3619         estimate D2E/DX2                !
 ! A57   A(45,24,63)           114.365          estimate D2E/DX2                !
 ! A58   A(12,25,21)           116.6293         estimate D2E/DX2                !
 ! A59   A(12,25,26)           125.1616         estimate D2E/DX2                !
 ! A60   A(21,25,26)           118.1935         estimate D2E/DX2                !
 ! A61   A(9,27,16)            119.3418         estimate D2E/DX2                !
 ! A62   A(9,27,39)            126.1208         estimate D2E/DX2                !
 ! A63   A(16,27,39)           114.4299         estimate D2E/DX2                !
 ! A64   A(9,28,29)            119.2146         estimate D2E/DX2                !
 ! A65   A(9,28,47)            122.9569         estimate D2E/DX2                !
 ! A66   A(29,28,47)           117.8214         estimate D2E/DX2                !
 ! A67   A(23,30,31)           119.3311         estimate D2E/DX2                !
 ! A68   A(23,30,55)           122.9874         estimate D2E/DX2                !
 ! A69   A(31,30,55)           117.6617         estimate D2E/DX2                !
 ! A70   A(16,32,33)           120.3263         estimate D2E/DX2                !
 ! A71   A(16,32,47)           118.8635         estimate D2E/DX2                !
 ! A72   A(33,32,47)           120.802          estimate D2E/DX2                !
 ! A73   A(6,34,18)            122.4642         estimate D2E/DX2                !
 ! A74   A(6,34,35)            120.3988         estimate D2E/DX2                !
 ! A75   A(18,34,35)           117.0975         estimate D2E/DX2                !
 ! A76   A(20,36,37)           117.8798         estimate D2E/DX2                !
 ! A77   A(20,36,41)           122.645          estimate D2E/DX2                !
 ! A78   A(37,36,41)           119.4682         estimate D2E/DX2                !
 ! A79   A(2,38,14)            126.8441         estimate D2E/DX2                !
 ! A80   A(2,38,65)            117.0777         estimate D2E/DX2                !
 ! A81   A(14,38,65)           116.0643         estimate D2E/DX2                !
 ! A82   A(27,39,40)           113.7329         estimate D2E/DX2                !
 ! A83   A(27,39,43)           131.0886         estimate D2E/DX2                !
 ! A84   A(40,39,43)           115.1654         estimate D2E/DX2                !
 ! A85   A(36,41,42)           120.3689         estimate D2E/DX2                !
 ! A86   A(36,41,61)           118.8966         estimate D2E/DX2                !
 ! A87   A(42,41,61)           120.7274         estimate D2E/DX2                !
 ! A88   A(20,43,39)           131.1305         estimate D2E/DX2                !
 ! A89   A(20,43,44)           113.6974         estimate D2E/DX2                !
 ! A90   A(39,43,44)           115.1351         estimate D2E/DX2                !
 ! A91   A(24,45,46)           117.88           estimate D2E/DX2                !
 ! A92   A(24,45,51)           122.6451         estimate D2E/DX2                !
 ! A93   A(46,45,51)           119.468          estimate D2E/DX2                !
 ! A94   A(28,47,32)           120.0884         estimate D2E/DX2                !
 ! A95   A(28,47,48)           119.4184         estimate D2E/DX2                !
 ! A96   A(32,47,48)           120.4932         estimate D2E/DX2                !
 ! A97   A(15,49,50)           119.3304         estimate D2E/DX2                !
 ! A98   A(15,49,61)           122.9873         estimate D2E/DX2                !
 ! A99   A(50,49,61)           117.6625         estimate D2E/DX2                !
 ! A100  A(45,51,52)           120.3687         estimate D2E/DX2                !
 ! A101  A(45,51,55)           118.8965         estimate D2E/DX2                !
 ! A102  A(52,51,55)           120.7277         estimate D2E/DX2                !
 ! A103  A(14,53,54)           117.9649         estimate D2E/DX2                !
 ! A104  A(14,53,57)           122.5349         estimate D2E/DX2                !
 ! A105  A(54,53,57)           119.4989         estimate D2E/DX2                !
 ! A106  A(30,55,51)           120.0953         estimate D2E/DX2                !
 ! A107  A(30,55,56)           119.5047         estimate D2E/DX2                !
 ! A108  A(51,55,56)           120.3993         estimate D2E/DX2                !
 ! A109  A(53,57,58)           120.3263         estimate D2E/DX2                !
 ! A110  A(53,57,67)           118.863          estimate D2E/DX2                !
 ! A111  A(58,57,67)           120.8024         estimate D2E/DX2                !
 ! A112  A(14,59,60)           113.7328         estimate D2E/DX2                !
 ! A113  A(14,59,63)           131.089          estimate D2E/DX2                !
 ! A114  A(60,59,63)           115.1652         estimate D2E/DX2                !
 ! A115  A(41,61,49)           120.0954         estimate D2E/DX2                !
 ! A116  A(41,61,62)           120.3994         estimate D2E/DX2                !
 ! A117  A(49,61,62)           119.5046         estimate D2E/DX2                !
 ! A118  A(24,63,59)           131.1303         estimate D2E/DX2                !
 ! A119  A(24,63,64)           113.6975         estimate D2E/DX2                !
 ! A120  A(59,63,64)           115.1351         estimate D2E/DX2                !
 ! A121  A(38,65,66)           119.2148         estimate D2E/DX2                !
 ! A122  A(38,65,67)           122.9569         estimate D2E/DX2                !
 ! A123  A(66,65,67)           117.8213         estimate D2E/DX2                !
 ! A124  A(57,67,65)           120.0886         estimate D2E/DX2                !
 ! A125  A(57,67,68)           120.4932         estimate D2E/DX2                !
 ! A126  A(65,67,68)           119.4181         estimate D2E/DX2                !
 ! D1    D(9,1,6,3)            -95.3444         estimate D2E/DX2                !
 ! D2    D(9,1,6,34)            89.6838         estimate D2E/DX2                !
 ! D3    D(15,1,6,3)            79.0966         estimate D2E/DX2                !
 ! D4    D(15,1,6,34)          -95.8752         estimate D2E/DX2                !
 ! D5    D(6,1,9,27)           172.1142         estimate D2E/DX2                !
 ! D6    D(6,1,9,28)            -6.4693         estimate D2E/DX2                !
 ! D7    D(15,1,9,27)           -1.1154         estimate D2E/DX2                !
 ! D8    D(15,1,9,28)         -179.6988         estimate D2E/DX2                !
 ! D9    D(6,1,15,20)         -164.0444         estimate D2E/DX2                !
 ! D10   D(6,1,15,49)           12.9204         estimate D2E/DX2                !
 ! D11   D(9,1,15,20)            9.2777         estimate D2E/DX2                !
 ! D12   D(9,1,15,49)         -173.7575         estimate D2E/DX2                !
 ! D13   D(23,2,13,3)           79.0996         estimate D2E/DX2                !
 ! D14   D(23,2,13,21)         -95.8713         estimate D2E/DX2                !
 ! D15   D(38,2,13,3)          -95.3403         estimate D2E/DX2                !
 ! D16   D(38,2,13,21)          89.6887         estimate D2E/DX2                !
 ! D17   D(13,2,23,24)        -164.0434         estimate D2E/DX2                !
 ! D18   D(13,2,23,30)          12.9235         estimate D2E/DX2                !
 ! D19   D(38,2,23,24)           9.2776         estimate D2E/DX2                !
 ! D20   D(38,2,23,30)        -173.7556         estimate D2E/DX2                !
 ! D21   D(13,2,38,14)         172.1042         estimate D2E/DX2                !
 ! D22   D(13,2,38,65)          -6.477          estimate D2E/DX2                !
 ! D23   D(23,2,38,14)          -1.1241         estimate D2E/DX2                !
 ! D24   D(23,2,38,65)        -179.7054         estimate D2E/DX2                !
 ! D25   D(6,3,4,5)             -2.6188         estimate D2E/DX2                !
 ! D26   D(6,3,4,12)           177.3822         estimate D2E/DX2                !
 ! D27   D(13,3,4,5)           177.3811         estimate D2E/DX2                !
 ! D28   D(13,3,4,12)           -2.6179         estimate D2E/DX2                !
 ! D29   D(4,3,6,1)           -170.5808         estimate D2E/DX2                !
 ! D30   D(4,3,6,34)             3.9438         estimate D2E/DX2                !
 ! D31   D(13,3,6,1)             9.4193         estimate D2E/DX2                !
 ! D32   D(13,3,6,34)         -176.0561         estimate D2E/DX2                !
 ! D33   D(4,3,13,2)          -170.5859         estimate D2E/DX2                !
 ! D34   D(4,3,13,21)            3.9377         estimate D2E/DX2                !
 ! D35   D(6,3,13,2)             9.414          estimate D2E/DX2                !
 ! D36   D(6,3,13,21)         -176.0624         estimate D2E/DX2                !
 ! D37   D(3,4,5,10)          -179.892          estimate D2E/DX2                !
 ! D38   D(3,4,5,18)            -0.3197         estimate D2E/DX2                !
 ! D39   D(12,4,5,10)            0.1072         estimate D2E/DX2                !
 ! D40   D(12,4,5,18)          179.6794         estimate D2E/DX2                !
 ! D41   D(3,4,12,7)          -179.8934         estimate D2E/DX2                !
 ! D42   D(3,4,12,25)           -0.3141         estimate D2E/DX2                !
 ! D43   D(5,4,12,7)             0.1075         estimate D2E/DX2                !
 ! D44   D(5,4,12,25)          179.6867         estimate D2E/DX2                !
 ! D45   D(4,5,10,7)            -0.2932         estimate D2E/DX2                !
 ! D46   D(4,5,10,11)          179.6942         estimate D2E/DX2                !
 ! D47   D(18,5,10,7)         -179.7858         estimate D2E/DX2                !
 ! D48   D(18,5,10,11)           0.2016         estimate D2E/DX2                !
 ! D49   D(4,5,18,19)         -179.2799         estimate D2E/DX2                !
 ! D50   D(4,5,18,34)            2.1883         estimate D2E/DX2                !
 ! D51   D(10,5,18,19)           0.1442         estimate D2E/DX2                !
 ! D52   D(10,5,18,34)        -178.3876         estimate D2E/DX2                !
 ! D53   D(1,6,34,18)          172.7249         estimate D2E/DX2                !
 ! D54   D(1,6,34,35)           -4.9216         estimate D2E/DX2                !
 ! D55   D(3,6,34,18)           -2.3694         estimate D2E/DX2                !
 ! D56   D(3,6,34,35)          179.9841         estimate D2E/DX2                !
 ! D57   D(8,7,10,5)          -179.6189         estimate D2E/DX2                !
 ! D58   D(8,7,10,11)            0.3947         estimate D2E/DX2                !
 ! D59   D(12,7,10,5)            0.3764         estimate D2E/DX2                !
 ! D60   D(12,7,10,11)        -179.61           estimate D2E/DX2                !
 ! D61   D(8,7,12,4)           179.7022         estimate D2E/DX2                !
 ! D62   D(8,7,12,25)            0.2013         estimate D2E/DX2                !
 ! D63   D(10,7,12,4)           -0.2934         estimate D2E/DX2                !
 ! D64   D(10,7,12,25)        -179.7943         estimate D2E/DX2                !
 ! D65   D(1,9,27,16)          177.3188         estimate D2E/DX2                !
 ! D66   D(1,9,27,39)           -6.6731         estimate D2E/DX2                !
 ! D67   D(28,9,27,16)          -4.0853         estimate D2E/DX2                !
 ! D68   D(28,9,27,39)         171.9228         estimate D2E/DX2                !
 ! D69   D(1,9,28,29)            1.5743         estimate D2E/DX2                !
 ! D70   D(1,9,28,47)         -177.4417         estimate D2E/DX2                !
 ! D71   D(27,9,28,29)        -177.1638         estimate D2E/DX2                !
 ! D72   D(27,9,28,47)           3.8203         estimate D2E/DX2                !
 ! D73   D(4,12,25,21)           2.1817         estimate D2E/DX2                !
 ! D74   D(4,12,25,26)        -179.2838         estimate D2E/DX2                !
 ! D75   D(7,12,25,21)        -178.3848         estimate D2E/DX2                !
 ! D76   D(7,12,25,26)           0.1497         estimate D2E/DX2                !
 ! D77   D(2,13,21,22)          -4.9195         estimate D2E/DX2                !
 ! D78   D(2,13,21,25)         172.7294         estimate D2E/DX2                !
 ! D79   D(3,13,21,22)         179.987          estimate D2E/DX2                !
 ! D80   D(3,13,21,25)          -2.3641         estimate D2E/DX2                !
 ! D81   D(53,14,38,2)         177.3182         estimate D2E/DX2                !
 ! D82   D(53,14,38,65)         -4.0881         estimate D2E/DX2                !
 ! D83   D(59,14,38,2)          -6.6756         estimate D2E/DX2                !
 ! D84   D(59,14,38,65)        171.9181         estimate D2E/DX2                !
 ! D85   D(38,14,53,54)       -178.8843         estimate D2E/DX2                !
 ! D86   D(38,14,53,57)          1.5383         estimate D2E/DX2                !
 ! D87   D(59,14,53,54)          4.6585         estimate D2E/DX2                !
 ! D88   D(59,14,53,57)       -174.9189         estimate D2E/DX2                !
 ! D89   D(38,14,59,60)       -175.135          estimate D2E/DX2                !
 ! D90   D(38,14,59,63)          3.4687         estimate D2E/DX2                !
 ! D91   D(53,14,59,60)          1.0414         estimate D2E/DX2                !
 ! D92   D(53,14,59,63)        179.6451         estimate D2E/DX2                !
 ! D93   D(1,15,20,36)         175.076          estimate D2E/DX2                !
 ! D94   D(1,15,20,43)          -6.0357         estimate D2E/DX2                !
 ! D95   D(49,15,20,36)         -1.9222         estimate D2E/DX2                !
 ! D96   D(49,15,20,43)        176.9661         estimate D2E/DX2                !
 ! D97   D(1,15,49,50)           4.3994         estimate D2E/DX2                !
 ! D98   D(1,15,49,61)        -177.2576         estimate D2E/DX2                !
 ! D99   D(20,15,49,50)       -178.3139         estimate D2E/DX2                !
 ! D100  D(20,15,49,61)          0.0291         estimate D2E/DX2                !
 ! D101  D(17,16,27,9)        -178.8839         estimate D2E/DX2                !
 ! D102  D(17,16,27,39)          4.6572         estimate D2E/DX2                !
 ! D103  D(32,16,27,9)           1.5393         estimate D2E/DX2                !
 ! D104  D(32,16,27,39)       -174.9196         estimate D2E/DX2                !
 ! D105  D(17,16,32,33)          1.0041         estimate D2E/DX2                !
 ! D106  D(17,16,32,47)       -177.9604         estimate D2E/DX2                !
 ! D107  D(27,16,32,33)       -179.4254         estimate D2E/DX2                !
 ! D108  D(27,16,32,47)          1.6102         estimate D2E/DX2                !
 ! D109  D(5,18,34,6)           -0.816          estimate D2E/DX2                !
 ! D110  D(5,18,34,35)         176.9038         estimate D2E/DX2                !
 ! D111  D(19,18,34,6)        -179.4541         estimate D2E/DX2                !
 ! D112  D(19,18,34,35)         -1.7343         estimate D2E/DX2                !
 ! D113  D(15,20,36,37)       -178.8763         estimate D2E/DX2                !
 ! D114  D(15,20,36,41)          2.0884         estimate D2E/DX2                !
 ! D115  D(43,20,36,37)          2.1065         estimate D2E/DX2                !
 ! D116  D(43,20,36,41)       -176.9288         estimate D2E/DX2                !
 ! D117  D(15,20,43,39)         -3.0751         estimate D2E/DX2                !
 ! D118  D(15,20,43,44)        179.2867         estimate D2E/DX2                !
 ! D119  D(36,20,43,39)        175.8602         estimate D2E/DX2                !
 ! D120  D(36,20,43,44)         -1.778          estimate D2E/DX2                !
 ! D121  D(13,21,25,12)         -0.8146         estimate D2E/DX2                !
 ! D122  D(13,21,25,26)       -179.4553         estimate D2E/DX2                !
 ! D123  D(22,21,25,12)        176.9075         estimate D2E/DX2                !
 ! D124  D(22,21,25,26)         -1.7332         estimate D2E/DX2                !
 ! D125  D(2,23,24,45)         175.0843         estimate D2E/DX2                !
 ! D126  D(2,23,24,63)          -6.0202         estimate D2E/DX2                !
 ! D127  D(30,23,24,45)         -1.9159         estimate D2E/DX2                !
 ! D128  D(30,23,24,63)        176.9796         estimate D2E/DX2                !
 ! D129  D(2,23,30,31)           4.3936         estimate D2E/DX2                !
 ! D130  D(2,23,30,55)        -177.2642         estimate D2E/DX2                !
 ! D131  D(24,23,30,31)       -178.3179         estimate D2E/DX2                !
 ! D132  D(24,23,30,55)          0.0243         estimate D2E/DX2                !
 ! D133  D(23,24,45,46)       -178.8784         estimate D2E/DX2                !
 ! D134  D(23,24,45,51)          2.0854         estimate D2E/DX2                !
 ! D135  D(63,24,45,46)          2.098          estimate D2E/DX2                !
 ! D136  D(63,24,45,51)       -176.9382         estimate D2E/DX2                !
 ! D137  D(23,24,63,59)         -3.0876         estimate D2E/DX2                !
 ! D138  D(23,24,63,64)        179.2734         estimate D2E/DX2                !
 ! D139  D(45,24,63,59)        175.8546         estimate D2E/DX2                !
 ! D140  D(45,24,63,64)         -1.7843         estimate D2E/DX2                !
 ! D141  D(9,27,39,40)        -175.1462         estimate D2E/DX2                !
 ! D142  D(9,27,39,43)           3.4531         estimate D2E/DX2                !
 ! D143  D(16,27,39,40)          1.0321         estimate D2E/DX2                !
 ! D144  D(16,27,39,43)        179.6314         estimate D2E/DX2                !
 ! D145  D(9,28,47,32)          -0.8115         estimate D2E/DX2                !
 ! D146  D(9,28,47,48)         179.269          estimate D2E/DX2                !
 ! D147  D(29,28,47,32)       -179.8403         estimate D2E/DX2                !
 ! D148  D(29,28,47,48)          0.2402         estimate D2E/DX2                !
 ! D149  D(23,30,55,51)          1.8225         estimate D2E/DX2                !
 ! D150  D(23,30,55,56)       -178.4699         estimate D2E/DX2                !
 ! D151  D(31,30,55,51)       -179.8093         estimate D2E/DX2                !
 ! D152  D(31,30,55,56)         -0.1017         estimate D2E/DX2                !
 ! D153  D(16,32,47,28)         -1.9902         estimate D2E/DX2                !
 ! D154  D(16,32,47,48)        177.9284         estimate D2E/DX2                !
 ! D155  D(33,32,47,28)        179.0504         estimate D2E/DX2                !
 ! D156  D(33,32,47,48)         -1.0309         estimate D2E/DX2                !
 ! D157  D(20,36,41,42)        178.8031         estimate D2E/DX2                !
 ! D158  D(20,36,41,61)         -0.2347         estimate D2E/DX2                !
 ! D159  D(37,36,41,42)         -0.2176         estimate D2E/DX2                !
 ! D160  D(37,36,41,61)       -179.2553         estimate D2E/DX2                !
 ! D161  D(2,38,65,66)           1.5755         estimate D2E/DX2                !
 ! D162  D(2,38,65,67)        -177.4391         estimate D2E/DX2                !
 ! D163  D(14,38,65,66)       -177.1606         estimate D2E/DX2                !
 ! D164  D(14,38,65,67)          3.8248         estimate D2E/DX2                !
 ! D165  D(27,39,43,20)          4.4413         estimate D2E/DX2                !
 ! D166  D(27,39,43,44)       -177.9475         estimate D2E/DX2                !
 ! D167  D(40,39,43,20)       -176.9754         estimate D2E/DX2                !
 ! D168  D(40,39,43,44)          0.6358         estimate D2E/DX2                !
 ! D169  D(36,41,61,49)         -1.7151         estimate D2E/DX2                !
 ! D170  D(36,41,61,62)        178.5791         estimate D2E/DX2                !
 ! D171  D(42,41,61,49)        179.2508         estimate D2E/DX2                !
 ! D172  D(42,41,61,62)         -0.4551         estimate D2E/DX2                !
 ! D173  D(24,45,51,52)        178.8019         estimate D2E/DX2                !
 ! D174  D(24,45,51,55)         -0.237          estimate D2E/DX2                !
 ! D175  D(46,45,51,52)         -0.2196         estimate D2E/DX2                !
 ! D176  D(46,45,51,55)       -179.2585         estimate D2E/DX2                !
 ! D177  D(15,49,61,41)          1.8228         estimate D2E/DX2                !
 ! D178  D(15,49,61,62)       -178.4687         estimate D2E/DX2                !
 ! D179  D(50,49,61,41)       -179.8082         estimate D2E/DX2                !
 ! D180  D(50,49,61,62)         -0.0997         estimate D2E/DX2                !
 ! D181  D(45,51,55,30)         -1.711          estimate D2E/DX2                !
 ! D182  D(45,51,55,56)        178.584          estimate D2E/DX2                !
 ! D183  D(52,51,55,30)        179.2536         estimate D2E/DX2                !
 ! D184  D(52,51,55,56)         -0.4514         estimate D2E/DX2                !
 ! D185  D(14,53,57,58)       -179.4236         estimate D2E/DX2                !
 ! D186  D(14,53,57,67)          1.6135         estimate D2E/DX2                !
 ! D187  D(54,53,57,58)          1.0053         estimate D2E/DX2                !
 ! D188  D(54,53,57,67)       -177.9576         estimate D2E/DX2                !
 ! D189  D(53,57,67,65)         -1.9918         estimate D2E/DX2                !
 ! D190  D(53,57,67,68)        177.9263         estimate D2E/DX2                !
 ! D191  D(58,57,67,65)        179.0503         estimate D2E/DX2                !
 ! D192  D(58,57,67,68)         -1.0316         estimate D2E/DX2                !
 ! D193  D(14,59,63,24)          4.434          estimate D2E/DX2                !
 ! D194  D(14,59,63,64)       -177.9541         estimate D2E/DX2                !
 ! D195  D(60,59,63,24)       -176.9783         estimate D2E/DX2                !
 ! D196  D(60,59,63,64)          0.6336         estimate D2E/DX2                !
 ! D197  D(38,65,67,57)         -0.8138         estimate D2E/DX2                !
 ! D198  D(38,65,67,68)        179.2672         estimate D2E/DX2                !
 ! D199  D(66,65,67,57)       -179.8414         estimate D2E/DX2                !
 ! D200  D(66,65,67,68)          0.2396         estimate D2E/DX2                !
 --------------------------------------------------------------------------------
 Trust Radius=3.00D-01 FncErr=1.00D-07 GrdErr=1.00D-07 EigMax=2.50D+02 EigMin=1.00D-04
 Number of steps in this run=    408 maximum allowed number of steps=    408.
 GradGradGradGradGradGradGradGradGradGradGradGradGradGradGradGradGradGrad

 Leave Link  103 at Fri Nov 15 09:02:33 2024, MaxMem=  3221225472 cpu:               0.8 elap:               0.1
 (Enter /home/szhao/Apps/g16/l202.exe)
 Symmetry turned off by external request.
 Stoichiometry    C42H26(1+,2)
 Framework group  C1[X(C42H26)]
 Deg. of freedom   198
 Full point group                 C1      NOp   1
                          Input orientation:                          
 ---------------------------------------------------------------------
 Center     Atomic      Atomic             Coordinates (Angstroms)
 Number     Number       Type             X           Y           Z
 ---------------------------------------------------------------------
      1          6           0       -1.740494    0.000000    0.000000
      2          6           0        1.740494    0.000000    0.000000
      3          6           0       -0.000010   -2.055451   -0.002184
      4          6           0       -0.000019   -3.456634   -0.003710
      5          6           0       -1.201859   -4.289647    0.193419
      6          6           0       -1.402800   -1.466233    0.164197
      7          6           0        0.705030   -5.682733   -0.125007
      8          1           0        1.376072   -6.551030   -0.242070
      9          6           0       -1.762146    0.764457    1.220742
     10          6           0       -0.705103   -5.682983    0.112786
     11          1           0       -1.376132   -6.551521    0.228106
     12          6           0        1.201806   -4.289231   -0.202632
     13          6           0        1.402778   -1.465884   -0.167278
     14          6           0        1.894374    2.191689   -1.337699
     15          6           0       -1.860101    0.409539   -1.374206
     16          6           0       -1.953589    2.769085    2.622853
     17          1           0       -2.072288    3.845145    2.688688
     18          6           0       -2.490680   -3.703086    0.413341
     19          1           0       -3.447604   -4.279511    0.582570
     20          6           0       -1.851874    1.756831   -1.868677
     21          6           0        2.557899   -2.286494   -0.388463
     22          1           0        3.586602   -1.813287   -0.507090
     23          6           0        1.860135    0.406656    1.375059
     24          6           0        1.851913    1.752903    1.872363
     25          6           0        2.490665   -3.702206   -0.421138
     26          1           0        3.447599   -4.278272   -0.591538
     27          6           0       -1.894605    2.188865    1.342294
     28          6           0       -1.608477    0.042250    2.442549
     29          1           0       -1.458251   -1.027025    2.407712
     30          6           0        1.935249   -0.627903    2.361952
     31          1           0        1.972437   -1.659064    2.045215
     32          6           0       -1.857916    2.024078    3.780174
     33          1           0       -1.917158    2.507080    4.748151
     34          6           0       -2.557905   -2.287304    0.383723
     35          1           0       -3.586596   -1.814344    0.503427
     36          6           0       -1.874993    1.980253   -3.260088
     37          1           0       -1.849423    3.006029   -3.609195
     38          6           0        1.762105    0.767018   -1.219141
     39          6           0       -1.896669    3.135944    0.259241
     40          1           0       -1.925814    4.171433    0.584311
     41          6           0       -1.947640    0.955189   -4.175457
     42          1           0       -1.982649    1.170032   -5.236696
     43          6           0       -1.843965    2.955425   -1.075789
     44          1           0       -1.826136    3.867843   -1.664237
     45          6           0        1.875245    1.973399    3.264238
     46          1           0        1.849711    2.998438    3.615508
     47          6           0       -1.661972    0.643594    3.679794
     48          1           0       -1.549658    0.037732    4.571517
     49          6           0       -1.935137   -0.622940   -2.363279
     50          1           0       -1.972390   -1.654761   -2.048702
     51          6           0        1.948039    0.946413    4.177442
     52          1           0        1.983229    1.159031    5.239123
     53          6           0        1.953360    2.774604   -2.617034
     54          1           0        2.071906    3.850816   -2.680597
     55          6           0        1.996197   -0.372373    3.710023
     56          1           0        2.076826   -1.198377    4.406618
     57          6           0        1.857886    2.032016   -3.775921
     58          1           0        1.917153    2.517055   -4.742877
     59          6           0        1.896196    3.136493   -0.252656
     60          1           0        1.925031    4.172670   -0.575551
     61          6           0       -1.995914   -0.364574   -3.710816
     62          1           0       -2.076512   -1.189109   -4.409153
     63          6           0        1.843663    2.953160    1.081996
     64          1           0        1.825678    3.864337    1.672360
     65          6           0        1.608554    0.047364   -2.442465
     66          1           0        1.458420   -1.021994   -2.409882
     67          6           0        1.662079    0.651304   -3.678443
     68          1           0        1.549886    0.047297   -4.571438
 ---------------------------------------------------------------------
 Rotational constants (GHZ):           0.1157475           0.1010959           0.0859000
 Leave Link  202 at Fri Nov 15 09:02:33 2024, MaxMem=  3221225472 cpu:               0.8 elap:               0.1
 (Enter /home/szhao/Apps/g16/l301.exe)
 Standard basis: 6-311+G(d,p) (5D, 7F)
 Ernie: Thresh=  0.10000D-02 Tol=  0.10000D-05 Strict=F.
  1080 basis functions,  1720 primitive gaussians,  1122 cartesian basis functions
   139 alpha electrons      138 beta electrons
       nuclear repulsion energy      4767.6646610938 Hartrees.
 IExCor= 4336 DFT=T Ex+Corr=M062X ExCW=0 ScaHFX=  0.540000
 ScaDFX=  1.000000  1.000000  1.000000  1.000000 ScalE2=  1.000000  1.000000
 IRadAn=      7 IRanWt=     -1 IRanGd=            0 ICorTp=0 IEmpDi=  4
 NAtoms=   68 NActive=   68 NUniq=   68 SFac= 1.00D+00 NAtFMM=   60 NAOKFM=T Big=T
 Integral buffers will be    131072 words long.
 Raffenetti 2 integral format.
 Two-electron integral symmetry is turned off.
 Leave Link  301 at Fri Nov 15 09:02:33 2024, MaxMem=  3221225472 cpu:               1.6 elap:               0.1
 (Enter /home/szhao/Apps/g16/l302.exe)
 NPDir=0 NMtPBC=     1 NCelOv=     1 NCel=       1 NClECP=     1 NCelD=      1
         NCelK=      1 NCelE2=     1 NClLst=     1 CellRange=     0.0.
 One-electron integrals computed using PRISM.
 NBasis=  1080 RedAO= T EigKep=  1.09D-06  NBF=  1080
 NBsUse=  1054 1.00D-06 EigRej=  6.64D-07 NBFU=  1054
 Precomputing XC quadrature grid using
 IXCGrd= 4 IRadAn=           7 IRanWt=          -1 IRanGd=           0 AccXCQ= 0.00D+00.
 Generated NRdTot=       0 NPtTot=           0 NUsed=           0 NTot=          32
 NSgBfM=  1113  1110  1110  1113  1113 MxSgAt=    68 MxSgA2=    68.
 Leave Link  302 at Fri Nov 15 09:02:36 2024, MaxMem=  3221225472 cpu:              86.4 elap:               3.1
 (Enter /home/szhao/Apps/g16/l303.exe)
 DipDrv:  MaxL=1.
 Leave Link  303 at Fri Nov 15 09:02:37 2024, MaxMem=  3221225472 cpu:               6.1 elap:               0.3
 (Enter /home/szhao/Apps/g16/l401.exe)
 ExpMin= 4.38D-02 ExpMax= 4.56D+03 ExpMxC= 6.82D+02 IAcc=3 IRadAn=         7 AccDes= 0.00D+00
 Harris functional with IExCor= 1009 and IRadAn=       7 diagonalized for initial guess.
 HarFok:  IExCor= 1009 AccDes= 0.00D+00 IRadAn=         7 IDoV= 1 UseB2=F ITyADJ=14
 ICtDFT=  3500011 ScaDFX=  1.000000  1.000000  1.000000  1.000000
 FoFCou: FMM=F IPFlag=           0 FMFlag=      100000 FMFlg1=        2001
         NFxFlg=           0 DoJE=T BraDBF=F KetDBF=T FulRan=T
         wScrn=  0.000000 ICntrl=       500 IOpCl=  0 I1Cent=   200000004 NGrid=           0
         NMat0=    1 NMatS0=      1 NMatT0=    0 NMatD0=    1 NMtDS0=    0 NMtDT0=    0
 Symmetry not used in FoFCou.
 Harris En= -1614.62759411699    
 JPrj=0 DoOrth=F DoCkMO=F.
 Initial guess <Sx>= 0.0000 <Sy>= 0.0000 <Sz>= 0.5000 <S**2>= 0.7500 S= 0.5000
 Leave Link  401 at Fri Nov 15 09:02:53 2024, MaxMem=  3221225472 cpu:             430.2 elap:              15.5
 (Enter /home/szhao/Apps/g16/l502.exe)
 Two-electron integral symmetry not used.
 UHF open shell SCF:
 Using DIIS extrapolation, IDIIS=  1040.
 NGot=  3221225472 LenX=  3218668534 LenY=  3217408528
 Requested convergence on RMS density matrix=1.00D-08 within 128 cycles.
 Requested convergence on MAX density matrix=1.00D-06.
 Requested convergence on             energy=1.00D-06.
 No special actions if energy rises.
 Fock matrices will be formed incrementally for  20 cycles.

 Cycle   1  Pass 1  IDiag  1:
 FoFJK:  IHMeth= 1 ICntrl=       0 DoSepK=F KAlg= 0 I1Cent=           0 FoldK=F
 IRaf= 890000000 NMat=       1 IRICut=       1 DoRegI=T DoRafI=F ISym2E= 0 IDoP0=0 IntGTp=1.
 FoFCou: FMM=T IPFlag=           0 FMFlag=      100000 FMFlg1=        2001
         NFxFlg=           0 DoJE=F BraDBF=F KetDBF=F FulRan=T
         wScrn=  0.000000 ICntrl=         0 IOpCl=  1 I1Cent=           0 NGrid=           0
         NMat0=    1 NMatS0=      1 NMatT0=    0 NMatD0=    1 NMtDS0=    0 NMtDT0=    0
 Symmetry not used in FoFCou.
 FMM levels:  10  Number of levels for PrismC:   9
 E= -1614.76864597298    
 DIIS: error= 2.23D-02 at cycle   1 NSaved=   1.
 NSaved= 1 IEnMin= 1 EnMin= -1614.76864597298     IErMin= 1 ErrMin= 2.23D-02
 ErrMax= 2.23D-02  0.00D+00 EMaxC= 1.00D-01 BMatC= 3.64D+00 BMatP= 3.64D+00
 IDIUse=3 WtCom= 7.77D-01 WtEn= 2.23D-01
 Coeff-Com:  0.100D+01
 Coeff-En:   0.100D+01
 Coeff:      0.100D+01
 Gap=     0.080 Goal=   None    Shift=    0.000
 Gap=     0.113 Goal=   None    Shift=    0.000
 GapD=    0.080 DampG=0.500 DampE=0.500 DampFc=0.2500 IDamp=-1.
 Damping current iteration by 2.50D-01
 RMSDP=2.65D-02 MaxDP=2.20D+00              OVMax= 2.28D-01

 Cycle   2  Pass 1  IDiag  1:
 RMSU=  5.37D-03    CP:  9.39D-01
 E= -1615.01703136447     Delta-E=       -0.248385391492 Rises=F Damp=T
 DIIS: error= 1.48D-02 at cycle   2 NSaved=   2.
 NSaved= 2 IEnMin= 2 EnMin= -1615.01703136447     IErMin= 2 ErrMin= 1.48D-02
 ErrMax= 1.48D-02  0.00D+00 EMaxC= 1.00D-01 BMatC= 1.44D+00 BMatP= 3.64D+00
 IDIUse=3 WtCom= 8.52D-01 WtEn= 1.48D-01
 Coeff-Com: -0.132D+01 0.232D+01
 Coeff-En:   0.000D+00 0.100D+01
 Coeff:     -0.112D+01 0.212D+01
 Gap=     0.091 Goal=   None    Shift=    0.000
 Gap=     0.185 Goal=   None    Shift=    0.000
 RMSDP=2.14D-02 MaxDP=2.28D+00 DE=-2.48D-01 OVMax= 2.43D-01

 Cycle   3  Pass 1  IDiag  1:
 RMSU=  1.01D-02    CP:  6.49D-01  1.80D+00
 E= -1615.38909340478     Delta-E=       -0.372062040310 Rises=F Damp=F
 DIIS: error= 1.73D-02 at cycle   3 NSaved=   3.
 NSaved= 3 IEnMin= 3 EnMin= -1615.38909340478     IErMin= 2 ErrMin= 1.48D-02
 ErrMax= 1.73D-02  0.00D+00 EMaxC= 1.00D-01 BMatC= 4.83D-01 BMatP= 1.44D+00
 IDIUse=3 WtCom= 8.27D-01 WtEn= 1.73D-01
 Coeff-Com: -0.831D+00 0.134D+01 0.487D+00
 Coeff-En:   0.000D+00 0.000D+00 0.100D+01
 Coeff:     -0.688D+00 0.111D+01 0.576D+00
 Gap=     0.084 Goal=   None    Shift=    0.000
 Gap=     0.141 Goal=   None    Shift=    0.000
 RMSDP=7.98D-03 MaxDP=5.95D-01 DE=-3.72D-01 OVMax= 1.83D-01

 Cycle   4  Pass 1  IDiag  1:
 RMSU=  5.68D-03    CP:  6.50D-01  2.60D+00  6.44D-01
 E= -1615.46548007562     Delta-E=       -0.076386670832 Rises=F Damp=F
 DIIS: error= 1.11D-02 at cycle   4 NSaved=   4.
 NSaved= 4 IEnMin= 4 EnMin= -1615.46548007562     IErMin= 4 ErrMin= 1.11D-02
 ErrMax= 1.11D-02  0.00D+00 EMaxC= 1.00D-01 BMatC= 2.06D-01 BMatP= 4.83D-01
 IDIUse=3 WtCom= 8.89D-01 WtEn= 1.11D-01
 Coeff-Com: -0.177D+00 0.277D+00 0.399D+00 0.501D+00
 Coeff-En:   0.000D+00 0.000D+00 0.344D+00 0.656D+00
 Coeff:     -0.157D+00 0.246D+00 0.393D+00 0.518D+00
 Gap=     0.081 Goal=   None    Shift=    0.000
 Gap=     0.149 Goal=   None    Shift=    0.000
 RMSDP=5.49D-03 MaxDP=5.23D-01 DE=-7.64D-02 OVMax= 7.87D-02

 Cycle   5  Pass 1  IDiag  1:
 RMSU=  2.26D-03    CP:  6.40D-01  2.02D+00  6.79D-01  3.28D-01
 E= -1615.52166246828     Delta-E=       -0.056182392667 Rises=F Damp=F
 DIIS: error= 1.18D-03 at cycle   5 NSaved=   5.
 NSaved= 5 IEnMin= 5 EnMin= -1615.52166246828     IErMin= 5 ErrMin= 1.18D-03
 ErrMax= 1.18D-03  0.00D+00 EMaxC= 1.00D-01 BMatC= 3.66D-03 BMatP= 2.06D-01
 IDIUse=3 WtCom= 9.88D-01 WtEn= 1.18D-02
 Coeff-Com: -0.313D-01 0.471D-01 0.156D+00 0.246D+00 0.582D+00
 Coeff-En:   0.000D+00 0.000D+00 0.000D+00 0.000D+00 0.100D+01
 Coeff:     -0.309D-01 0.466D-01 0.154D+00 0.243D+00 0.587D+00
 Gap=     0.080 Goal=   None    Shift=    0.000
 Gap=     0.149 Goal=   None    Shift=    0.000
 RMSDP=1.01D-03 MaxDP=1.25D-01 DE=-5.62D-02 OVMax= 1.14D-02

 Cycle   6  Pass 1  IDiag  1:
 RMSU=  6.97D-04    CP:  6.32D-01  2.06D+00  6.86D-01  3.43D-01  7.91D-01
 E= -1615.52254224488     Delta-E=       -0.000879776593 Rises=F Damp=F
 DIIS: error= 6.39D-04 at cycle   6 NSaved=   6.
 NSaved= 6 IEnMin= 6 EnMin= -1615.52254224488     IErMin= 6 ErrMin= 6.39D-04
 ErrMax= 6.39D-04  0.00D+00 EMaxC= 1.00D-01 BMatC= 5.78D-04 BMatP= 3.66D-03
 IDIUse=3 WtCom= 9.94D-01 WtEn= 6.39D-03
 Coeff-Com:  0.510D-02-0.873D-02 0.222D-01 0.468D-01 0.305D+00 0.629D+00
 Coeff-En:   0.000D+00 0.000D+00 0.000D+00 0.000D+00 0.753D-01 0.925D+00
 Coeff:      0.507D-02-0.867D-02 0.221D-01 0.465D-01 0.304D+00 0.631D+00
 Gap=     0.081 Goal=   None    Shift=    0.000
 Gap=     0.148 Goal=   None    Shift=    0.000
 RMSDP=4.78D-04 MaxDP=7.09D-02 DE=-8.80D-04 OVMax= 6.15D-03

 Cycle   7  Pass 1  IDiag  1:
 RMSU=  2.49D-04    CP:  6.37D-01  2.06D+00  6.90D-01  3.70D-01  8.62D-01
                    CP:  7.32D-01
 E= -1615.52272759706     Delta-E=       -0.000185352179 Rises=F Damp=F
 DIIS: error= 3.00D-04 at cycle   7 NSaved=   7.
 NSaved= 7 IEnMin= 7 EnMin= -1615.52272759706     IErMin= 7 ErrMin= 3.00D-04
 ErrMax= 3.00D-04  0.00D+00 EMaxC= 1.00D-01 BMatC= 8.82D-05 BMatP= 5.78D-04
 IDIUse=3 WtCom= 9.97D-01 WtEn= 3.00D-03
 Coeff-Com:  0.559D-02-0.885D-02-0.864D-02-0.991D-02 0.733D-01 0.315D+00
 Coeff-Com:  0.633D+00
 Coeff-En:   0.000D+00 0.000D+00 0.000D+00 0.000D+00 0.000D+00 0.000D+00
 Coeff-En:   0.100D+01
 Coeff:      0.558D-02-0.882D-02-0.861D-02-0.988D-02 0.730D-01 0.314D+00
 Coeff:      0.634D+00
 Gap=     0.081 Goal=   None    Shift=    0.000
 Gap=     0.149 Goal=   None    Shift=    0.000
 RMSDP=1.68D-04 MaxDP=2.10D-02 DE=-1.85D-04 OVMax= 2.62D-03

 Cycle   8  Pass 1  IDiag  1:
 RMSU=  1.01D-04    CP:  6.36D-01  2.06D+00  6.86D-01  3.61D-01  8.72D-01
                    CP:  8.68D-01  1.08D+00
 E= -1615.52277016995     Delta-E=       -0.000042572897 Rises=F Damp=F
 DIIS: error= 1.67D-04 at cycle   8 NSaved=   8.
 NSaved= 8 IEnMin= 8 EnMin= -1615.52277016995     IErMin= 8 ErrMin= 1.67D-04
 ErrMax= 1.67D-04  0.00D+00 EMaxC= 1.00D-01 BMatC= 1.69D-05 BMatP= 8.82D-05
 IDIUse=3 WtCom= 9.98D-01 WtEn= 1.67D-03
 Coeff-Com:  0.711D-03-0.943D-03-0.105D-01-0.194D-01-0.628D-01-0.604D-01
 Coeff-Com:  0.219D+00 0.935D+00
 Coeff-En:   0.000D+00 0.000D+00 0.000D+00 0.000D+00 0.000D+00 0.000D+00
 Coeff-En:   0.000D+00 0.100D+01
 Coeff:      0.710D-03-0.942D-03-0.105D-01-0.193D-01-0.627D-01-0.603D-01
 Coeff:      0.218D+00 0.935D+00
 Gap=     0.081 Goal=   None    Shift=    0.000
 Gap=     0.150 Goal=   None    Shift=    0.000
 RMSDP=1.43D-04 MaxDP=2.06D-02 DE=-4.26D-05 OVMax= 3.06D-03

 Cycle   9  Pass 1  IDiag  1:
 RMSU=  5.05D-05    CP:  6.36D-01  2.06D+00  6.86D-01  3.66D-01  8.85D-01
                    CP:  9.09D-01  1.49D+00  1.68D+00
 E= -1615.52279189438     Delta-E=       -0.000021724429 Rises=F Damp=F
 DIIS: error= 7.52D-05 at cycle   9 NSaved=   9.
 NSaved= 9 IEnMin= 9 EnMin= -1615.52279189438     IErMin= 9 ErrMin= 7.52D-05
 ErrMax= 7.52D-05  0.00D+00 EMaxC= 1.00D-01 BMatC= 4.99D-06 BMatP= 1.69D-05
 IDIUse=1 WtCom= 1.00D+00 WtEn= 0.00D+00
 Coeff-Com: -0.109D-02 0.173D-02-0.175D-04-0.104D-02-0.338D-01-0.105D+00
 Coeff-Com: -0.165D+00 0.209D+00 0.110D+01
 Coeff:     -0.109D-02 0.173D-02-0.175D-04-0.104D-02-0.338D-01-0.105D+00
 Coeff:     -0.165D+00 0.209D+00 0.110D+01
 Gap=     0.080 Goal=   None    Shift=    0.000
 Gap=     0.150 Goal=   None    Shift=    0.000
 RMSDP=1.38D-04 MaxDP=1.93D-02 DE=-2.17D-05 OVMax= 2.42D-03

 Cycle  10  Pass 1  IDiag  1:
 RMSU=  3.39D-05    CP:  6.36D-01  2.06D+00  6.87D-01  3.68D-01  8.93D-01
                    CP:  9.61D-01  1.84D+00  2.39D+00  2.05D+00
 E= -1615.52280106572     Delta-E=       -0.000009171339 Rises=F Damp=F
 DIIS: error= 4.41D-05 at cycle  10 NSaved=  10.
 NSaved=10 IEnMin=10 EnMin= -1615.52280106572     IErMin=10 ErrMin= 4.41D-05
 ErrMax= 4.41D-05  0.00D+00 EMaxC= 1.00D-01 BMatC= 1.74D-06 BMatP= 4.99D-06
 IDIUse=1 WtCom= 1.00D+00 WtEn= 0.00D+00
 Coeff-Com: -0.777D-03 0.118D-02 0.346D-02 0.634D-02 0.439D-02-0.314D-01
 Coeff-Com: -0.160D+00-0.207D+00 0.522D+00 0.861D+00
 Coeff:     -0.777D-03 0.118D-02 0.346D-02 0.634D-02 0.439D-02-0.314D-01
 Coeff:     -0.160D+00-0.207D+00 0.522D+00 0.861D+00
 Gap=     0.080 Goal=   None    Shift=    0.000
 Gap=     0.150 Goal=   None    Shift=    0.000
 RMSDP=1.07D-04 MaxDP=1.94D-02 DE=-9.17D-06 OVMax= 1.54D-03

 Cycle  11  Pass 1  IDiag  1:
 RMSU=  2.66D-05    CP:  6.36D-01  2.07D+00  6.87D-01  3.73D-01  9.03D-01
                    CP:  9.72D-01  2.07D+00  2.93D+00  2.93D+00  1.96D+00
 E= -1615.52280367128     Delta-E=       -0.000002605556 Rises=F Damp=F
 DIIS: error= 2.17D-05 at cycle  11 NSaved=  11.
 NSaved=11 IEnMin=11 EnMin= -1615.52280367128     IErMin=11 ErrMin= 2.17D-05
 ErrMax= 2.17D-05  0.00D+00 EMaxC= 1.00D-01 BMatC= 3.76D-07 BMatP= 1.74D-06
 IDIUse=1 WtCom= 1.00D+00 WtEn= 0.00D+00
 Coeff-Com: -0.122D-03 0.176D-03 0.139D-02 0.292D-02 0.781D-02 0.564D-02
 Coeff-Com: -0.333D-01-0.114D+00 0.120D-01 0.327D+00 0.790D+00
 Coeff:     -0.122D-03 0.176D-03 0.139D-02 0.292D-02 0.781D-02 0.564D-02
 Coeff:     -0.333D-01-0.114D+00 0.120D-01 0.327D+00 0.790D+00
 Gap=     0.080 Goal=   None    Shift=    0.000
 Gap=     0.150 Goal=   None    Shift=    0.000
 RMSDP=5.95D-05 MaxDP=1.05D-02 DE=-2.61D-06 OVMax= 7.04D-04

 Cycle  12  Pass 1  IDiag  1:
 RMSU=  3.11D-05    CP:  6.36D-01  2.07D+00  6.88D-01  3.75D-01  9.07D-01
                    CP:  9.75D-01  2.18D+00  3.00D+00  3.00D+00  2.81D+00
                    CP:  1.78D+00
 E= -1615.52280413280     Delta-E=       -0.000000461527 Rises=F Damp=F
 DIIS: error= 1.06D-05 at cycle  12 NSaved=  12.
 NSaved=12 IEnMin=12 EnMin= -1615.52280413280     IErMin=12 ErrMin= 1.06D-05
 ErrMax= 1.06D-05  0.00D+00 EMaxC= 1.00D-01 BMatC= 1.51D-07 BMatP= 3.76D-07
 IDIUse=1 WtCom= 1.00D+00 WtEn= 0.00D+00
 Coeff-Com:  0.218D-03-0.333D-03-0.712D-03-0.103D-02 0.260D-02 0.173D-01
 Coeff-Com:  0.525D-01 0.245D-01-0.234D+00-0.194D+00 0.436D+00 0.897D+00
 Coeff:      0.218D-03-0.333D-03-0.712D-03-0.103D-02 0.260D-02 0.173D-01
 Coeff:      0.525D-01 0.245D-01-0.234D+00-0.194D+00 0.436D+00 0.897D+00
 Gap=     0.080 Goal=   None    Shift=    0.000
 Gap=     0.150 Goal=   None    Shift=    0.000
 RMSDP=6.90D-05 MaxDP=1.27D-02 DE=-4.62D-07 OVMax= 5.74D-04

 Cycle  13  Pass 1  IDiag  1:
 RMSU=  3.02D-05    CP:  6.36D-01  2.07D+00  6.89D-01  3.77D-01  9.12D-01
                    CP:  9.72D-01  2.29D+00  3.00D+00  3.00D+00  3.00D+00
                    CP:  2.65D+00  2.30D+00
 E= -1615.52280434567     Delta-E=       -0.000000212867 Rises=F Damp=F
 DIIS: error= 3.80D-06 at cycle  13 NSaved=  13.
 NSaved=13 IEnMin=13 EnMin= -1615.52280434567     IErMin=13 ErrMin= 3.80D-06
 ErrMax= 3.80D-06  0.00D+00 EMaxC= 1.00D-01 BMatC= 3.17D-08 BMatP= 1.51D-07
 IDIUse=1 WtCom= 1.00D+00 WtEn= 0.00D+00
 Coeff-Com:  0.914D-04-0.142D-03-0.540D-03-0.926D-03-0.740D-03 0.437D-02
 Coeff-Com:  0.223D-01 0.297D-01-0.744D-01-0.125D+00-0.337D-01 0.318D+00
 Coeff-Com:  0.861D+00
 Coeff:      0.914D-04-0.142D-03-0.540D-03-0.926D-03-0.740D-03 0.437D-02
 Coeff:      0.223D-01 0.297D-01-0.744D-01-0.125D+00-0.337D-01 0.318D+00
 Coeff:      0.861D+00
 Gap=     0.080 Goal=   None    Shift=    0.000
 Gap=     0.150 Goal=   None    Shift=    0.000
 RMSDP=3.99D-05 MaxDP=7.20D-03 DE=-2.13D-07 OVMax= 1.98D-04

 Cycle  14  Pass 1  IDiag  1:
 RMSU=  6.40D-06    CP:  6.36D-01  2.07D+00  6.89D-01  3.78D-01  9.15D-01
                    CP:  9.71D-01  2.36D+00  3.00D+00  3.00D+00  3.00D+00
                    CP:  3.00D+00  3.00D+00  1.70D+00
 E= -1615.52280438114     Delta-E=       -0.000000035471 Rises=F Damp=F
 DIIS: error= 2.01D-06 at cycle  14 NSaved=  14.
 NSaved=14 IEnMin=14 EnMin= -1615.52280438114     IErMin=14 ErrMin= 2.01D-06
 ErrMax= 2.01D-06  0.00D+00 EMaxC= 1.00D-01 BMatC= 1.25D-08 BMatP= 3.17D-08
 IDIUse=1 WtCom= 1.00D+00 WtEn= 0.00D+00
 Coeff-Com: -0.441D-04 0.650D-04-0.121D-05-0.652D-04-0.135D-02-0.433D-02
 Coeff-Com: -0.895D-02 0.445D-02 0.503D-01 0.117D-01-0.178D+00-0.161D+00
 Coeff-Com:  0.407D+00 0.880D+00
 Coeff:     -0.441D-04 0.650D-04-0.121D-05-0.652D-04-0.135D-02-0.433D-02
 Coeff:     -0.895D-02 0.445D-02 0.503D-01 0.117D-01-0.178D+00-0.161D+00
 Coeff:      0.407D+00 0.880D+00
 Gap=     0.080 Goal=   None    Shift=    0.000
 Gap=     0.150 Goal=   None    Shift=    0.000
 RMSDP=3.41D-05 MaxDP=6.22D-03 DE=-3.55D-08 OVMax= 9.70D-05

 Cycle  15  Pass 1  IDiag  1:
 RMSU=  1.70D-05    CP:  6.36D-01  2.07D+00  6.90D-01  3.79D-01  9.17D-01
                    CP:  9.70D-01  2.41D+00  3.00D+00  3.00D+00  3.00D+00
                    CP:  3.00D+00  3.00D+00  2.29D+00  3.00D+00
 E= -1615.52280439493     Delta-E=       -0.000000013792 Rises=F Damp=F
 DIIS: error= 1.52D-06 at cycle  15 NSaved=  15.
 NSaved=15 IEnMin=15 EnMin= -1615.52280439493     IErMin=15 ErrMin= 1.52D-06
 ErrMax= 1.52D-06  0.00D+00 EMaxC= 1.00D-01 BMatC= 4.04D-09 BMatP= 1.25D-08
 IDIUse=1 WtCom= 1.00D+00 WtEn= 0.00D+00
 Coeff-Com: -0.261D-04 0.420D-04 0.180D-03 0.295D-03 0.727D-05-0.222D-02
 Coeff-Com: -0.882D-02-0.992D-02 0.333D-01 0.457D-01-0.454D-02-0.143D+00
 Coeff-Com: -0.260D+00 0.890D-01 0.126D+01
 Coeff:     -0.261D-04 0.420D-04 0.180D-03 0.295D-03 0.727D-05-0.222D-02
 Coeff:     -0.882D-02-0.992D-02 0.333D-01 0.457D-01-0.454D-02-0.143D+00
 Coeff:     -0.260D+00 0.890D-01 0.126D+01
 Gap=     0.080 Goal=   None    Shift=    0.000
 Gap=     0.150 Goal=   None    Shift=    0.000
 RMSDP=3.19D-05 MaxDP=5.82D-03 DE=-1.38D-08 OVMax= 5.08D-05

 Cycle  16  Pass 1  IDiag  1:
 RMSU=  1.12D-05    CP:  6.36D-01  2.07D+00  6.90D-01  3.80D-01  9.19D-01
                    CP:  9.69D-01  2.47D+00  3.00D+00  3.00D+00  3.00D+00
                    CP:  3.00D+00  3.00D+00  2.83D+00  3.00D+00  2.13D+00
 E= -1615.52280440167     Delta-E=       -0.000000006733 Rises=F Damp=F
 DIIS: error= 6.92D-07 at cycle  16 NSaved=  16.
 NSaved=16 IEnMin=16 EnMin= -1615.52280440167     IErMin=16 ErrMin= 6.92D-07
 ErrMax= 6.92D-07  0.00D+00 EMaxC= 1.00D-01 BMatC= 1.99D-09 BMatP= 4.04D-09
 IDIUse=1 WtCom= 1.00D+00 WtEn= 0.00D+00
 Coeff-Com:  0.730D-05-0.865D-05 0.845D-04 0.154D-03 0.557D-03 0.798D-03
 Coeff-Com: -0.162D-03-0.587D-02-0.633D-02 0.141D-01 0.700D-01-0.187D-02
 Coeff-Com: -0.244D+00-0.297D+00 0.518D+00 0.951D+00
 Coeff:      0.730D-05-0.865D-05 0.845D-04 0.154D-03 0.557D-03 0.798D-03
 Coeff:     -0.162D-03-0.587D-02-0.633D-02 0.141D-01 0.700D-01-0.187D-02
 Coeff:     -0.244D+00-0.297D+00 0.518D+00 0.951D+00
 Gap=     0.080 Goal=   None    Shift=    0.000
 Gap=     0.150 Goal=   None    Shift=    0.000
 RMSDP=1.94D-05 MaxDP=3.55D-03 DE=-6.73D-09 OVMax= 2.72D-05

 Cycle  17  Pass 1  IDiag  1:
 RMSU=  4.43D-06    CP:  6.36D-01  2.07D+00  6.90D-01  3.80D-01  9.21D-01
                    CP:  9.69D-01  2.50D+00  3.00D+00  3.00D+00  3.00D+00
                    CP:  3.00D+00  3.00D+00  3.00D+00  3.00D+00  2.81D+00
                    CP:  1.60D+00
 E= -1615.52280440442     Delta-E=       -0.000000002753 Rises=F Damp=F
 DIIS: error= 6.77D-07 at cycle  17 NSaved=  17.
 NSaved=17 IEnMin=17 EnMin= -1615.52280440442     IErMin=17 ErrMin= 6.77D-07
 ErrMax= 6.77D-07  0.00D+00 EMaxC= 1.00D-01 BMatC= 8.26D-10 BMatP= 1.99D-09
 IDIUse=1 WtCom= 1.00D+00 WtEn= 0.00D+00
 Coeff-Com:  0.152D-04-0.231D-04-0.392D-04-0.601D-04 0.364D-03 0.167D-02
 Coeff-Com:  0.457D-02 0.231D-02-0.212D-01-0.165D-01 0.414D-01 0.713D-01
 Coeff-Com:  0.109D-01-0.218D+00-0.406D+00 0.483D+00 0.105D+01
 Coeff:      0.152D-04-0.231D-04-0.392D-04-0.601D-04 0.364D-03 0.167D-02
 Coeff:      0.457D-02 0.231D-02-0.212D-01-0.165D-01 0.414D-01 0.713D-01
 Coeff:      0.109D-01-0.218D+00-0.406D+00 0.483D+00 0.105D+01
 Gap=     0.080 Goal=   None    Shift=    0.000
 Gap=     0.150 Goal=   None    Shift=    0.000
 RMSDP=1.72D-05 MaxDP=3.17D-03 DE=-2.75D-09 OVMax= 2.65D-05

 Cycle  18  Pass 1  IDiag  1:
 RMSU=  7.25D-06    CP:  6.36D-01  2.07D+00  6.90D-01  3.81D-01  9.22D-01
                    CP:  9.69D-01  2.54D+00  3.00D+00  3.00D+00  3.00D+00
                    CP:  3.00D+00  3.00D+00  3.00D+00  3.00D+00  3.00D+00
                    CP:  2.13D+00  2.89D+00
 E= -1615.52280440598     Delta-E=       -0.000000001559 Rises=F Damp=F
 DIIS: error= 2.80D-07 at cycle  18 NSaved=  18.
 NSaved=18 IEnMin=18 EnMin= -1615.52280440598     IErMin=18 ErrMin= 2.80D-07
 ErrMax= 2.80D-07  0.00D+00 EMaxC= 1.00D-01 BMatC= 2.07D-10 BMatP= 8.26D-10
 IDIUse=1 WtCom= 1.00D+00 WtEn= 0.00D+00
 Coeff-Com:  0.138D-05-0.319D-05-0.346D-04-0.561D-04-0.170D-05 0.319D-03
 Coeff-Com:  0.144D-02 0.233D-02-0.518D-02-0.891D-02-0.479D-02 0.249D-01
 Coeff-Com:  0.693D-01 0.246D-02-0.282D+00-0.995D-01 0.376D+00 0.924D+00
 Coeff:      0.138D-05-0.319D-05-0.346D-04-0.561D-04-0.170D-05 0.319D-03
 Coeff:      0.144D-02 0.233D-02-0.518D-02-0.891D-02-0.479D-02 0.249D-01
 Coeff:      0.693D-01 0.246D-02-0.282D+00-0.995D-01 0.376D+00 0.924D+00
 Gap=     0.080 Goal=   None    Shift=    0.000
 Gap=     0.150 Goal=   None    Shift=    0.000
 RMSDP=6.81D-06 MaxDP=1.28D-03 DE=-1.56D-09 OVMax= 1.27D-05

 Cycle  19  Pass 1  IDiag  1:
 RMSU=  2.78D-06    CP:  6.36D-01  2.07D+00  6.91D-01  3.81D-01  9.23D-01
                    CP:  9.69D-01  2.55D+00  3.00D+00  3.00D+00  3.00D+00
                    CP:  3.00D+00  3.00D+00  3.00D+00  3.00D+00  3.00D+00
                    CP:  2.33D+00  3.00D+00  1.57D+00
 E= -1615.52280440615     Delta-E=       -0.000000000168 Rises=F Damp=F
 DIIS: error= 1.86D-07 at cycle  19 NSaved=  19.
 NSaved=19 IEnMin=19 EnMin= -1615.52280440615     IErMin=19 ErrMin= 1.86D-07
 ErrMax= 1.86D-07  0.00D+00 EMaxC= 1.00D-01 BMatC= 1.28D-10 BMatP= 2.07D-10
 IDIUse=1 WtCom= 1.00D+00 WtEn= 0.00D+00
 Coeff-Com: -0.409D-05 0.534D-05-0.129D-04-0.200D-04-0.120D-03-0.336D-03
 Coeff-Com: -0.495D-03 0.869D-03 0.324D-02-0.803D-03-0.167D-01-0.495D-02
 Coeff-Com:  0.423D-01 0.735D-01-0.588D-01-0.224D+00-0.967D-01 0.643D+00
 Coeff-Com:  0.641D+00
 Coeff:     -0.409D-05 0.534D-05-0.129D-04-0.200D-04-0.120D-03-0.336D-03
 Coeff:     -0.495D-03 0.869D-03 0.324D-02-0.803D-03-0.167D-01-0.495D-02
 Coeff:      0.423D-01 0.735D-01-0.588D-01-0.224D+00-0.967D-01 0.643D+00
 Coeff:      0.641D+00
 Gap=     0.080 Goal=   None    Shift=    0.000
 Gap=     0.150 Goal=   None    Shift=    0.000
 RMSDP=2.67D-06 MaxDP=5.05D-04 DE=-1.68D-10 OVMax= 7.61D-06

 Cycle  20  Pass 1  IDiag  1:
 RMSU=  1.34D-07    CP:  6.36D-01  2.07D+00  6.91D-01  3.81D-01  9.23D-01
                    CP:  9.69D-01  2.55D+00  3.00D+00  3.00D+00  3.00D+00
                    CP:  3.00D+00  3.00D+00  3.00D+00  3.00D+00  3.00D+00
                    CP:  2.40D+00  3.00D+00  1.79D+00  1.45D+00
 E= -1615.52280440621     Delta-E=       -0.000000000067 Rises=F Damp=F
 DIIS: error= 7.53D-08 at cycle  20 NSaved=  20.
 NSaved=20 IEnMin=20 EnMin= -1615.52280440621     IErMin=20 ErrMin= 7.53D-08
 ErrMax= 7.53D-08  0.00D+00 EMaxC= 1.00D-01 BMatC= 2.28D-11 BMatP= 1.28D-10
 IDIUse=1 WtCom= 1.00D+00 WtEn= 0.00D+00
 Coeff-Com: -0.218D-05 0.305D-05-0.201D-05-0.153D-05-0.684D-04-0.245D-03
 Coeff-Com: -0.509D-03 0.485D-04 0.264D-02 0.115D-02-0.810D-02-0.653D-02
 Coeff-Com:  0.767D-02 0.401D-01 0.236D-01-0.961D-01-0.136D+00 0.165D+00
 Coeff-Com:  0.354D+00 0.654D+00
 Coeff:     -0.218D-05 0.305D-05-0.201D-05-0.153D-05-0.684D-04-0.245D-03
 Coeff:     -0.509D-03 0.485D-04 0.264D-02 0.115D-02-0.810D-02-0.653D-02
 Coeff:      0.767D-02 0.401D-01 0.236D-01-0.961D-01-0.136D+00 0.165D+00
 Coeff:      0.354D+00 0.654D+00
 Gap=     0.080 Goal=   None    Shift=    0.000
 Gap=     0.150 Goal=   None    Shift=    0.000
 RMSDP=6.87D-07 MaxDP=1.31D-04 DE=-6.73D-11 OVMax= 2.71D-06

 Cycle  21  Pass 1  IDiag  1:
 Restarting incremental Fock formation.
 E= -1615.52280440630     Delta-E=       -0.000000000082 Rises=F Damp=F
 DIIS: error= 4.06D-08 at cycle  21 NSaved=  20.
 NSaved=20 IEnMin=20 EnMin= -1615.52280440630     IErMin=20 ErrMin= 4.06D-08
 ErrMax= 4.06D-08  0.00D+00 EMaxC= 1.00D-01 BMatC= 4.93D-12 BMatP= 2.28D-11
 IDIUse=1 WtCom= 1.00D+00 WtEn= 0.00D+00
 Coeff-Com:  0.172D-06 0.236D-05 0.484D-05 0.123D-05-0.153D-04-0.696D-04
 Coeff-Com: -0.222D-03 0.206D-03 0.709D-03 0.108D-02-0.870D-03-0.987D-02
[...]
     5 C(13)  Bbb     0.0000     0.002     0.001     0.001 -0.2046  0.3815  0.9014
              Bcc     0.0011     0.152     0.054     0.051  0.1113  0.9240 -0.3658
 
              Baa    -0.0042    -0.561    -0.200    -0.187  0.0620  0.1655  0.9843
     6 C(13)  Bbb     0.0006     0.076     0.027     0.025 -0.3222  0.9367 -0.1373
              Bcc     0.0036     0.485     0.173     0.162  0.9447  0.3086 -0.1114
 
              Baa    -0.0006    -0.076    -0.027    -0.025 -0.6839 -0.0928  0.7237
     7 C(13)  Bbb    -0.0002    -0.025    -0.009    -0.008  0.7187  0.0850  0.6901
              Bcc     0.0008     0.101     0.036     0.034 -0.1256  0.9920  0.0086
 
              Baa    -0.0003    -0.175    -0.062    -0.058  0.0451 -0.0325  0.9985
     8 H(1)   Bbb    -0.0003    -0.166    -0.059    -0.055  0.9882  0.1479 -0.0398
              Bcc     0.0006     0.341     0.122     0.114 -0.1464  0.9885  0.0387
 
              Baa    -0.0425    -5.702    -2.035    -1.902  0.9918  0.1003 -0.0792
     9 C(13)  Bbb     0.0168     2.261     0.807     0.754 -0.1277  0.7753 -0.6185
              Bcc     0.0256     3.441     1.228     1.148 -0.0006  0.6235  0.7818
 
              Baa    -0.0006    -0.076    -0.027    -0.025 -0.6847  0.0915  0.7231
    10 C(13)  Bbb    -0.0002    -0.025    -0.009    -0.008  0.7180 -0.0862  0.6907
              Bcc     0.0008     0.101     0.036     0.034  0.1255  0.9921 -0.0067
 
              Baa    -0.0003    -0.175    -0.062    -0.058  0.0451  0.0306  0.9985
    11 H(1)   Bbb    -0.0003    -0.166    -0.059    -0.055  0.9882 -0.1478 -0.0401
              Bcc     0.0006     0.341     0.122     0.114  0.1464  0.9885 -0.0369
 
              Baa    -0.0011    -0.154    -0.055    -0.051  0.9725  0.0251  0.2316
    12 C(13)  Bbb     0.0000     0.002     0.001     0.001 -0.2045 -0.3839  0.9004
              Bcc     0.0011     0.152     0.054     0.051 -0.1115  0.9230  0.3682
 
              Baa    -0.0042    -0.561    -0.200    -0.187  0.0620 -0.1673  0.9839
    13 C(13)  Bbb     0.0006     0.076     0.027     0.025  0.3221  0.9364  0.1390
              Bcc     0.0036     0.485     0.173     0.162  0.9447 -0.3083 -0.1119
 
              Baa    -0.0378    -5.077    -1.812    -1.693  0.0558  0.7839  0.6184
    14 C(13)  Bbb    -0.0360    -4.825    -1.722    -1.609  0.0259 -0.6203  0.7839
              Bcc     0.0738     9.902     3.533     3.303  0.9981 -0.0277 -0.0550
 
              Baa    -0.0496    -6.660    -2.376    -2.221  0.9966  0.0113 -0.0819
    15 C(13)  Bbb     0.0199     2.669     0.952     0.890  0.0241  0.9073  0.4197
              Bcc     0.0297     3.991     1.424     1.331  0.0790 -0.4203  0.9039
 
              Baa    -0.0230    -3.089    -1.102    -1.030  0.9937  0.0992 -0.0516
    16 C(13)  Bbb     0.0097     1.301     0.464     0.434 -0.1088  0.9645 -0.2408
              Bcc     0.0133     1.788     0.638     0.596  0.0259  0.2449  0.9692
 
              Baa    -0.0016    -0.874    -0.312    -0.292  0.8640  0.4983 -0.0722
    17 H(1)   Bbb    -0.0004    -0.236    -0.084    -0.079 -0.4841  0.7828 -0.3909
              Bcc     0.0021     1.110     0.396     0.370 -0.1383  0.3726  0.9176
 
              Baa    -0.0033    -0.447    -0.160    -0.149  0.1908 -0.0504  0.9803
    18 C(13)  Bbb    -0.0015    -0.201    -0.072    -0.067  0.9754 -0.1025 -0.1951
              Bcc     0.0048     0.649     0.231     0.216  0.1103  0.9935  0.0296
 
              Baa    -0.0008    -0.411    -0.147    -0.137  0.1396  0.0361  0.9895
    19 H(1)   Bbb    -0.0006    -0.317    -0.113    -0.106  0.8859 -0.4510 -0.1085
              Bcc     0.0014     0.728     0.260     0.243  0.4424  0.8918 -0.0949
 
              Baa    -0.0425    -5.701    -2.034    -1.902  0.0502  0.9262  0.3737
    20 C(13)  Bbb    -0.0393    -5.278    -1.883    -1.761 -0.0645 -0.3704  0.9266
              Bcc     0.0818    10.979     3.917     3.662  0.9967 -0.0706  0.0411
 
              Baa    -0.0050    -0.670    -0.239    -0.224  0.9531  0.3022  0.0163
    21 C(13)  Bbb    -0.0043    -0.574    -0.205    -0.191  0.0765 -0.2927  0.9531
              Bcc     0.0093     1.244     0.444     0.415 -0.2928  0.9072  0.3021
 
              Baa    -0.0031    -1.644    -0.587    -0.548  0.2827  0.0253  0.9589
    22 H(1)   Bbb    -0.0021    -1.144    -0.408    -0.381  0.6872  0.6920 -0.2209
              Bcc     0.0052     2.788     0.995     0.930 -0.6692  0.7214  0.1783
 
              Baa    -0.0496    -6.658    -2.376    -2.221  0.9966 -0.0114 -0.0818
    23 C(13)  Bbb     0.0199     2.668     0.952     0.890 -0.0240  0.9081 -0.4180
              Bcc     0.0297     3.990     1.424     1.331  0.0790  0.4185  0.9048
 
              Baa    -0.0425    -5.699    -2.034    -1.901 -0.0499  0.9269 -0.3719
    24 C(13)  Bbb    -0.0393    -5.277    -1.883    -1.760 -0.0646  0.3686  0.9273
              Bcc     0.0818    10.976     3.916     3.661  0.9967  0.0703  0.0415
 
              Baa    -0.0033    -0.447    -0.160    -0.149  0.1909  0.0486  0.9804
    25 C(13)  Bbb    -0.0015    -0.201    -0.072    -0.067  0.9754  0.1029 -0.1950
              Bcc     0.0048     0.648     0.231     0.216 -0.1104  0.9935 -0.0278
 
              Baa    -0.0008    -0.411    -0.147    -0.137  0.1397 -0.0379  0.9895
    26 H(1)   Bbb    -0.0006    -0.317    -0.113    -0.106  0.8859  0.4512 -0.1077
              Bcc     0.0014     0.728     0.260     0.243 -0.4424  0.8916  0.0966
 
              Baa    -0.0378    -5.076    -1.811    -1.693 -0.0555  0.7851 -0.6169
    27 C(13)  Bbb    -0.0360    -4.825    -1.722    -1.609  0.0261  0.6188  0.7851
              Bcc     0.0738     9.901     3.533     3.303  0.9981  0.0274 -0.0548
 
              Baa    -0.0366    -4.913    -1.753    -1.639 -0.1336  0.9909  0.0148
    28 C(13)  Bbb    -0.0351    -4.704    -1.678    -1.569  0.0538 -0.0076  0.9985
              Bcc     0.0717     9.617     3.432     3.208  0.9896  0.1342 -0.0523
 
              Baa    -0.0036    -1.905    -0.680    -0.636  0.2475  0.2338  0.9403
    29 H(1)   Bbb    -0.0006    -0.312    -0.111    -0.104  0.9588  0.0805 -0.2724
              Bcc     0.0042     2.218     0.791     0.740 -0.1394  0.9689 -0.2042
 
              Baa    -0.0287    -3.854    -1.375    -1.285 -0.0315  0.9741  0.2238
    30 C(13)  Bbb    -0.0266    -3.569    -1.274    -1.191  0.0813 -0.2206  0.9720
              Bcc     0.0553     7.423     2.649     2.476  0.9962  0.0488 -0.0723
 
              Baa    -0.0022    -1.176    -0.420    -0.392 -0.2475  0.0214  0.9687
    31 H(1)   Bbb    -0.0012    -0.623    -0.222    -0.208  0.9548  0.1754  0.2400
              Bcc     0.0034     1.800     0.642     0.600 -0.1648  0.9843 -0.0638
 
              Baa    -0.0416    -5.582    -1.992    -1.862 -0.1434  0.8638 -0.4830
    32 C(13)  Bbb    -0.0368    -4.942    -1.764    -1.649  0.0104  0.4893  0.8720
              Bcc     0.0784    10.524     3.755     3.510  0.9896  0.1200 -0.0792
 
              Baa    -0.0062    -3.316    -1.183    -1.106 -0.0980  0.8737 -0.4765
    33 H(1)   Bbb    -0.0004    -0.224    -0.080    -0.075  0.9934  0.1145  0.0056
              Bcc     0.0066     3.539     1.263     1.181 -0.0594  0.4728  0.8792
 
              Baa    -0.0050    -0.671    -0.239    -0.224  0.9531 -0.3022  0.0159
    34 C(13)  Bbb    -0.0043    -0.574    -0.205    -0.191  0.0762  0.2908  0.9537
              Bcc     0.0093     1.244     0.444     0.415  0.2928  0.9078 -0.3002
 
              Baa    -0.0031    -1.644    -0.587    -0.549  0.2827 -0.0271  0.9588
    35 H(1)   Bbb    -0.0021    -1.144    -0.408    -0.382 -0.6873  0.6916  0.2222
              Bcc     0.0052     2.788     0.995     0.930  0.6691  0.7218 -0.1769
 
              Baa    -0.0254    -3.408    -1.216    -1.137  0.9996 -0.0229  0.0136
    36 C(13)  Bbb     0.0103     1.382     0.493     0.461  0.0227  0.9996  0.0151
              Bcc     0.0151     2.026     0.723     0.676 -0.0139 -0.0148  0.9998
 
              Baa    -0.0016    -0.856    -0.306    -0.286  0.6622  0.7488 -0.0271
    37 H(1)   Bbb    -0.0005    -0.276    -0.098    -0.092  0.7287 -0.6520 -0.2095
              Bcc     0.0021     1.132     0.404     0.378  0.1745 -0.1190  0.9774
 
              Baa    -0.0425    -5.700    -2.034    -1.901  0.9918 -0.1004 -0.0795
    38 C(13)  Bbb     0.0168     2.260     0.806     0.754  0.1281  0.7741  0.6200
              Bcc     0.0256     3.440     1.228     1.148 -0.0007 -0.6251  0.7806
 
              Baa    -0.0149    -1.999    -0.713    -0.667 -0.0027 -0.1416  0.9899
    39 C(13)  Bbb    -0.0138    -1.852    -0.661    -0.618 -0.0154  0.9898  0.1415
              Bcc     0.0287     3.851     1.374     1.284  0.9999  0.0149  0.0049
 
              Baa    -0.0026    -1.400    -0.499    -0.467 -0.0386 -0.2975  0.9540
    40 H(1)   Bbb    -0.0010    -0.526    -0.188    -0.175  0.9835  0.1574  0.0889
              Bcc     0.0036     1.926     0.687     0.642 -0.1766  0.9417  0.2865
 
              Baa    -0.0368    -4.932    -1.760    -1.645  0.0276  0.9785  0.2044
    41 C(13)  Bbb    -0.0319    -4.286    -1.529    -1.430 -0.0006 -0.2045  0.9789
              Bcc     0.0687     9.218     3.289     3.075  0.9996 -0.0271 -0.0051
 
              Baa    -0.0056    -3.000    -1.070    -1.001 -0.0048  0.9761  0.2173
    42 H(1)   Bbb    -0.0001    -0.029    -0.010    -0.010  0.9972  0.0210 -0.0720
              Bcc     0.0057     3.029     1.081     1.010  0.0749 -0.2163  0.9734
 
              Baa    -0.0050    -0.669    -0.239    -0.223  0.1131  0.9653 -0.2352
    43 C(13)  Bbb    -0.0043    -0.572    -0.204    -0.191  0.0717  0.2282  0.9710
              Bcc     0.0092     1.241     0.443     0.414  0.9910 -0.1267 -0.0434
 
              Baa    -0.0014    -0.744    -0.266    -0.248  0.6699  0.5121  0.5376
    44 H(1)   Bbb    -0.0010    -0.525    -0.187    -0.175  0.7126 -0.2401 -0.6592
              Bcc     0.0024     1.269     0.453     0.423 -0.2085  0.8247 -0.5258
 
              Baa    -0.0254    -3.407    -1.216    -1.136  0.9996  0.0227  0.0139
    45 C(13)  Bbb     0.0103     1.382     0.493     0.461 -0.0225  0.9997 -0.0132
              Bcc     0.0151     2.025     0.723     0.676 -0.0142  0.0129  0.9998
 
              Baa    -0.0016    -0.856    -0.306    -0.286 -0.6621  0.7489  0.0283
    46 H(1)   Bbb    -0.0005    -0.276    -0.098    -0.092  0.7289  0.6522 -0.2082
              Bcc     0.0021     1.132     0.404     0.378  0.1744  0.1172  0.9777
 
              Baa    -0.0220    -2.956    -1.055    -0.986  0.9931  0.1168 -0.0120
    47 C(13)  Bbb     0.0095     1.276     0.455     0.426 -0.1029  0.8161 -0.5686
              Bcc     0.0125     1.680     0.599     0.560 -0.0566  0.5659  0.8225
 
              Baa    -0.0009    -0.463    -0.165    -0.154  0.9251 -0.1304  0.3566
    48 H(1)   Bbb    -0.0000    -0.025    -0.009    -0.008  0.3421  0.6936 -0.6340
              Bcc     0.0009     0.488     0.174     0.163 -0.1646  0.7085  0.6863
 
              Baa    -0.0287    -3.855    -1.376    -1.286  0.0316  0.9745 -0.2222
    49 C(13)  Bbb    -0.0266    -3.570    -1.274    -1.191  0.0817  0.2190  0.9723
              Bcc     0.0553     7.425     2.649     2.477  0.9962 -0.0489 -0.0727
 
              Baa    -0.0022    -1.176    -0.420    -0.392 -0.2471 -0.0233  0.9687
    50 H(1)   Bbb    -0.0012    -0.624    -0.223    -0.208  0.9549 -0.1757  0.2393
              Bcc     0.0034     1.800     0.642     0.600  0.1647  0.9842  0.0656
 
              Baa    -0.0367    -4.931    -1.760    -1.645 -0.0274  0.9789 -0.2026
    51 C(13)  Bbb    -0.0319    -4.285    -1.529    -1.429 -0.0008  0.2026  0.9793
              Bcc     0.0687     9.217     3.289     3.074  0.9996  0.0270 -0.0048
 
              Baa    -0.0056    -2.999    -1.070    -1.000  0.0050  0.9765 -0.2154
    52 H(1)   Bbb    -0.0001    -0.029    -0.010    -0.010  0.9972 -0.0209 -0.0719
              Bcc     0.0057     3.028     1.080     1.010  0.0747  0.2145  0.9739
 
              Baa    -0.0230    -3.089    -1.102    -1.030  0.9937 -0.0995 -0.0519
    53 C(13)  Bbb     0.0097     1.301     0.464     0.434  0.1092  0.9640  0.2426
              Bcc     0.0133     1.788     0.638     0.596  0.0259 -0.2467  0.9687
 
              Baa    -0.0016    -0.874    -0.312    -0.292  0.8638 -0.4984 -0.0732
    54 H(1)   Bbb    -0.0004    -0.236    -0.084    -0.079  0.4844  0.7819  0.3923
              Bcc     0.0021     1.110     0.396     0.370 -0.1383 -0.3744  0.9169
 
              Baa    -0.0265    -3.555    -1.269    -1.186  0.9982  0.0352 -0.0477
    55 C(13)  Bbb     0.0120     1.604     0.572     0.535 -0.0497  0.9360 -0.3484
              Bcc     0.0145     1.951     0.696     0.651  0.0324  0.3502  0.9361
 
              Baa    -0.0014    -0.724    -0.258    -0.242  0.8227  0.4313 -0.3703
    56 H(1)   Bbb    -0.0001    -0.053    -0.019    -0.018 -0.5594  0.7301 -0.3924
              Bcc     0.0015     0.777     0.277     0.259  0.1011  0.5300  0.8419
 
              Baa    -0.0416    -5.581    -1.991    -1.862  0.1437  0.8628  0.4847
    57 C(13)  Bbb    -0.0368    -4.942    -1.763    -1.648  0.0104 -0.4910  0.8711
              Bcc     0.0784    10.523     3.755     3.510  0.9896 -0.1202 -0.0795
 
              Baa    -0.0062    -3.315    -1.183    -1.106  0.0983  0.8728  0.4781
    58 H(1)   Bbb    -0.0004    -0.224    -0.080    -0.075  0.9934 -0.1148  0.0052
              Bcc     0.0066     3.539     1.263     1.180 -0.0594 -0.4745  0.8783
 
              Baa    -0.0149    -1.997    -0.713    -0.666 -0.0026  0.1395  0.9902
    59 C(13)  Bbb    -0.0138    -1.850    -0.660    -0.617  0.0159  0.9901 -0.1394
              Bcc     0.0287     3.848     1.373     1.283  0.9999 -0.0154  0.0048
 
              Baa    -0.0026    -1.399    -0.499    -0.467 -0.0386  0.2957  0.9545
    60 H(1)   Bbb    -0.0010    -0.526    -0.188    -0.175  0.9834 -0.1580  0.0887
              Bcc     0.0036     1.925     0.687     0.642  0.1771  0.9421 -0.2847
 
              Baa    -0.0265    -3.557    -1.269    -1.186  0.9982 -0.0352 -0.0480
    61 C(13)  Bbb     0.0120     1.605     0.573     0.535  0.0498  0.9354  0.3501
              Bcc     0.0145     1.952     0.696     0.651  0.0325 -0.3519  0.9355
 
              Baa    -0.0014    -0.724    -0.258    -0.242  0.8227 -0.4306 -0.3712
    62 H(1)   Bbb    -0.0001    -0.054    -0.019    -0.018  0.5594  0.7293  0.3938
              Bcc     0.0015     0.778     0.278     0.259  0.1011 -0.5316  0.8409
 
              Baa    -0.0050    -0.670    -0.239    -0.223 -0.1127  0.9648  0.2375
    63 C(13)  Bbb    -0.0043    -0.572    -0.204    -0.191  0.0711 -0.2306  0.9705
              Bcc     0.0093     1.242     0.443     0.414  0.9911  0.1262 -0.0426
 
              Baa    -0.0014    -0.744    -0.266    -0.248  0.6689 -0.5135  0.5375
    64 H(1)   Bbb    -0.0010    -0.525    -0.187    -0.175  0.7135  0.2406 -0.6581
              Bcc     0.0024     1.270     0.453     0.423  0.2086  0.8237  0.5273
 
              Baa    -0.0366    -4.911    -1.752    -1.638  0.1339  0.9909 -0.0129
    65 C(13)  Bbb    -0.0350    -4.702    -1.678    -1.569  0.0541  0.0057  0.9985
              Bcc     0.0716     9.613     3.430     3.207  0.9895 -0.1344 -0.0528
 
              Baa    -0.0036    -1.905    -0.680    -0.635  0.2478 -0.2357  0.9397
    66 H(1)   Bbb    -0.0006    -0.311    -0.111    -0.104  0.9587 -0.0802 -0.2729
              Bcc     0.0042     2.216     0.791     0.739  0.1396  0.9685  0.2061
 
              Baa    -0.0220    -2.954    -1.054    -0.985  0.9930 -0.1171 -0.0123
    67 C(13)  Bbb     0.0095     1.275     0.455     0.425  0.1031  0.8151  0.5701
              Bcc     0.0125     1.679     0.599     0.560 -0.0567 -0.5674  0.8215
 
              Baa    -0.0009    -0.462    -0.165    -0.154  0.9252  0.1292  0.3568
    68 H(1)   Bbb    -0.0000    -0.025    -0.009    -0.008 -0.3417  0.6926  0.6353
              Bcc     0.0009     0.488     0.174     0.163  0.1651  0.7097 -0.6849
 

 ---------------------------------------------------------------------------------

 No NMR shielding tensors so no spin-rotation constants.
 Leave Link  601 at Sat Nov 16 05:01:37 2024, MaxMem=  3221225472 cpu:              36.8 elap:               1.5
 (Enter /home/szhao/Apps/g16/l9999.exe)
 1\1\GINC-NODE03\FOpt\UM062X\6-311+G(d,p)\C42H26(1+,2)\SZHAO\16-Nov-202
 4\0\\#p opt UM062X/6-311+G** nosymm int=superfine\\Title Card Required
 \\1,2\C,-1.74049443,0.,0.\C,1.74049443,0.,0.\C,-0.0000226229,-2.028790
 1024,-0.0019166362\C,-0.0000109358,-3.4356942458,-0.0032378861\C,-1.13
 23049256,-4.2779063103,0.1776089608\C,-1.3472069016,-1.4574226871,0.14
 43559617\C,0.6654400363,-5.6704556121,-0.1151622724\H,1.3024205977,-6.
 5365776479,-0.2238909246\C,-1.717768775,0.7517730439,1.2289782738\C,-0
 .6654352443,-5.6706716325,0.1044177876\H,-1.3024064392,-6.5370057115,0
 .211500478\C,1.1322943479,-4.277548208,-0.1856993978\C,1.3471559664,-1
 .4571306514,-0.1471329039\C,1.8354380339,2.1782106617,-1.3668604752\C,
 -1.8553496397,0.4249090509,-1.368925948\C,-1.8249860508,2.744108831,2.
 6579290631\H,-1.9293532291,3.8198457707,2.7388114517\C,-2.3553079101,-
 3.7077727925,0.3801259416\H,-3.2534429862,-4.2933967051,0.5374528577\C
 ,-1.8668758924,1.7786549104,-1.8466148511\C,2.4268667694,-2.2941695926
 ,-0.3523185562\H,3.4024883518,-1.8302052483,-0.4591518469\C,1.85530380
 82,0.4223065824,1.3697362446\C,1.8669851333,1.7751501163,1.8499710688\
 C,2.3552793929,-3.7070187803,-0.3871921395\H,3.253414728,-4.2923327422
 ,-0.5456653578\C,-1.8349976493,2.1756519309,1.3709721298\C,-1.52507109
 93,0.0171488459,2.4377794786\H,-1.3975878411,-1.0531985008,2.388652381
 5\C,1.8968457594,-0.6008420267,2.3700728294\H,1.9155075952,-1.63604802
 04,2.0656303697\C,-1.6790493011,1.9886596947,3.8026765243\H,-1.6831904
 039,2.4632105329,4.7764014846\C,-2.42691442,-2.2948651447,0.3479154187
 \H,-3.4025453723,-1.8311146354,0.4555899284\C,-1.8795036425,2.01883129
 18,-3.2348992872\H,-1.8715141099,3.0490395736,-3.5713541904\C,1.717817
 3959,0.7541040012,-1.2275416779\C,-1.8930624246,3.1331740417,0.2988804
 506\H,-1.9317240481,4.1644732561,0.635571334\C,-1.9150824639,1.0038027
 93,-4.1637841165\H,-1.9387435373,1.2312441891,-5.2226551718\C,-1.87674
 2498,2.9677915806,-1.0389922587\H,-1.8949690971,3.8867958649,-1.616786
 3207\C,1.8793391669,2.0127064027,3.2387083077\H,1.8714410983,3.0422805
 734,3.5771009395\C,-1.5116596366,0.6076147821,3.6809519874\H,-1.370554
 835,-0.0076704258,4.5612754351\C,-1.8971699485,-0.5963438338,-2.371186
 5083\H,-1.9158793036,-1.6321202219,-2.0686953025\C,1.914562267,0.99592
 23561,4.1656832687\H,1.9379999011,1.2213632146,5.2249871623\C,1.825436
 4718,2.7490925201,-2.652744839\H,1.9301312975,3.8249460961,-2.73162123
 3\C,1.9407932605,-0.3293090225,3.7155084352\H,1.9912846309,-1.14761161
 61,4.4234451081\C,1.6791040009,1.9958419949,-3.7988909\H,1.6832414892,
 2.472226114,-4.7717201763\C,1.893918911,3.1336889699,-0.292973564\H,1.
 9330411199,4.1656018909,-0.627725249\C,-1.9413489895,-0.3222688315,-3.
 7161024305\H,-1.9920512358,-1.1392321572,-4.4255694282\C,1.8773953635,
 2.9657973382,1.0445858739\H,1.8959279427,3.8837057089,1.6241097927\C,1
 .5247609254,0.0218052171,-2.4376995033\H,1.3970004071,-1.0485996214,-2
 .3905511083\C,1.5113297792,0.6146149236,-3.6797530312\H,1.369913599,0.
 001037349,-4.5612172618\\Version=ES64L-G16RevA.03\HF=-1615.5652065\S2=
 0.768718\S2-1=0.\S2A=0.750303\RMSD=5.001e-09\RMSF=4.627e-06\Dipole=0.0
 00224,1.1125444,0.0010387\Quadrupole=-22.80247,12.123649,10.6788209,0.
 0031073,1.7527182,0.0009977\PG=C01 [X(C42H26)]\\@


 TELEVISION IS CALLED A MEDIUM BECAUSE IT ISN'T
 RARE, AND IT ISN'T WELL DONE.
 Job cpu time:      23 days  4 hours 25 minutes 46.9 seconds.
 Elapsed time:       0 days 19 hours 56 minutes 35.2 seconds.
 File lengths (MBytes):  RWF=   1251 Int=      0 D2E=      0 Chk=    111 Scr=      2
 Normal termination of Gaussian 16 at Sat Nov 16 05:01:40 2024.
