Title Card Required                                                     
FOpt      UM062X                                                      6-311+G(d,p)        
Number of atoms                            I                6
Info1-9                                    I   N=           9
          15          15           0           0           0         110
           2          18        -502
Full Title                                 C   N=           2
Title Card Required     
Route                                      C   N=           4
#p opt UM062X/6-311+G** nosymm int=superfine    
Charge                                     I                0
Multiplicity                               I                1
Number of electrons                        I               16
Number of alpha electrons                  I                8
Number of beta electrons                   I                8
Number of basis functions                  I               68
Number of independent functions            I               68
Number of point charges in /Mol/           I                0
Number of translation vectors              I                0
Atomic numbers                             I   N=           6
           6           6           1           1           1           1
Nuclear charges                            R   N=           6
  6.00000000E+00  6.00000000E+00  1.00000000E+00  1.00000000E+00  1.00000000E+00
  1.00000000E+00
Current cartesian coordinates              R   N=          18
 -2.00423446E+00  0.00000000E+00  0.00000000E+00  2.00423446E+00  0.00000000E+00
  0.00000000E+00 -2.85776667E+00 -1.84949470E+00  2.12761940E-07 -2.85760866E+00
  1.84929452E+00  1.70666460E-07  2.85776667E+00  1.84949468E+00 -2.32319551E-07
  2.85760866E+00 -1.84929450E+00 -2.74432622E-07
Number of symbols in /Mol/                 I                0
Force Field                                I                0
Atom Types                                 C   N=           6
                                                            
            
Int Atom Types                             I   N=           6
           0           0           0           0           0           0
MM charges                                 R   N=           6
  0.00000000E+00  0.00000000E+00  0.00000000E+00  0.00000000E+00  0.00000000E+00
  0.00000000E+00
Integer atomic weights                     I   N=           6
          12          12           1           1           1           1
Real atomic weights                        R   N=           6
  1.20000000E+01  1.20000000E+01  1.00782504E+00  1.00782504E+00  1.00782504E+00
  1.00782504E+00
Atom fragment info                         I   N=           6
           0           0           0           0           0           0
Atom residue num                           I   N=           6
           0           0           0           0           0           0
Nuclear spins                              I   N=           6
           0           0           1           1           1           1
Nuclear ZEff                               R   N=           6
 -3.60000000E+00 -3.60000000E+00 -1.00000000E+00 -1.00000000E+00 -1.00000000E+00
 -1.00000000E+00
Nuclear ZNuc                               R   N=           6
  6.00000000E+00  6.00000000E+00  1.00000000E+00  1.00000000E+00  1.00000000E+00
  1.00000000E+00
Nuclear QMom                               R   N=           6
  0.00000000E+00  0.00000000E+00  0.00000000E+00  0.00000000E+00  0.00000000E+00
  0.00000000E+00
Nuclear GFac                               R   N=           6
  0.00000000E+00  0.00000000E+00  2.79284600E+00  2.79284600E+00  2.79284600E+00
  2.79284600E+00
MicOpt                                     I   N=           6
          -2          -2          -1          -1          -1          -1
Number of residues                         I                0
Number of secondary structures             I                0
Redundant internal dimensions              I   N=           4
          20          10           6           4
Redundant internal coordinate indices      I   N=          80
           1          -1           0           0           1          -2
           0           0           1          -3           0           0
           2          -1           0           0           2          -2
           0           0           2          -3           0           0
           1           3           0           0           1           4
           0           0           2           5           0           0
           2           6           0           0           2           1
           3           0           2           1           4           0
           3           1           4           0           1           2
           5           0           1           2           6           0
           5           2           6           0           3           1
           2           5           3           1           2           6
           4           1           2           5           4           1
           2           6
Redundant internal coordinates             R   N=          20
 -2.00423446E+00  0.00000000E+00  0.00000000E+00  2.00423446E+00  0.00000000E+00
  0.00000000E+00  2.03694573E+00  2.03669776E+00  2.03694571E+00  2.03669774E+00
  2.00316812E+00  2.00313886E+00  2.27687832E+00  2.00316813E+00  2.00313887E+00
  2.27687831E+00  3.14159265E+00  2.63628453E-07 -2.17475288E-07 -3.14159260E+00
ZRed-IntVec                                I   N=          20
          -1          -1          -1          -1          -1          -1
           0           0           0           0           0           0
           0           0           0           0           0           0
           0           0
ZRed-FPVec                                 R   N=          20
  0.00000000E+00  0.00000000E+00  0.00000000E+00  0.00000000E+00  0.00000000E+00
  0.00000000E+00  0.00000000E+00  0.00000000E+00  0.00000000E+00  0.00000000E+00
  0.00000000E+00  0.00000000E+00  0.00000000E+00  0.00000000E+00  0.00000000E+00
  0.00000000E+00  0.00000000E+00  0.00000000E+00  0.00000000E+00  0.00000000E+00
ZRed-Constraint1                           R   N=          20
 -2.00423446E+00  0.00000000E+00  0.00000000E+00  2.00423446E+00  0.00000000E+00
  0.00000000E+00  2.44895900E+00  2.44793108E+00  2.44895900E+00  2.44793108E+00
  2.35070254E+00  2.34551980E+00  1.58696297E+00  2.35070254E+00  2.34551980E+00
  1.58696297E+00  3.14159265E+00  0.00000000E+00  0.00000000E+00  3.14159265E+00
ZRed-Constraint2                           R   N=          20
 -2.00423446E+00  0.00000000E+00  0.00000000E+00  2.00423446E+00  0.00000000E+00
  0.00000000E+00  0.00000000E+00  0.00000000E+00  0.00000000E+00  0.00000000E+00
  0.00000000E+00  0.00000000E+00  0.00000000E+00  0.00000000E+00  0.00000000E+00
  0.00000000E+00  0.00000000E+00  0.00000000E+00  0.00000000E+00  0.00000000E+00
Number of contracted shells                I               28
Number of primitive shells                 I               50
Pure/Cartesian d shells                    I                0
Pure/Cartesian f shells                    I                0
Highest angular momentum                   I                2
Largest degree of contraction              I                6
Shell types                                I   N=          28
           0          -1          -1          -1          -1          -2
           0          -1          -1          -1          -1          -2
           0           0           0           1           0           0
           0           1           0           0           0           1
           0           0           0           1
Number of primitives per shell             I   N=          28
           6           3           1           1           1           1
           6           3           1           1           1           1
           3           1           1           1           3           1
           1           1           3           1           1           1
           3           1           1           1
Shell to atom map                          I   N=          28
           1           1           1           1           1           1
           2           2           2           2           2           2
           3           3           3           3           4           4
           4           4           5           5           5           5
           6           6           6           6
Primitive exponents                        R   N=          50
  4.56324000E+03  6.82024000E+02  1.54973000E+02  4.44553000E+01  1.30290000E+01
  1.82773000E+00  2.09642000E+01  4.80331000E+00  1.45933000E+00  4.83456000E-01
  1.45585000E-01  4.38000000E-02  6.26000000E-01  4.56324000E+03  6.82024000E+02
  1.54973000E+02  4.44553000E+01  1.30290000E+01  1.82773000E+00  2.09642000E+01
  4.80331000E+00  1.45933000E+00  4.83456000E-01  1.45585000E-01  4.38000000E-02
  6.26000000E-01  3.38650000E+01  5.09479000E+00  1.15879000E+00  3.25840000E-01
  1.02741000E-01  7.50000000E-01  3.38650000E+01  5.09479000E+00  1.15879000E+00
  3.25840000E-01  1.02741000E-01  7.50000000E-01  3.38650000E+01  5.09479000E+00
  1.15879000E+00  3.25840000E-01  1.02741000E-01  7.50000000E-01  3.38650000E+01
  5.09479000E+00  1.15879000E+00  3.25840000E-01  1.02741000E-01  7.50000000E-01
Contraction coefficients                   R   N=          50
  1.96665025E-03  1.52306019E-02  7.61269097E-02  2.60801033E-01  6.16462078E-01
  2.21006028E-01  1.14660081E-01  9.19999648E-01 -3.03068213E-03  1.00000000E+00
  1.00000000E+00  1.00000000E+00  1.00000000E+00  1.96665025E-03  1.52306019E-02
  7.61269097E-02  2.60801033E-01  6.16462078E-01  2.21006028E-01  1.14660081E-01
  9.19999648E-01 -3.03068213E-03  1.00000000E+00  1.00000000E+00  1.00000000E+00
  1.00000000E+00  2.54938145E-02  1.90373109E-01  8.52161486E-01  1.00000000E+00
  1.00000000E+00  1.00000000E+00  2.54938145E-02  1.90373109E-01  8.52161486E-01
  1.00000000E+00  1.00000000E+00  1.00000000E+00  2.54938145E-02  1.90373109E-01
  8.52161486E-01  1.00000000E+00  1.00000000E+00  1.00000000E+00  2.54938145E-02
  1.90373109E-01  8.52161486E-01  1.00000000E+00  1.00000000E+00  1.00000000E+00
P(S=P) Contraction coefficients            R   N=          50
  0.00000000E+00  0.00000000E+00  0.00000000E+00  0.00000000E+00  0.00000000E+00
  0.00000000E+00  4.02486927E-02  2.37593957E-01  8.15853851E-01  1.00000000E+00
  1.00000000E+00  1.00000000E+00  0.00000000E+00  0.00000000E+00  0.00000000E+00
  0.00000000E+00  0.00000000E+00  0.00000000E+00  0.00000000E+00  4.02486927E-02
  2.37593957E-01  8.15853851E-01  1.00000000E+00  1.00000000E+00  1.00000000E+00
  0.00000000E+00  0.00000000E+00  0.00000000E+00  0.00000000E+00  0.00000000E+00
  0.00000000E+00  0.00000000E+00  0.00000000E+00  0.00000000E+00  0.00000000E+00
  0.00000000E+00  0.00000000E+00  0.00000000E+00  0.00000000E+00  0.00000000E+00
  0.00000000E+00  0.00000000E+00  0.00000000E+00  0.00000000E+00  0.00000000E+00
  0.00000000E+00  0.00000000E+00  0.00000000E+00  0.00000000E+00  0.00000000E+00
Coordinates of each shell                  R   N=          84
 -2.00423446E+00  0.00000000E+00  0.00000000E+00 -2.00423446E+00  0.00000000E+00
  0.00000000E+00 -2.00423446E+00  0.00000000E+00  0.00000000E+00 -2.00423446E+00
  0.00000000E+00  0.00000000E+00 -2.00423446E+00  0.00000000E+00  0.00000000E+00
 -2.00423446E+00  0.00000000E+00  0.00000000E+00  2.00423446E+00  0.00000000E+00
  0.00000000E+00  2.00423446E+00  0.00000000E+00  0.00000000E+00  2.00423446E+00
  0.00000000E+00  0.00000000E+00  2.00423446E+00  0.00000000E+00  0.00000000E+00
  2.00423446E+00  0.00000000E+00  0.00000000E+00  2.00423446E+00  0.00000000E+00
  0.00000000E+00 -2.85776667E+00 -1.84949470E+00  2.12761940E-07 -2.85776667E+00
 -1.84949470E+00  2.12761940E-07 -2.85776667E+00 -1.84949470E+00  2.12761940E-07
 -2.85776667E+00 -1.84949470E+00  2.12761940E-07 -2.85760866E+00  1.84929452E+00
  1.70666460E-07 -2.85760866E+00  1.84929452E+00  1.70666460E-07 -2.85760866E+00
  1.84929452E+00  1.70666460E-07 -2.85760866E+00  1.84929452E+00  1.70666460E-07
  2.85776667E+00  1.84949468E+00 -2.32319551E-07  2.85776667E+00  1.84949468E+00
 -2.32319551E-07  2.85776667E+00  1.84949468E+00 -2.32319551E-07  2.85776667E+00
  1.84949468E+00 -2.32319551E-07  2.85760866E+00 -1.84929450E+00 -2.74432622E-07
  2.85760866E+00 -1.84929450E+00 -2.74432622E-07  2.85760866E+00 -1.84929450E+00
 -2.74432622E-07  2.85760866E+00 -1.84929450E+00 -2.74432622E-07
Num ILSW                                   I              100
ILSW                                       I   N=         100
           1           0           0           1           2           0
           0           0           0           0        4336          -1
           7           0           0           0           2           0
           0           0           0           0           1           0
           1           1           0           0           0           0
           0           0      100000           0          -1           0
           0           0           0           0           0           0
           0           0           0           1           0           0
           0 -2000000000           1           0           0           0
           0           0           4          52           0           0
           0           0          55           0           0           0
           0           0           0           6           0           1
           0           0           0           0           0           0
           0           0           0           0           0           0
           0           0           0           0           0           0
           0           0           0           0           0           0
           0           0           0           0
Num RLSW                                   I               52
RLSW                                       R   N=          52
  1.00000000E+00  1.00000000E+00  1.00000000E+00  1.00000000E+00  5.40000000E-01
  0.00000000E+00  0.00000000E+00  1.00000000E+00  0.00000000E+00  0.00000000E+00
  0.00000000E+00  0.00000000E+00  1.00000000E+00  0.00000000E+00  0.00000000E+00
  0.00000000E+00  0.00000000E+00  1.00000000E+00  0.00000000E+00  0.00000000E+00
  0.00000000E+00  0.00000000E+00  1.00000000E+00  0.00000000E+00  0.00000000E+00
  0.00000000E+00  0.00000000E+00  1.00000000E+00  0.00000000E+00  0.00000000E+00
  0.00000000E+00  0.00000000E+00  1.00000000E+00  0.00000000E+00  0.00000000E+00
  0.00000000E+00  0.00000000E+00  0.00000000E+00  1.00000000E+00  1.00000000E+00
  0.00000000E+00  1.00000000E+00  0.00000000E+00  0.00000000E+00  0.00000000E+00
  0.00000000E+00  0.00000000E+00  0.00000000E+00  0.00000000E+00  0.00000000E+00
  0.00000000E+00  0.00000000E+00
MxBond                                     I                3
NBond                                      I   N=           6
           3           3           1           1           1           1
IBond                                      I   N=          18
           2           3           4           1           5           6
           1           0           0           1           0           0
           2           0           0           2           0           0
RBond                                      R   N=          18
  1.00000000E-01  1.00000000E+00  1.00000000E+00  1.00000000E-01  1.00000000E+00
  1.00000000E+00  1.00000000E+00  0.00000000E+00  0.00000000E+00  1.00000000E+00
  0.00000000E+00  0.00000000E+00  1.00000000E+00  0.00000000E+00  0.00000000E+00
  1.00000000E+00  0.00000000E+00  0.00000000E+00
Virial Ratio                               R      2.012028677143714E+00
SCF Energy                                 R     -7.834261441872555E+01
Total Energy                               R     -7.834261441872555E+01
S**2                                       R     -4.263256414560601E-14
S**2 after annihilation                    R     -7.638334409420894E-14
RMS Force                                  R      2.274115613660256E-05
RMS Density                                R      8.074045305045135E-10
Job Status                                 I                1
Nuclear derivative order                   I                1
External E-field                           R   N=          35
  0.00000000E+00  0.00000000E+00  0.00000000E+00  0.00000000E+00  0.00000000E+00
  0.00000000E+00  0.00000000E+00  0.00000000E+00  0.00000000E+00  0.00000000E+00
  0.00000000E+00  0.00000000E+00  0.00000000E+00  0.00000000E+00  0.00000000E+00
  0.00000000E+00  0.00000000E+00  0.00000000E+00  0.00000000E+00  0.00000000E+00
  0.00000000E+00  0.00000000E+00  0.00000000E+00  0.00000000E+00  0.00000000E+00
  0.00000000E+00  0.00000000E+00  0.00000000E+00  0.00000000E+00  0.00000000E+00
  0.00000000E+00  0.00000000E+00  0.00000000E+00  0.00000000E+00  0.00000000E+00
IOpCl                                      I                1
IROHF                                      I                0
Alpha Orbital Energies                     R   N=          68
 -1.06158601E+01 -1.06157450E+01 -7.70182378E-01 -7.20157349E-01 -5.30747039E-01
 -5.05301661E-01 -3.64726290E-01 -2.55209533E-01 -7.51838986E-02  4.25790961E-03
  3.36331686E-02  5.37724723E-02  7.24529707E-02  7.64988993E-02  9.21231176E-02
  9.94371500E-02  1.13228883E-01  1.51535301E-01  1.63939561E-01  2.01932625E-01
  2.13538561E-01  2.78862148E-01  3.94319098E-01  4.33490695E-01  4.45404945E-01
  5.82315927E-01  6.18684638E-01  6.42196092E-01  6.48962225E-01  6.67216958E-01
  7.02660646E-01  7.63412548E-01  7.63900197E-01  8.21674363E-01  1.07835315E+00
  1.09141961E+00  1.17549695E+00  1.17556592E+00  1.39550787E+00  1.41124565E+00
  1.43833997E+00  1.51550483E+00  1.52159362E+00  1.71411491E+00  1.73598154E+00
  1.76988839E+00  1.80284320E+00  1.86111830E+00  1.92618671E+00  2.01204196E+00
  2.01553756E+00  2.05630395E+00  2.35784776E+00  2.53323934E+00  2.56882904E+00
  2.59224538E+00  2.62200869E+00  2.63218730E+00  2.65484320E+00  2.69710694E+00
  2.76413815E+00  2.77963943E+00  2.78266948E+00  3.28849521E+00  3.70686306E+00
  3.74320182E+00  2.38235615E+01  2.38246898E+01
Beta Orbital Energies                      R   N=          68
 -1.06158601E+01 -1.06157450E+01 -7.70182378E-01 -7.20157349E-01 -5.30747039E-01
 -5.05301661E-01 -3.64726290E-01 -2.55209533E-01 -7.51838986E-02  4.25790961E-03
  3.36331686E-02  5.37724723E-02  7.24529707E-02  7.64988993E-02  9.21231176E-02
  9.94371500E-02  1.13228883E-01  1.51535301E-01  1.63939561E-01  2.01932625E-01
  2.13538561E-01  2.78862148E-01  3.94319098E-01  4.33490695E-01  4.45404945E-01
  5.82315927E-01  6.18684638E-01  6.42196092E-01  6.48962225E-01  6.67216958E-01
  7.02660646E-01  7.63412548E-01  7.63900197E-01  8.21674363E-01  1.07835315E+00
  1.09141961E+00  1.17549695E+00  1.17556592E+00  1.39550787E+00  1.41124565E+00
  1.43833997E+00  1.51550483E+00  1.52159362E+00  1.71411491E+00  1.73598154E+00
  1.76988839E+00  1.80284320E+00  1.86111830E+00  1.92618671E+00  2.01204196E+00
  2.01553756E+00  2.05630395E+00  2.35784776E+00  2.53323934E+00  2.56882904E+00
  2.59224538E+00  2.62200869E+00  2.63218730E+00  2.65484320E+00  2.69710694E+00
  2.76413815E+00  2.77963943E+00  2.78266948E+00  3.28849521E+00  3.70686306E+00
  3.74320182E+00  2.38235615E+01  2.38246898E+01
Alpha MO coefficients                      R   N=        4624
  3.98975048E-01  3.28095125E-01  3.70356633E-04 -1.28642576E-07  1.13899371E-10
  8.07086711E-03 -1.34249850E-03  1.48416471E-06  2.70559068E-10 -1.91566740E-03
  2.73842799E-05  7.05353778E-08  3.13040815E-11 -5.54874461E-04  3.64417964E-04
 -4.72122665E-07 -1.33601249E-10 -9.06569088E-04 -7.71636837E-11 -3.03452045E-11
 -9.98654259E-04 -4.43841686E-07  3.98968215E-01  3.28089506E-01 -3.70348996E-04
  1.28640351E-07 -8.76334542E-11  8.07072628E-03  1.34246898E-03 -1.48413809E-06
 -3.84484725E-10 -1.91561465E-03 -2.73903107E-05 -7.05383714E-08 -2.21475228E-11
 -5.54884407E-04 -3.64403301E-04  4.72118689E-07  1.50477804E-10 -9.06555271E-04
 -1.16310241E-10  3.06554598E-11 -9.98633643E-04 -4.43833301E-07  1.14141191E-04
 -2.36944189E-03  1.49641744E-03 -6.89122086E-04 -1.32566816E-03  1.75550712E-10
  1.13835698E-04 -2.37183077E-03  1.49795788E-03 -6.89542642E-04  1.32666868E-03
  1.46011862E-10  1.14139897E-04 -2.36940298E-03  1.49638848E-03  6.89111018E-04
  1.32564497E-03 -1.94592318E-10  1.13834411E-04 -2.37179183E-03  1.49792888E-03
  6.89531567E-04 -1.32664548E-03 -2.24417751E-10 -3.98982823E-01 -3.28109222E-01
 -4.46199339E-04  1.22314506E-07 -1.15629234E-10 -8.23066040E-03  1.72861466E-03
 -1.45558365E-06 -2.87249547E-10  3.07788154E-03  3.50342807E-04  1.65340265E-07
  2.57471324E-11 -5.67347962E-04 -8.52994318E-04  2.16411849E-07  5.78614479E-11
  8.08669672E-04  8.89515656E-11  2.90694897E-11  1.20521308E-03  4.52518987E-07
  3.98989656E-01  3.28114841E-01 -4.46205684E-04  1.22316579E-07 -8.84632799E-11
  8.23079877E-03  1.72863773E-03 -1.45560735E-06 -4.02223128E-10 -3.07791435E-03
  3.50342333E-04  1.65339204E-07  4.11942426E-11  5.67338418E-04 -8.53000568E-04
  2.16419415E-07  9.58079093E-11 -8.08685228E-04 -1.28074570E-10  2.93650546E-11
 -1.20523020E-03 -4.52525928E-07 -7.47990879E-05  2.27843042E-03 -1.69608034E-03
  6.47921959E-04  1.35616859E-03 -1.82070776E-10 -7.44327583E-05  2.28048909E-03
 -1.69753462E-03  6.48305239E-04 -1.35715613E-03 -1.51815339E-10  7.48010280E-05
 -2.27847110E-03  1.69610602E-03  6.47933787E-04  1.35619133E-03 -2.01920172E-10
  7.44346935E-05 -2.28052981E-03  1.69756033E-03  6.48317074E-04 -1.35717888E-03
 -2.32457723E-10 -7.79131173E-02 -1.25495073E-01 -1.39777705E-02  1.52548614E-05
  5.73841682E-09  3.37328948E-01 -1.48577579E-02  1.50031978E-05  9.07034493E-09
  2.33400421E-01 -3.27112101E-03  4.72997234E-06  2.72438525E-09  3.17960632E-03
 -3.60291648E-03  7.72729336E-07  9.53468681E-10 -8.40521857E-03  1.60029374E-10
 -1.90501289E-10 -2.05036376E-03 -9.60359865E-07 -7.79131211E-02 -1.25495079E-01
  1.39777734E-02 -1.52548439E-05 -7.62181808E-09  3.37328963E-01  1.48577615E-02
 -1.50031800E-05 -1.14965262E-08  2.33400430E-01  3.27112276E-03 -4.72996544E-06
 -3.79371868E-09  3.17960633E-03  3.60291665E-03 -7.72728829E-07 -1.05326721E-09
 -8.40521887E-03 -1.96526941E-10  1.91374659E-10 -2.05036414E-03 -9.60358435E-07
  7.40051617E-02  8.54153045E-02  4.91850995E-03  4.16983556E-03  1.13190285E-02
 -1.00634899E-09  7.40317126E-02  8.54408459E-02  4.91832186E-03  4.17133341E-03
 -1.13225466E-02 -7.52247785E-10  7.40051665E-02  8.54153097E-02  4.91851015E-03
 -4.16983579E-03 -1.13190292E-02  1.03614786E-09  7.40317174E-02  8.54408511E-02
  4.91832206E-03 -4.17133364E-03  1.13225472E-02  1.29156519E-09 -7.52426331E-02
 -1.21539314E-01 -4.61951659E-02  2.14515998E-05  8.29687188E-09  3.31324085E-01
 -6.77215890E-02  2.35343636E-05  1.27964685E-08  2.28095269E-01 -3.24476075E-02
  8.80033186E-06  4.53197668E-09 -2.05725266E-02 -1.05379266E-02  1.15401910E-07
  2.46233145E-10 -6.97134102E-03 -3.81453881E-10 -2.41943743E-10 -9.44608213E-03
 -1.26932686E-06  7.52426292E-02  1.21539308E-01 -4.61951663E-02  2.14515754E-05
  1.05399315E-08 -3.31324067E-01 -6.77215895E-02  2.35343376E-05  1.57699649E-08
 -2.28095255E-01 -3.24476079E-02  8.80032330E-06  5.82054326E-09  2.05725268E-02
 -1.05379264E-02  1.15400772E-07  4.24922270E-10  6.97134059E-03  9.04378576E-10
 -2.43427278E-10  9.44608198E-03  1.26932398E-06  8.45552656E-02  1.01191372E-01
  1.16875344E-02  2.87383764E-03  1.22013101E-02 -9.57228030E-10  8.45894929E-02
  1.01225137E-01  1.16901994E-02  2.87542279E-03 -1.22054084E-02 -6.69989869E-10
 -8.45552629E-02 -1.01191368E-01 -1.16875341E-02  2.87383748E-03  1.22013096E-02
 -9.86289998E-10 -8.45894901E-02 -1.01225133E-01 -1.16901990E-02  2.87542261E-03
 -1.22054080E-02 -1.27537665E-09  7.12618778E-06  1.19642664E-05  4.27361314E-06
  1.49323110E-01 -1.48695787E-09 -3.50323951E-05  9.52310032E-06  2.06487640E-01
 -2.01109310E-09 -4.46595351E-05  6.41301893E-06  1.17841563E-01 -1.08522585E-09
  4.75424586E-06  4.24593164E-06  3.66806716E-03 -5.47116879E-11  4.81806013E-07
  1.83784839E-10  3.96460136E-09 -4.02635301E-08 -1.15324998E-02 -7.12618136E-06
 -1.19642555E-05  4.27362861E-06  1.49323121E-01  1.49007527E-09  3.50323630E-05
  9.52311945E-06  2.06487654E-01  2.01363046E-09  4.46594895E-05  6.41302979E-06
  1.17841570E-01  1.08649318E-09 -4.75424924E-06  4.24593113E-06  3.66806743E-03
  5.45089385E-11 -4.81805651E-07  1.83805445E-10 -4.99570501E-09  4.02628649E-08
  1.15325011E-02 -1.06805292E-01 -1.48519571E-01 -4.37607611E-02 -7.29663269E-03
 -1.01737354E-02  2.07797820E-09  1.06793403E-01  1.48491400E-01  4.37529533E-02
  7.29627968E-03 -1.01711488E-02 -1.81411537E-09  1.06805300E-01  1.48519581E-01
  4.37607643E-02 -7.29663336E-03 -1.01737361E-02  2.40020047E-09 -1.06793411E-01
 -1.48491410E-01 -4.37529565E-02  7.29628035E-03 -1.01711495E-02 -2.66441325E-09
  4.96791554E-06  8.49592671E-06 -7.20296821E-06  1.52629689E-01 -1.89277651E-09
 -2.54630625E-05 -7.73501697E-06  2.08663038E-01 -2.64045642E-09 -4.01315048E-05
 -4.68208838E-06  1.22592280E-01 -1.54269012E-09 -3.77699082E-06  9.09755706E-07
  9.95526159E-03 -5.89013027E-11  2.68045674E-07  1.44682253E-10  4.29847923E-09
 -1.20867308E-06 -1.82356535E-02  4.96790695E-06  8.49591220E-06  7.20296807E-06
 -1.52629679E-01 -1.89830533E-09 -2.54630197E-05  7.73502183E-06 -2.08663025E-01
 -2.64610014E-09 -4.01314463E-05  4.68209348E-06 -1.22592272E-01 -1.54574286E-09
 -3.77698738E-06 -9.09753494E-07 -9.95526111E-03 -5.86961670E-11  2.68045125E-07
 -1.45387962E-10  5.32036607E-09 -1.20867456E-06 -1.82356529E-02 -1.11958457E-01
 -1.60206432E-01 -5.00134590E-02 -7.55298634E-03 -1.04098563E-02  2.08515272E-09
  1.11958585E-01  1.60194765E-01  5.00103157E-02  7.55230517E-03 -1.04091609E-02
 -1.86870136E-09 -1.11958450E-01 -1.60206422E-01 -5.00134558E-02  7.55298603E-03
  1.04098556E-02 -2.46093739E-09  1.11958579E-01  1.60194755E-01  5.00103126E-02
 -7.55230486E-03  1.04091602E-02  2.67794920E-09 -1.43970268E-02 -2.38167110E-02
  1.70175907E-01 -1.26595401E-07 -1.43916055E-08  6.37555154E-02  2.61846639E-01
  3.32789296E-06 -1.83948398E-08  1.18523120E-01  2.17859405E-01  2.31468921E-06
 -1.85072822E-08  7.84396761E-03  2.14909670E-02  1.82412276E-06 -4.34443751E-09
  1.10268073E-03  3.78710030E-09  1.54481763E-10  1.20795036E-02 -2.93252783E-08
 -1.43970273E-02 -2.38167117E-02 -1.70175907E-01  1.26603304E-07  1.98228409E-08
  6.37555175E-02 -2.61846639E-01 -3.32787679E-06  2.65907756E-08  1.18523124E-01
 -2.17859405E-01 -2.31467447E-06  2.50226974E-08  7.84396850E-03 -2.14909670E-02
 -1.82412055E-06  5.01466456E-09  1.10268080E-03  4.23463436E-09 -1.54670192E-10
  1.20795033E-02 -2.93258819E-08 -5.29163645E-02 -8.36380949E-02 -4.43388419E-02
  8.19980522E-03 -7.65245848E-03 -1.11805225E-10 -5.29097114E-02 -8.36216193E-02
 -4.43284398E-02  8.20161995E-03  7.65245908E-03 -2.96063056E-10 -5.29163644E-02
 -8.36380943E-02 -4.43388415E-02 -8.19980527E-03  7.65245853E-03  3.93319875E-10
 -5.29097113E-02 -8.36216187E-02 -4.43284394E-02 -8.20162000E-03 -7.65245913E-03
  2.09034852E-10  7.92157635E-09  1.32434293E-08 -5.23987818E-09  2.23496936E-09
  1.71969348E-01 -3.93465867E-08 -4.57254436E-09  3.34258294E-09  2.67004816E-01
 -5.49529101E-08 -5.09710863E-09  2.99970240E-09  3.00909048E-01  2.02030779E-08
  8.45888700E-09  8.76014116E-10  6.46063944E-02  1.73623452E-09  4.41237005E-03
  7.17779516E-07  2.95868435E-10 -1.45820439E-10 -9.01728682E-09 -1.50669445E-08
  1.47497002E-09 -2.23702578E-09  1.71969347E-01  4.48025760E-08  5.93616104E-09
 -3.34759773E-09  2.67004816E-01  6.33345294E-08  5.39436887E-09 -3.00339873E-09
  3.00909047E-01 -1.97619454E-08  1.15972168E-08 -8.77830594E-10  6.46063943E-02
 -2.00247472E-09 -4.41236997E-03 -7.17778613E-07 -2.41272561E-10 -1.46021673E-10
  8.15042667E-09  1.22044882E-08  4.24228266E-09  3.95739189E-10  1.94126511E-09
  1.47433806E-02  8.78180694E-09  1.38666473E-08  5.66415066E-09  3.96700864E-10
 -1.70802032E-09  1.47452753E-02 -9.73629924E-09 -1.50805236E-08 -5.41953311E-09
  1.10292255E-09  1.83579919E-09  1.47433807E-02 -9.10441293E-09 -1.34140007E-08
 -3.98982773E-09  1.10209531E-09 -2.07035454E-09  1.47452754E-02  3.24251210E-09
  5.46491960E-09  2.07617188E-08  1.78568273E-09  1.85429061E-01 -1.50555918E-08
  3.52423300E-08  2.80221086E-09  2.83181731E-01 -3.87686096E-08  3.82670623E-08
  3.76076510E-09  3.56575544E-01 -2.16902313E-08  2.15648011E-08  1.94657395E-09
  2.35150838E-01  2.74573256E-09 -1.67001083E-02  6.88614854E-07 -1.11061159E-09
  6.40474341E-11  6.00094730E-09  1.00584145E-08 -1.97326150E-08  1.78797011E-09
 -1.85429061E-01 -2.83835118E-08 -3.41332434E-08  2.80795946E-09 -2.83181731E-01
 -6.43125950E-08 -3.88488465E-08  3.76580108E-09 -3.56575544E-01 -1.45335438E-08
 -2.47135920E-08  1.95423749E-09 -2.35150838E-01  2.70038911E-09 -1.67001084E-02
  6.88614095E-07 -1.20143506E-09 -6.32026708E-11  6.33985098E-09  1.26805233E-08
  7.64941307E-09  2.24052031E-09  1.49746072E-09  1.89091320E-02  5.60240919E-09
  1.13611992E-08  6.29740612E-09  2.31075215E-09 -1.03010186E-09  1.89109491E-02
  9.23916412E-09  1.83574754E-08  1.07376924E-08 -2.34063262E-09 -1.54595277E-09
 -1.89091321E-02  9.97612939E-09  1.96740654E-08  1.20803039E-08 -2.27126677E-09
  2.01505151E-09 -1.89109492E-02 -4.45996804E-02 -7.46477568E-02  1.23073870E-01
 -8.88984680E-06  3.90500957E-09  2.18235716E-01  1.82378913E-01 -6.04113522E-06
  1.06425753E-08  4.79770145E-01  2.63814440E-01 -3.07118618E-05  1.21898951E-08
  1.54948046E+00  1.18393403E+00 -1.45902440E-05 -1.47066521E-09  7.71599732E-03
  2.75418259E-09 -5.71266072E-11 -1.99077103E-02 -1.61768368E-06  4.45996800E-02
  7.46477562E-02  1.23073871E-01 -8.88984166E-06  7.19206703E-09 -2.18235715E-01
  1.82378913E-01 -6.04114732E-06  1.61357535E-08 -4.79770136E-01  2.63814442E-01