 running on   28 total cores
 distrk:  each k-point on   28 cores,    1 groups
 distr:  one band on   14 cores,    2 groups
 vasp.6.3.1 04May22 (build Aug 04 2022 13:02:54) complex                        
  
 POSCAR found type information on POSCAR C 
 POSCAR found :  1 types and       2 ions
 scaLAPACK will be used
 -----------------------------------------------------------------------------
|                                                                             |
|           W    W    AA    RRRRR   N    N  II  N    N   GGGG   !!!           |
|           W    W   A  A   R    R  NN   N  II  NN   N  G    G  !!!           |
|           W    W  A    A  R    R  N N  N  II  N N  N  G       !!!           |
|           W WW W  AAAAAA  RRRRR   N  N N  II  N  N N  G  GGG   !            |
|           WW  WW  A    A  R   R   N   NN  II  N   NN  G    G                |
|           W    W  A    A  R    R  N    N  II  N    N   GGGG   !!!           |
|                                                                             |
|     For optimal performance we recommend to set                             |
|       NCORE = 2 up to number-of-cores-per-socket                            |
|     NCORE specifies how many cores store one orbital (NPAR=cpu/NCORE).      |
|     This setting can greatly improve the performance of VASP for DFT.       |
|     The default, NCORE=1 might be grossly inefficient on modern             |
|     multi-core architectures or massively parallel machines. Do your        |
|     own testing! More info at https://www.vasp.at/wiki/index.php/NCORE      |
|     Unfortunately you need to use the default for GW and RPA                |
|     calculations (for HF NCORE is supported but not extensively tested      |
|     yet).                                                                   |
|                                                                             |
 -----------------------------------------------------------------------------

 LDA part: xc-table for Pade appr. of Perdew
 POSCAR, INCAR and KPOINTS ok, starting setup
 FFT: planning ... GRIDC
 FFT: planning ... GRID_SOFT
 FFT: planning ... GRID
 WAVECAR not read
 WARNING: random wavefunctions but no delay for mixing, default for NELMDL
 entering main loop
       N       E                     dE             d eps       ncg     rms          rms(c)
DAV:   1     0.425141959271E+02    0.42514E+02   -0.25622E+03  1184   0.659E+02
DAV:   2    -0.514459446597E+01   -0.47659E+02   -0.46212E+02  2160   0.944E+01
DAV:   3    -0.882546277350E+01   -0.36809E+01   -0.35729E+01  1624   0.395E+01
DAV:   4    -0.889893747162E+01   -0.73475E-01   -0.73474E-01  2040   0.576E+00
DAV:   5    -0.889917549409E+01   -0.23802E-03   -0.23802E-03  1696   0.296E-01    0.166E+00
DAV:   6    -0.890084705503E+01   -0.16716E-02   -0.16546E-02  2040   0.101E+00    0.973E-01
DAV:   7    -0.890606035146E+01   -0.52133E-02   -0.20434E-02  1584   0.121E+00    0.160E-01
DAV:   8    -0.890626939294E+01   -0.20904E-03   -0.15538E-03  2128   0.275E-01    0.237E-02
DAV:   9    -0.890630603947E+01   -0.36647E-04   -0.38434E-05  2024   0.349E-02    0.152E-02
DAV:  10    -0.890632695459E+01   -0.20915E-04   -0.32110E-05  1968   0.284E-02    0.950E-03
DAV:  11    -0.890633601263E+01   -0.90580E-05   -0.12757E-05  1376   0.252E-02    0.117E-03
DAV:  12    -0.890633735888E+01   -0.13462E-05   -0.56616E-07  2240   0.636E-03    0.701E-04
DAV:  13    -0.890633799835E+01   -0.63947E-06   -0.42363E-08  1864   0.141E-03    0.295E-04
DAV:  14    -0.890633860469E+01   -0.60634E-06   -0.26004E-08  1776   0.108E-03    0.141E-04
DAV:  15    -0.890633970646E+01   -0.11018E-05   -0.54590E-08  1792   0.872E-04    0.209E-04
DAV:  16    -0.890633991186E+01   -0.20540E-06   -0.25390E-09   832   0.331E-04    0.798E-05
DAV:  17    -0.890634001377E+01   -0.10191E-06   -0.15763E-09   848   0.202E-04    0.374E-05
DAV:  18    -0.890634003741E+01   -0.23645E-07   -0.29131E-10   592   0.774E-05    0.896E-06
DAV:  19    -0.890634004299E+01   -0.55755E-08   -0.10071E-10   592   0.423E-05
   1 F= -.90391502E+01 E0= -.90387821E+01  d E =-.736189E-03
