Title Card Required                                                     
Force     UM062X                                                      6-311+G(d,p)        
Number of atoms                            I                4
Info1-9                                    I   N=           9
          13          13           0           0           0         100
           5          18        -502
Full Title                                 C   N=           2
Title Card Required     
Route                                      C   N=           4
#p UM062X/6-311+G** force int=superfine         
Charge                                     I                1
Multiplicity                               I                2
Number of electrons                        I               13
Number of alpha electrons                  I                7
Number of beta electrons                   I                6
Number of basis functions                  I               56
Number of independent functions            I               56
Number of point charges in /Mol/           I                0
Number of translation vectors              I                0
Atomic numbers                             I   N=           4
           6           6           1           1
Nuclear charges                            R   N=           4
  6.00000000E+00  6.00000000E+00  1.00000000E+00  1.00000000E+00
Current cartesian coordinates              R   N=          12
  0.00000000E+00  0.00000000E+00  1.16242534E+00  1.42356047E-16  0.00000000E+00
 -1.16242534E+00  0.00000000E+00  0.00000000E+00  3.20558589E+00  3.92571050E-16
  0.00000000E+00 -3.20558589E+00
Number of symbols in /Mol/                 I                0
Force Field                                I                0
Atom Types                                 C   N=           4
                                                
Int Atom Types                             I   N=           4
           0           0           0           0
MM charges                                 R   N=           4
  0.00000000E+00  0.00000000E+00  0.00000000E+00  0.00000000E+00
Integer atomic weights                     I   N=           4
          12          12           1           1
Real atomic weights                        R   N=           4
  1.20000000E+01  1.20000000E+01  1.00782504E+00  1.00782504E+00
Atom fragment info                         I   N=           4
           0           0           0           0
Atom residue num                           I   N=           4
           0           0           0           0
Nuclear spins                              I   N=           4
           0           0           1           1
Nuclear ZEff                               R   N=           4
 -3.60000000E+00 -3.60000000E+00 -1.00000000E+00 -1.00000000E+00
Nuclear ZNuc                               R   N=           4
  6.00000000E+00  6.00000000E+00  1.00000000E+00  1.00000000E+00
Nuclear QMom                               R   N=           4
  0.00000000E+00  0.00000000E+00  0.00000000E+00  0.00000000E+00
Nuclear GFac                               R   N=           4
  0.00000000E+00  0.00000000E+00  2.79284600E+00  2.79284600E+00
MicOpt                                     I   N=           4
          -1          -1          -1          -1
Number of residues                         I                0
Number of secondary structures             I                0
SymInf integers                            I   N=          26
           2           8           1           1           1          -1
           1          -1          -1          -1           1           1
          -1          -1          -1           1           1           1
          -1           1           1           1          -1          -1
          -1          -1
RotTr to input orientation                 R   N=          12
  0.00000000E+00  0.00000000E+00  1.00000000E+00  0.00000000E+00  1.00000000E+00
  0.00000000E+00 -1.00000000E+00 -0.00000000E+00 -0.00000000E+00  0.00000000E+00
  0.00000000E+00  0.00000000E+00
Number of contracted shells                I               20
Number of primitive shells                 I               38
Pure/Cartesian d shells                    I                0
Pure/Cartesian f shells                    I                0
Highest angular momentum                   I                2
Largest degree of contraction              I                6
Shell types                                I   N=          20
           0          -1          -1          -1          -1          -2
           0          -1          -1          -1          -1          -2
           0           0           0           1           0           0
           0           1
Number of primitives per shell             I   N=          20
           6           3           1           1           1           1
           6           3           1           1           1           1
           3           1           1           1           3           1
           1           1
Shell to atom map                          I   N=          20
           1           1           1           1           1           1
           2           2           2           2           2           2
           3           3           3           3           4           4
           4           4
Primitive exponents                        R   N=          38
  4.56324000E+03  6.82024000E+02  1.54973000E+02  4.44553000E+01  1.30290000E+01
  1.82773000E+00  2.09642000E+01  4.80331000E+00  1.45933000E+00  4.83456000E-01
  1.45585000E-01  4.38000000E-02  6.26000000E-01  4.56324000E+03  6.82024000E+02
  1.54973000E+02  4.44553000E+01  1.30290000E+01  1.82773000E+00  2.09642000E+01
  4.80331000E+00  1.45933000E+00  4.83456000E-01  1.45585000E-01  4.38000000E-02
  6.26000000E-01  3.38650000E+01  5.09479000E+00  1.15879000E+00  3.25840000E-01
  1.02741000E-01  7.50000000E-01  3.38650000E+01  5.09479000E+00  1.15879000E+00
  3.25840000E-01  1.02741000E-01  7.50000000E-01
Contraction coefficients                   R   N=          38
  1.96665025E-03  1.52306019E-02  7.61269097E-02  2.60801033E-01  6.16462078E-01
  2.21006028E-01  1.14660081E-01  9.19999648E-01 -3.03068213E-03  1.00000000E+00
  1.00000000E+00  1.00000000E+00  1.00000000E+00  1.96665025E-03  1.52306019E-02
  7.61269097E-02  2.60801033E-01  6.16462078E-01  2.21006028E-01  1.14660081E-01
  9.19999648E-01 -3.03068213E-03  1.00000000E+00  1.00000000E+00  1.00000000E+00
  1.00000000E+00  2.54938145E-02  1.90373109E-01  8.52161486E-01  1.00000000E+00
  1.00000000E+00  1.00000000E+00  2.54938145E-02  1.90373109E-01  8.52161486E-01
  1.00000000E+00  1.00000000E+00  1.00000000E+00
P(S=P) Contraction coefficients            R   N=          38
  0.00000000E+00  0.00000000E+00  0.00000000E+00  0.00000000E+00  0.00000000E+00
  0.00000000E+00  4.02486927E-02  2.37593957E-01  8.15853851E-01  1.00000000E+00
  1.00000000E+00  1.00000000E+00  0.00000000E+00  0.00000000E+00  0.00000000E+00
  0.00000000E+00  0.00000000E+00  0.00000000E+00  0.00000000E+00  4.02486927E-02
  2.37593957E-01  8.15853851E-01  1.00000000E+00  1.00000000E+00  1.00000000E+00
  0.00000000E+00  0.00000000E+00  0.00000000E+00  0.00000000E+00  0.00000000E+00
  0.00000000E+00  0.00000000E+00  0.00000000E+00  0.00000000E+00  0.00000000E+00
  0.00000000E+00  0.00000000E+00  0.00000000E+00
Coordinates of each shell                  R   N=          60
  0.00000000E+00  0.00000000E+00  1.16242534E+00  0.00000000E+00  0.00000000E+00
  1.16242534E+00  0.00000000E+00  0.00000000E+00  1.16242534E+00  0.00000000E+00
  0.00000000E+00  1.16242534E+00  0.00000000E+00  0.00000000E+00  1.16242534E+00
  0.00000000E+00  0.00000000E+00  1.16242534E+00  1.42356047E-16  0.00000000E+00
 -1.16242534E+00  1.42356047E-16  0.00000000E+00 -1.16242534E+00  1.42356047E-16
  0.00000000E+00 -1.16242534E+00  1.42356047E-16  0.00000000E+00 -1.16242534E+00
  1.42356047E-16  0.00000000E+00 -1.16242534E+00  1.42356047E-16  0.00000000E+00
 -1.16242534E+00  0.00000000E+00  0.00000000E+00  3.20558589E+00  0.00000000E+00
  0.00000000E+00  3.20558589E+00  0.00000000E+00  0.00000000E+00  3.20558589E+00
  0.00000000E+00  0.00000000E+00  3.20558589E+00  3.92571050E-16  0.00000000E+00
 -3.20558589E+00  3.92571050E-16  0.00000000E+00 -3.20558589E+00  3.92571050E-16
  0.00000000E+00 -3.20558589E+00  3.92571050E-16  0.00000000E+00 -3.20558589E+00
Num ILSW                                   I              100
ILSW                                       I   N=         100
           1           0           0           0           2           0
           0           0           0           0        4336          -1
           7           0           0           0           2           0
           0           0           0           0           1           0
           1           0           0           0           0           0
           0           0      100000           0          -1           0
           0           0           0           0           0           0
           0           0           0           1           0           0
           0 -2000000000           1           0           0           0
           0           0           4          52           0           0
           0           0          55           0           0           0
           0           0           0           4           0           1
           0           0           0           0           0           0
           0           0           0           0           0           0
           0           0           0           0           0           0
           0           0           0           0           0           0
           0           0           0           0
Num RLSW                                   I               52
RLSW                                       R   N=          52
  1.00000000E+00  1.00000000E+00  1.00000000E+00  1.00000000E+00  5.40000000E-01
  0.00000000E+00  0.00000000E+00  1.00000000E+00  0.00000000E+00  0.00000000E+00
  0.00000000E+00  0.00000000E+00  1.00000000E+00  0.00000000E+00  0.00000000E+00
  0.00000000E+00  0.00000000E+00  1.00000000E+00  0.00000000E+00  0.00000000E+00
  0.00000000E+00  0.00000000E+00  1.00000000E+00  0.00000000E+00  0.00000000E+00
  0.00000000E+00  0.00000000E+00  1.00000000E+00  0.00000000E+00  0.00000000E+00
  0.00000000E+00  0.00000000E+00  1.00000000E+00  0.00000000E+00  0.00000000E+00
  0.00000000E+00  0.00000000E+00  0.00000000E+00  1.00000000E+00  1.00000000E+00
  0.00000000E+00  1.00000000E+00  0.00000000E+00  0.00000000E+00  0.00000000E+00
  0.00000000E+00  0.00000000E+00  0.00000000E+00  0.00000000E+00  0.00000000E+00
  0.00000000E+00  0.00000000E+00
MxBond                                     I                2
NBond                                      I   N=           4
           2           2           1           1
IBond                                      I   N=           8
           2           3           1           4           1           0
           2           0
RBond                                      R   N=           8
  3.00000000E+00  1.00000000E+00  3.00000000E+00  1.00000000E+00  1.00000000E+00
  0.00000000E+00  1.00000000E+00  0.00000000E+00
Virial Ratio                               R      2.002875989404487E+00
SCF Energy                                 R     -7.690087419232350E+01
Total Energy                               R     -7.690087419232350E+01
S**2                                       R      7.522082444709319E-01
S**2 after annihilation                    R      7.500035177178337E-01
RMS Force                                  R      9.772481029386893E-03
RMS Density                                R      7.575632256556529E-09
Job Status                                 I                1
Nuclear derivative order                   I                1
External E-field                           R   N=          35
  0.00000000E+00  0.00000000E+00  0.00000000E+00  0.00000000E+00  0.00000000E+00
  0.00000000E+00  0.00000000E+00  0.00000000E+00  0.00000000E+00  0.00000000E+00
  0.00000000E+00  0.00000000E+00  0.00000000E+00  0.00000000E+00  0.00000000E+00
  0.00000000E+00  0.00000000E+00  0.00000000E+00  0.00000000E+00  0.00000000E+00
  0.00000000E+00  0.00000000E+00  0.00000000E+00  0.00000000E+00  0.00000000E+00
  0.00000000E+00  0.00000000E+00  0.00000000E+00  0.00000000E+00  0.00000000E+00
  0.00000000E+00  0.00000000E+00  0.00000000E+00  0.00000000E+00  0.00000000E+00
IOpCl                                      I                1
IROHF                                      I                0
Alpha Orbital Energies                     R   N=          56
 -1.09396427E+01 -1.09372569E+01 -1.23346471E+00 -9.70141809E-01 -8.96765074E-01
 -7.33246972E-01 -7.05803254E-01 -2.70063429E-01 -2.50040220E-01 -1.53565833E-01
 -1.45166559E-01 -1.15921778E-01 -1.03869360E-01 -1.01282072E-01 -6.01945467E-02
 -4.72714401E-02 -4.27677789E-02  2.28866708E-02  4.54830654E-02  1.61071329E-01
  1.85727919E-01  2.90746018E-01  3.01868147E-01  3.79050472E-01  3.85352240E-01
  4.78062848E-01  4.84817377E-01  5.51284938E-01  6.70006233E-01  7.65700947E-01
  7.81275856E-01  8.35212335E-01  8.45989625E-01  8.47743164E-01  1.19027566E+00
  1.19646338E+00  1.23745568E+00  1.23860364E+00  1.40759188E+00  1.53109781E+00
  1.54515819E+00  1.79863512E+00  2.13334575E+00  2.15531957E+00  2.29577459E+00
  2.35519764E+00  2.41437964E+00  2.44485480E+00  2.63103295E+00  2.65525533E+00
  2.66501403E+00  2.99046644E+00  3.02238203E+00  3.44109465E+00  2.32375931E+01
  2.46917479E+01
Beta Orbital Energies                      R   N=          56
 -1.09371226E+01 -1.09349937E+01 -1.18497595E+00 -9.54315740E-01 -8.91175592E-01
 -6.80657169E-01 -4.65239046E-01 -2.34203984E-01 -2.07435021E-01 -1.56321273E-01
 -1.45208414E-01 -1.16939703E-01 -1.06443724E-01 -1.03295437E-01 -5.49257993E-02
 -4.10162493E-02 -3.45363918E-02  2.08870944E-02  4.80299679E-02  1.66409437E-01
  1.94007199E-01  2.75438210E-01  3.00834658E-01  3.74993131E-01  3.86454655E-01
  4.62695557E-01  4.78141863E-01  5.65605235E-01  7.00866411E-01  7.98486624E-01
  8.06962385E-01  8.07721744E-01  8.85966174E-01  9.06717586E-01  1.20615266E+00
  1.21642672E+00  1.26684841E+00  1.28556520E+00  1.42191573E+00  1.55430371E+00
  1.56199874E+00  1.82918711E+00  2.16216896E+00  2.16858222E+00  2.31135710E+00
  2.37452229E+00  2.44865516E+00  2.45361058E+00  2.67094714E+00  2.67155627E+00
  2.73902449E+00  3.00917173E+00  3.11101990E+00  3.46098364E+00  2.32463281E+01
  2.47163308E+01
Alpha MO coefficients                      R   N=        3136
  3.98713863E-01  3.28054159E-01  0.00000000E+00  0.00000000E+00 -5.88679519E-04
  7.96458860E-03  0.00000000E+00  0.00000000E+00  2.21388056E-03 -2.26622203E-03
  0.00000000E+00  0.00000000E+00  1.94176624E-04 -4.57039898E-04  0.00000000E+00
  0.00000000E+00 -1.52698135E-03  1.38646898E-03  0.00000000E+00  0.00000000E+00
 -3.84625162E-05  0.00000000E+00  3.98713863E-01  3.28054159E-01  0.00000000E+00
  0.00000000E+00  5.88679519E-04  7.96458860E-03  0.00000000E+00  0.00000000E+00
 -2.21388056E-03 -2.26622203E-03  0.00000000E+00  0.00000000E+00 -1.94176624E-04
 -4.57039898E-04  0.00000000E+00  0.00000000E+00  1.52698135E-03  1.38646898E-03
  0.00000000E+00  0.00000000E+00 -3.84625162E-05  0.00000000E+00  7.37853161E-05
 -3.64314190E-03  2.57263295E-03  0.00000000E+00  0.00000000E+00  2.03260788E-03
  7.37853161E-05 -3.64314190E-03  2.57263295E-03  0.00000000E+00  0.00000000E+00
 -2.03260788E-03  3.99105361E-01  3.27301838E-01  0.00000000E+00  0.00000000E+00
  1.55999600E-04  1.37390930E-02  0.00000000E+00  0.00000000E+00 -6.29295894E-03
 -1.23554328E-02  0.00000000E+00  0.00000000E+00  1.19189709E-02 -2.34310778E-02
  0.00000000E+00  0.00000000E+00  5.94236012E-03  5.70226454E-03  0.00000000E+00
  0.00000000E+00 -5.25924538E-05  0.00000000E+00 -3.99105361E-01 -3.27301838E-01
  0.00000000E+00  0.00000000E+00  1.55999600E-04 -1.37390930E-02  0.00000000E+00
  0.00000000E+00 -6.29295894E-03  1.23554328E-02  0.00000000E+00  0.00000000E+00
  1.19189709E-02  2.34310778E-02  0.00000000E+00  0.00000000E+00  5.94236012E-03
 -5.70226454E-03  0.00000000E+00  0.00000000E+00  5.25924538E-05  0.00000000E+00
 -2.58967681E-04 -4.86409984E-03 -2.74181747E-03  0.00000000E+00  0.00000000E+00
  2.16437583E-03  2.58967681E-04  4.86409984E-03  2.74181747E-03  0.00000000E+00
  0.00000000E+00  2.16437583E-03 -9.28132381E-02 -1.50500851E-01  0.00000000E+00
  0.00000000E+00 -8.98538490E-02  3.98126111E-01  0.00000000E+00  0.00000000E+00
 -9.80366403E-02  1.90337539E-01  0.00000000E+00  0.00000000E+00 -1.56878494E-02
 -5.96428859E-03  0.00000000E+00  0.00000000E+00  2.08598625E-02  2.77588072E-02
  0.00000000E+00  0.00000000E+00 -5.77440100E-03  0.00000000E+00 -9.28132381E-02
 -1.50500851E-01  0.00000000E+00  0.00000000E+00  8.98538490E-02  3.98126111E-01
  0.00000000E+00  0.00000000E+00  9.80366403E-02  1.90337539E-01  0.00000000E+00
  0.00000000E+00  1.56878494E-02 -5.96428859E-03  0.00000000E+00  0.00000000E+00
 -2.08598625E-02  2.77588072E-02  0.00000000E+00  0.00000000E+00 -5.77440100E-03
  0.00000000E+00  3.10417638E-02  2.34019940E-02 -1.49723749E-02  0.00000000E+00
  0.00000000E+00  1.52042385E-03  3.10417638E-02  2.34019940E-02 -1.49723749E-02
  0.00000000E+00  0.00000000E+00 -1.52042385E-03  6.57350522E-02  1.09266313E-01
  0.00000000E+00  0.00000000E+00 -9.74427358E-02 -3.09932363E-01  0.00000000E+00
  0.00000000E+00 -1.30443000E-01 -3.05999068E-01  0.00000000E+00  0.00000000E+00
 -1.28451340E-02  3.41757241E-01  0.00000000E+00  0.00000000E+00 -8.71046085E-02
 -1.25076188E-02  0.00000000E+00  0.00000000E+00  4.08966836E-03  0.00000000E+00
 -6.57350522E-02 -1.09266313E-01  0.00000000E+00  0.00000000E+00 -9.74427358E-02
  3.09932363E-01  0.00000000E+00  0.00000000E+00 -1.30443000E-01  3.05999068E-01
  0.00000000E+00  0.00000000E+00 -1.28451340E-02 -3.41757241E-01  0.00000000E+00
  0.00000000E+00 -8.71046085E-02  1.25076188E-02  0.00000000E+00  0.00000000E+00
 -4.08966836E-03  0.00000000E+00 -1.24776930E-01 -1.63419000E-01 -6.79887468E-04
  0.00000000E+00  0.00000000E+00  2.08622513E-02  1.24776930E-01  1.63419000E-01
  6.79887468E-04  0.00000000E+00  0.00000000E+00  2.08622513E-02 -1.14411450E-02
 -1.84733906E-02  0.00000000E+00  0.00000000E+00  1.92343450E-01  5.50005971E-02
  0.00000000E+00  0.00000000E+00  2.43346248E-01  1.06422614E-01  0.00000000E+00
  0.00000000E+00  9.97783035E-02  9.11684690E-03  0.00000000E+00  0.00000000E+00
  1.01436988E-02 -9.68993743E-03  0.00000000E+00  0.00000000E+00 -4.42708567E-04
  0.00000000E+00 -1.14411450E-02 -1.84733906E-02  0.00000000E+00  0.00000000E+00
 -1.92343450E-01  5.50005971E-02  0.00000000E+00  0.00000000E+00 -2.43346248E-01
  1.06422614E-01  0.00000000E+00  0.00000000E+00 -9.97783035E-02  9.11684690E-03
  0.00000000E+00  0.00000000E+00 -1.01436988E-02 -9.68993743E-03  0.00000000E+00
  0.00000000E+00 -4.42708567E-04  0.00000000E+00  1.33814283E-01  1.91530467E-01
 -6.69048579E-03  0.00000000E+00  0.00000000E+00 -2.94875911E-02  1.33814283E-01
  1.91530467E-01 -6.69048579E-03  0.00000000E+00  0.00000000E+00  2.94875911E-02
  0.00000000E+00  0.00000000E+00  0.00000000E+00  2.00730743E-01  0.00000000E+00
  0.00000000E+00  0.00000000E+00  3.26509400E-01  0.00000000E+00  0.00000000E+00
  0.00000000E+00  1.94176301E-01  0.00000000E+00  0.00000000E+00  0.00000000E+00
 -7.51453759E-03  0.00000000E+00  0.00000000E+00  0.00000000E+00 -3.47443189E-02
  0.00000000E+00  0.00000000E+00  0.00000000E+00  0.00000000E+00  0.00000000E+00
  2.00730743E-01  0.00000000E+00  0.00000000E+00  0.00000000E+00  3.26509400E-01
  0.00000000E+00  0.00000000E+00  0.00000000E+00  1.94176301E-01  0.00000000E+00
  0.00000000E+00  0.00000000E+00 -7.51453759E-03  0.00000000E+00  0.00000000E+00
  0.00000000E+00  3.47443189E-02  0.00000000E+00  0.00000000E+00  0.00000000E+00
  0.00000000E+00  0.00000000E+00  0.00000000E+00  1.21436129E-02  0.00000000E+00
  0.00000000E+00  0.00000000E+00  0.00000000E+00  0.00000000E+00  1.21436129E-02
  0.00000000E+00  0.00000000E+00  0.00000000E+00  2.00268627E-01  0.00000000E+00
  0.00000000E+00  0.00000000E+00  3.24675440E-01  0.00000000E+00  0.00000000E+00
  0.00000000E+00  1.94896719E-01  0.00000000E+00  0.00000000E+00  0.00000000E+00
 -4.18203778E-03  0.00000000E+00  0.00000000E+00  0.00000000E+00 -3.31215703E-02
  0.00000000E+00  0.00000000E+00  0.00000000E+00  0.00000000E+00  0.00000000E+00
  2.00268627E-01  0.00000000E+00  0.00000000E+00  0.00000000E+00  3.24675440E-01
  0.00000000E+00  0.00000000E+00  0.00000000E+00  1.94896719E-01  0.00000000E+00
  0.00000000E+00  0.00000000E+00 -4.18203778E-03  0.00000000E+00  0.00000000E+00
  0.00000000E+00  3.31215703E-02  0.00000000E+00  0.00000000E+00  0.00000000E+00
  0.00000000E+00  0.00000000E+00  0.00000000E+00  1.35074578E-02  0.00000000E+00
  0.00000000E+00  0.00000000E+00  0.00000000E+00  0.00000000E+00  1.35074578E-02
  0.00000000E+00  0.00000000E+00  0.00000000E+00  0.00000000E+00  0.00000000E+00
  2.07172071E-01  0.00000000E+00  0.00000000E+00  0.00000000E+00  3.46098864E-01
  0.00000000E+00  0.00000000E+00  0.00000000E+00  5.20071318E-01  0.00000000E+00
  0.00000000E+00  0.00000000E+00  2.18411078E-01  0.00000000E+00  0.00000000E+00
  0.00000000E+00  3.63609450E-02  0.00000000E+00  0.00000000E+00  0.00000000E+00
  0.00000000E+00  0.00000000E+00 -2.07172071E-01  0.00000000E+00  0.00000000E+00
  0.00000000E+00 -3.46098864E-01  0.00000000E+00  0.00000000E+00  0.00000000E+00
 -5.20071318E-01  0.00000000E+00  0.00000000E+00  0.00000000E+00 -2.18411078E-01
  0.00000000E+00  0.00000000E+00  0.00000000E+00  3.63609450E-02  0.00000000E+00
  0.00000000E+00  0.00000000E+00  0.00000000E+00  0.00000000E+00  0.00000000E+00
  2.72068956E-02  0.00000000E+00  0.00000000E+00  0.00000000E+00  0.00000000E+00
  0.00000000E+00 -2.72068956E-02  0.00000000E+00  0.00000000E+00  0.00000000E+00
  2.02000674E-01  0.00000000E+00  0.00000000E+00  0.00000000E+00  3.30479594E-01
  0.00000000E+00  0.00000000E+00  0.00000000E+00  5.31796441E-01  0.00000000E+00
  0.00000000E+00  0.00000000E+00  2.73626895E-01  0.00000000E+00  0.00000000E+00
  0.00000000E+00  3.88296683E-02  0.00000000E+00  0.00000000E+00  0.00000000E+00
  0.00000000E+00  0.00000000E+00 -2.02000674E-01  0.00000000E+00  0.00000000E+00
  0.00000000E+00 -3.30479594E-01  0.00000000E+00  0.00000000E+00  0.00000000E+00
 -5.31796441E-01  0.00000000E+00  0.00000000E+00  0.00000000E+00 -2.73626895E-01
  0.00000000E+00  0.00000000E+00  0.00000000E+00  3.88296683E-02  0.00000000E+00
  0.00000000E+00  0.00000000E+00  0.00000000E+00  0.00000000E+00  0.00000000E+00
  2.86751799E-02  0.00000000E+00  0.00000000E+00  0.00000000E+00  0.00000000E+00
  0.00000000E+00 -2.86751799E-02  0.00000000E+00  0.00000000E+00 -4.68275235E-02
 -8.10585381E-02  0.00000000E+00  0.00000000E+00  2.17094913E-02  2.50155688E-01
  0.00000000E+00  0.00000000E+00  4.47053452E-02  8.98168497E-01  0.00000000E+00
  0.00000000E+00 -2.14159622E-02  8.91595794E+00  0.00000000E+00  0.00000000E+00
 -2.60459848E+00 -3.34461361E-02  0.00000000E+00  0.00000000E+00 -4.24871668E-03
  0.00000000E+00  4.68275235E-02  8.10585381E-02  0.00000000E+00  0.00000000E+00
  2.17094913E-02 -2.50155688E-01  0.00000000E+00  0.00000000E+00  4.47053452E-02
 -8.98168497E-01  0.00000000E+00  0.00000000E+00 -2.14159622E-02 -8.91595794E+00
  0.00000000E+00  0.00000000E+00 -2.60459848E+00  3.34461361E-02  0.00000000E+00
  0.00000000E+00  4.24871668E-03  0.00000000E+00 -6.10229672E-02 -2.20378112E-01
 -3.91781615E-01  0.00000000E+00  0.00000000E+00 -2.07785211E-02  6.10229672E-02
  2.20378112E-01  3.91781615E-01  0.00000000E+00  0.00000000E+00 -2.07785211E-02
  2.29218470E-02  4.00125018E-02  0.00000000E+00  0.00000000E+00 -2.91586411E-02
 -1.44844648E-01  0.00000000E+00  0.00000000E+00 -6.02353745E-02 -2.87037297E-01
  0.00000000E+00  0.00000000E+00 -5.51427665E-02  9.52802723E-01  0.00000000E+00
  0.00000000E+00  5.38738706E-01 -2.30063862E-02  0.00000000E+00  0.00000000E+00
 -1.01956908E-03  0.00000000E+00  2.29218470E-02  4.00125018E-02  0.00000000E+00
  0.00000000E+00  2.91586411E-02 -1.44844648E-01  0.00000000E+00  0.00000000E+00
  6.02353745E-02 -2.87037297E-01  0.00000000E+00  0.00000000E+00  5.51427665E-02
  9.52802723E-01  0.00000000E+00  0.00000000E+00 -5.38738706E-01 -2.30063862E-02
  0.00000000E+00  0.00000000E+00 -1.01956908E-03  0.00000000E+00 -2.82130469E-02
  2.49699877E-02 -3.07459935E-01  0.00000000E+00  0.00000000E+00  7.23746277E-03
 -2.82130469E-02  2.49699877E-02 -3.07459935E-01  0.00000000E+00  0.00000000E+00
 -7.23746277E-03  1.47476186E-04 -4.64678837E-04  0.00000000E+00  0.00000000E+00
 -1.01825851E-01  3.23343125E-02  0.00000000E+00  0.00000000E+00 -1.38644293E-01
 -2.78572567E-01  0.00000000E+00  0.00000000E+00 -2.30155949E-01 -2.27287302E-01
  0.00000000E+00  0.00000000E+00  9.02207884E-01  4.99713934E-02  0.00000000E+00
  0.00000000E+00  3.86021737E-03  0.00000000E+00  1.47476186E-04 -4.64678837E-04
  0.00000000E+00  0.00000000E+00  1.01825851E-01  3.23343125E-02  0.00000000E+00
  0.00000000E+00  1.38644293E-01 -2.78572567E-01  0.00000000E+00  0.00000000E+00
  2.30155949E-01 -2.27287302E-01  0.00000000E+00  0.00000000E+00 -9.02207884E-01
  4.99713934E-02  0.00000000E+00  0.00000000E+00  3.86021737E-03  0.00000000E+00
  5.88009986E-02  1.96653957E-01  6.28277288E-01  0.00000000E+00  0.00000000E+00
  2.69951378E-02  5.88009986E-02  1.96653957E-01  6.28277288E-01  0.00000000E+00
  0.00000000E+00 -2.69951378E-02  0.00000000E+00  0.00000000E+00  0.00000000E+00
 -6.71112196E-02  0.00000000E+00  0.00000000E+00  0.00000000E+00 -7.88800166E-02
  0.00000000E+00  0.00000000E+00  0.00000000E+00 -1.80059730E-01  0.00000000E+00
  0.00000000E+00  0.00000000E+00  6.06525030E-01  0.00000000E+00  0.00000000E+00
  0.00000000E+00  1.99229974E-02  0.00000000E+00  0.00000000E+00  0.00000000E+00
  0.00000000E+00  0.00000000E+00 -6.71112196E-02  0.00000000E+00  0.00000000E+00
  0.00000000E+00 -7.88800166E-02  0.00000000E+00  0.00000000E+00  0.00000000E+00
 -1.80059730E-01  0.00000000E+00  0.00000000E+00  0.00000000E+00  6.06525030E-01
  0.00000000E+00  0.00000000E+00  0.00000000E+00 -1.99229974E-02  0.00000000E+00
  0.00000000E+00  0.00000000E+00  0.00000000E+00  0.00000000E+00  0.00000000E+00
  8.47118931E-03  0.00000000E+00  0.00000000E+00  0.00000000E+00  0.00000000E+00
  0.00000000E+00  8.47118931E-03  0.00000000E+00  0.00000000E+00  0.00000000E+00
 -6.68930625E-02  0.00000000E+00  0.00000000E+00  0.00000000E+00 -8.62520626E-02
  0.00000000E+00  0.00000000E+00  0.00000000E+00 -1.76535239E-01  0.00000000E+00
  0.00000000E+00  0.00000000E+00  6.04638764E-01  0.00000000E+00  0.00000000E+00
  0.00000000E+00  1.91672280E-02  0.00000000E+00  0.00000000E+00  0.00000000E+00
  0.00000000E+00  0.00000000E+00 -6.68930625E-02  0.00000000E+00  0.00000000E+00
  0.00000000E+00 -8.62520626E-02  0.00000000E+00  0.00000000E+00  0.00000000E+00
 -1.76535239E-01  0.00000000E+00  0.00000000E+00  0.00000000E+00  6.04638764E-01
  0.00000000E+00  0.00000000E+00  0.00000000E+00 -1.91672280E-02  0.00000000E+00
  0.00000000E+00  0.00000000E+00  0.00000000E+00  0.00000000E+00  0.00000000E+00
  7.96000404E-03  0.00000000E+00  0.00000000E+00  0.00000000E+00  0.00000000E+00
  0.00000000E+00  7.96000404E-03  0.00000000E+00  0.00000000E+00 -3.36954794E-02
 -5.75864043E-02  0.00000000E+00  0.00000000E+00 -2.85794513E-02  1.57554332E-01
  0.00000000E+00  0.00000000E+00 -3.59348593E-02  5.69154512E-01  0.00000000E+00
  0.00000000E+00  3.24269504E-01  3.18695840E+00  0.00000000E+00  0.00000000E+00
  1.83578801E-01 -6.73210073E-02  0.00000000E+00  0.00000000E+00 -5.31540779E-03
  0.00000000E+00  3.36954794E-02  5.75864043E-02  0.00000000E+00  0.00000000E+00
 -2.85794513E-02 -1.57554332E-01  0.00000000E+00  0.00000000E+00 -3.59348593E-02
 -5.69154512E-01  0.00000000E+00  0.00000000E+00  3.24269504E-01 -3.18695840E+00
  0.00000000E+00  0.00000000E+00  1.83578801E-01  6.73210073E-02  0.00000000E+00
  0.00000000E+00  5.31540779E-03  0.00000000E+00 -1.09345096E-01 -3.10246496E-01
 -1.47200573E+00  0.00000000E+00  0.00000000E+00 -6.26233070E-03  1.09345096E-01
  3.10246496E-01  1.47200573E+00  0.00000000E+00  0.00000000E+00 -6.26233070E-03
  0.00000000E+00  0.00000000E+00  0.00000000E+00 -8.98595826E-02  0.00000000E+00
  0.00000000E+00  0.00000000E+00 -1.26236474E-01  0.00000000E+00  0.00000000E+00
  0.00000000E+00 -3.79059695E-01  0.00000000E+00  0.00000000E+00  0.00000000E+00
  2.33362913E+00  0.00000000E+00  0.00000000E+00  0.00000000E+00 -5.01531104E-03
  0.00000000E+00  0.00000000E+00  0.00000000E+00  0.00000000E+00  0.00000000E+00
  8.98595826E-02  0.00000000E+00  0.00000000E+00  0.00000000E+00  1.26236474E-01
  0.00000000E+00  0.00000000E+00  0.00000000E+00  3.79059695E-01  0.00000000E+00
  0.00000000E+00  0.00000000E+00 -2.33362913E+00  0.00000000E+00  0.00000000E+00
  0.00000000E+00 -5.01531104E-03  0.00000000E+00  0.00000000E+00  0.00000000E+00
  0.00000000E+00  0.00000000E+00  0.00000000E+00  7.13488461E-03  0.00000000E+00
  0.00000000E+00  0.00000000E+00  0.00000000E+00  0.00000000E+00 -7.13488461E-03
  0.00000000E+00  0.00000000E+00  0.00000000E+00 -9.46302102E-02  0.00000000E+00
  0.00000000E+00  0.00000000E+00 -1.36269013E-01  0.00000000E+00  0.00000000E+00
  0.00000000E+00 -3.97150667E-01  0.00000000E+00  0.00000000E+00  0.00000000E+00
  2.32775816E+00  0.00000000E+00  0.00000000E+00  0.00000000E+00 -8.00061577E-03
  0.00000000E+00  0.00000000E+00  0.00000000E+00  0.00000000E+00  0.00000000E+00
  9.46302102E-02  0.00000000E+00  0.00000000E+00  0.00000000E+00  1.36269013E-01
  0.00000000E+00  0.00000000E+00  0.00000000E+00  3.97150667E-01  0.00000000E+00
  0.00000000E+00  0.00000000E+00 -2.32775816E+00  0.00000000E+00  0.00000000E+00
  0.00000000E+00 -8.00061577E-03  0.00000000E+00  0.00000000E+00  0.00000000E+00
  0.00000000E+00  0.00000000E+00  0.00000000E+00  5.16977735E-03  0.00000000E+00