Title Card Required                                                     
Force     UM062X                                                      6-311+G(d,p)        
Number of atoms                            I                4
Info1-9                                    I   N=           9
          13          13           0           0           0         100
           5          18        -502
Full Title                                 C   N=           2
Title Card Required     
Route                                      C   N=           4
#p UM062X/6-311+G** force int=superfine         
Charge                                     I                1
Multiplicity                               I                2
Number of electrons                        I               13
Number of alpha electrons                  I                7
Number of beta electrons                   I                6
Number of basis functions                  I               56
Number of independent functions            I               56
Number of point charges in /Mol/           I                0
Number of translation vectors              I                0
Atomic numbers                             I   N=           4
           6           6           1           1
Nuclear charges                            R   N=           4
  6.00000000E+00  6.00000000E+00  1.00000000E+00  1.00000000E+00
Current cartesian coordinates              R   N=          12
 -4.77527650E-22  1.82415261E-22  1.67905716E+00  4.49237557E-22 -1.67929525E-22
 -1.67906175E+00 -2.45960336E-22  8.99068504E-23  3.75671466E+00 -1.27836500E-21
 -1.02385570E-21 -3.75668712E+00
Number of symbols in /Mol/                 I                0
Force Field                                I                0
Atom Types                                 C   N=           4
                                                
Int Atom Types                             I   N=           4
           0           0           0           0
MM charges                                 R   N=           4
  0.00000000E+00  0.00000000E+00  0.00000000E+00  0.00000000E+00
Integer atomic weights                     I   N=           4
          12          12           1           1
Real atomic weights                        R   N=           4
  1.20000000E+01  1.20000000E+01  1.00782504E+00  1.00782504E+00
Atom fragment info                         I   N=           4
           0           0           0           0
Atom residue num                           I   N=           4
           0           0           0           0
Nuclear spins                              I   N=           4
           0           0           1           1
Nuclear ZEff                               R   N=           4
 -3.60000000E+00 -3.60000000E+00 -1.00000000E+00 -1.00000000E+00
Nuclear ZNuc                               R   N=           4
  6.00000000E+00  6.00000000E+00  1.00000000E+00  1.00000000E+00
Nuclear QMom                               R   N=           4
  0.00000000E+00  0.00000000E+00  0.00000000E+00  0.00000000E+00
Nuclear GFac                               R   N=           4
  0.00000000E+00  0.00000000E+00  2.79284600E+00  2.79284600E+00
MicOpt                                     I   N=           4
          -1          -1          -1          -1
Number of residues                         I                0
Number of secondary structures             I                0
SymInf integers                            I   N=          26
           1           4           1           1           1          -1
          -1           1          -1           1           1           1
          -1           1           0           0           0           0
           0           0           0           0           0           0
           0           0
RotTr to input orientation                 R   N=          12
 -1.71595715E-06 -2.05916257E-06  1.00000000E+00 -2.05916257E-06  1.00000000E+00
  2.05915904E-06 -1.00000000E+00 -2.05915904E-06 -1.71596139E-06 -2.29466744E-06
  1.34980437E-06  2.56462831E-06
Number of contracted shells                I               20
Number of primitive shells                 I               38
Pure/Cartesian d shells                    I                0
Pure/Cartesian f shells                    I                0
Highest angular momentum                   I                2
Largest degree of contraction              I                6
Shell types                                I   N=          20
           0          -1          -1          -1          -1          -2
           0          -1          -1          -1          -1          -2
           0           0           0           1           0           0
           0           1
Number of primitives per shell             I   N=          20
           6           3           1           1           1           1
           6           3           1           1           1           1
           3           1           1           1           3           1
           1           1
Shell to atom map                          I   N=          20
           1           1           1           1           1           1
           2           2           2           2           2           2
           3           3           3           3           4           4
           4           4
Primitive exponents                        R   N=          38
  4.56324000E+03  6.82024000E+02  1.54973000E+02  4.44553000E+01  1.30290000E+01
  1.82773000E+00  2.09642000E+01  4.80331000E+00  1.45933000E+00  4.83456000E-01
  1.45585000E-01  4.38000000E-02  6.26000000E-01  4.56324000E+03  6.82024000E+02
  1.54973000E+02  4.44553000E+01  1.30290000E+01  1.82773000E+00  2.09642000E+01
  4.80331000E+00  1.45933000E+00  4.83456000E-01  1.45585000E-01  4.38000000E-02
  6.26000000E-01  3.38650000E+01  5.09479000E+00  1.15879000E+00  3.25840000E-01
  1.02741000E-01  7.50000000E-01  3.38650000E+01  5.09479000E+00  1.15879000E+00
  3.25840000E-01  1.02741000E-01  7.50000000E-01
Contraction coefficients                   R   N=          38
  1.96665025E-03  1.52306019E-02  7.61269097E-02  2.60801033E-01  6.16462078E-01
  2.21006028E-01  1.14660081E-01  9.19999648E-01 -3.03068213E-03  1.00000000E+00
  1.00000000E+00  1.00000000E+00  1.00000000E+00  1.96665025E-03  1.52306019E-02
  7.61269097E-02  2.60801033E-01  6.16462078E-01  2.21006028E-01  1.14660081E-01
  9.19999648E-01 -3.03068213E-03  1.00000000E+00  1.00000000E+00  1.00000000E+00
  1.00000000E+00  2.54938145E-02  1.90373109E-01  8.52161486E-01  1.00000000E+00
  1.00000000E+00  1.00000000E+00  2.54938145E-02  1.90373109E-01  8.52161486E-01
  1.00000000E+00  1.00000000E+00  1.00000000E+00
P(S=P) Contraction coefficients            R   N=          38
  0.00000000E+00  0.00000000E+00  0.00000000E+00  0.00000000E+00  0.00000000E+00
  0.00000000E+00  4.02486927E-02  2.37593957E-01  8.15853851E-01  1.00000000E+00
  1.00000000E+00  1.00000000E+00  0.00000000E+00  0.00000000E+00  0.00000000E+00
  0.00000000E+00  0.00000000E+00  0.00000000E+00  0.00000000E+00  4.02486927E-02
  2.37593957E-01  8.15853851E-01  1.00000000E+00  1.00000000E+00  1.00000000E+00
  0.00000000E+00  0.00000000E+00  0.00000000E+00  0.00000000E+00  0.00000000E+00
  0.00000000E+00  0.00000000E+00  0.00000000E+00  0.00000000E+00  0.00000000E+00
  0.00000000E+00  0.00000000E+00  0.00000000E+00
Coordinates of each shell                  R   N=          60
 -1.19114008E-22  2.11758237E-22  1.67905716E+00 -1.19114008E-22  2.11758237E-22
  1.67905716E+00 -1.19114008E-22  2.11758237E-22  1.67905716E+00 -1.19114008E-22
  2.11758237E-22  1.67905716E+00 -1.19114008E-22  2.11758237E-22  1.67905716E+00
 -1.19114008E-22  2.11758237E-22  1.67905716E+00  4.23516474E-22 -4.23516474E-22
 -1.67906175E+00  4.23516474E-22 -4.23516474E-22 -1.67906175E+00  4.23516474E-22
 -4.23516474E-22 -1.67906175E+00  4.23516474E-22 -4.23516474E-22 -1.67906175E+00
  4.23516474E-22 -4.23516474E-22 -1.67906175E+00  4.23516474E-22 -4.23516474E-22
 -1.67906175E+00  0.00000000E+00  1.58818678E-22  3.75671466E+00  0.00000000E+00
  1.58818678E-22  3.75671466E+00  0.00000000E+00  1.58818678E-22  3.75671466E+00
  0.00000000E+00  1.58818678E-22  3.75671466E+00 -1.69406589E-21  8.47032947E-22
 -3.75668712E+00 -1.69406589E-21  8.47032947E-22 -3.75668712E+00 -1.69406589E-21
  8.47032947E-22 -3.75668712E+00 -1.69406589E-21  8.47032947E-22 -3.75668712E+00
Num ILSW                                   I              100
ILSW                                       I   N=         100
           1           0           0           0           2           0
           0           0           0           0        4336          -1
           7           0           0           0           2           0
           0           0           0           0           1           0
           1           0           0           0           0           0
           0           0      100000           0          -1           0
           0           0           0           0           0           0
           0           0           0           1           0           0
           0 -2000000000           1           0           0           0
           0           0           4          52           0           0
           0           0          55           0           0           0
           0           0           0           4           0           1
           0           0           0           0           0           0
           0           0           0           0           0           0
           0           0           0           0           0           0
           0           0           0           0           0           0
           0           0           0           0
Num RLSW                                   I               52
RLSW                                       R   N=          52
  1.00000000E+00  1.00000000E+00  1.00000000E+00  1.00000000E+00  5.40000000E-01
  0.00000000E+00  0.00000000E+00  1.00000000E+00  0.00000000E+00  0.00000000E+00
  0.00000000E+00  0.00000000E+00  1.00000000E+00  0.00000000E+00  0.00000000E+00
  0.00000000E+00  0.00000000E+00  1.00000000E+00  0.00000000E+00  0.00000000E+00
  0.00000000E+00  0.00000000E+00  1.00000000E+00  0.00000000E+00  0.00000000E+00
  0.00000000E+00  0.00000000E+00  1.00000000E+00  0.00000000E+00  0.00000000E+00
  0.00000000E+00  0.00000000E+00  1.00000000E+00  0.00000000E+00  0.00000000E+00
  0.00000000E+00  0.00000000E+00  0.00000000E+00  1.00000000E+00  1.00000000E+00
  0.00000000E+00  1.00000000E+00  0.00000000E+00  0.00000000E+00  0.00000000E+00
  0.00000000E+00  0.00000000E+00  0.00000000E+00  0.00000000E+00  0.00000000E+00
  0.00000000E+00  0.00000000E+00
MxBond                                     I                2
NBond                                      I   N=           4
           2           2           1           1
IBond                                      I   N=           8
           2           3           1           4           1           0
           2           0
RBond                                      R   N=           8
  1.00000000E+00  1.00000000E+00  1.00000000E+00  1.00000000E+00  1.00000000E+00
  0.00000000E+00  1.00000000E+00  0.00000000E+00
Virial Ratio                               R      2.014617634097130E+00
SCF Energy                                 R     -7.669155053901699E+01
Total Energy                               R     -7.669155053901699E+01
S**2                                       R      7.524940522061030E-01
S**2 after annihilation                    R      7.500039773195578E-01
RMS Force                                  R      1.052290773706008E-01
RMS Density                                R      7.201335445203936E-09
Job Status                                 I                1
Nuclear derivative order                   I                1
External E-field                           R   N=          35
  0.00000000E+00  0.00000000E+00  0.00000000E+00  0.00000000E+00  0.00000000E+00
  0.00000000E+00  0.00000000E+00  0.00000000E+00  0.00000000E+00  0.00000000E+00
  0.00000000E+00  0.00000000E+00  0.00000000E+00  0.00000000E+00  0.00000000E+00
  0.00000000E+00  0.00000000E+00  0.00000000E+00  0.00000000E+00  0.00000000E+00
  0.00000000E+00  0.00000000E+00  0.00000000E+00  0.00000000E+00  0.00000000E+00
  0.00000000E+00  0.00000000E+00  0.00000000E+00  0.00000000E+00  0.00000000E+00
  0.00000000E+00  0.00000000E+00  0.00000000E+00  0.00000000E+00  0.00000000E+00
IOpCl                                      I                1
IROHF                                      I                0
Alpha Orbital Energies                     R   N=          56
 -1.10051772E+01 -1.10048771E+01 -1.08722071E+00 -9.94326978E-01 -8.28816445E-01
 -6.23573441E-01 -6.02915753E-01 -3.73658686E-01 -3.53832914E-01 -3.10450632E-01
 -1.41484968E-01 -1.15663406E-01 -1.03575430E-01 -8.92002118E-02 -8.68880119E-02
 -5.34578404E-02 -5.04648500E-02  1.02321780E-02  3.50569772E-02  6.78622070E-02
  2.32171591E-01  3.12615159E-01  3.27190671E-01  3.36728973E-01  3.56746396E-01
  3.63663832E-01  4.33162365E-01  5.19274742E-01  5.48598090E-01  7.05903780E-01
  7.17120541E-01  7.34588649E-01  9.69457371E-01  9.70902421E-01  1.03016131E+00
  1.03765125E+00  1.08849837E+00  1.08963965E+00  1.19496417E+00  1.44761541E+00
  1.45552645E+00  1.53875502E+00  1.77871167E+00  1.79343124E+00  2.02969388E+00
  2.26566297E+00  2.36862758E+00  2.39469787E+00  2.43143728E+00  2.43399412E+00
  2.45852972E+00  2.74619556E+00  2.97315045E+00  3.10694179E+00  2.32064142E+01
  2.33476084E+01
Beta Orbital Energies                      R   N=          56
 -1.10026034E+01 -1.10023993E+01 -1.05081786E+00 -9.76197362E-01 -8.19046629E-01
 -5.83849386E-01 -4.00339140E-01 -3.36512168E-01 -2.89767388E-01 -2.89647494E-01
 -1.51362102E-01 -1.18910726E-01 -1.08710776E-01 -9.29206647E-02 -9.13332631E-02
 -5.33238729E-02 -5.07266887E-02  7.88006797E-04  3.59920941E-02  7.00447822E-02
  2.37557948E-01  3.14711376E-01  3.27418313E-01  3.41508951E-01  3.42528229E-01
  3.60585513E-01  4.22804811E-01  5.22764390E-01  5.59230315E-01  7.10487906E-01
  7.30637323E-01  7.36550423E-01  1.00011528E+00  1.02303806E+00  1.04345483E+00
  1.05295375E+00  1.11456272E+00  1.13753071E+00  1.21686476E+00  1.45666182E+00
  1.46664320E+00  1.55089316E+00  1.79716560E+00  1.80474228E+00  2.05546249E+00
  2.28128661E+00  2.40315263E+00  2.41216241E+00  2.45059675E+00  2.46742728E+00
  2.47866266E+00  2.80178010E+00  2.99973922E+00  3.12310223E+00  2.32170808E+01
  2.33588483E+01
Alpha MO coefficients                      R   N=        3136
  3.99971669E-01  3.28921189E-01  0.00000000E+00  0.00000000E+00 -9.03726401E-04
  7.06857335E-03  0.00000000E+00  0.00000000E+00  2.10645315E-03 -3.37143097E-03
  0.00000000E+00  0.00000000E+00 -6.44890698E-04 -4.02060216E-04  0.00000000E+00
  0.00000000E+00 -1.36356779E-03  8.48347239E-04  0.00000000E+00  0.00000000E+00
  3.63911467E-05  0.00000000E+00  3.98233115E-01  3.27491692E-01  0.00000000E+00
  0.00000000E+00  9.00882821E-04  7.03653278E-03  0.00000000E+00  0.00000000E+00
 -2.09769443E-03 -3.34879392E-03  0.00000000E+00  0.00000000E+00  6.63081505E-04
 -4.25056324E-04  0.00000000E+00  0.00000000E+00  1.35399906E-03  8.42709872E-04
  0.00000000E+00  0.00000000E+00  3.62275277E-05  0.00000000E+00  1.14881299E-04
 -2.54820640E-03  3.01052439E-03  0.00000000E+00  0.00000000E+00  1.56433699E-03
  1.14012295E-04 -2.53067882E-03  3.00761344E-03  0.00000000E+00  0.00000000E+00
 -1.55613088E-03 -3.98266891E-01 -3.27464250E-01  0.00000000E+00  0.00000000E+00
  6.51952457E-04 -7.37298163E-03  0.00000000E+00  0.00000000E+00 -2.04391376E-03
  5.18013937E-03  0.00000000E+00  0.00000000E+00 -4.17730987E-03 -5.19194011E-03
  0.00000000E+00  0.00000000E+00  2.17074045E-03 -1.31119716E-03  0.00000000E+00
  0.00000000E+00 -3.74218916E-05  0.00000000E+00  4.00005294E-01  3.28893828E-01
  0.00000000E+00  0.00000000E+00  6.55888286E-04  7.40385467E-03  0.00000000E+00
  0.00000000E+00 -2.05326111E-03 -5.19466278E-03  0.00000000E+00  0.00000000E+00
 -4.17448799E-03  5.19010039E-03  0.00000000E+00  0.00000000E+00  2.17665575E-03
  1.31496735E-03  0.00000000E+00  0.00000000E+00  3.75797842E-05  0.00000000E+00
 -1.90454160E-04  4.07167019E-03 -6.92246826E-04  0.00000000E+00  0.00000000E+00
 -1.90699993E-03  1.90904664E-04 -4.08299318E-03  7.05400209E-04  0.00000000E+00
  0.00000000E+00 -1.91391654E-03 -8.52498502E-02 -1.39473485E-01  0.00000000E+00
  0.00000000E+00 -4.84303652E-03  3.99717646E-01  0.00000000E+00  0.00000000E+00
 -1.80414740E-02  2.59730586E-01  0.00000000E+00  0.00000000E+00 -3.61983400E-03
 -1.94360516E-03  0.00000000E+00  0.00000000E+00  1.91918206E-02  1.83815987E-02
  0.00000000E+00  0.00000000E+00  4.38276140E-03  0.00000000E+00 -8.52524182E-02
 -1.39477676E-01  0.00000000E+00  0.00000000E+00  4.83954149E-03  3.99729204E-01
  0.00000000E+00  0.00000000E+00  1.80372459E-02  2.59738006E-01  0.00000000E+00
  0.00000000E+00  3.61949390E-03 -1.94486644E-03  0.00000000E+00  0.00000000E+00
 -1.91923395E-02  1.83821061E-02  0.00000000E+00  0.00000000E+00  4.38286679E-03
  0.00000000E+00  7.01738146E-02  8.50987951E-02 -2.26171222E-02  0.00000000E+00
  0.00000000E+00 -1.20539989E-02  7.01791777E-02  8.51043236E-02 -2.26175749E-02
  0.00000000E+00  0.00000000E+00  1.20547534E-02 -7.30367839E-02 -1.19618352E-01
  0.00000000E+00  0.00000000E+00  8.15029641E-02  3.47176666E-01  0.00000000E+00
  0.00000000E+00  1.14159589E-01  2.46353651E-01  0.00000000E+00  0.00000000E+00
  4.14511861E-02 -1.35568273E-01  0.00000000E+00  0.00000000E+00  5.28827776E-02
  9.51983925E-03  0.00000000E+00  0.00000000E+00  3.66223765E-03  0.00000000E+00
  7.30336539E-02  1.19613172E-01  0.00000000E+00  0.00000000E+00  8.15080160E-02
 -3.47161093E-01  0.00000000E+00  0.00000000E+00  1.14166671E-01 -2.46340927E-01
  0.00000000E+00  0.00000000E+00  4.14530108E-02  1.35568188E-01  0.00000000E+00
  0.00000000E+00  5.28815390E-02 -9.51917096E-03  0.00000000E+00  0.00000000E+00
 -3.66204043E-03  0.00000000E+00  1.16197844E-01  1.45573831E-01 -1.09386340E-02
  0.00000000E+00  0.00000000E+00 -1.95491073E-02 -1.16199830E-01 -1.45574207E-01
  1.09374632E-02  0.00000000E+00  0.00000000E+00 -1.95491007E-02  7.88839795E-03
  1.36155772E-02  0.00000000E+00  0.00000000E+00  1.79981385E-01 -4.31575326E-02
  0.00000000E+00  0.00000000E+00  2.74162538E-01 -2.99416089E-02  0.00000000E+00
  0.00000000E+00  1.33175241E-01  6.92952947E-03  0.00000000E+00  0.00000000E+00
 -2.02499894E-03 -6.00362989E-03  0.00000000E+00  0.00000000E+00 -7.36944265E-04
  0.00000000E+00  7.89018761E-03  1.36185985E-02  0.00000000E+00  0.00000000E+00
 -1.79980492E-01 -4.31668347E-02  0.00000000E+00  0.00000000E+00 -2.74160364E-01
 -2.99510281E-02  0.00000000E+00  0.00000000E+00 -1.33173246E-01  6.93584979E-03
  0.00000000E+00  0.00000000E+00  2.02770118E-03 -6.00358354E-03  0.00000000E+00
  0.00000000E+00 -7.37055039E-04  0.00000000E+00  1.18041583E-01  1.59674080E-01
  9.54054919E-03  0.00000000E+00  0.00000000E+00 -1.77444369E-02  1.18040210E-01
  1.59669915E-01  9.54089307E-03  0.00000000E+00  0.00000000E+00  1.77438900E-02
  0.00000000E+00  0.00000000E+00  1.97918147E-01  0.00000000E+00  0.00000000E+00
  0.00000000E+00  3.19782456E-01  0.00000000E+00  0.00000000E+00  0.00000000E+00
  2.59436155E-01  0.00000000E+00  0.00000000E+00  0.00000000E+00 -1.55746700E-03
  0.00000000E+00  0.00000000E+00  0.00000000E+00 -1.96682115E-02  0.00000000E+00
  0.00000000E+00  0.00000000E+00  0.00000000E+00  0.00000000E+00  1.97918882E-01
  0.00000000E+00  0.00000000E+00  0.00000000E+00  3.19783802E-01  0.00000000E+00
  0.00000000E+00  0.00000000E+00  2.59436873E-01  0.00000000E+00  0.00000000E+00
  0.00000000E+00 -1.55765107E-03  0.00000000E+00  0.00000000E+00  0.00000000E+00
  1.96681286E-02  0.00000000E+00  0.00000000E+00  0.00000000E+00  0.00000000E+00
  0.00000000E+00  0.00000000E+00  1.47187290E-02  0.00000000E+00  0.00000000E+00
  0.00000000E+00  0.00000000E+00  0.00000000E+00  1.47191139E-02  0.00000000E+00
  0.00000000E+00  0.00000000E+00  0.00000000E+00  0.00000000E+00  1.96084851E-01
  0.00000000E+00  0.00000000E+00  0.00000000E+00  3.18653191E-01  0.00000000E+00
  0.00000000E+00  0.00000000E+00  2.58851787E-01  0.00000000E+00  0.00000000E+00
  0.00000000E+00  2.62692368E-03  0.00000000E+00  0.00000000E+00  0.00000000E+00
 -1.99721120E-02  0.00000000E+00  0.00000000E+00  0.00000000E+00  0.00000000E+00
  0.00000000E+00  1.96085798E-01  0.00000000E+00  0.00000000E+00  0.00000000E+00
  3.18654768E-01  0.00000000E+00  0.00000000E+00  0.00000000E+00  2.58852811E-01
  0.00000000E+00  0.00000000E+00  0.00000000E+00  2.62671065E-03  0.00000000E+00
  0.00000000E+00  0.00000000E+00  1.99720419E-02  0.00000000E+00  0.00000000E+00
  0.00000000E+00  0.00000000E+00  0.00000000E+00  0.00000000E+00  1.60531411E-02
  0.00000000E+00  0.00000000E+00  0.00000000E+00  0.00000000E+00  0.00000000E+00
  1.60535728E-02  0.00000000E+00  0.00000000E+00  0.00000000E+00  2.21102950E-01
  0.00000000E+00  0.00000000E+00  0.00000000E+00  3.46168901E-01  0.00000000E+00
  0.00000000E+00  0.00000000E+00  3.60607465E-01  0.00000000E+00  0.00000000E+00
  0.00000000E+00  5.60474935E-02  0.00000000E+00  0.00000000E+00  0.00000000E+00
  2.03465104E-02  0.00000000E+00  0.00000000E+00  0.00000000E+00  0.00000000E+00
  0.00000000E+00 -2.21102320E-01  0.00000000E+00  0.00000000E+00  0.00000000E+00
 -3.46168099E-01  0.00000000E+00  0.00000000E+00  0.00000000E+00 -3.60606232E-01
  0.00000000E+00  0.00000000E+00  0.00000000E+00 -5.60471831E-02  0.00000000E+00
  0.00000000E+00  0.00000000E+00  2.03466450E-02  0.00000000E+00  0.00000000E+00
  0.00000000E+00  0.00000000E+00  0.00000000E+00  0.00000000E+00  2.24949394E-02
  0.00000000E+00  0.00000000E+00  0.00000000E+00  0.00000000E+00  0.00000000E+00
 -2.24950557E-02  0.00000000E+00  0.00000000E+00  0.00000000E+00  0.00000000E+00
  0.00000000E+00  2.18254454E-01  0.00000000E+00  0.00000000E+00  0.00000000E+00
  3.40754380E-01  0.00000000E+00  0.00000000E+00  0.00000000E+00  3.65707533E-01
  0.00000000E+00  0.00000000E+00  0.00000000E+00  7.42961073E-02  0.00000000E+00
  0.00000000E+00  0.00000000E+00  2.10499024E-02  0.00000000E+00  0.00000000E+00
  0.00000000E+00  0.00000000E+00  0.00000000E+00 -2.18253745E-01  0.00000000E+00
  0.00000000E+00  0.00000000E+00 -3.40753326E-01  0.00000000E+00  0.00000000E+00
  0.00000000E+00 -3.65706114E-01  0.00000000E+00  0.00000000E+00  0.00000000E+00
 -7.42956636E-02  0.00000000E+00  0.00000000E+00  0.00000000E+00  2.10500414E-02
  0.00000000E+00  0.00000000E+00  0.00000000E+00  0.00000000E+00  0.00000000E+00
  0.00000000E+00  2.39824573E-02  0.00000000E+00  0.00000000E+00  0.00000000E+00
  0.00000000E+00  0.00000000E+00 -2.39825709E-02  0.00000000E+00 -6.87107920E-02
 -1.16490765E-01  0.00000000E+00  0.00000000E+00 -1.33507476E-01  3.61743912E-01
  0.00000000E+00  0.00000000E+00 -1.91768690E-01  7.26687148E-01  0.00000000E+00
  0.00000000E+00 -2.29311588E-01  6.82099279E-01  0.00000000E+00  0.00000000E+00
 -2.51568547E-01 -4.30733005E-02  0.00000000E+00  0.00000000E+00  5.36261302E-03
  0.00000000E+00  6.87100545E-02  1.16489604E-01  0.00000000E+00  0.00000000E+00
 -1.33510464E-01 -3.61740365E-01  0.00000000E+00  0.00000000E+00 -1.91772590E-01
 -7.26683116E-01  0.00000000E+00  0.00000000E+00 -2.29315068E-01 -6.82100594E-01
  0.00000000E+00  0.00000000E+00 -2.51565988E-01  4.30728061E-02  0.00000000E+00
  0.00000000E+00 -5.36256252E-03  0.00000000E+00 -1.14523453E-01 -2.58108152E-01
 -2.39524800E-01  0.00000000E+00  0.00000000E+00 -1.50869890E-03  1.14521021E-01
  2.58101404E-01  2.39516400E-01  0.00000000E+00  0.00000000E+00 -1.50838636E-03
  2.65434386E-02  4.63323623E-02  0.00000000E+00  0.00000000E+00 -4.29552601E-02
 -1.65677257E-01  0.00000000E+00  0.00000000E+00 -7.61380451E-02 -3.80364215E-01
  0.00000000E+00  0.00000000E+00 -9.28533254E-02  9.10317795E-01  0.00000000E+00
  0.00000000E+00  5.32064463E-01 -1.46344844E-02  0.00000000E+00  0.00000000E+00
  2.38398172E-04  0.00000000E+00  2.65442016E-02  4.63337202E-02  0.00000000E+00
  0.00000000E+00  4.29498273E-02 -1.65681676E-01  0.00000000E+00  0.00000000E+00
  7.61308994E-02 -3.80376218E-01  0.00000000E+00  0.00000000E+00  9.28344510E-02
  9.10390335E-01  0.00000000E+00  0.00000000E+00 -5.32025154E-01 -1.46339373E-02
  0.00000000E+00  0.00000000E+00  2.38303920E-04  0.00000000E+00 -8.50611849E-03
  8.78984208E-02 -1.66953246E-01  0.00000000E+00  0.00000000E+00  1.14348584E-02
 -8.50534876E-03  8.79008344E-02 -1.66958100E-01  0.00000000E+00  0.00000000E+00
 -1.14337472E-02 -2.42610502E-03 -4.88493263E-03  0.00000000E+00  0.00000000E+00
  8.91019045E-02  3.59407795E-02  0.00000000E+00  0.00000000E+00  1.43683275E-01
 -5.19153675E-02  0.00000000E+00  0.00000000E+00  1.85831969E-01  2.81915366E+00
  0.00000000E+00  0.00000000E+00 -1.88845299E+00  1.83100325E-02  0.00000000E+00
  0.00000000E+00 -1.25045728E-03  0.00000000E+00  2.42630325E-03  4.88540876E-03
  0.00000000E+00  0.00000000E+00  8.90931203E-02 -3.59455593E-02  0.00000000E+00
  0.00000000E+00  1.43669875E-01  5.19325746E-02  0.00000000E+00  0.00000000E+00
  1.85797778E-01 -2.81909401E+00  0.00000000E+00  0.00000000E+00 -1.88841198E+00
 -1.83148467E-02  0.00000000E+00  0.00000000E+00  1.25075330E-03  0.00000000E+00
  3.43737907E-02  9.17900082E-03  2.23734471E-01  0.00000000E+00  0.00000000E+00
 -1.75605750E-02 -3.43805626E-02 -9.19828390E-03 -2.23806397E-01  0.00000000E+00
  0.00000000E+00 -1.75583706E-02  1.26131934E-03  1.12847075E-03  0.00000000E+00
  0.00000000E+00 -9.30707058E-02  2.08658753E-02  0.00000000E+00  0.00000000E+00
 -1.44298570E-01 -1.63082357E-01  0.00000000E+00  0.00000000E+00 -3.38676928E-01
 -4.54731345E-01  0.00000000E+00  0.00000000E+00  5.78983096E-01  4.60610787E-02
  0.00000000E+00  0.00000000E+00 -2.96192061E-03  0.00000000E+00  1.26261210E-03
  1.13075282E-03  0.00000000E+00  0.00000000E+00  9.30721963E-02  2.08570186E-02
  0.00000000E+00  0.00000000E+00  1.44302000E-01 -1.63100821E-01  0.00000000E+00
  0.00000000E+00  3.38675311E-01 -4.55011624E-01  0.00000000E+00  0.00000000E+00
 -5.79180792E-01  4.60601767E-02  0.00000000E+00  0.00000000E+00 -2.96188361E-03
  0.00000000E+00  5.71369683E-02  2.00349049E-01  7.00696252E-01  0.00000000E+00
  0.00000000E+00  2.15280252E-02  5.71323694E-02  2.00347185E-01  7.00659739E-01
  0.00000000E+00  0.00000000E+00 -2.15294169E-02  0.00000000E+00  0.00000000E+00
 -7.82780112E-02  0.00000000E+00  0.00000000E+00  0.00000000E+00 -9.04363558E-02
  0.00000000E+00  0.00000000E+00  0.00000000E+00 -2.48013586E-01  0.00000000E+00
  0.00000000E+00  0.00000000E+00  6.46413842E-01  0.00000000E+00  0.00000000E+00
  0.00000000E+00  8.61520231E-03  0.00000000E+00  0.00000000E+00  0.00000000E+00
  0.00000000E+00  0.00000000E+00 -7.82769657E-02  0.00000000E+00  0.00000000E+00
  0.00000000E+00 -9.04349762E-02  0.00000000E+00  0.00000000E+00  0.00000000E+00
 -2.48010801E-01  0.00000000E+00  0.00000000E+00  0.00000000E+00  6.46396926E-01
  0.00000000E+00  0.00000000E+00  0.00000000E+00 -8.61508215E-03  0.00000000E+00
  0.00000000E+00  0.00000000E+00  0.00000000E+00  0.00000000E+00  0.00000000E+00
  5.07611804E-03  0.00000000E+00  0.00000000E+00  0.00000000E+00  0.00000000E+00
  0.00000000E+00  5.07569411E-03  0.00000000E+00  0.00000000E+00  0.00000000E+00
  0.00000000E+00  0.00000000E+00 -7.76265183E-02  0.00000000E+00  0.00000000E+00
  0.00000000E+00 -9.68160144E-02  0.00000000E+00  0.00000000E+00  0.00000000E+00
 -2.46570410E-01  0.00000000E+00  0.00000000E+00  0.00000000E+00  6.45182427E-01
  0.00000000E+00  0.00000000E+00  0.00000000E+00  8.98457495E-03  0.00000000E+00
  0.00000000E+00  0.00000000E+00  0.00000000E+00  0.00000000E+00 -7.76253909E-02
  0.00000000E+00  0.00000000E+00  0.00000000E+00 -9.68144103E-02  0.00000000E+00
  0.00000000E+00  0.00000000E+00 -2.46567309E-01  0.00000000E+00  0.00000000E+00
  0.00000000E+00  6.45164428E-01  0.00000000E+00  0.00000000E+00  0.00000000E+00
 -8.98448039E-03  0.00000000E+00  0.00000000E+00  0.00000000E+00  0.00000000E+00
  0.00000000E+00  0.00000000E+00  4.46437151E-03  0.00000000E+00  0.00000000E+00
  0.00000000E+00  0.00000000E+00  0.00000000E+00  4.46396360E-03  0.00000000E+00
  0.00000000E+00  0.00000000E+00  7.74251955E-02  0.00000000E+00  0.00000000E+00
  0.00000000E+00  9.16621239E-02  0.00000000E+00  0.00000000E+00  0.00000000E+00
  2.67487751E-01  0.00000000E+00  0.00000000E+00  0.00000000E+00 -1.68826838E+00
  0.00000000E+00  0.00000000E+00  0.00000000E+00 -5.81709808E-03  0.00000000E+00
  0.00000000E+00  0.00000000E+00  0.00000000E+00  0.00000000E+00 -7.74258527E-02
  0.00000000E+00  0.00000000E+00  0.00000000E+00 -9.16629025E-02  0.00000000E+00
  0.00000000E+00  0.00000000E+00 -2.67490267E-01  0.00000000E+00  0.00000000E+00
  0.00000000E+00  1.68827507E+00  0.00000000E+00  0.00000000E+00  0.00000000E+00
 -5.81695295E-03  0.00000000E+00  0.00000000E+00  0.00000000E+00  0.00000000E+00
  0.00000000E+00  0.00000000E+00 -1.25549945E-02  0.00000000E+00  0.00000000E+00
  0.00000000E+00  0.00000000E+00  0.00000000E+00  1.25546117E-02  0.00000000E+00
  0.00000000E+00  0.00000000E+00  0.00000000E+00  0.00000000E+00  7.94240760E-02
  0.00000000E+00  0.00000000E+00  0.00000000E+00  1.01715557E-01  0.00000000E+00
  0.00000000E+00  0.00000000E+00  2.64646601E-01  0.00000000E+00  0.00000000E+00
  0.00000000E+00 -1.68225819E+00  0.00000000E+00  0.00000000E+00  0.00000000E+00
 -4.45989293E-03  0.00000000E+00  0.00000000E+00  0.00000000E+00  0.00000000E+00
  0.00000000E+00 -7.94247971E-02  0.00000000E+00  0.00000000E+00  0.00000000E+00
 -1.01716472E-01  0.00000000E+00  0.00000000E+00  0.00000000E+00 -2.64649125E-01
  0.00000000E+00  0.00000000E+00  0.00000000E+00  1.68226524E+00  0.00000000E+00
  0.00000000E+00  0.00000000E+00 -4.45976803E-03  0.00000000E+00  0.00000000E+00
  0.00000000E+00  0.00000000E+00  0.00000000E+00  0.00000000E+00 -1.13057035E-02