Title Card Required                                                     
FOpt      UM062X                                                      6-311+G(d,p)        
Number of atoms                            I                4
Info1-9                                    I   N=           9
          13          13           0           0           0         110
           2          18        -502
Full Title                                 C   N=           2
Title Card Required     
Route                                      C   N=           5
#p opt UM062X/6-311+G** nosymm int=superfine SCF=NoVarAcc   
Charge                                     I                0
Multiplicity                               I                1
Number of electrons                        I               14
Number of alpha electrons                  I                7
Number of beta electrons                   I                7
Number of basis functions                  I               56
Number of independent functions            I               56
Number of point charges in /Mol/           I                0
Number of translation vectors              I                0
Atomic numbers                             I   N=           4
           6           6           1           1
Nuclear charges                            R   N=           4
  6.00000000E+00  6.00000000E+00  1.00000000E+00  1.00000000E+00
Current cartesian coordinates              R   N=          12
 -4.59699501E+00  0.00000000E+00  0.00000000E+00  4.59699501E+00  0.00000000E+00
  0.00000000E+00 -6.71613275E+00 -2.77904436E-05  2.77901244E-05  6.71613266E+00
  2.23349707E-05 -2.23346545E-05
Number of symbols in /Mol/                 I                0
Force Field                                I                0
Atom Types                                 C   N=           4
                                                
Int Atom Types                             I   N=           4
           0           0           0           0
MM charges                                 R   N=           4
  0.00000000E+00  0.00000000E+00  0.00000000E+00  0.00000000E+00
Integer atomic weights                     I   N=           4
          12          12           1           1
Real atomic weights                        R   N=           4
  1.20000000E+01  1.20000000E+01  1.00782504E+00  1.00782504E+00
Atom fragment info                         I   N=           4
           0           0           0           0
Atom residue num                           I   N=           4
           0           0           0           0
Nuclear spins                              I   N=           4
           0           0           1           1
Nuclear ZEff                               R   N=           4
 -3.60000000E+00 -3.60000000E+00 -1.00000000E+00 -1.00000000E+00
Nuclear ZNuc                               R   N=           4
  6.00000000E+00  6.00000000E+00  1.00000000E+00  1.00000000E+00
Nuclear QMom                               R   N=           4
  0.00000000E+00  0.00000000E+00  0.00000000E+00  0.00000000E+00
Nuclear GFac                               R   N=           4
  0.00000000E+00  0.00000000E+00  2.79284600E+00  2.79284600E+00
MicOpt                                     I   N=           4
          -2          -2          -1          -1
Number of residues                         I                0
Number of secondary structures             I                0
Redundant internal dimensions              I   N=           4
          12           8           4           0
Redundant internal coordinate indices      I   N=          48
           1          -1           0           0           1          -2
           0           0           1          -3           0           0
           2          -1           0           0           2          -2
           0           0           2          -3           0           0
           1           3           0           0           2           4
           0           0           2           1           3          -4
           1           2           4          -4           2           1
           3          -8           1           2           4          -8
Redundant internal coordinates             R   N=          12
 -4.59699501E+00  0.00000000E+00  0.00000000E+00  4.59699501E+00  0.00000000E+00
  0.00000000E+00  2.11913774E+00  2.11913765E+00  3.14157954E+00  3.14158211E+00
  3.14157954E+00  3.14158211E+00
ZRed-IntVec                                I   N=          12
          -1          -1          -1          -1          -1          -1
           0           0           0           0           0           0
ZRed-FPVec                                 R   N=          12
  0.00000000E+00  0.00000000E+00  0.00000000E+00  0.00000000E+00  0.00000000E+00
  0.00000000E+00  0.00000000E+00  0.00000000E+00  0.00000000E+00  0.00000000E+00
  0.00000000E+00  0.00000000E+00
ZRed-Constraint1                           R   N=          12
 -4.59699501E+00  0.00000000E+00  0.00000000E+00  4.59699501E+00  0.00000000E+00
  0.00000000E+00  2.12190166E+00  2.12189977E+00  3.14158731E+00  3.14158909E+00
  3.14158731E+00  3.14158909E+00
ZRed-Constraint2                           R   N=          12
 -4.59699501E+00  0.00000000E+00  0.00000000E+00  4.59699501E+00  0.00000000E+00
  0.00000000E+00  0.00000000E+00  0.00000000E+00  0.00000000E+00  0.00000000E+00
  0.00000000E+00  0.00000000E+00
Number of contracted shells                I               20
Number of primitive shells                 I               38
Pure/Cartesian d shells                    I                0
Pure/Cartesian f shells                    I                0
Highest angular momentum                   I                2
Largest degree of contraction              I                6
Shell types                                I   N=          20
           0          -1          -1          -1          -1          -2
           0          -1          -1          -1          -1          -2
           0           0           0           1           0           0
           0           1
Number of primitives per shell             I   N=          20
           6           3           1           1           1           1
           6           3           1           1           1           1
           3           1           1           1           3           1
           1           1
Shell to atom map                          I   N=          20
           1           1           1           1           1           1
           2           2           2           2           2           2
           3           3           3           3           4           4
           4           4
Primitive exponents                        R   N=          38
  4.56324000E+03  6.82024000E+02  1.54973000E+02  4.44553000E+01  1.30290000E+01
  1.82773000E+00  2.09642000E+01  4.80331000E+00  1.45933000E+00  4.83456000E-01
  1.45585000E-01  4.38000000E-02  6.26000000E-01  4.56324000E+03  6.82024000E+02
  1.54973000E+02  4.44553000E+01  1.30290000E+01  1.82773000E+00  2.09642000E+01
  4.80331000E+00  1.45933000E+00  4.83456000E-01  1.45585000E-01  4.38000000E-02
  6.26000000E-01  3.38650000E+01  5.09479000E+00  1.15879000E+00  3.25840000E-01
  1.02741000E-01  7.50000000E-01  3.38650000E+01  5.09479000E+00  1.15879000E+00
  3.25840000E-01  1.02741000E-01  7.50000000E-01
Contraction coefficients                   R   N=          38
  1.96665025E-03  1.52306019E-02  7.61269097E-02  2.60801033E-01  6.16462078E-01
  2.21006028E-01  1.14660081E-01  9.19999648E-01 -3.03068213E-03  1.00000000E+00
  1.00000000E+00  1.00000000E+00  1.00000000E+00  1.96665025E-03  1.52306019E-02
  7.61269097E-02  2.60801033E-01  6.16462078E-01  2.21006028E-01  1.14660081E-01
  9.19999648E-01 -3.03068213E-03  1.00000000E+00  1.00000000E+00  1.00000000E+00
  1.00000000E+00  2.54938145E-02  1.90373109E-01  8.52161486E-01  1.00000000E+00
  1.00000000E+00  1.00000000E+00  2.54938145E-02  1.90373109E-01  8.52161486E-01
  1.00000000E+00  1.00000000E+00  1.00000000E+00
P(S=P) Contraction coefficients            R   N=          38
  0.00000000E+00  0.00000000E+00  0.00000000E+00  0.00000000E+00  0.00000000E+00
  0.00000000E+00  4.02486927E-02  2.37593957E-01  8.15853851E-01  1.00000000E+00
  1.00000000E+00  1.00000000E+00  0.00000000E+00  0.00000000E+00  0.00000000E+00
  0.00000000E+00  0.00000000E+00  0.00000000E+00  0.00000000E+00  4.02486927E-02
  2.37593957E-01  8.15853851E-01  1.00000000E+00  1.00000000E+00  1.00000000E+00
  0.00000000E+00  0.00000000E+00  0.00000000E+00  0.00000000E+00  0.00000000E+00
  0.00000000E+00  0.00000000E+00  0.00000000E+00  0.00000000E+00  0.00000000E+00
  0.00000000E+00  0.00000000E+00  0.00000000E+00
Coordinates of each shell                  R   N=          60
 -4.59699501E+00  0.00000000E+00  0.00000000E+00 -4.59699501E+00  0.00000000E+00
  0.00000000E+00 -4.59699501E+00  0.00000000E+00  0.00000000E+00 -4.59699501E+00
  0.00000000E+00  0.00000000E+00 -4.59699501E+00  0.00000000E+00  0.00000000E+00
 -4.59699501E+00  0.00000000E+00  0.00000000E+00  4.59699501E+00  0.00000000E+00
  0.00000000E+00  4.59699501E+00  0.00000000E+00  0.00000000E+00  4.59699501E+00
  0.00000000E+00  0.00000000E+00  4.59699501E+00  0.00000000E+00  0.00000000E+00
  4.59699501E+00  0.00000000E+00  0.00000000E+00  4.59699501E+00  0.00000000E+00
  0.00000000E+00 -6.71613275E+00 -2.77904436E-05  2.77901244E-05 -6.71613275E+00
 -2.77904436E-05  2.77901244E-05 -6.71613275E+00 -2.77904436E-05  2.77901244E-05
 -6.71613275E+00 -2.77904436E-05  2.77901244E-05  6.71613266E+00  2.23349707E-05
 -2.23346545E-05  6.71613266E+00  2.23349707E-05 -2.23346545E-05  6.71613266E+00
  2.23349707E-05 -2.23346545E-05  6.71613266E+00  2.23349707E-05 -2.23346545E-05
Num ILSW                                   I              100
ILSW                                       I   N=         100
           1           0           0           1           2           0
           0           0           0           0        4336          -1
           7           0           0           0           2           0
           0           0           0           0           1           0
           1           1           0           0           0           0
           0           0      100000           0          -1           0
           0           0           0           0           0           0
           0           0           0           1           0           0
           0 -2000000000           1           0           0           0
           0           0           4          52           0           0
           0           0          55           0           0           0
           0           0           0           4           0           1
           0           0           0           0           0           0
           0           0           0           0           0           0
           0           0           0           0           0           0
           0           0           0           0           0           0
           0           0           0           0
Num RLSW                                   I               52
RLSW                                       R   N=          52
  1.00000000E+00  1.00000000E+00  1.00000000E+00  1.00000000E+00  5.40000000E-01
  0.00000000E+00  0.00000000E+00  1.00000000E+00  0.00000000E+00  0.00000000E+00
  0.00000000E+00  0.00000000E+00  1.00000000E+00  0.00000000E+00  0.00000000E+00
  0.00000000E+00  0.00000000E+00  1.00000000E+00  0.00000000E+00  0.00000000E+00
  0.00000000E+00  0.00000000E+00  1.00000000E+00  0.00000000E+00  0.00000000E+00
  0.00000000E+00  0.00000000E+00  1.00000000E+00  0.00000000E+00  0.00000000E+00
  0.00000000E+00  0.00000000E+00  1.00000000E+00  0.00000000E+00  0.00000000E+00
  0.00000000E+00  0.00000000E+00  0.00000000E+00  1.00000000E+00  1.00000000E+00
  0.00000000E+00  1.00000000E+00  0.00000000E+00  0.00000000E+00  0.00000000E+00
  0.00000000E+00  0.00000000E+00  0.00000000E+00  0.00000000E+00  0.00000000E+00
  0.00000000E+00  0.00000000E+00
MxBond                                     I                2
NBond                                      I   N=           4
           2           2           1           1
IBond                                      I   N=           8
           2           3           1           4           1           0
           2           0
RBond                                      R   N=           8
  1.00000000E-01  1.00000000E+00  1.00000000E-01  1.00000000E+00  1.00000000E+00
  0.00000000E+00  1.00000000E+00  0.00000000E+00
Virial Ratio                               R      2.003396264499831E+00
SCF Energy                                 R     -7.683243978845104E+01
Total Energy                               R     -7.683243978845104E+01
S**2                                       R     -1.598721155460225E-14
S**2 after annihilation                    R      6.483702463810854E-14
RMS Force                                  R      1.838519540864520E-05
RMS Density                                R      8.762871517104251E-09
Job Status                                 I                1
Nuclear derivative order                   I                1
External E-field                           R   N=          35
  0.00000000E+00  0.00000000E+00  0.00000000E+00  0.00000000E+00  0.00000000E+00
  0.00000000E+00  0.00000000E+00  0.00000000E+00  0.00000000E+00  0.00000000E+00
  0.00000000E+00  0.00000000E+00  0.00000000E+00  0.00000000E+00  0.00000000E+00
  0.00000000E+00  0.00000000E+00  0.00000000E+00  0.00000000E+00  0.00000000E+00
  0.00000000E+00  0.00000000E+00  0.00000000E+00  0.00000000E+00  0.00000000E+00
  0.00000000E+00  0.00000000E+00  0.00000000E+00  0.00000000E+00  0.00000000E+00
  0.00000000E+00  0.00000000E+00  0.00000000E+00  0.00000000E+00  0.00000000E+00
IOpCl                                      I                1
IROHF                                      I                0
Alpha Orbital Energies                     R   N=          56
 -1.06624452E+01 -1.06624442E+01 -7.20309349E-01 -7.19886254E-01 -3.82189157E-01
 -3.79045249E-01 -2.04952323E-01 -1.47159377E-01 -9.27018583E-02 -9.11384092E-02
  2.99964606E-02  3.32051366E-02  7.61973116E-02  8.68821211E-02  9.61612013E-02
  9.65330151E-02  1.05801035E-01  1.44526514E-01  1.74938260E-01  2.08345927E-01
  4.51495977E-01  4.73323626E-01  5.74518514E-01  5.80589943E-01  5.82844928E-01
  5.88695694E-01  6.13097032E-01  6.22067571E-01  7.10274719E-01  7.92084455E-01
  1.13047230E+00  1.13162937E+00  1.14091249E+00  1.14161831E+00  1.33876607E+00
  1.33902917E+00  1.35102624E+00  1.35128886E+00  1.58741726E+00  1.58813160E+00
  1.85202337E+00  1.85287811E+00  1.86283824E+00  1.86379420E+00  2.38437367E+00
  2.40223221E+00  2.48974484E+00  2.49984190E+00  2.70705978E+00  2.71093776E+00
  2.71401426E+00  2.71784970E+00  3.18352919E+00  3.18794664E+00  2.35158681E+01
  2.35413103E+01
Beta Orbital Energies                      R   N=          56
 -1.06624452E+01 -1.06624442E+01 -7.20309349E-01 -7.19886254E-01 -3.82189157E-01
 -3.79045249E-01 -2.04952323E-01 -1.47159377E-01 -9.27018583E-02 -9.11384092E-02
  2.99964606E-02  3.32051366E-02  7.61973116E-02  8.68821211E-02  9.61612013E-02
  9.65330151E-02  1.05801035E-01  1.44526514E-01  1.74938260E-01  2.08345927E-01
  4.51495977E-01  4.73323626E-01  5.74518514E-01  5.80589943E-01  5.82844928E-01
  5.88695694E-01  6.13097032E-01  6.22067571E-01  7.10274719E-01  7.92084455E-01
  1.13047230E+00  1.13162937E+00  1.14091249E+00  1.14161831E+00  1.33876607E+00
  1.33902917E+00  1.35102624E+00  1.35128886E+00  1.58741726E+00  1.58813160E+00
  1.85202337E+00  1.85287811E+00  1.86283824E+00  1.86379420E+00  2.38437367E+00
  2.40223221E+00  2.48974484E+00  2.49984190E+00  2.70705978E+00  2.71093776E+00
  2.71401426E+00  2.71784970E+00  3.18352919E+00  3.18794664E+00  2.35158681E+01
  2.35413103E+01
Alpha MO coefficients                      R   N=        3136
  3.99821882E-01  3.29390250E-01 -1.31497921E-03 -1.70921043E-08  1.70920918E-08
  6.70127881E-03 -9.17526837E-04 -1.23904054E-08  1.23902019E-08 -2.76289908E-03
 -1.81133396E-04 -1.80324820E-09  1.80326825E-09  1.71883887E-04  4.76047321E-04
  7.55691361E-09 -7.55681635E-09 -3.84468912E-04 -1.70785199E-08 -4.17288618E-05
  6.65942743E-04  1.70790410E-08  3.97810466E-01  3.27733289E-01  1.30837884E-03
  1.37384723E-08 -1.37385770E-08  6.66639117E-03  9.13006926E-04  9.77914042E-09
 -9.77889724E-09 -2.74382520E-03  1.81187059E-04  1.72784340E-09 -1.72788742E-09
  1.68148910E-04 -4.68865953E-04 -6.46961186E-09  6.46951760E-09 -3.82661935E-04
 -1.36755676E-08 -4.15097487E-05  6.62812846E-04  1.36760287E-08  2.58080378E-04
 -2.05534900E-03  1.64224059E-03 -1.36917381E-03 -1.80443462E-08  1.80441453E-08
  2.56713282E-04 -2.04533236E-03  1.62972562E-03  1.36267536E-03  1.44326748E-08
 -1.44324814E-08 -3.97812029E-01 -3.27708825E-01  1.30539277E-03  1.67180616E-08
 -1.67180326E-08 -6.90063836E-03  8.93979570E-04  1.30594974E-08 -1.30592314E-08
  3.77495125E-03 -1.10998336E-05 -4.07745969E-09  4.07737947E-09 -7.40098513E-04
 -1.42271938E-03 -7.74700075E-09  7.74694253E-09  3.57337708E-04  1.52581483E-08
  4.33396270E-05 -6.18951009E-04 -1.52586460E-08  3.99823438E-01  3.29365909E-01
  1.31200815E-03  1.34993667E-08 -1.34994477E-08  6.93434832E-03  8.98596122E-04
  1.06963584E-08 -1.06960419E-08 -3.78883766E-03 -1.01861906E-05 -3.68617405E-09
  3.68607574E-09  7.40955831E-04 -1.42510224E-03 -5.57582811E-09  5.57578313E-09
 -3.59272311E-04 -1.23164720E-08 -4.35495291E-05  6.22301956E-04  1.23169113E-08
 -2.70399729E-04  1.98102535E-03 -2.47737377E-03  1.28511913E-03  1.66404565E-08
 -1.66402708E-08  2.71697819E-04 -1.99136672E-03  2.48562512E-03  1.29200844E-03
  1.34515871E-08 -1.34514065E-08 -7.65775271E-02 -1.23942165E-01 -5.45258465E-02
 -7.07769593E-07  7.07764026E-07  3.52915684E-01 -8.23471935E-02 -1.06816485E-06
  1.06815687E-06  2.44413773E-01 -3.32304104E-02 -4.08811107E-07  4.08809486E-07
  2.63592840E-04 -9.16363711E-05 -2.04786305E-08  2.04801145E-08 -5.13436860E-03
 -1.93300550E-07 -3.15424697E-03  8.89473061E-03  1.93326393E-07 -7.65797297E-02
 -1.23945727E-01  5.45274265E-02  5.67868576E-07 -5.67863944E-07  3.52925789E-01
  8.23495850E-02  8.57953203E-07 -8.57947100E-07  2.44421017E-01  3.32313764E-02
  3.23036021E-07 -3.23035203E-07  2.63471430E-04  9.19069793E-05  1.99077965E-08
 -1.99098055E-08 -5.13452058E-03 -1.55490018E-07 -3.15434069E-03  8.89499390E-03
  1.55511277E-07  1.02407559E-01  1.30643949E-01  1.63727621E-02  1.58418953E-02
  2.07596141E-07 -2.07593357E-07  1.02410515E-01  1.30647736E-01  1.63730202E-02
 -1.58423430E-02 -1.66815641E-07  1.66812846E-07 -7.65373245E-02 -1.23795908E-01
 -5.47128467E-02 -7.11088202E-07  7.11077784E-07  3.51246696E-01 -8.29082088E-02
 -1.06449218E-06  1.06447635E-06  2.52013348E-01 -3.35407723E-02 -4.52314395E-07
  4.52305403E-07 -4.21419516E-03 -9.41174366E-03 -2.44722491E-08  2.44701707E-08
 -5.26244793E-03 -1.98893332E-07 -3.26322439E-03  9.11663074E-03  1.98919491E-07
  7.65351191E-02  1.23792338E-01 -5.47112818E-02 -5.70863154E-07  5.70852445E-07
 -3.51236529E-01 -8.29058429E-02 -8.53137350E-07  8.53121446E-07 -2.52006300E-01
 -3.35398160E-02 -3.64002318E-07  3.63992195E-07  4.21420312E-03 -9.41174091E-03
 -1.35561789E-08  1.35537790E-08  5.26230061E-03  1.60008915E-07  3.26313335E-03
 -9.11637553E-03 -1.60030368E-07  1.02426704E-01  1.31415145E-01  8.97912169E-03
  1.55321012E-02  2.03566716E-07 -2.03564183E-07 -1.02423763E-01 -1.31411388E-01
 -8.97864975E-03  1.55316456E-02  1.63711716E-07 -1.63709253E-07 -4.27778157E-02
 -7.06339250E-02  1.52870855E-01  1.99367813E-06 -1.99364907E-06  2.07686458E-01
  2.19957432E-01  2.87606063E-06 -2.87601788E-06  2.99407101E-01  1.43504184E-01
  1.86528897E-06 -1.86525865E-06  4.22075317E-02  6.36448155E-03  1.27937612E-07
 -1.27935421E-07  1.24359724E-02  5.93273892E-07 -2.80011286E-03 -2.15381884E-02
 -5.93259421E-07 -4.27778333E-02 -7.06339542E-02 -1.52870914E-01 -1.60317102E-06
  1.60314176E-06  2.07686544E-01 -2.19957516E-01 -2.31367956E-06  2.31363619E-06
  2.99407229E-01 -1.43504234E-01 -1.50070550E-06  1.50067454E-06  4.22075519E-02
 -6.36448689E-03 -1.11780571E-07  1.11778906E-07  1.24359772E-02  4.75953265E-07
 -2.80011404E-03 -2.15381968E-02 -4.75942159E-07 -9.47553503E-02 -1.75952156E-01
 -1.20533572E-01 -7.29147906E-03 -9.65519088E-08  9.65508496E-08 -9.47553844E-02
 -1.75952220E-01 -1.20533614E-01  7.29148152E-03  7.77397152E-08 -7.77387347E-08
 -4.36272271E-02 -7.21339376E-02  1.53709890E-01  2.02560051E-06 -2.02557785E-06
  2.13579261E-01  2.22297293E-01  2.91550934E-06 -2.91547719E-06  2.98971262E-01
  1.41026447E-01  1.92973623E-06 -1.92971615E-06  4.65344712E-02  1.61812084E-02
  1.40617322E-07 -1.40619871E-07  1.25986271E-02  5.98921933E-07 -2.97813137E-03
 -2.18198163E-02 -5.98906772E-07  4.36272119E-02  7.21339127E-02  1.53709834E-01
  1.62958950E-06 -1.62957036E-06 -2.13579187E-01  2.22297210E-01  2.34371975E-06
 -2.34369238E-06 -2.98971164E-01  1.41026389E-01  1.56089518E-06 -1.56088143E-06
 -4.65344581E-02  1.61812054E-02  1.09108712E-07 -1.09111634E-07 -1.25986225E-02
 -4.80460821E-07  2.97813035E-03  2.18198084E-02  4.80449055E-07 -9.49657066E-02
 -1.79127915E-01 -1.16839396E-01 -7.02592618E-03 -9.37812740E-08  9.37798798E-08
  9.49656690E-02  1.79127845E-01  1.16839349E-01 -7.02592319E-03 -7.56919371E-08
  7.56903531E-08  3.00271690E-12  5.63295338E-12 -5.02865638E-10  1.31997406E-01
  1.31960935E-01 -2.61160957E-11 -7.74035089E-10  2.01907050E-01  2.01851265E-01
  2.76855991E-11 -8.24716344E-10  2.24232837E-01  2.24170881E-01 -4.65218496E-11
 -3.52511983E-10  6.50736358E-02  6.50556603E-02  2.61497733E-07 -1.11532682E-02
  4.08716903E-11  1.51062721E-07 -1.11563506E-02 -4.09461681E-12 -7.50856943E-12
 -4.10399166E-10  1.31997406E-01  1.31960936E-01  3.27968892E-11 -6.32993347E-10
  2.01907052E-01  2.01851266E-01 -2.27522504E-11 -6.64994952E-10  2.24232839E-01
  2.24170883E-01  4.43212512E-11 -3.11129184E-10  6.50736364E-02  6.50556609E-02
 -2.09187506E-07  1.11532688E-02 -3.30234847E-11 -1.20845462E-07  1.11563512E-02
  3.23023958E-12  3.06658593E-11 -5.04197641E-11 -4.67207628E-11  1.21292585E-02
  1.21259073E-02 -3.79352685E-12 -3.28253808E-11  5.15343951E-11 -3.82218343E-11
  1.21292592E-02  1.21259079E-02  2.33662196E-12  3.83599916E-12 -4.99821564E-10
  1.32332261E-01  1.32295698E-01 -1.25211126E-11 -7.67304030E-10  2.03315095E-01
  2.03258920E-01 -2.35838947E-11 -8.45398019E-10  2.22022166E-01  2.21960822E-01
  3.62070519E-11 -2.30049755E-10  7.38542717E-02  7.38338666E-02  2.60428965E-07
 -1.25094198E-02  4.03349971E-11  1.50450809E-07 -1.25128771E-02  8.01065608E-13
  1.10841160E-12  4.03137203E-10 -1.32332259E-01 -1.32295696E-01 -9.20377141E-13
  6.17354927E-10 -2.03315093E-01 -2.03258918E-01 -3.11014390E-11  6.87913765E-10
 -2.22022164E-01 -2.21960820E-01  4.49574513E-11  1.48488791E-10 -7.38542710E-02
 -7.38338659E-02  2.08397479E-07 -1.25094203E-02  3.22988869E-11  1.20391729E-07
 -1.25128775E-02 -1.32171885E-12 -1.62073274E-11  2.89489173E-11 -4.87350757E-11
  1.28497464E-02  1.28461961E-02 -2.43583332E-12 -2.14243642E-11  4.35478267E-11
  3.88994627E-11 -1.28497469E-02 -1.28461965E-02 -4.71892132E-08 -8.52480199E-08
  3.23954588E-06 -1.21664318E-01  1.21697941E-01  3.72907481E-07  5.14602479E-06
 -1.92294443E-01  1.92347586E-01 -2.71455473E-07  5.48618128E-06 -2.13350756E-01
  2.13409717E-01  5.97930618E-08  4.10688120E-06 -1.04926627E-01  1.04955631E-01
  2.49669171E-07 -1.05883560E-02 -2.73797095E-07 -4.32365764E-07  1.05854306E-02
  5.30478363E-08  9.52892975E-08  2.62221614E-06 -1.21664282E-01  1.21697906E-01
 -4.07995866E-07  4.17095932E-06 -1.92294387E-01  1.92347530E-01  2.45158672E-07
  4.38872103E-06 -2.13350696E-01  2.13409656E-01 -6.75471196E-08  3.63785187E-06
 -1.04926596E-01  1.04955600E-01 -2.03778535E-07  1.05883533E-02  2.19962691E-07
  3.52894812E-07 -1.05854279E-02 -1.87850984E-08 -2.90765602E-07  8.63032946E-07
  3.33057223E-07 -1.19891473E-02  1.19924607E-02  2.44586740E-08  3.13754783E-07
 -8.83746667E-07  2.72443709E-07 -1.19891443E-02  1.19924577E-02  8.74395219E-09
  1.58950457E-08  3.20360128E-06 -1.23162997E-01  1.23197036E-01 -5.99994275E-08
  5.06708023E-06 -1.95162860E-01  1.95216797E-01  1.52559976E-08  5.69759346E-06
 -2.14431362E-01  2.14490625E-01 -2.46721687E-07  2.50427717E-06 -1.10948676E-01
  1.10979339E-01  2.39752966E-07 -1.09710001E-02 -2.72100216E-07 -4.15192466E-07
  1.09679689E-02  1.60420963E-08  2.93564972E-08 -2.56276566E-06  1.23163031E-01
 -1.23197070E-01 -1.23433367E-07 -4.04381974E-06  1.95162914E-01 -1.95216851E-01
  9.13166424E-08 -4.61821583E-06  2.14431422E-01 -2.14490685E-01 -3.24942606E-07
 -1.66785479E-06  1.10948706E-01 -1.10979369E-01  1.89444573E-07 -1.09710035E-02
 -2.16421245E-07 -3.28070664E-07  1.09679722E-02  2.84565026E-08  1.62865473E-07
 -1.08884095E-07  3.19966136E-07 -1.22632073E-02  1.22665965E-02  3.06445332E-08
  2.03093075E-07 -2.48873011E-07 -2.52674721E-07  1.22632112E-02 -1.22666004E-02
 -1.76956095E-02 -3.00049482E-02 -4.19054414E-02 -2.71145013E-07  2.71123961E-07
  9.24855646E-02 -7.48149416E-02 -8.22256628E-07  8.22213674E-07  2.11753572E-01
 -1.29725523E-01 -4.89058305E-08  4.88756168E-08 -8.51964986E-01  8.96886812E-01
  6.94622118E-06 -6.94617192E-06 -8.08343280E-03 -3.69055306E-07 -1.18422200E-03
  1.40015708E-02  3.69070443E-07  1.76956147E-02  3.00049571E-02 -4.19054438E-02
 -2.44255609E-07  2.44238635E-07 -9.24855900E-02 -7.48149582E-02 -7.02576998E-07
  7.02539560E-07 -2.11753660E-01 -1.29725519E-01 -8.43130760E-08  8.42973140E-08
  8.51965282E-01  8.96886932E-01  5.56210824E-06 -5.56207385E-06  8.08343564E-03
  3.02607391E-07  1.18422236E-03 -1.40015757E-02 -3.02620527E-07  2.29382835E-02
 -1.36015029E-01  5.84142482E-01  4.59746311E-03  2.59699615E-08 -2.59721822E-08
 -2.29382901E-02  1.36015061E-01 -5.84142616E-01  4.59746042E-03  1.70039977E-08
 -1.70060725E-08  2.36800310E-02  3.85858393E-02  2.63262200E-02  3.75862124E-07
 -3.75856632E-07 -9.17574187E-02  7.13700847E-02  1.00226477E-06 -1.00225824E-06
 -4.87578999E-01  5.83868683E-02  7.71689259E-07 -7.71652192E-07  1.14763434E+00
 -4.25205925E-01 -5.81860990E-06  5.81844485E-06  7.86999036E-03  3.41270653E-07
  1.78940432E-03 -1.36322121E-02 -3.41287215E-07  2.36800261E-02  3.85858314E-02
 -2.63262039E-02 -2.37998125E-07  2.37982012E-07 -9.17573991E-02 -7.13700646E-02
 -7.22606480E-07  7.22590550E-07 -4.87578922E-01 -5.83868146E-02 -4.31537842E-07
  4.31454088E-07  1.14763414E+00  4.25205711E-01  4.43073093E-06 -4.43048904E-06
  7.86998945E-03  2.65240798E-07  1.78940395E-03 -1.36322105E-02 -2.65255781E-07
 -1.41346507E-02  1.26502817E-01 -3.78571741E-01  1.58470716E-03  2.46040169E-08
 -2.46048321E-08 -1.41346478E-02  1.26502788E-01 -3.78571641E-01 -1.58471148E-03
 -1.51853586E-08  1.51860867E-08 -2.28834659E-07 -3.69733715E-07 -1.41982538E-06
  7.14433590E-02 -7.14631319E-02  8.90287913E-07 -1.72894095E-06  7.33099526E-02
 -7.33302411E-02  4.97446518E-06 -5.69992972E-06  2.84811191E-01 -2.84890017E-01
 -2.67242531E-06  6.84958620E-06 -5.56095247E-01  5.56249175E-01 -6.16626724E-08
  7.04489814E-03  1.37413654E-07  1.06771371E-07 -7.04294890E-03  1.56576535E-07
  2.54062487E-07 -1.17117772E-06  7.14433586E-02 -7.14631315E-02 -6.37034656E-07
 -1.38902575E-06  7.33099523E-02 -7.33302408E-02 -3.18608726E-06 -4.70380198E-06
  2.84811190E-01 -2.84890016E-01  1.18041428E-06  6.47307869E-06 -5.56095244E-01
  5.56249171E-01  4.97819979E-08 -7.04489850E-03 -1.12276106E-07 -8.61985581E-08
  7.04294925E-03 -3.76312242E-07 -2.61187438E-07 -4.17467253E-06 -6.20448658E-08
  7.19663814E-04 -7.19862844E-04  2.80484613E-07  1.79389538E-07  2.92067241E-06
 -3.95009790E-08  7.19664266E-04 -7.19863296E-04  4.32389399E-11  7.02053067E-11
  1.32322583E-10 -6.40518916E-02 -6.40341648E-02 -1.74943762E-10  1.79737325E-10
 -6.34841511E-02 -6.34665805E-02 -8.99179295E-10  5.09620713E-10 -2.56711236E-01
 -2.56640190E-01  6.42335421E-10 -4.25341455E-10  5.58705703E-01  5.58551097E-01
 -1.18708814E-07  6.35922034E-03 -1.47674039E-11 -6.85422584E-08  6.36098078E-03
 -1.98016984E-11 -3.18297634E-11  1.65410260E-10 -6.40518911E-02 -6.40341642E-02
  7.19723982E-11  1.93527385E-10 -6.34841506E-02 -6.34665800E-02  4.73296948E-10
  6.49826280E-10 -2.56711235E-01 -2.56640189E-01 -3.89513456E-10 -1.08955591E-09
  5.58705700E-01  5.58551094E-01  9.51924746E-08 -6.35922069E-03  1.31532560E-11
  5.49827765E-08 -6.36098113E-03  6.96890055E-11  4.79862800E-11  6.27728083E-10
  1.29565065E-11 -9.89695704E-05 -9.89420459E-05 -2.79117932E-11 -3.85166453E-11
 -3.01933058E-10  4.81282346E-12 -9.89699773E-05 -9.89424528E-05  1.60928773E-02
  2.68945092E-02 -6.25418493E-02 -1.78130750E-05  1.78178351E-05 -8.28126847E-02
 -5.41703105E-02 -1.69842234E-05  1.69888515E-05 -2.16710957E-01 -2.54517008E-01
 -7.76022892E-05  7.76227836E-05  1.23369868E-01  7.15134101E-01  1.74938369E-04
 -1.74983469E-04 -8.91786789E-03 -1.46022656E-06  1.40380329E-03  1.54454244E-02
  1.45990166E-06  1.60928775E-02  2.68945095E-02  6.25418489E-02  1.79302113E-05
 -1.79348535E-05 -8.28126848E-02  5.41703093E-02  1.71618611E-05 -1.71663708E-05
 -2.16710960E-01  2.54517007E-01  7.79397466E-05 -7.79597791E-05  1.23369891E-01
 -7.15134073E-01 -1.74860728E-04  1.74904755E-04 -8.91786778E-03 -1.41388840E-06
  1.40380330E-03  1.54454242E-02  1.41357699E-06  2.89131341E-02  7.92636172E-03
  1.40280894E-01  5.04698554E-03  4.88269994E-07 -4.88364028E-07  2.89131339E-02
  7.92636258E-03  1.40280864E-01 -5.04698573E-03 -4.65096222E-07  4.65190176E-07
  3.99394079E-06  6.68285403E-06 -1.67293937E-05  7.10451690E-02 -7.10648054E-02
 -2.06947953E-05 -1.47859055E-05  6.90627920E-02 -6.90818804E-02 -5.36734430E-05
 -6.68490571E-05  3.06034276E-01 -3.06118863E-01  2.56104563E-05  1.87875700E-04
 -6.73886568E-01  6.74072828E-01 -2.32308072E-06  4.72886481E-03  5.01133153E-07