 Entering Gaussian System, Link 0=g16
 Initial command:
 /home/szhao/Apps/g16/l1.exe "/home/szhao/tmp/Gau-154989.inp" -scrdir="/home/szhao/tmp/"
 Default is to use a total of  16 processors:
                               16 via shared-memory
                                1 via Linda
 Entering Link 1 = /home/szhao/Apps/g16/l1.exe PID=    154997.
  
 Copyright (c) 1988,1990,1992,1993,1995,1998,2003,2009,2016,
            Gaussian, Inc.  All Rights Reserved.
  
 This is part of the Gaussian(R) 16 program.  It is based on
 the Gaussian(R) 09 system (copyright 2009, Gaussian, Inc.),
 the Gaussian(R) 03 system (copyright 2003, Gaussian, Inc.),
 the Gaussian(R) 98 system (copyright 1998, Gaussian, Inc.),
 the Gaussian(R) 94 system (copyright 1995, Gaussian, Inc.),
 the Gaussian 92(TM) system (copyright 1992, Gaussian, Inc.),
 the Gaussian 90(TM) system (copyright 1990, Gaussian, Inc.),
 the Gaussian 88(TM) system (copyright 1988, Gaussian, Inc.),
 the Gaussian 86(TM) system (copyright 1986, Carnegie Mellon
 University), and the Gaussian 82(TM) system (copyright 1983,
 Carnegie Mellon University). Gaussian is a federally registered
 trademark of Gaussian, Inc.
  
 This software contains proprietary and confidential information,
 including trade secrets, belonging to Gaussian, Inc.
  
 This software is provided under written license and may be
 used, copied, transmitted, or stored only in accord with that
 written license.
  
 The following legend is applicable only to US Government
 contracts under FAR:
  
                    RESTRICTED RIGHTS LEGEND
  
 Use, reproduction and disclosure by the US Government is
 subject to restrictions as set forth in subparagraphs (a)
 and (c) of the Commercial Computer Software - Restricted
 Rights clause in FAR 52.227-19.
  
 Gaussian, Inc.
 340 Quinnipiac St., Bldg. 40, Wallingford CT 06492
  
  
 ---------------------------------------------------------------
 Warning -- This program may not be used in any manner that
 competes with the business of Gaussian, Inc. or will provide
 assistance to any competitor of Gaussian, Inc.  The licensee
 of this program is prohibited from giving any competitor of
 Gaussian, Inc. access to this program.  By using this program,
 the user acknowledges that Gaussian, Inc. is engaged in the
 business of creating and licensing software in the field of
 computational chemistry and represents and warrants to the
 licensee that it is not a competitor of Gaussian, Inc. and that
 it will not use this program in any manner prohibited above.
 ---------------------------------------------------------------
  

 Cite this work as:
 Gaussian 16, Revision A.03,
 M. J. Frisch, G. W. Trucks, H. B. Schlegel, G. E. Scuseria, 
 M. A. Robb, J. R. Cheeseman, G. Scalmani, V. Barone, 
 G. A. Petersson, H. Nakatsuji, X. Li, M. Caricato, A. V. Marenich, 
 J. Bloino, B. G. Janesko, R. Gomperts, B. Mennucci, H. P. Hratchian, 
 J. V. Ortiz, A. F. Izmaylov, J. L. Sonnenberg, D. Williams-Young, 
 F. Ding, F. Lipparini, F. Egidi, J. Goings, B. Peng, A. Petrone, 
 T. Henderson, D. Ranasinghe, V. G. Zakrzewski, J. Gao, N. Rega, 
 G. Zheng, W. Liang, M. Hada, M. Ehara, K. Toyota, R. Fukuda, 
 J. Hasegawa, M. Ishida, T. Nakajima, Y. Honda, O. Kitao, H. Nakai, 
 T. Vreven, K. Throssell, J. A. Montgomery, Jr., J. E. Peralta, 
 F. Ogliaro, M. J. Bearpark, J. J. Heyd, E. N. Brothers, K. N. Kudin, 
 V. N. Staroverov, T. A. Keith, R. Kobayashi, J. Normand, 
 K. Raghavachari, A. P. Rendell, J. C. Burant, S. S. Iyengar, 
 J. Tomasi, M. Cossi, J. M. Millam, M. Klene, C. Adamo, R. Cammi, 
 J. W. Ochterski, R. L. Martin, K. Morokuma, O. Farkas, 
 J. B. Foresman, and D. J. Fox, Gaussian, Inc., Wallingford CT, 2016.
 
 ******************************************
 Gaussian 16:  ES64L-G16RevA.03 25-Dec-2016
                21-Apr-2025 
 ******************************************
 %chk=force.chk
 %mem=4GB
 %nprocshared=8
 Will use up to    8 processors via shared memory.
 ---------------------------------------------------
 #p UM062X/6-311+G** force int=superfine pop=saveNBO
 ---------------------------------------------------
 1/10=7,30=1,38=1/1,3;
 2/12=2,17=6,18=5,40=1/2;
 3/5=4,6=6,7=111,11=2,25=1,30=1,71=1,74=-55,75=-7,116=2/1,2,3;
 4//1;
 5/5=2,38=5/2;
 6/7=2,8=2,9=2,10=2,28=1,40=1,73=1/1,7;
 7/29=1/1,2,3,16;
 1/10=7,30=1/3;
 99//99;
 Leave Link    1 at Mon Apr 21 21:21:27 2025, MaxMem=   536870912 cpu:               2.0 elap:               0.3
 (Enter /home/szhao/Apps/g16/l101.exe)
 -------------------
 Title Card Required
 -------------------
 Symbolic Z-matrix:
 Charge =  0 Multiplicity = 1
 P                    -1.4385    0.        0. 
 P                     1.4385    0.        0. 
 
 ITRead=  0  0
 MicOpt= -1 -1
 NAtoms=      2 NQM=        2 NQMF=       0 NMMI=      0 NMMIF=      0
                NMic=       0 NMicF=      0.
                    Isotopes and Nuclear Properties:
 (Nuclear quadrupole moments (NQMom) in fm**2, nuclear magnetic moments (NMagM)
  in nuclear magnetons)

  Atom         1           2
 IAtWgt=          31          31
 AtmWgt=  30.9737634  30.9737634
 NucSpn=           1           1
 AtZEff=  -0.0000000  -0.0000000
 NQMom=    0.0000000   0.0000000
 NMagM=    1.1316000   1.1316000
 AtZNuc=  15.0000000  15.0000000
 Leave Link  101 at Mon Apr 21 21:21:27 2025, MaxMem=   536870912 cpu:               1.6 elap:               0.2
 (Enter /home/szhao/Apps/g16/l103.exe)

 GradGradGradGradGradGradGradGradGradGradGradGradGradGradGradGradGradGrad
 Berny optimization.
 Initialization pass.
 Trust Radius=3.00D-01 FncErr=1.00D-07 GrdErr=1.00D-07 EigMax=2.50D+02 EigMin=1.00D-04
 Number of steps in this run=      2 maximum allowed number of steps=      2.
 GradGradGradGradGradGradGradGradGradGradGradGradGradGradGradGradGradGrad

 Leave Link  103 at Mon Apr 21 21:21:28 2025, MaxMem=   536870912 cpu:               0.3 elap:               0.1
 (Enter /home/szhao/Apps/g16/l202.exe)
                          Input orientation:                          
 ---------------------------------------------------------------------
 Center     Atomic      Atomic             Coordinates (Angstroms)
 Number     Number       Type             X           Y           Z
 ---------------------------------------------------------------------
      1         15           0       -1.438495    0.000000    0.000000
      2         15           0        1.438495    0.000000    0.000000
 ---------------------------------------------------------------------
 Stoichiometry    P2
 Framework group  D*H[C*(P.P)]
 Deg. of freedom     1
 Full point group                 D*H     NOp   8
 Largest Abelian subgroup         D2H     NOp   8
 Largest concise Abelian subgroup C2      NOp   2
                         Standard orientation:                         
 ---------------------------------------------------------------------
 Center     Atomic      Atomic             Coordinates (Angstroms)
 Number     Number       Type             X           Y           Z
 ---------------------------------------------------------------------
      1         15           0        0.000000    0.000000    1.438495
      2         15           0        0.000000    0.000000   -1.438495
 ---------------------------------------------------------------------
 Rotational constants (GHZ):           0.0000000           3.9425437           3.9425437
 Leave Link  202 at Mon Apr 21 21:21:28 2025, MaxMem=   536870912 cpu:               0.2 elap:               0.1
 (Enter /home/szhao/Apps/g16/l301.exe)
 Standard basis: 6-311+G(d,p) (5D, 7F)
 Ernie: Thresh=  0.10000D-02 Tol=  0.10000D-05 Strict=F.
 There are    16 symmetry adapted cartesian basis functions of AG  symmetry.
 There are     1 symmetry adapted cartesian basis functions of B1G symmetry.
 There are     7 symmetry adapted cartesian basis functions of B2G symmetry.
 There are     7 symmetry adapted cartesian basis functions of B3G symmetry.
 There are     1 symmetry adapted cartesian basis functions of AU  symmetry.
 There are    16 symmetry adapted cartesian basis functions of B1U symmetry.
 There are     7 symmetry adapted cartesian basis functions of B2U symmetry.
 There are     7 symmetry adapted cartesian basis functions of B3U symmetry.
 There are    15 symmetry adapted basis functions of AG  symmetry.
 There are     1 symmetry adapted basis functions of B1G symmetry.
 There are     7 symmetry adapted basis functions of B2G symmetry.
 There are     7 symmetry adapted basis functions of B3G symmetry.
 There are     1 symmetry adapted basis functions of AU  symmetry.
 There are    15 symmetry adapted basis functions of B1U symmetry.
 There are     7 symmetry adapted basis functions of B2U symmetry.
 There are     7 symmetry adapted basis functions of B3U symmetry.
    60 basis functions,   100 primitive gaussians,    62 cartesian basis functions
    15 alpha electrons       15 beta electrons
       nuclear repulsion energy        41.3852229090 Hartrees.
 IExCor= 4336 DFT=T Ex+Corr=M062X ExCW=0 ScaHFX=  0.540000
 ScaDFX=  1.000000  1.000000  1.000000  1.000000 ScalE2=  1.000000  1.000000
 IRadAn=      7 IRanWt=     -1 IRanGd=            0 ICorTp=0 IEmpDi=  4
 NAtoms=    2 NActive=    2 NUniq=    1 SFac= 4.00D+00 NAtFMM=   60 NAOKFM=F Big=F
 Integral buffers will be    131072 words long.
 Raffenetti 2 integral format.
 Two-electron integral symmetry is turned on.
 Leave Link  301 at Mon Apr 21 21:21:28 2025, MaxMem=   536870912 cpu:               0.5 elap:               0.1
 (Enter /home/szhao/Apps/g16/l302.exe)
 NPDir=0 NMtPBC=     1 NCelOv=     1 NCel=       1 NClECP=     1 NCelD=      1
         NCelK=      1 NCelE2=     1 NClLst=     1 CellRange=     0.0.
 One-electron integrals computed using PRISM.
 One-electron integral symmetry used in STVInt
 NBasis=    60 RedAO= T EigKep=  6.73D-03  NBF=    15     1     7     7     1    15     7     7
 NBsUse=    60 1.00D-06 EigRej= -1.00D+00 NBFU=    15     1     7     7     1    15     7     7
 Precomputing XC quadrature grid using
 IXCGrd= 4 IRadAn=           7 IRanWt=          -1 IRanGd=           0 AccXCQ= 0.00D+00.
 Generated NRdTot=       0 NPtTot=           0 NUsed=           0 NTot=          32
 NSgBfM=    56    56    56    56    56 MxSgAt=     2 MxSgA2=     2.
 Leave Link  302 at Mon Apr 21 21:21:28 2025, MaxMem=   536870912 cpu:               1.7 elap:               0.3
 (Enter /home/szhao/Apps/g16/l303.exe)
 DipDrv:  MaxL=1.
 Leave Link  303 at Mon Apr 21 21:21:29 2025, MaxMem=   536870912 cpu:               0.4 elap:               0.1
 (Enter /home/szhao/Apps/g16/l401.exe)
 ExpMin= 3.48D-02 ExpMax= 7.75D+04 ExpMxC= 2.65D+03 IAcc=3 IRadAn=         7 AccDes= 0.00D+00
 Harris functional with IExCor= 1009 and IRadAn=       7 diagonalized for initial guess.
 HarFok:  IExCor= 1009 AccDes= 0.00D+00 IRadAn=         7 IDoV= 1 UseB2=F ITyADJ=14
 ICtDFT=  3500011 ScaDFX=  1.000000  1.000000  1.000000  1.000000
 FoFCou: FMM=F IPFlag=           0 FMFlag=      100000 FMFlg1=           0
         NFxFlg=           0 DoJE=T BraDBF=F KetDBF=T FulRan=T
         wScrn=  0.000000 ICntrl=       500 IOpCl=  0 I1Cent=   200000004 NGrid=           0
         NMat0=    1 NMatS0=      1 NMatT0=    0 NMatD0=    1 NMtDS0=    0 NMtDT0=    0
 Petite list used in FoFCou.
 Harris En= -682.187254244328    
 JPrj=0 DoOrth=F DoCkMO=F.
 Initial guess orbital symmetries:
 Alpha Orbitals:
       Occupied  (SGU) (SGG) (SGU) (SGG) (SGG) (SGU) (PIG) (PIG)
                 (PIU) (PIU) (SGG) (SGU) (SGG) (PIU) (PIU)
       Virtual   (PIG) (PIG) (SGU) (SGG) (SGU) (PIU) (PIU) (SGG)
                 (PIG) (PIG) (SGU) (SGU) (PIU) (PIU) (PIG) (PIG)
                 (SGG) (SGG) (SGU) (SGG) (PIU) (PIU) (DLTG) (DLTG)
                 (DLTU) (DLTU) (PIG) (PIG) (SGU) (SGG) (PIU) (PIU)
                 (PIG) (PIG) (SGU) (SGG) (SGU) (SGG) (PIU) (PIU)
                 (PIG) (PIG) (SGU) (SGG) (SGU)
 Beta  Orbitals:
       Occupied  (SGU) (SGG) (SGU) (SGG) (SGG) (SGU) (PIG) (PIG)
                 (PIU) (PIU) (SGG) (SGU) (SGG) (PIU) (PIU)
       Virtual   (PIG) (PIG) (SGU) (SGG) (SGU) (PIU) (PIU) (SGG)
                 (PIG) (PIG) (SGU) (SGU) (PIU) (PIU) (PIG) (PIG)
                 (SGG) (SGG) (SGU) (SGG) (PIU) (PIU) (DLTG) (DLTG)
                 (DLTU) (DLTU) (PIG) (PIG) (SGU) (SGG) (PIU) (PIU)
                 (PIG) (PIG) (SGU) (SGG) (SGU) (SGG) (PIU) (PIU)
                 (PIG) (PIG) (SGU) (SGG) (SGU)
 The electronic state of the initial guess is 1-SGG.
 Initial guess <Sx>= 0.0000 <Sy>= 0.0000 <Sz>= 0.0000 <S**2>=-0.0000 S=-0.0000
 Leave Link  401 at Mon Apr 21 21:21:29 2025, MaxMem=   536870912 cpu:               1.7 elap:               0.3
 (Enter /home/szhao/Apps/g16/l502.exe)
 Keep R1 and R2 ints in memory in symmetry-blocked form, NReq=8792365.
 FoFCou: FMM=F IPFlag=           0 FMFlag=           0 FMFlg1=           0
         NFxFlg=           0 DoJE=F BraDBF=F KetDBF=F FulRan=T
         wScrn=  0.000000 ICntrl=       600 IOpCl=  0 I1Cent=           0 NGrid=           0
         NMat0=    1 NMatS0=   1830 NMatT0=    0 NMatD0=    1 NMtDS0=    0 NMtDT0=    0
 Petite list used in FoFCou.
 UHF open shell SCF:
 Using DIIS extrapolation, IDIIS=  1040.
 NGot=   536870912 LenX=   536388430 LenY=   536384145
 Requested convergence on RMS density matrix=1.00D-08 within 128 cycles.
 Requested convergence on MAX density matrix=1.00D-06.
 Requested convergence on             energy=1.00D-06.
 No special actions if energy rises.

 Cycle   1  Pass 1  IDiag  1:
 E= -682.435629726094    
 DIIS: error= 2.95D-02 at cycle   1 NSaved=   1.
 NSaved= 1 IEnMin= 1 EnMin= -682.435629726094     IErMin= 1 ErrMin= 2.95D-02
 ErrMax= 2.95D-02  0.00D+00 EMaxC= 1.00D-01 BMatC= 2.17D-01 BMatP= 2.17D-01
 IDIUse=3 WtCom= 7.05D-01 WtEn= 2.95D-01
 Coeff-Com:  0.100D+01
 Coeff-En:   0.100D+01
 Coeff:      0.100D+01
 Gap=     0.127 Goal=   None    Shift=    0.000
 Gap=     0.127 Goal=   None    Shift=    0.000
 GapD=    0.127 DampG=1.000 DampE=0.500 DampFc=0.5000 IDamp=-1.
 Damping current iteration by 5.00D-01
 RMSDP=2.43D-03 MaxDP=4.84D-02              OVMax= 3.23D-02

 Cycle   2  Pass 1  IDiag  1:
 E= -682.441498811464     Delta-E=       -0.005869085370 Rises=F Damp=T
 DIIS: error= 1.17D-02 at cycle   2 NSaved=   2.
 NSaved= 2 IEnMin= 2 EnMin= -682.441498811464     IErMin= 2 ErrMin= 1.17D-02
 ErrMax= 1.17D-02  0.00D+00 EMaxC= 1.00D-01 BMatC= 3.14D-02 BMatP= 2.17D-01
 IDIUse=3 WtCom= 8.83D-01 WtEn= 1.17D-01
 Coeff-Com: -0.543D+00 0.154D+01
 Coeff-En:   0.000D+00 0.100D+01
 Coeff:     -0.480D+00 0.148D+01
 Gap=     0.129 Goal=   None    Shift=    0.000
 Gap=     0.129 Goal=   None    Shift=    0.000
 RMSDP=9.70D-04 MaxDP=1.48D-02 DE=-5.87D-03 OVMax= 7.18D-03

 Cycle   3  Pass 1  IDiag  1:
 E= -682.446815381205     Delta-E=       -0.005316569741 Rises=F Damp=F
 DIIS: error= 3.23D-04 at cycle   3 NSaved=   3.
 NSaved= 3 IEnMin= 3 EnMin= -682.446815381205     IErMin= 3 ErrMin= 3.23D-04
 ErrMax= 3.23D-04  0.00D+00 EMaxC= 1.00D-01 BMatC= 3.36D-05 BMatP= 3.14D-02
 IDIUse=3 WtCom= 9.97D-01 WtEn= 3.23D-03
 Coeff-Com: -0.157D-01 0.216D-01 0.994D+00
 Coeff-En:   0.000D+00 0.000D+00 0.100D+01
 Coeff:     -0.157D-01 0.216D-01 0.994D+00
 Gap=     0.129 Goal=   None    Shift=    0.000
 Gap=     0.129 Goal=   None    Shift=    0.000
 RMSDP=9.97D-05 MaxDP=1.74D-03 DE=-5.32D-03 OVMax= 1.95D-03

 Cycle   4  Pass 1  IDiag  1:
 E= -682.446829155625     Delta-E=       -0.000013774419 Rises=F Damp=F
 DIIS: error= 6.59D-05 at cycle   4 NSaved=   4.
 NSaved= 4 IEnMin= 4 EnMin= -682.446829155625     IErMin= 4 ErrMin= 6.59D-05
 ErrMax= 6.59D-05  0.00D+00 EMaxC= 1.00D-01 BMatC= 1.60D-06 BMatP= 3.36D-05
 IDIUse=1 WtCom= 1.00D+00 WtEn= 0.00D+00
 Coeff-Com:  0.539D-02-0.131D-01 0.265D-01 0.981D+00
 Coeff:      0.539D-02-0.131D-01 0.265D-01 0.981D+00
 Gap=     0.129 Goal=   None    Shift=    0.000
 Gap=     0.129 Goal=   None    Shift=    0.000
 RMSDP=2.44D-05 MaxDP=4.31D-04 DE=-1.38D-05 OVMax= 6.02D-04

 Cycle   5  Pass 1  IDiag  1:
 E= -682.446829948110     Delta-E=       -0.000000792485 Rises=F Damp=F
 DIIS: error= 3.20D-05 at cycle   5 NSaved=   5.
 NSaved= 5 IEnMin= 5 EnMin= -682.446829948110     IErMin= 5 ErrMin= 3.20D-05
 ErrMax= 3.20D-05  0.00D+00 EMaxC= 1.00D-01 BMatC= 1.83D-07 BMatP= 1.60D-06
 IDIUse=1 WtCom= 1.00D+00 WtEn= 0.00D+00
 Coeff-Com:  0.246D-03 0.101D-03-0.702D-01 0.937D-01 0.976D+00
 Coeff:      0.246D-03 0.101D-03-0.702D-01 0.937D-01 0.976D+00
 Gap=     0.129 Goal=   None    Shift=    0.000
 Gap=     0.129 Goal=   None    Shift=    0.000
 RMSDP=5.24D-06 MaxDP=7.20D-05 DE=-7.92D-07 OVMax= 1.46D-04

 Cycle   6  Pass 1  IDiag  1:
 E= -682.446830008628     Delta-E=       -0.000000060518 Rises=F Damp=F
 DIIS: error= 4.92D-06 at cycle   6 NSaved=   6.
 NSaved= 6 IEnMin= 6 EnMin= -682.446830008628     IErMin= 6 ErrMin= 4.92D-06
 ErrMax= 4.92D-06  0.00D+00 EMaxC= 1.00D-01 BMatC= 3.50D-09 BMatP= 1.83D-07
 IDIUse=1 WtCom= 1.00D+00 WtEn= 0.00D+00
 Coeff-Com: -0.438D-04 0.234D-03-0.119D-01 0.115D-01 0.192D+00 0.809D+00
 Coeff:     -0.438D-04 0.234D-03-0.119D-01 0.115D-01 0.192D+00 0.809D+00
 Gap=     0.129 Goal=   None    Shift=    0.000
 Gap=     0.129 Goal=   None    Shift=    0.000
 RMSDP=8.42D-07 MaxDP=7.25D-06 DE=-6.05D-08 OVMax= 1.85D-05

 Cycle   7  Pass 1  IDiag  1:
 E= -682.446830009846     Delta-E=       -0.000000001217 Rises=F Damp=F
 DIIS: error= 9.82D-07 at cycle   7 NSaved=   7.
 NSaved= 7 IEnMin= 7 EnMin= -682.446830009846     IErMin= 7 ErrMin= 9.82D-07
 ErrMax= 9.82D-07  0.00D+00 EMaxC= 1.00D-01 BMatC= 1.49D-10 BMatP= 3.50D-09
 IDIUse=1 WtCom= 1.00D+00 WtEn= 0.00D+00
 Coeff-Com:  0.350D-04-0.802D-04 0.115D-02-0.304D-02-0.242D-01 0.810D-01
 Coeff-Com:  0.945D+00
 Coeff:      0.350D-04-0.802D-04 0.115D-02-0.304D-02-0.242D-01 0.810D-01
 Coeff:      0.945D+00
 Gap=     0.129 Goal=   None    Shift=    0.000
 Gap=     0.129 Goal=   None    Shift=    0.000
 RMSDP=1.49D-07 MaxDP=1.81D-06 DE=-1.22D-09 OVMax= 3.89D-06

 Cycle   8  Pass 1  IDiag  1:
 E= -682.446830009892     Delta-E=       -0.000000000046 Rises=F Damp=F
 DIIS: error= 5.19D-08 at cycle   8 NSaved=   8.
 NSaved= 8 IEnMin= 8 EnMin= -682.446830009892     IErMin= 8 ErrMin= 5.19D-08
 ErrMax= 5.19D-08  0.00D+00 EMaxC= 1.00D-01 BMatC= 4.69D-13 BMatP= 1.49D-10
 IDIUse=1 WtCom= 1.00D+00 WtEn= 0.00D+00
 Coeff-Com: -0.555D-05 0.108D-04 0.320D-04 0.144D-03 0.185D-03-0.112D-01
 Coeff-Com: -0.804D-01 0.109D+01
 Coeff:     -0.555D-05 0.108D-04 0.320D-04 0.144D-03 0.185D-03-0.112D-01
 Coeff:     -0.804D-01 0.109D+01
 Gap=     0.129 Goal=   None    Shift=    0.000
 Gap=     0.129 Goal=   None    Shift=    0.000
 RMSDP=3.53D-08 MaxDP=2.63D-07 DE=-4.62D-11 OVMax= 6.25D-07

 Cycle   9  Pass 1  IDiag  1:
 E= -682.446830009892     Delta-E=       -0.000000000000 Rises=F Damp=F
 DIIS: error= 6.56D-09 at cycle   9 NSaved=   9.
 NSaved= 9 IEnMin= 9 EnMin= -682.446830009892     IErMin= 9 ErrMin= 6.56D-09
 ErrMax= 6.56D-09  0.00D+00 EMaxC= 1.00D-01 BMatC= 8.54D-15 BMatP= 4.69D-13
 IDIUse=1 WtCom= 1.00D+00 WtEn= 0.00D+00
 Coeff-Com: -0.775D-07 0.162D-06-0.487D-05 0.232D-04 0.113D-03-0.107D-02
 Coeff-Com: -0.867D-02-0.412D-01 0.105D+01
 Coeff:     -0.775D-07 0.162D-06-0.487D-05 0.232D-04 0.113D-03-0.107D-02
 Coeff:     -0.867D-02-0.412D-01 0.105D+01
 Gap=     0.129 Goal=   None    Shift=    0.000
 Gap=     0.129 Goal=   None    Shift=    0.000
 RMSDP=5.60D-09 MaxDP=4.12D-08 DE=-2.27D-13 OVMax= 8.29D-08

 SCF Done:  E(UM062X) =  -682.446830010     A.U. after    9 cycles
            NFock=  9  Conv=0.56D-08     -V/T= 2.0021
 <Sx>= 0.0000 <Sy>= 0.0000 <Sz>= 0.0000 <S**2>=-0.0000 S=-0.0000
 <L.S>=  0.00000000000    
 KE= 6.810078056072D+02 PE=-1.705959969134D+03 EE= 3.011201106078D+02
 Annihilation of the first spin contaminant:
 S**2 before annihilation     0.0000,   after    -0.0000
 Leave Link  502 at Mon Apr 21 21:21:31 2025, MaxMem=   536870912 cpu:               9.8 elap:               1.4
 (Enter /home/szhao/Apps/g16/l601.exe)
 Copying SCF densities to generalized density rwf, IOpCl= 1 IROHF=0.

 **********************************************************************

            Population analysis using the SCF density.

 **********************************************************************

 Orbital symmetries:
 Alpha Orbitals:
       Occupied  (SGU) (SGG) (SGG) (SGU) (PIU) (PIU) (PIG) (PIG)
                 (SGG) (SGU) (SGG) (SGU) (SGG) (PIU) (PIU)
       Virtual   (PIG) (PIG) (SGU) (SGG) (SGU) (PIU) (PIU) (SGG)
                 (PIG) (PIG) (SGU) (SGU) (PIU) (PIU) (PIG) (PIG)
                 (SGG) (SGG) (SGU) (SGG) (PIU) (PIU) (DLTG) (DLTG)
                 (DLTU) (DLTU) (PIG) (PIG) (SGU) (SGG) (PIU) (PIU)
                 (PIG) (PIG) (SGU) (SGG) (SGU) (SGG) (PIU) (PIU)
                 (PIG) (PIG) (SGU) (SGG) (SGU)
 Beta  Orbitals:
       Occupied  (SGU) (SGG) (SGG) (SGU) (PIU) (PIU) (PIG) (PIG)
                 (SGG) (SGU) (SGG) (SGU) (SGG) (PIU) (PIU)
       Virtual   (PIG) (PIG) (SGU) (SGG) (SGU) (PIU) (PIU) (SGG)
                 (PIG) (PIG) (SGU) (SGU) (PIU) (PIU) (PIG) (PIG)
                 (SGG) (SGG) (SGU) (SGG) (PIU) (PIU) (DLTG) (DLTG)
                 (DLTU) (DLTU) (PIG) (PIG) (SGU) (SGG) (PIU) (PIU)
                 (PIG) (PIG) (SGU) (SGG) (SGU) (SGG) (PIU) (PIU)
                 (PIG) (PIG) (SGU) (SGG) (SGU)
 The electronic state is 1-SGG.
 Alpha  occ. eigenvalues --  -78.11565 -78.11565  -6.93100  -6.93097  -5.04428
 Alpha  occ. eigenvalues --   -5.04428  -5.04428  -5.04428  -5.04355  -5.04353
 Alpha  occ. eigenvalues --   -0.66604  -0.60853  -0.31339  -0.27497  -0.27497
 Alpha virt. eigenvalues --   -0.14613  -0.14613  -0.08379   0.02456   0.03524
 Alpha virt. eigenvalues --    0.04568   0.04568   0.06060   0.06633   0.06633
 Alpha virt. eigenvalues --    0.11722   0.28949   0.30258   0.30258   0.33146
 Alpha virt. eigenvalues --    0.33146   0.34413   0.49589   0.58428   0.66618
 Alpha virt. eigenvalues --    0.68112   0.68112   0.68888   0.68889   0.69403
 Alpha virt. eigenvalues --    0.69404   0.71806   0.71806   0.85018   1.46495
 Alpha virt. eigenvalues --    1.51337   1.51337   1.54618   1.54618   1.63952
 Alpha virt. eigenvalues --    6.71791   6.79303  13.88086  13.91548  13.91548
 Alpha virt. eigenvalues --   13.93956  13.93956  14.00664 162.94801 163.04500
  Beta  occ. eigenvalues --  -78.11565 -78.11565  -6.93100  -6.93097  -5.04428
  Beta  occ. eigenvalues --   -5.04428  -5.04428  -5.04428  -5.04355  -5.04353
  Beta  occ. eigenvalues --   -0.66604  -0.60853  -0.31339  -0.27497  -0.27497
  Beta virt. eigenvalues --   -0.14613  -0.14613  -0.08379   0.02456   0.03524
  Beta virt. eigenvalues --    0.04568   0.04568   0.06060   0.06633   0.06633
  Beta virt. eigenvalues --    0.11722   0.28949   0.30258   0.30258   0.33146
  Beta virt. eigenvalues --    0.33146   0.34413   0.49589   0.58428   0.66618
  Beta virt. eigenvalues --    0.68112   0.68112   0.68888   0.68889   0.69403
  Beta virt. eigenvalues --    0.69404   0.71806   0.71806   0.85018   1.46495
  Beta virt. eigenvalues --    1.51337   1.51337   1.54618   1.54618   1.63952
  Beta virt. eigenvalues --    6.71791   6.79303  13.88086  13.91548  13.91548
  Beta virt. eigenvalues --   13.93956  13.93956  14.00664 162.94801 163.04500
          Condensed to atoms (all electrons):
               1          2
     1  P   14.566742   0.433258
     2  P    0.433258  14.566742
          Atomic-Atomic Spin Densities.
               1          2
     1  P    0.000000  -0.000000
     2  P   -0.000000   0.000000
 Mulliken charges and spin densities:
               1          2
     1  P    0.000000   0.000000
     2  P    0.000000   0.000000
 Sum of Mulliken charges =   0.00000   0.00000
 Mulliken charges and spin densities with hydrogens summed into heavy atoms:
               1          2
     1  P    0.000000   0.000000
     2  P    0.000000   0.000000
 Electronic spatial extent (au):  <R**2>=            283.3862
 Charge=              0.0000 electrons
 Dipole moment (field-independent basis, Debye):
    X=              0.0000    Y=             -0.0000    Z=              0.0000  Tot=              0.0000
 Quadrupole moment (field-independent basis, Debye-Ang):
   XX=            -29.0045   YY=            -29.0045   ZZ=            -24.9816
   XY=              0.0000   XZ=             -0.0000   YZ=              0.0000
 Traceless Quadrupole moment (field-independent basis, Debye-Ang):
   XX=             -1.3410   YY=             -1.3410   ZZ=              2.6819
   XY=              0.0000   XZ=             -0.0000   YZ=              0.0000
 Octapole moment (field-independent basis, Debye-Ang**2):
  XXX=             -0.0000  YYY=             -0.0000  ZZZ=              0.0000  XYY=             -0.0000
  XXY=              0.0000  XXZ=              0.0000  XZZ=             -0.0000  YZZ=             -0.0000
  YYZ=              0.0000  XYZ=              0.0000
 Hexadecapole moment (field-independent basis, Debye-Ang**3):
 XXXX=            -54.1992 YYYY=            -54.1992 ZZZZ=           -374.2950 XXXY=              0.0000
 XXXZ=              0.0000 YYYX=              0.0000 YYYZ=              0.0000 ZZZX=              0.0000
 ZZZY=              0.0000 XXYY=            -18.0664 XXZZ=            -72.5791 YYZZ=            -72.5791
 XXYZ=              0.0000 YYXZ=              0.0000 ZZXY=              0.0000
 N-N= 4.138522290901D+01 E-N=-1.705959968910D+03  KE= 6.810078056072D+02
 Symmetry AG   KE= 2.797032896873D+02
 Symmetry B1G  KE= 1.075915676126D-36
 Symmetry B2G  KE= 2.971010568887D+01
 Symmetry B3G  KE= 2.971010568887D+01
 Symmetry AU   KE= 1.021031881671D-35
 Symmetry B1U  KE= 2.775508229284D+02
 Symmetry B2U  KE= 3.216674080689D+01
 Symmetry B3U  KE= 3.216674080689D+01
 Symmetry AG   SP= 6.696850865902D-15
 Symmetry B1G  SP=-1.534339719101D-51
 Symmetry B2G  SP=-3.585841410394D-16
 Symmetry B3G  SP= 4.290790140903D-15
 Symmetry AU   SP=-6.262886891189D-50
 Symmetry B1U  SP=-6.492845294442D-15
 Symmetry B2U  SP= 2.800630657194D-15
 Symmetry B3U  SP= 3.081288919695D-15
                          Isotropic Fermi Contact Couplings
        Atom                 a.u.       MegaHertz       Gauss      10(-4) cm-1
     1  P(31)              0.00000       0.00000       0.00000       0.00000
     2  P(31)              0.00000       0.00000       0.00000       0.00000
 --------------------------------------------------------
       Center         ----  Spin Dipole Couplings  ----
                      3XX-RR        3YY-RR        3ZZ-RR
 --------------------------------------------------------
     1   Atom        0.000000      0.000000      0.000000
     2   Atom        0.000000      0.000000      0.000000
 --------------------------------------------------------
                        XY            XZ            YZ
 --------------------------------------------------------
     1   Atom        0.000000      0.000000      0.000000
     2   Atom        0.000000      0.000000      0.000000
 --------------------------------------------------------


 ---------------------------------------------------------------------------------
              Anisotropic Spin Dipole Couplings in Principal Axis System
 ---------------------------------------------------------------------------------

       Atom             a.u.   MegaHertz   Gauss  10(-4) cm-1        Axes

              Baa     0.0000     0.000     0.000     0.000  1.0000  0.0000  0.0000
     1 P(31)  Bbb     0.0000     0.000     0.000     0.000 -0.0000  1.0000  0.0000
              Bcc     0.0000     0.000     0.000     0.000  0.0000  0.0000  1.0000
 
              Baa     0.0000     0.000     0.000     0.000  1.0000  0.0000  0.0000
     2 P(31)  Bbb     0.0000     0.000     0.000     0.000 -0.0000  1.0000  0.0000
              Bcc     0.0000     0.000     0.000     0.000  0.0000  0.0000  1.0000
 

 ---------------------------------------------------------------------------------

 No NMR shielding tensors so no spin-rotation constants.
 Leave Link  601 at Mon Apr 21 21:21:32 2025, MaxMem=   536870912 cpu:               3.2 elap:               0.6
 (Enter /home/szhao/Apps/g16/l607.exe)
 ******************************Gaussian NBO Version 3.1******************************
             N A T U R A L   A T O M I C   O R B I T A L   A N D
          N A T U R A L   B O N D   O R B I T A L   A N A L Y S I S
 ******************************Gaussian NBO Version 3.1******************************
       /RESON  / : Allow strongly delocalized NBO set

 Analyzing the SCF density

 Job title: Title Card Required                                             

 Storage needed:     11250 in NPA,     14614 in NBO ( 536870884 available)
 GSVD:  LWork=         720 too small for GESVD, short by        4716 words or        4716 for optimal perf.


 NATURAL POPULATIONS:  Natural atomic orbital occupancies 
                                                          
   NAO  Atom  No  lang   Type(AO)    Occupancy
 --------------------------------------------
     1    P    1  S      Cor( 1S)     2.00000
     2    P    1  S      Cor( 2S)     1.99998
     3    P    1  S      Val( 3S)     1.96373
     4    P    1  S      Ryd( 4S)     0.00007
     5    P    1  S      Ryd( 5S)     0.00000
     6    P    1  S      Ryd( 6S)     0.00000
     7    P    1  S      Ryd( 7S)     0.00000
     8    P    1  px     Cor( 2p)     2.00000
     9    P    1  px     Val( 3p)     0.99936
    10    P    1  px     Ryd( 4p)     0.00016
    11    P    1  px     Ryd( 5p)     0.00000
    12    P    1  px     Ryd( 6p)     0.00000
    13    P    1  px     Ryd( 7p)     0.00000
    14    P    1  py     Cor( 2p)     2.00000
    15    P    1  py     Val( 3p)     0.99936
    16    P    1  py     Ryd( 4p)     0.00016
    17    P    1  py     Ryd( 5p)     0.00000
    18    P    1  py     Ryd( 6p)     0.00000
    19    P    1  py     Ryd( 7p)     0.00000
    20    P    1  pz     Cor( 2p)     1.99998
    21    P    1  pz     Val( 3p)     1.03390
    22    P    1  pz     Ryd( 4p)     0.00086
    23    P    1  pz     Ryd( 5p)     0.00010
    24    P    1  pz     Ryd( 6p)     0.00003
    25    P    1  pz     Ryd( 7p)     0.00000
    26    P    1  dxy    Ryd( 3d)     0.00000
    27    P    1  dxz    Ryd( 3d)     0.00048
    28    P    1  dyz    Ryd( 3d)     0.00048
    29    P    1  dx2y2  Ryd( 3d)     0.00000
    30    P    1  dz2    Ryd( 3d)     0.00136
 
    31    P    2  S      Cor( 1S)     2.00000
    32    P    2  S      Cor( 2S)     1.99998
    33    P    2  S      Val( 3S)     1.96373
    34    P    2  S      Ryd( 4S)     0.00007
    35    P    2  S      Ryd( 5S)     0.00000
    36    P    2  S      Ryd( 6S)     0.00000
    37    P    2  S      Ryd( 7S)     0.00000
    38    P    2  px     Cor( 2p)     2.00000
    39    P    2  px     Val( 3p)     0.99936
    40    P    2  px     Ryd( 4p)     0.00016
    41    P    2  px     Ryd( 5p)     0.00000
    42    P    2  px     Ryd( 6p)     0.00000
    43    P    2  px     Ryd( 7p)     0.00000
    44    P    2  py     Cor( 2p)     2.00000
    45    P    2  py     Val( 3p)     0.99936
    46    P    2  py     Ryd( 4p)     0.00016
    47    P    2  py     Ryd( 5p)     0.00000
    48    P    2  py     Ryd( 6p)     0.00000
    49    P    2  py     Ryd( 7p)     0.00000
    50    P    2  pz     Cor( 2p)     1.99998
    51    P    2  pz     Val( 3p)     1.03390
    52    P    2  pz     Ryd( 4p)     0.00086
    53    P    2  pz     Ryd( 5p)     0.00010
    54    P    2  pz     Ryd( 6p)     0.00003
    55    P    2  pz     Ryd( 7p)     0.00000
    56    P    2  dxy    Ryd( 3d)     0.00000
    57    P    2  dxz    Ryd( 3d)     0.00048
    58    P    2  dyz    Ryd( 3d)     0.00048
    59    P    2  dx2y2  Ryd( 3d)     0.00000
    60    P    2  dz2    Ryd( 3d)     0.00136


 Summary of Natural Population Analysis:                  
                                                          
                                       Natural Population 
                Natural  -----------------------------------------------
    Atom  No    Charge         Core      Valence    Rydberg      Total
 -----------------------------------------------------------------------
      P    1    0.00000      9.99995     4.99635    0.00370    15.00000
      P    2    0.00000      9.99995     4.99635    0.00370    15.00000
 =======================================================================
   * Total *    0.00000     19.99990     9.99269    0.00740    30.00000

                                 Natural Population      
 --------------------------------------------------------
   Core                      19.99990 ( 99.9995% of  20)
   Valence                    9.99269 ( 99.9269% of  10)
   Natural Minimal Basis     29.99260 ( 99.9753% of  30)
   Natural Rydberg Basis      0.00740 (  0.0247% of  30)
 --------------------------------------------------------

    Atom  No          Natural Electron Configuration
 ----------------------------------------------------------------------------
      P    1      [core]3S( 1.96)3p( 3.03)
      P    2      [core]3S( 1.96)3p( 3.03)


 ***************************************************
 *******         Alpha spin orbitals         *******
 ***************************************************


 NATURAL POPULATIONS:  Natural atomic orbital occupancies 
                                                          
   NAO  Atom  No  lang   Type(AO)    Occupancy      Energy
 ----------------------------------------------------------
     1    P    1  S      Cor( 1S)     1.00000     -77.31015
     2    P    1  S      Cor( 2S)     0.99999      -7.64886
     3    P    1  S      Val( 3S)     0.98187      -0.70818
     4    P    1  S      Ryd( 4S)     0.00004       0.20752
     5    P    1  S      Ryd( 6S)     0.00000       6.35004
     6    P    1  S      Ryd( 5S)     0.00000       5.93705
     7    P    1  S      Ryd( 7S)     0.00000     157.87670
     8    P    1  px     Cor( 2p)     1.00000      -5.04421
     9    P    1  px     Val( 3p)     0.49968      -0.20966
    10    P    1  px     Ryd( 4p)     0.00008       0.08981
    11    P    1  px     Ryd( 5p)     0.00000       0.46957
    12    P    1  px     Ryd( 6p)     0.00000       1.90380
    13    P    1  px     Ryd( 7p)     0.00000      13.36928
    14    P    1  py     Cor( 2p)     1.00000      -5.04421
    15    P    1  py     Val( 3p)     0.49968      -0.20966
    16    P    1  py     Ryd( 4p)     0.00008       0.08981
    17    P    1  py     Ryd( 5p)     0.00000       0.46957
    18    P    1  py     Ryd( 6p)     0.00000       1.90380
    19    P    1  py     Ryd( 7p)     0.00000      13.36928
    20    P    1  pz     Cor( 2p)     0.99999      -5.04331
    21    P    1  pz     Val( 3p)     0.51695      -0.21070
    22    P    1  pz     Ryd( 4p)     0.00043       0.09651
    23    P    1  pz     Ryd( 5p)     0.00005       0.50914
    24    P    1  pz     Ryd( 6p)     0.00001       1.90452
    25    P    1  pz     Ryd( 7p)     0.00000      13.37341
    26    P    1  dxy    Ryd( 3d)     0.00000       0.69147
    27    P    1  dxz    Ryd( 3d)     0.00024       0.69648
    28    P    1  dyz    Ryd( 3d)     0.00024       0.69648
    29    P    1  dx2y2  Ryd( 3d)     0.00000       0.69146
    30    P    1  dz2    Ryd( 3d)     0.00068       0.72212
 
    31    P    2  S      Cor( 1S)     1.00000     -77.31015
    32    P    2  S      Cor( 2S)     0.99999      -7.64886
    33    P    2  S      Val( 3S)     0.98187      -0.70818
    34    P    2  S      Ryd( 4S)     0.00004       0.20752
    35    P    2  S      Ryd( 6S)     0.00000       6.35004
    36    P    2  S      Ryd( 5S)     0.00000       5.93705
    37    P    2  S      Ryd( 7S)     0.00000     157.87670
    38    P    2  px     Cor( 2p)     1.00000      -5.04421
    39    P    2  px     Val( 3p)     0.49968      -0.20966
    40    P    2  px     Ryd( 4p)     0.00008       0.08981
    41    P    2  px     Ryd( 5p)     0.00000       0.46957
    42    P    2  px     Ryd( 6p)     0.00000       1.90380
    43    P    2  px     Ryd( 7p)     0.00000      13.36928
    44    P    2  py     Cor( 2p)     1.00000      -5.04421
    45    P    2  py     Val( 3p)     0.49968      -0.20966
    46    P    2  py     Ryd( 4p)     0.00008       0.08981
    47    P    2  py     Ryd( 5p)     0.00000       0.46957
    48    P    2  py     Ryd( 6p)     0.00000       1.90380
    49    P    2  py     Ryd( 7p)     0.00000      13.36928
    50    P    2  pz     Cor( 2p)     0.99999      -5.04331
    51    P    2  pz     Val( 3p)     0.51695      -0.21070
    52    P    2  pz     Ryd( 4p)     0.00043       0.09651
    53    P    2  pz     Ryd( 5p)     0.00005       0.50914
    54    P    2  pz     Ryd( 6p)     0.00001       1.90452
    55    P    2  pz     Ryd( 7p)     0.00000      13.37341
    56    P    2  dxy    Ryd( 3d)     0.00000       0.69147
    57    P    2  dxz    Ryd( 3d)     0.00024       0.69648
    58    P    2  dyz    Ryd( 3d)     0.00024       0.69648
    59    P    2  dx2y2  Ryd( 3d)     0.00000       0.69146
    60    P    2  dz2    Ryd( 3d)     0.00068       0.72212

 WARNING:  Population inversion found on atom  P    1
           Population inversion found on atom  P    2


 Summary of Natural Population Analysis:                  
                                                          
                                       Natural Population 
                Natural  -----------------------------------------------
    Atom  No    Charge         Core      Valence    Rydberg      Total
 -----------------------------------------------------------------------
      P    1   -0.00000      4.99998     2.49817    0.00185     7.50000
      P    2    0.00000      4.99998     2.49817    0.00185     7.50000
 =======================================================================
   * Total *   -0.00000      9.99995     4.99635    0.00370    15.00000

                                 Natural Population      
 --------------------------------------------------------
   Core                       9.99995 ( 99.9995% of  10)
   Valence                    4.99635 ( 99.9269% of   5)
   Natural Minimal Basis     14.99630 ( 99.9753% of  15)
   Natural Rydberg Basis      0.00370 (  0.0247% of  15)
 --------------------------------------------------------

    Atom  No          Natural Electron Configuration
 ----------------------------------------------------------------------------
      P    1      [core]3S( 0.98)3p( 1.52)
      P    2      [core]3S( 0.98)3p( 1.52)


 NATURAL BOND ORBITAL ANALYSIS, alpha spin orbitals:

                       Occupancies       Lewis Structure    Low   High
           Occ.    -------------------  -----------------   occ   occ
  Cycle   Thresh.   Lewis   Non-Lewis     CR  BD  3C  LP    (L)   (NL)   Dev
 =============================================================================
   1(1)    0.90    14.99968   0.00032     10   3   0   2     0      0    0.00
 -----------------------------------------------------------------------------

 Structure accepted: No low occupancy Lewis orbitals

 --------------------------------------------------------
   Core                      9.99995 (100.000% of  10)
   Valence Lewis             4.99973 ( 99.995% of   5)
  ==================       ============================
   Total Lewis              14.99968 ( 99.998% of  15)
  -----------------------------------------------------
   Valence non-Lewis         0.00002 (  0.000% of  15)
   Rydberg non-Lewis         0.00030 (  0.002% of  15)
  ==================       ============================
   Total non-Lewis           0.00032 (  0.002% of  15)
 --------------------------------------------------------


       (Occupancy)   Bond orbital/ Coefficients/ Hybrids
 ---------------------------------------------------------------------------------
     1. (1.00000) BD ( 1) P   1 - P   2  
                ( 50.00%)   0.7071* P   1 s(  3.60%)p26.75( 96.27%)d 0.04(  0.13%)
                                            0.0000 -0.0000 -0.1895  0.0081  0.0002
                                           -0.0001  0.0000  0.0000  0.0000  0.0000
                                            0.0000  0.0000  0.0000  0.0000  0.0000
                                            0.0000  0.0000  0.0000  0.0000  0.0000
                                            0.9808 -0.0248  0.0039  0.0005 -0.0000
                                            0.0000  0.0000  0.0000  0.0000 -0.0364
                ( 50.00%)   0.7071* P   2 s(  3.60%)p26.75( 96.27%)d 0.04(  0.13%)
                                            0.0000 -0.0000 -0.1895  0.0081  0.0002
                                           -0.0001  0.0000  0.0000  0.0000  0.0000
                                            0.0000  0.0000  0.0000  0.0000  0.0000
                                            0.0000  0.0000  0.0000  0.0000 -0.0000
                                           -0.9808  0.0248 -0.0039 -0.0005  0.0000
                                            0.0000  0.0000  0.0000  0.0000 -0.0364
     2. (1.00000) BD ( 2) P   1 - P   2  
                ( 50.00%)   0.7071* P   1 s(  0.00%)p 1.00( 99.95%)d 0.00(  0.05%)
                                            0.0000  0.0000  0.0000  0.0000  0.0000
                                            0.0000  0.0000  0.0000  0.9997  0.0128
                                           -0.0011 -0.0007  0.0000  0.0000  0.0000
                                            0.0000  0.0000  0.0000  0.0000  0.0000
                                            0.0000  0.0000  0.0000  0.0000  0.0000
                                            0.0000 -0.0219  0.0000  0.0000  0.0000
                ( 50.00%)   0.7071* P   2 s(  0.00%)p 1.00( 99.95%)d 0.00(  0.05%)
                                            0.0000  0.0000  0.0000  0.0000  0.0000
                                            0.0000  0.0000  0.0000  0.9997  0.0128
                                           -0.0011 -0.0007  0.0000  0.0000  0.0000
                                            0.0000  0.0000  0.0000  0.0000  0.0000
                                            0.0000  0.0000  0.0000  0.0000  0.0000
                                            0.0000  0.0219  0.0000  0.0000  0.0000
     3. (1.00000) BD ( 3) P   1 - P   2  
                ( 50.00%)   0.7071* P   1 s(  0.00%)p 1.00( 99.95%)d 0.00(  0.05%)
                                            0.0000  0.0000  0.0000  0.0000  0.0000
                                            0.0000  0.0000  0.0000  0.0000  0.0000
                                            0.0000  0.0000  0.0000  0.0000  0.9997
                                            0.0128 -0.0011 -0.0007  0.0000  0.0000
                                            0.0000  0.0000  0.0000  0.0000  0.0000
                                            0.0000  0.0000 -0.0219  0.0000  0.0000
                ( 50.00%)   0.7071* P   2 s(  0.00%)p 1.00( 99.95%)d 0.00(  0.05%)
                                            0.0000  0.0000  0.0000  0.0000  0.0000
                                            0.0000  0.0000  0.0000  0.0000  0.0000
                                            0.0000  0.0000  0.0000  0.0000  0.9997
                                            0.0128 -0.0011 -0.0007  0.0000  0.0000
                                            0.0000  0.0000  0.0000  0.0000  0.0000
                                            0.0000  0.0000  0.0219  0.0000  0.0000
     4. (1.00000) CR ( 1) P   1           s(100.00%)
                                            1.0000 -0.0000  0.0000  0.0000  0.0000
                                           -0.0000  0.0000  0.0000  0.0000  0.0000
                                            0.0000  0.0000  0.0000  0.0000  0.0000
                                            0.0000  0.0000  0.0000  0.0000  0.0000
                                            0.0000 -0.0000 -0.0000  0.0000 -0.0000
                                            0.0000  0.0000  0.0000  0.0000 -0.0000
     5. (0.99999) CR ( 2) P   1           s(100.00%)
                                           -0.0000  1.0000  0.0000  0.0000  0.0000
                                           -0.0000  0.0000  0.0000  0.0000  0.0000
                                            0.0000  0.0000  0.0000  0.0000  0.0000
                                            0.0000  0.0000  0.0000  0.0000  0.0000
                                            0.0000 -0.0000 -0.0000  0.0000 -0.0000
                                            0.0000  0.0000  0.0000  0.0000 -0.0000
     6. (1.00000) CR ( 3) P   1           s(  0.00%)p 1.00(100.00%)
                                            0.0000  0.0000  0.0000  0.0000  0.0000
                                            0.0000  0.0000  1.0000  0.0000  0.0000
                                            0.0000  0.0000  0.0000  0.0000  0.0000
                                            0.0000  0.0000  0.0000  0.0000  0.0000
                                            0.0000  0.0000  0.0000  0.0000  0.0000
                                            0.0000  0.0000  0.0000  0.0000  0.0000
     7. (1.00000) CR ( 4) P   1           s(  0.00%)p 1.00(100.00%)
                                            0.0000  0.0000  0.0000  0.0000  0.0000
                                            0.0000  0.0000  0.0000  0.0000  0.0000
                                            0.0000  0.0000  0.0000  1.0000  0.0000
                                            0.0000  0.0000  0.0000  0.0000  0.0000
                                            0.0000  0.0000  0.0000  0.0000  0.0000
                                            0.0000  0.0000  0.0000  0.0000  0.0000
     8. (0.99999) CR ( 5) P   1           s(  0.00%)p 1.00(100.00%)
                                            0.0000  0.0000 -0.0000 -0.0000 -0.0000
                                            0.0000 -0.0000  0.0000  0.0000  0.0000
                                            0.0000  0.0000  0.0000  0.0000  0.0000
                                            0.0000  0.0000  0.0000  0.0000  1.0000
                                           -0.0000  0.0000  0.0000 -0.0000  0.0000
                                            0.0000  0.0000  0.0000  0.0000  0.0000
     9. (1.00000) CR ( 1) P   2           s(100.00%)
                                            1.0000 -0.0000  0.0000  0.0000  0.0000
                                           -0.0000  0.0000  0.0000  0.0000  0.0000
                                            0.0000  0.0000  0.0000  0.0000  0.0000
                                            0.0000  0.0000  0.0000  0.0000 -0.0000
                                           -0.0000  0.0000  0.0000 -0.0000  0.0000
                                            0.0000  0.0000  0.0000  0.0000 -0.0000
    10. (0.99999) CR ( 2) P   2           s(100.00%)
                                           -0.0000  1.0000  0.0000  0.0000  0.0000
                                           -0.0000  0.0000  0.0000  0.0000  0.0000
                                            0.0000  0.0000  0.0000  0.0000  0.0000
                                            0.0000  0.0000  0.0000  0.0000 -0.0000
                                           -0.0000  0.0000  0.0000 -0.0000  0.0000
                                            0.0000  0.0000  0.0000  0.0000 -0.0000
    11. (1.00000) CR ( 3) P   2           s(  0.00%)p 1.00(100.00%)
                                            0.0000  0.0000  0.0000  0.0000  0.0000
                                            0.0000  0.0000  1.0000  0.0000  0.0000
                                            0.0000  0.0000  0.0000  0.0000  0.0000
                                            0.0000  0.0000  0.0000  0.0000  0.0000
                                            0.0000  0.0000  0.0000  0.0000  0.0000
                                            0.0000  0.0000  0.0000  0.0000  0.0000
    12. (1.00000) CR ( 4) P   2           s(  0.00%)p 1.00(100.00%)
                                            0.0000  0.0000  0.0000  0.0000  0.0000
                                            0.0000  0.0000  0.0000  0.0000  0.0000
                                            0.0000  0.0000  0.0000  1.0000  0.0000
                                            0.0000  0.0000  0.0000  0.0000  0.0000
                                            0.0000  0.0000  0.0000  0.0000  0.0000
                                            0.0000  0.0000  0.0000  0.0000  0.0000
    13. (0.99999) CR ( 5) P   2           s(  0.00%)p 1.00(100.00%)
                                           -0.0000 -0.0000  0.0000  0.0000  0.0000
                                           -0.0000  0.0000  0.0000  0.0000  0.0000
                                            0.0000  0.0000  0.0000  0.0000  0.0000
                                            0.0000  0.0000  0.0000  0.0000  1.0000
                                           -0.0000  0.0000  0.0000 -0.0000  0.0000
                                            0.0000  0.0000  0.0000  0.0000 -0.0000
    14. (0.99986) LP ( 1) P   1           s( 96.40%)p 0.04(  3.60%)d 0.00(  0.00%)
                                           -0.0000 -0.0000  0.9819  0.0008  0.0000
                                           -0.0000  0.0000  0.0000  0.0000  0.0000
                                            0.0000  0.0000  0.0000  0.0000  0.0000
                                            0.0000  0.0000  0.0000  0.0000  0.0000
                                            0.1895 -0.0033 -0.0042  0.0025 -0.0001
                                            0.0000  0.0000  0.0000  0.0000 -0.0039
    15. (0.99986) LP ( 1) P   2           s( 96.40%)p 0.04(  3.60%)d 0.00(  0.00%)
                                           -0.0000 -0.0000  0.9819  0.0008  0.0000
                                           -0.0000  0.0000  0.0000  0.0000  0.0000
                                            0.0000  0.0000  0.0000  0.0000  0.0000
                                            0.0000  0.0000  0.0000  0.0000 -0.0000
                                           -0.1895  0.0033  0.0042 -0.0025  0.0001
                                            0.0000  0.0000  0.0000  0.0000 -0.0039
    16. (0.00014) RY*( 1) P   1           s(  2.10%)p45.95( 96.29%)d 0.77(  1.62%)
                                           -0.0000  0.0000 -0.0005  0.1370 -0.0418
                                            0.0210 -0.0014 -0.0000 -0.0000 -0.0000
                                           -0.0000 -0.0000 -0.0000 -0.0000 -0.0000
                                           -0.0000 -0.0000 -0.0000 -0.0000 -0.0000
                                           -0.0170 -0.8783 -0.3968 -0.1834  0.0079
                                           -0.0000 -0.0000 -0.0000 -0.0000  0.1273
    17. (0.00000) RY*( 2) P   1           s( 99.78%)p 0.00(  0.22%)
    18. (0.00000) RY*( 3) P   1           s( 99.96%)p 0.00(  0.04%)d 0.00(  0.00%)
    19. (0.00000) RY*( 4) P   1           s(100.00%)p 0.00(  0.00%)d 0.00(  0.00%)
    20. (0.00000) RY*( 5) P   1           s(  0.00%)p 1.00(100.00%)d 0.00(  0.00%)
    21. (0.00000) RY*( 6) P   1           s(  0.00%)p 1.00(100.00%)
    22. (0.00000) RY*( 7) P   1           s(  0.00%)p 1.00(100.00%)
    23. (0.00000) RY*( 8) P   1           s(  0.00%)p 1.00(100.00%)
    24. (0.00000) RY*( 9) P   1           s(  0.00%)p 1.00(100.00%)d 0.00(  0.00%)
    25. (0.00000) RY*(10) P   1           s(  0.00%)p 1.00(100.00%)
    26. (0.00000) RY*(11) P   1           s(  0.00%)p 1.00(100.00%)
    27. (0.00000) RY*(12) P   1           s(  0.00%)p 1.00(100.00%)
    28. (0.00000) RY*(13) P   1           s( 97.61%)p 0.02(  2.39%)d 0.00(  0.00%)
    29. (0.00000) RY*(14) P   1           s(  0.44%)p99.99( 99.56%)d 0.00(  0.00%)
    30. (0.00000) RY*(15) P   1           s(  0.08%)p99.99( 99.92%)d 0.00(  0.00%)
    31. (0.00000) RY*(16) P   1           s(  0.00%)p 1.00(100.00%)d 0.00(  0.00%)
    32. (0.00000) RY*(17) P   1           s(  0.00%)p 0.00(  0.00%)d 1.00(100.00%)
    33. (0.00000) RY*(18) P   1           s(  0.00%)p 1.00(  0.05%)d99.99( 99.95%)
    34. (0.00000) RY*(19) P   1           s(  0.00%)p 1.00(  0.05%)d99.99( 99.95%)
    35. (0.00000) RY*(20) P   1           s(  0.00%)p 0.00(  0.00%)d 1.00(100.00%)
    36. (0.00000) RY*(21) P   1           s(  0.03%)p49.50(  1.72%)d99.99( 98.25%)
    37. (0.00014) RY*( 1) P   2           s(  2.10%)p45.95( 96.29%)d 0.77(  1.62%)
                                           -0.0000  0.0000 -0.0005  0.1370 -0.0418
                                            0.0210 -0.0014  0.0000  0.0000  0.0000
                                            0.0000  0.0000  0.0000  0.0000  0.0000
                                            0.0000  0.0000  0.0000  0.0000  0.0000
                                            0.0170  0.8783  0.3968  0.1834 -0.0079
                                            0.0000  0.0000  0.0000  0.0000  0.1273
    38. (0.00000) RY*( 2) P   2           s( 99.78%)p 0.00(  0.22%)
    39. (0.00000) RY*( 3) P   2           s( 99.96%)p 0.00(  0.04%)d 0.00(  0.00%)
    40. (0.00000) RY*( 4) P   2           s(100.00%)p 0.00(  0.00%)d 0.00(  0.00%)
    41. (0.00000) RY*( 5) P   2           s(  0.00%)p 1.00(100.00%)d 0.00(  0.00%)
    42. (0.00000) RY*( 6) P   2           s(  0.00%)p 1.00(100.00%)
    43. (0.00000) RY*( 7) P   2           s(  0.00%)p 1.00(100.00%)
    44. (0.00000) RY*( 8) P   2           s(  0.00%)p 1.00(100.00%)
    45. (0.00000) RY*( 9) P   2           s(  0.00%)p 1.00(100.00%)d 0.00(  0.00%)
    46. (0.00000) RY*(10) P   2           s(  0.00%)p 1.00(100.00%)
    47. (0.00000) RY*(11) P   2           s(  0.00%)p 1.00(100.00%)
    48. (0.00000) RY*(12) P   2           s(  0.00%)p 1.00(100.00%)
    49. (0.00000) RY*(13) P   2           s( 97.61%)p 0.02(  2.39%)d 0.00(  0.00%)
    50. (0.00000) RY*(14) P   2           s(  0.44%)p99.99( 99.56%)d 0.00(  0.00%)
    51. (0.00000) RY*(15) P   2           s(  0.08%)p99.99( 99.92%)d 0.00(  0.00%)
    52. (0.00000) RY*(16) P   2           s(  0.00%)p 1.00(100.00%)d 0.00(  0.00%)
    53. (0.00000) RY*(17) P   2           s(  0.00%)p 0.00(  0.00%)d 1.00(100.00%)
    54. (0.00000) RY*(18) P   2           s(  0.00%)p 1.00(  0.05%)d99.99( 99.95%)
    55. (0.00000) RY*(19) P   2           s(  0.00%)p 1.00(  0.05%)d99.99( 99.95%)
    56. (0.00000) RY*(20) P   2           s(  0.00%)p 0.00(  0.00%)d 1.00(100.00%)
    57. (0.00000) RY*(21) P   2           s(  0.03%)p49.50(  1.72%)d99.99( 98.25%)
    58. (0.00001) BD*( 1) P   1 - P   2  
                ( 50.00%)   0.7071* P   1 s(  3.60%)p26.75( 96.27%)d 0.04(  0.13%)
                ( 50.00%)  -0.7071* P   2 s(  3.60%)p26.75( 96.27%)d 0.04(  0.13%)
    59. (0.00000) BD*( 2) P   1 - P   2  
                ( 50.00%)   0.7071* P   1 s(  0.00%)p 1.00( 99.95%)d 0.00(  0.05%)
                ( 50.00%)  -0.7071* P   2 s(  0.00%)p 1.00( 99.95%)d 0.00(  0.05%)
    60. (0.00000) BD*( 3) P   1 - P   2  
                ( 50.00%)   0.7071* P   1 s(  0.00%)p 1.00( 99.95%)d 0.00(  0.05%)
                ( 50.00%)  -0.7071* P   2 s(  0.00%)p 1.00( 99.95%)d 0.00(  0.05%)


 NHO Directionality and "Bond Bending" (deviations from line of nuclear centers)

         [Thresholds for printing:  angular deviation  >  1.0 degree]
                                    hybrid p-character > 25.0%
                                    orbital occupancy  >  0.10e

                                Line of Centers        Hybrid 1              Hybrid 2
                                ---------------  -------------------   ------------------
                NBO               Theta   Phi    Theta   Phi    Dev    Theta   Phi    Dev
 ========================================================================================
     2. BD (   2) P   1 - P   2   180.0    0.0    90.0    0.0  90.0     90.0    0.0  90.0
     3. BD (   3) P   1 - P   2   180.0    0.0    90.0   90.0  90.0     90.0   90.0  90.0


 Second Order Perturbation Theory Analysis of Fock Matrix in NBO Basis

     Threshold for printing:   0.25 kcal/mol
                                                                              E(2)  E(j)-E(i) F(i,j)
         Donor NBO (i)                     Acceptor NBO (j)                 kcal/mol   a.u.    a.u. 
 ===================================================================================================

 within unit  1
       None above threshold


 Natural Bond Orbitals (Summary):

                                                            Principal Delocalizations
           NBO                        Occupancy    Energy   (geminal,vicinal,remote)
 ====================================================================================
 Molecular unit  1  (P2)
     1. BD (   1) P   1 - P   2          1.00000    -0.36504   
     2. BD (   2) P   1 - P   2          1.00000    -0.27510   
     3. BD (   3) P   1 - P   2          1.00000    -0.27510   
     4. CR (   1) P   1                  1.00000   -77.31015   
     5. CR (   2) P   1                  0.99999    -7.64888   
     6. CR (   3) P   1                  1.00000    -5.04421   
     7. CR (   4) P   1                  1.00000    -5.04421   
     8. CR (   5) P   1                  0.99999    -5.04331   
     9. CR (   1) P   2                  1.00000   -77.31015   
    10. CR (   2) P   2                  0.99999    -7.64888   
    11. CR (   3) P   2                  1.00000    -5.04421   
    12. CR (   4) P   2                  1.00000    -5.04421   
    13. CR (   5) P   2                  0.99999    -5.04331   
    14. LP (   1) P   1                  0.99986    -0.69897   
    15. LP (   1) P   2                  0.99986    -0.69897   
    16. RY*(   1) P   1                  0.00014     0.31799   
    17. RY*(   2) P   1                  0.00000     6.35255   
    18. RY*(   3) P   1                  0.00000     5.94277   
    19. RY*(   4) P   1                  0.00000   157.87550   
    20. RY*(   5) P   1                  0.00000     0.08999   
    21. RY*(   6) P   1                  0.00000     0.46955   
    22. RY*(   7) P   1                  0.00000     1.90381   
    23. RY*(   8) P   1                  0.00000    13.36928   
    24. RY*(   9) P   1                  0.00000     0.08999   
    25. RY*(  10) P   1                  0.00000     0.46955   
    26. RY*(  11) P   1                  0.00000     1.90381   
    27. RY*(  12) P   1                  0.00000    13.36928   
    28. RY*(  13) P   1                  0.00000     0.19307   
    29. RY*(  14) P   1                  0.00000     0.40485   
    30. RY*(  15) P   1                  0.00000     1.79497   
    31. RY*(  16) P   1                  0.00000    13.38392   
    32. RY*(  17) P   1                  0.00000     0.69147   
    33. RY*(  18) P   1                  0.00000     0.69618   
    34. RY*(  19) P   1                  0.00000     0.69618   
    35. RY*(  20) P   1                  0.00000     0.69146   
    36. RY*(  21) P   1                  0.00000     0.70973   
    37. RY*(   1) P   2                  0.00014     0.31799   
    38. RY*(   2) P   2                  0.00000     6.35255   
    39. RY*(   3) P   2                  0.00000     5.94277   
    40. RY*(   4) P   2                  0.00000   157.87550   
    41. RY*(   5) P   2                  0.00000     0.08999   
    42. RY*(   6) P   2                  0.00000     0.46955   
    43. RY*(   7) P   2                  0.00000     1.90381   
    44. RY*(   8) P   2                  0.00000    13.36928   
    45. RY*(   9) P   2                  0.00000     0.08999   
    46. RY*(  10) P   2                  0.00000     0.46955   
    47. RY*(  11) P   2                  0.00000     1.90381   
    48. RY*(  12) P   2                  0.00000    13.36928   
    49. RY*(  13) P   2                  0.00000     0.19307   
    50. RY*(  14) P   2                  0.00000     0.40485   
    51. RY*(  15) P   2                  0.00000     1.79497   
    52. RY*(  16) P   2                  0.00000    13.38392   
    53. RY*(  17) P   2                  0.00000     0.69147   
    54. RY*(  18) P   2                  0.00000     0.69618   
    55. RY*(  19) P   2                  0.00000     0.69618   
    56. RY*(  20) P   2                  0.00000     0.69146   
    57. RY*(  21) P   2                  0.00000     0.70973   
    58. BD*(   1) P   1 - P   2          0.00001    -0.07142   
    59. BD*(   2) P   1 - P   2          0.00000    -0.14395   
    60. BD*(   3) P   1 - P   2          0.00000    -0.14395   
       -------------------------------
              Total Lewis   14.99968  ( 99.9979%)
        Valence non-Lewis    0.00002  (  0.0001%)
        Rydberg non-Lewis    0.00030  (  0.0020%)
       -------------------------------
            Total unit  1   15.00000  (100.0000%)
           Charge unit  1    0.00000
 Sorting of NBOs:                    9    4    5   10    7   12    6   11    8   13
 Sorting of NBOs:                   14   15    1    2    3   59   60   58   24   20
 Sorting of NBOs:                   45   41   28   49   16   37   29   50   25   21
 Sorting of NBOs:                   46   42   56   35   32   53   55   34   54   33
 Sorting of NBOs:                   36   57   30   51   26   22   47   43   39   18
 Sorting of NBOs:                   38   17   44   48   23   27   52   31   19   40
 Reordering of NBOs for storage:     9    4    5   10    7   12    6   11    8   13
 Reordering of NBOs for storage:    14   15    1    2    3   59   60   58   24   20
 Reordering of NBOs for storage:    45   41   28   49   16   37   29   50   25   21
 Reordering of NBOs for storage:    46   42   56   35   32   53   55   34   54   33
 Reordering of NBOs for storage:    36   57   30   51   26   22   47   43   39   18
 Reordering of NBOs for storage:    38   17   44   48   23   27   52   31   19   40
 Labels of output orbitals:  CR  CR  CR  CR  CR  CR  CR  CR  CR  CR  LP  LP  BD  BD  BD  BD* BD* BD* RY* RY* 
 Labels of output orbitals:  RY* RY* RY* RY* RY* RY* RY* RY* RY* RY* RY* RY* RY* RY* RY* RY* RY* RY* RY* RY* 
 Labels of output orbitals:  RY* RY* RY* RY* RY* RY* RY* RY* RY* RY* RY* RY* RY* RY* RY* RY* RY* RY* RY* RY* 
 GSVD:  LWork=       -2385 too small for GESVD, short by       10800 words or       10800 for optimal perf.


 ***************************************************
 *******         Beta  spin orbitals         *******
 ***************************************************


 NATURAL POPULATIONS:  Natural atomic orbital occupancies 
                                                          
   NAO  Atom  No  lang   Type(AO)    Occupancy      Energy
 ----------------------------------------------------------
     1    P    1  S      Cor( 1S)     1.00000     -77.31015
     2    P    1  S      Cor( 2S)     0.99999      -7.64886
     3    P    1  S      Val( 3S)     0.98187      -0.70818
     4    P    1  S      Ryd( 4S)     0.00004       0.20752
     5    P    1  S      Ryd( 6S)     0.00000       6.35004
     6    P    1  S      Ryd( 5S)     0.00000       5.93705
     7    P    1  S      Ryd( 7S)     0.00000     157.87670
     8    P    1  px     Cor( 2p)     1.00000      -5.04421
     9    P    1  px     Val( 3p)     0.49968      -0.20966
    10    P    1  px     Ryd( 4p)     0.00008       0.08981
    11    P    1  px     Ryd( 5p)     0.00000       0.46957
    12    P    1  px     Ryd( 6p)     0.00000       1.90380
    13    P    1  px     Ryd( 7p)     0.00000      13.36928
    14    P    1  py     Cor( 2p)     1.00000      -5.04421
    15    P    1  py     Val( 3p)     0.49968      -0.20966
    16    P    1  py     Ryd( 4p)     0.00008       0.08981
    17    P    1  py     Ryd( 5p)     0.00000       0.46957
    18    P    1  py     Ryd( 6p)     0.00000       1.90380
    19    P    1  py     Ryd( 7p)     0.00000      13.36928
    20    P    1  pz     Cor( 2p)     0.99999      -5.04331
    21    P    1  pz     Val( 3p)     0.51695      -0.21070
    22    P    1  pz     Ryd( 4p)     0.00043       0.09651
    23    P    1  pz     Ryd( 5p)     0.00005       0.50914
    24    P    1  pz     Ryd( 6p)     0.00001       1.90452
    25    P    1  pz     Ryd( 7p)     0.00000      13.37341
    26    P    1  dxy    Ryd( 3d)     0.00000       0.69147
    27    P    1  dxz    Ryd( 3d)     0.00024       0.69648
    28    P    1  dyz    Ryd( 3d)     0.00024       0.69648
    29    P    1  dx2y2  Ryd( 3d)     0.00000       0.69146
    30    P    1  dz2    Ryd( 3d)     0.00068       0.72212
 
    31    P    2  S      Cor( 1S)     1.00000     -77.31015
    32    P    2  S      Cor( 2S)     0.99999      -7.64886
    33    P    2  S      Val( 3S)     0.98187      -0.70818
    34    P    2  S      Ryd( 4S)     0.00004       0.20752
    35    P    2  S      Ryd( 6S)     0.00000       6.35004
    36    P    2  S      Ryd( 5S)     0.00000       5.93705
    37    P    2  S      Ryd( 7S)     0.00000     157.87670
    38    P    2  px     Cor( 2p)     1.00000      -5.04421
    39    P    2  px     Val( 3p)     0.49968      -0.20966
    40    P    2  px     Ryd( 4p)     0.00008       0.08981
    41    P    2  px     Ryd( 5p)     0.00000       0.46957
    42    P    2  px     Ryd( 6p)     0.00000       1.90380
    43    P    2  px     Ryd( 7p)     0.00000      13.36928
    44    P    2  py     Cor( 2p)     1.00000      -5.04421
    45    P    2  py     Val( 3p)     0.49968      -0.20966
    46    P    2  py     Ryd( 4p)     0.00008       0.08981
    47    P    2  py     Ryd( 5p)     0.00000       0.46957
    48    P    2  py     Ryd( 6p)     0.00000       1.90380
    49    P    2  py     Ryd( 7p)     0.00000      13.36928
    50    P    2  pz     Cor( 2p)     0.99999      -5.04331
    51    P    2  pz     Val( 3p)     0.51695      -0.21070
    52    P    2  pz     Ryd( 4p)     0.00043       0.09651
    53    P    2  pz     Ryd( 5p)     0.00005       0.50914
    54    P    2  pz     Ryd( 6p)     0.00001       1.90452
    55    P    2  pz     Ryd( 7p)     0.00000      13.37341
    56    P    2  dxy    Ryd( 3d)     0.00000       0.69147
    57    P    2  dxz    Ryd( 3d)     0.00024       0.69648
    58    P    2  dyz    Ryd( 3d)     0.00024       0.69648
    59    P    2  dx2y2  Ryd( 3d)     0.00000       0.69146
    60    P    2  dz2    Ryd( 3d)     0.00068       0.72212

 WARNING:  Population inversion found on atom  P    1
           Population inversion found on atom  P    2


 Summary of Natural Population Analysis:                  
                                                          
                                       Natural Population 
                Natural  -----------------------------------------------
    Atom  No    Charge         Core      Valence    Rydberg      Total
 -----------------------------------------------------------------------
      P    1    0.00000      4.99998     2.49817    0.00185     7.50000
      P    2    0.00000      4.99998     2.49817    0.00185     7.50000
 =======================================================================
   * Total *    0.00000      9.99995     4.99635    0.00370    15.00000

                                 Natural Population      
 --------------------------------------------------------
   Core                       9.99995 ( 99.9995% of  10)
   Valence                    4.99635 ( 99.9269% of   5)
   Natural Minimal Basis     14.99630 ( 99.9753% of  15)
   Natural Rydberg Basis      0.00370 (  0.0247% of  15)
 --------------------------------------------------------

    Atom  No          Natural Electron Configuration
 ----------------------------------------------------------------------------
      P    1      [core]3S( 0.98)3p( 1.52)
      P    2      [core]3S( 0.98)3p( 1.52)


 NATURAL BOND ORBITAL ANALYSIS, beta spin orbitals:

                       Occupancies       Lewis Structure    Low   High
           Occ.    -------------------  -----------------   occ   occ
  Cycle   Thresh.   Lewis   Non-Lewis     CR  BD  3C  LP    (L)   (NL)   Dev
 =============================================================================
   1(1)    0.90    14.99968   0.00032     10   3   0   2     0      0    0.00
 -----------------------------------------------------------------------------

 Structure accepted: No low occupancy Lewis orbitals

 --------------------------------------------------------
   Core                      9.99995 (100.000% of  10)
   Valence Lewis             4.99973 ( 99.995% of   5)
  ==================       ============================
   Total Lewis              14.99968 ( 99.998% of  15)
  -----------------------------------------------------
   Valence non-Lewis         0.00002 (  0.000% of  15)
   Rydberg non-Lewis         0.00030 (  0.002% of  15)
  ==================       ============================
   Total non-Lewis           0.00032 (  0.002% of  15)
 --------------------------------------------------------


       (Occupancy)   Bond orbital/ Coefficients/ Hybrids
 ---------------------------------------------------------------------------------
     1. (1.00000) BD ( 1) P   1 - P   2  
                ( 50.00%)   0.7071* P   1 s(  3.60%)p26.75( 96.27%)d 0.04(  0.13%)
                                            0.0000 -0.0000 -0.1895  0.0081  0.0002
                                           -0.0001  0.0000  0.0000  0.0000  0.0000
                                            0.0000  0.0000  0.0000  0.0000  0.0000
                                            0.0000  0.0000  0.0000  0.0000  0.0000
                                            0.9808 -0.0248  0.0039  0.0005 -0.0000
                                            0.0000  0.0000  0.0000  0.0000 -0.0364
                ( 50.00%)   0.7071* P   2 s(  3.60%)p26.75( 96.27%)d 0.04(  0.13%)
                                            0.0000 -0.0000 -0.1895  0.0081  0.0002
                                           -0.0001  0.0000  0.0000  0.0000  0.0000
                                            0.0000  0.0000  0.0000  0.0000  0.0000
                                            0.0000  0.0000  0.0000  0.0000 -0.0000
                                           -0.9808  0.0248 -0.0039 -0.0005  0.0000
                                            0.0000  0.0000  0.0000  0.0000 -0.0364
     2. (1.00000) BD ( 2) P   1 - P   2  
                ( 50.00%)   0.7071* P   1 s(  0.00%)p 1.00( 99.95%)d 0.00(  0.05%)
                                            0.0000  0.0000  0.0000  0.0000  0.0000
                                            0.0000  0.0000  0.0000  0.9997  0.0128
                                           -0.0011 -0.0007  0.0000  0.0000  0.0000
                                            0.0000  0.0000  0.0000  0.0000  0.0000
                                            0.0000  0.0000  0.0000  0.0000  0.0000
                                            0.0000 -0.0219  0.0000  0.0000  0.0000
                ( 50.00%)   0.7071* P   2 s(  0.00%)p 1.00( 99.95%)d 0.00(  0.05%)
                                            0.0000  0.0000  0.0000  0.0000  0.0000
                                            0.0000  0.0000  0.0000  0.9997  0.0128
                                           -0.0011 -0.0007  0.0000  0.0000  0.0000
                                            0.0000  0.0000  0.0000  0.0000  0.0000
                                            0.0000  0.0000  0.0000  0.0000  0.0000
                                            0.0000  0.0219  0.0000  0.0000  0.0000
     3. (1.00000) BD ( 3) P   1 - P   2  
                ( 50.00%)   0.7071* P   1 s(  0.00%)p 1.00( 99.95%)d 0.00(  0.05%)
                                            0.0000  0.0000  0.0000  0.0000  0.0000
                                            0.0000  0.0000  0.0000  0.0000  0.0000
                                            0.0000  0.0000  0.0000  0.0000  0.9997
                                            0.0128 -0.0011 -0.0007  0.0000  0.0000
                                            0.0000  0.0000  0.0000  0.0000  0.0000
                                            0.0000  0.0000 -0.0219  0.0000  0.0000
                ( 50.00%)   0.7071* P   2 s(  0.00%)p 1.00( 99.95%)d 0.00(  0.05%)
                                            0.0000  0.0000  0.0000  0.0000  0.0000
                                            0.0000  0.0000  0.0000  0.0000  0.0000
                                            0.0000  0.0000  0.0000  0.0000  0.9997
                                            0.0128 -0.0011 -0.0007  0.0000  0.0000
                                            0.0000  0.0000  0.0000  0.0000  0.0000
                                            0.0000  0.0000  0.0219  0.0000  0.0000
     4. (1.00000) CR ( 1) P   1           s(100.00%)
                                            1.0000 -0.0000  0.0000  0.0000  0.0000
                                           -0.0000  0.0000  0.0000  0.0000  0.0000
                                            0.0000  0.0000  0.0000  0.0000  0.0000
                                            0.0000  0.0000  0.0000  0.0000  0.0000
                                            0.0000 -0.0000 -0.0000  0.0000 -0.0000
                                            0.0000  0.0000  0.0000  0.0000 -0.0000
     5. (0.99999) CR ( 2) P   1           s(100.00%)
                                           -0.0000  1.0000  0.0000  0.0000  0.0000
                                           -0.0000  0.0000  0.0000  0.0000  0.0000
                                            0.0000  0.0000  0.0000  0.0000  0.0000
                                            0.0000  0.0000  0.0000  0.0000  0.0000
                                            0.0000 -0.0000 -0.0000  0.0000 -0.0000
                                            0.0000  0.0000  0.0000  0.0000 -0.0000
     6. (1.00000) CR ( 3) P   1           s(  0.00%)p 1.00(100.00%)
                                            0.0000  0.0000  0.0000  0.0000  0.0000
                                            0.0000  0.0000  1.0000  0.0000  0.0000
                                            0.0000  0.0000  0.0000  0.0000  0.0000
                                            0.0000  0.0000  0.0000  0.0000  0.0000
                                            0.0000  0.0000  0.0000  0.0000  0.0000
                                            0.0000  0.0000  0.0000  0.0000  0.0000
     7. (1.00000) CR ( 4) P   1           s(  0.00%)p 1.00(100.00%)
                                            0.0000  0.0000  0.0000  0.0000  0.0000
                                            0.0000  0.0000  0.0000  0.0000  0.0000
                                            0.0000  0.0000  0.0000  1.0000  0.0000
                                            0.0000  0.0000  0.0000  0.0000  0.0000
                                            0.0000  0.0000  0.0000  0.0000  0.0000
                                            0.0000  0.0000  0.0000  0.0000  0.0000
     8. (0.99999) CR ( 5) P   1           s(  0.00%)p 1.00(100.00%)
                                            0.0000  0.0000 -0.0000 -0.0000 -0.0000
                                            0.0000 -0.0000  0.0000  0.0000  0.0000
                                            0.0000  0.0000  0.0000  0.0000  0.0000
                                            0.0000  0.0000  0.0000  0.0000  1.0000
                                           -0.0000  0.0000  0.0000 -0.0000  0.0000
                                            0.0000  0.0000  0.0000  0.0000  0.0000
     9. (1.00000) CR ( 1) P   2           s(100.00%)
                                            1.0000 -0.0000  0.0000  0.0000  0.0000
                                           -0.0000  0.0000  0.0000  0.0000  0.0000
                                            0.0000  0.0000  0.0000  0.0000  0.0000
                                            0.0000  0.0000  0.0000  0.0000 -0.0000
                                           -0.0000  0.0000  0.0000 -0.0000  0.0000
                                            0.0000  0.0000  0.0000  0.0000 -0.0000
    10. (0.99999) CR ( 2) P   2           s(100.00%)
                                           -0.0000  1.0000  0.0000  0.0000  0.0000
                                           -0.0000  0.0000  0.0000  0.0000  0.0000
                                            0.0000  0.0000  0.0000  0.0000  0.0000
                                            0.0000  0.0000  0.0000  0.0000 -0.0000
                                           -0.0000  0.0000  0.0000 -0.0000  0.0000
                                            0.0000  0.0000  0.0000  0.0000 -0.0000
    11. (1.00000) CR ( 3) P   2           s(  0.00%)p 1.00(100.00%)
                                            0.0000  0.0000  0.0000  0.0000  0.0000
                                            0.0000  0.0000  1.0000  0.0000  0.0000
                                            0.0000  0.0000  0.0000  0.0000  0.0000
                                            0.0000  0.0000  0.0000  0.0000  0.0000
                                            0.0000  0.0000  0.0000  0.0000  0.0000
                                            0.0000  0.0000  0.0000  0.0000  0.0000
    12. (1.00000) CR ( 4) P   2           s(  0.00%)p 1.00(100.00%)
                                            0.0000  0.0000  0.0000  0.0000  0.0000
                                            0.0000  0.0000  0.0000  0.0000  0.0000
                                            0.0000  0.0000  0.0000  1.0000  0.0000
                                            0.0000  0.0000  0.0000  0.0000  0.0000
                                            0.0000  0.0000  0.0000  0.0000  0.0000
                                            0.0000  0.0000  0.0000  0.0000  0.0000
    13. (0.99999) CR ( 5) P   2           s(  0.00%)p 1.00(100.00%)
                                           -0.0000 -0.0000  0.0000  0.0000  0.0000
                                           -0.0000  0.0000  0.0000  0.0000  0.0000
                                            0.0000  0.0000  0.0000  0.0000  0.0000
                                            0.0000  0.0000  0.0000  0.0000  1.0000
                                           -0.0000  0.0000  0.0000 -0.0000  0.0000
                                            0.0000  0.0000  0.0000  0.0000 -0.0000
    14. (0.99986) LP ( 1) P   1           s( 96.40%)p 0.04(  3.60%)d 0.00(  0.00%)
                                           -0.0000 -0.0000  0.9819  0.0008  0.0000
                                           -0.0000  0.0000  0.0000  0.0000  0.0000
                                            0.0000  0.0000  0.0000  0.0000  0.0000
                                            0.0000  0.0000  0.0000  0.0000  0.0000
                                            0.1895 -0.0033 -0.0042  0.0025 -0.0001
                                            0.0000  0.0000  0.0000  0.0000 -0.0039
    15. (0.99986) LP ( 1) P   2           s( 96.40%)p 0.04(  3.60%)d 0.00(  0.00%)
                                           -0.0000 -0.0000  0.9819  0.0008  0.0000
                                           -0.0000  0.0000  0.0000  0.0000  0.0000
                                            0.0000  0.0000  0.0000  0.0000  0.0000
                                            0.0000  0.0000  0.0000  0.0000 -0.0000
                                           -0.1895  0.0033  0.0042 -0.0025  0.0001
                                            0.0000  0.0000  0.0000  0.0000 -0.0039
    16. (0.00014) RY*( 1) P   1           s(  2.10%)p45.95( 96.29%)d 0.77(  1.62%)
                                           -0.0000  0.0000 -0.0005  0.1370 -0.0418
                                            0.0210 -0.0014 -0.0000 -0.0000 -0.0000
                                           -0.0000 -0.0000 -0.0000 -0.0000 -0.0000
                                           -0.0000 -0.0000 -0.0000 -0.0000 -0.0000
                                           -0.0170 -0.8783 -0.3968 -0.1834  0.0079
                                           -0.0000 -0.0000 -0.0000 -0.0000  0.1273
    17. (0.00000) RY*( 2) P   1           s( 99.78%)p 0.00(  0.22%)
    18. (0.00000) RY*( 3) P   1           s( 99.96%)p 0.00(  0.04%)d 0.00(  0.00%)
    19. (0.00000) RY*( 4) P   1           s(100.00%)p 0.00(  0.00%)d 0.00(  0.00%)
    20. (0.00000) RY*( 5) P   1           s(  0.00%)p 1.00(100.00%)d 0.00(  0.00%)
    21. (0.00000) RY*( 6) P   1           s(  0.00%)p 1.00(100.00%)
    22. (0.00000) RY*( 7) P   1           s(  0.00%)p 1.00(100.00%)
    23. (0.00000) RY*( 8) P   1           s(  0.00%)p 1.00(100.00%)
    24. (0.00000) RY*( 9) P   1           s(  0.00%)p 1.00(100.00%)d 0.00(  0.00%)
    25. (0.00000) RY*(10) P   1           s(  0.00%)p 1.00(100.00%)
    26. (0.00000) RY*(11) P   1           s(  0.00%)p 1.00(100.00%)
    27. (0.00000) RY*(12) P   1           s(  0.00%)p 1.00(100.00%)
    28. (0.00000) RY*(13) P   1           s( 97.61%)p 0.02(  2.39%)d 0.00(  0.00%)
    29. (0.00000) RY*(14) P   1           s(  0.44%)p99.99( 99.56%)d 0.00(  0.00%)
    30. (0.00000) RY*(15) P   1           s(  0.08%)p99.99( 99.92%)d 0.00(  0.00%)
    31. (0.00000) RY*(16) P   1           s(  0.00%)p 1.00(100.00%)d 0.00(  0.00%)
    32. (0.00000) RY*(17) P   1           s(  0.00%)p 0.00(  0.00%)d 1.00(100.00%)
    33. (0.00000) RY*(18) P   1           s(  0.00%)p 1.00(  0.05%)d99.99( 99.95%)
    34. (0.00000) RY*(19) P   1           s(  0.00%)p 1.00(  0.05%)d99.99( 99.95%)
    35. (0.00000) RY*(20) P   1           s(  0.00%)p 0.00(  0.00%)d 1.00(100.00%)
    36. (0.00000) RY*(21) P   1           s(  0.03%)p49.50(  1.72%)d99.99( 98.25%)
    37. (0.00014) RY*( 1) P   2           s(  2.10%)p45.95( 96.29%)d 0.77(  1.62%)
                                           -0.0000  0.0000 -0.0005  0.1370 -0.0418
                                            0.0210 -0.0014  0.0000  0.0000  0.0000
                                            0.0000  0.0000  0.0000  0.0000  0.0000
                                            0.0000  0.0000  0.0000  0.0000 -0.0000
                                            0.0170  0.8783  0.3968  0.1834 -0.0079
                                            0.0000  0.0000  0.0000  0.0000  0.1273
    38. (0.00000) RY*( 2) P   2           s( 99.78%)p 0.00(  0.22%)
    39. (0.00000) RY*( 3) P   2           s( 99.96%)p 0.00(  0.04%)d 0.00(  0.00%)
    40. (0.00000) RY*( 4) P   2           s(100.00%)p 0.00(  0.00%)d 0.00(  0.00%)
    41. (0.00000) RY*( 5) P   2           s(  0.00%)p 1.00(100.00%)d 0.00(  0.00%)
    42. (0.00000) RY*( 6) P   2           s(  0.00%)p 1.00(100.00%)
    43. (0.00000) RY*( 7) P   2           s(  0.00%)p 1.00(100.00%)
    44. (0.00000) RY*( 8) P   2           s(  0.00%)p 1.00(100.00%)
    45. (0.00000) RY*( 9) P   2           s(  0.00%)p 1.00(100.00%)d 0.00(  0.00%)
    46. (0.00000) RY*(10) P   2           s(  0.00%)p 1.00(100.00%)
    47. (0.00000) RY*(11) P   2           s(  0.00%)p 1.00(100.00%)
    48. (0.00000) RY*(12) P   2           s(  0.00%)p 1.00(100.00%)
    49. (0.00000) RY*(13) P   2           s( 97.61%)p 0.02(  2.39%)d 0.00(  0.00%)
    50. (0.00000) RY*(14) P   2           s(  0.44%)p99.99( 99.56%)d 0.00(  0.00%)
    51. (0.00000) RY*(15) P   2           s(  0.08%)p99.99( 99.92%)d 0.00(  0.00%)
    52. (0.00000) RY*(16) P   2           s(  0.00%)p 1.00(100.00%)d 0.00(  0.00%)
    53. (0.00000) RY*(17) P   2           s(  0.00%)p 0.00(  0.00%)d 1.00(100.00%)
    54. (0.00000) RY*(18) P   2           s(  0.00%)p 1.00(  0.05%)d99.99( 99.95%)
    55. (0.00000) RY*(19) P   2           s(  0.00%)p 1.00(  0.05%)d99.99( 99.95%)
    56. (0.00000) RY*(20) P   2           s(  0.00%)p 0.00(  0.00%)d 1.00(100.00%)
    57. (0.00000) RY*(21) P   2           s(  0.03%)p49.50(  1.72%)d99.99( 98.25%)
    58. (0.00001) BD*( 1) P   1 - P   2  
                ( 50.00%)   0.7071* P   1 s(  3.60%)p26.75( 96.27%)d 0.04(  0.13%)
                ( 50.00%)  -0.7071* P   2 s(  3.60%)p26.75( 96.27%)d 0.04(  0.13%)
    59. (0.00000) BD*( 2) P   1 - P   2  
                ( 50.00%)   0.7071* P   1 s(  0.00%)p 1.00( 99.95%)d 0.00(  0.05%)
                ( 50.00%)  -0.7071* P   2 s(  0.00%)p 1.00( 99.95%)d 0.00(  0.05%)
    60. (0.00000) BD*( 3) P   1 - P   2  
                ( 50.00%)   0.7071* P   1 s(  0.00%)p 1.00( 99.95%)d 0.00(  0.05%)
                ( 50.00%)  -0.7071* P   2 s(  0.00%)p 1.00( 99.95%)d 0.00(  0.05%)


 NHO Directionality and "Bond Bending" (deviations from line of nuclear centers)

         [Thresholds for printing:  angular deviation  >  1.0 degree]
                                    hybrid p-character > 25.0%
                                    orbital occupancy  >  0.10e

                                Line of Centers        Hybrid 1              Hybrid 2
                                ---------------  -------------------   ------------------
                NBO               Theta   Phi    Theta   Phi    Dev    Theta   Phi    Dev
 ========================================================================================
     2. BD (   2) P   1 - P   2   180.0    0.0    90.0    0.0  90.0     90.0    0.0  90.0
     3. BD (   3) P   1 - P   2   180.0    0.0    90.0   90.0  90.0     90.0   90.0  90.0


 Second Order Perturbation Theory Analysis of Fock Matrix in NBO Basis

     Threshold for printing:   0.25 kcal/mol
                                                                              E(2)  E(j)-E(i) F(i,j)
         Donor NBO (i)                     Acceptor NBO (j)                 kcal/mol   a.u.    a.u. 
 ===================================================================================================

 within unit  1
       None above threshold


 Natural Bond Orbitals (Summary):

                                                            Principal Delocalizations
           NBO                        Occupancy    Energy   (geminal,vicinal,remote)
 ====================================================================================
 Molecular unit  1  (P2)
     1. BD (   1) P   1 - P   2          1.00000    -0.36504   
     2. BD (   2) P   1 - P   2          1.00000    -0.27510   
     3. BD (   3) P   1 - P   2          1.00000    -0.27510   
     4. CR (   1) P   1                  1.00000   -77.31015   
     5. CR (   2) P   1                  0.99999    -7.64888   
     6. CR (   3) P   1                  1.00000    -5.04421   
     7. CR (   4) P   1                  1.00000    -5.04421   
     8. CR (   5) P   1                  0.99999    -5.04331   
     9. CR (   1) P   2                  1.00000   -77.31015   
    10. CR (   2) P   2                  0.99999    -7.64888   
    11. CR (   3) P   2                  1.00000    -5.04421   
    12. CR (   4) P   2                  1.00000    -5.04421   
    13. CR (   5) P   2                  0.99999    -5.04331   
    14. LP (   1) P   1                  0.99986    -0.69897   
    15. LP (   1) P   2                  0.99986    -0.69897   
    16. RY*(   1) P   1                  0.00014     0.31799   
    17. RY*(   2) P   1                  0.00000     6.35255   
    18. RY*(   3) P   1                  0.00000     5.94277   
    19. RY*(   4) P   1                  0.00000   157.87550   
    20. RY*(   5) P   1                  0.00000     0.08999   
    21. RY*(   6) P   1                  0.00000     0.46955   
    22. RY*(   7) P   1                  0.00000     1.90381   
    23. RY*(   8) P   1                  0.00000    13.36928   
    24. RY*(   9) P   1                  0.00000     0.08999   
    25. RY*(  10) P   1                  0.00000     0.46955   
    26. RY*(  11) P   1                  0.00000     1.90381   
    27. RY*(  12) P   1                  0.00000    13.36928   
    28. RY*(  13) P   1                  0.00000     0.19307   
    29. RY*(  14) P   1                  0.00000     0.40485   
    30. RY*(  15) P   1                  0.00000     1.79497   
    31. RY*(  16) P   1                  0.00000    13.38392   
    32. RY*(  17) P   1                  0.00000     0.69147   
    33. RY*(  18) P   1                  0.00000     0.69618   
    34. RY*(  19) P   1                  0.00000     0.69618   
    35. RY*(  20) P   1                  0.00000     0.69146   
    36. RY*(  21) P   1                  0.00000     0.70973   
    37. RY*(   1) P   2                  0.00014     0.31799   
    38. RY*(   2) P   2                  0.00000     6.35255   
    39. RY*(   3) P   2                  0.00000     5.94277   
    40. RY*(   4) P   2                  0.00000   157.87550   
    41. RY*(   5) P   2                  0.00000     0.08999   
    42. RY*(   6) P   2                  0.00000     0.46955   
    43. RY*(   7) P   2                  0.00000     1.90381   
    44. RY*(   8) P   2                  0.00000    13.36928   
    45. RY*(   9) P   2                  0.00000     0.08999   
    46. RY*(  10) P   2                  0.00000     0.46955   
    47. RY*(  11) P   2                  0.00000     1.90381   
    48. RY*(  12) P   2                  0.00000    13.36928   
    49. RY*(  13) P   2                  0.00000     0.19307   
    50. RY*(  14) P   2                  0.00000     0.40485   
    51. RY*(  15) P   2                  0.00000     1.79497   
    52. RY*(  16) P   2                  0.00000    13.38392   
    53. RY*(  17) P   2                  0.00000     0.69147   
    54. RY*(  18) P   2                  0.00000     0.69618   
    55. RY*(  19) P   2                  0.00000     0.69618   
    56. RY*(  20) P   2                  0.00000     0.69146   
    57. RY*(  21) P   2                  0.00000     0.70973   
    58. BD*(   1) P   1 - P   2          0.00001    -0.07142   
    59. BD*(   2) P   1 - P   2          0.00000    -0.14395   
    60. BD*(   3) P   1 - P   2          0.00000    -0.14395   
       -------------------------------
              Total Lewis   14.99968  ( 99.9979%)
        Valence non-Lewis    0.00002  (  0.0001%)
        Rydberg non-Lewis    0.00030  (  0.0020%)
       -------------------------------
            Total unit  1   15.00000  (100.0000%)
           Charge unit  1    0.00000
 Sorting of NBOs:                    9    4    5   10    6    7   12   11    8   13
 Sorting of NBOs:                   14   15    1    2    3   59   60   58   24   20
 Sorting of NBOs:                   45   41   28   49   16   37   29   50   25   21
 Sorting of NBOs:                   46   42   56   35   32   53   55   34   54   33
 Sorting of NBOs:                   36   57   30   51   26   22   47   43   39   18
 Sorting of NBOs:                   38   17   44   48   23   27   52   31   19   40
 Reordering of NBOs for storage:     9    4    5   10    6    7   12   11    8   13
 Reordering of NBOs for storage:    14   15    1    2    3   59   60   58   24   20
 Reordering of NBOs for storage:    45   41   28   49   16   37   29   50   25   21
 Reordering of NBOs for storage:    46   42   56   35   32   53   55   34   54   33
 Reordering of NBOs for storage:    36   57   30   51   26   22   47   43   39   18
 Reordering of NBOs for storage:    38   17   44   48   23   27   52   31   19   40
 Labels of output orbitals:  CR  CR  CR  CR  CR  CR  CR  CR  CR  CR  LP  LP  BD  BD  BD  BD* BD* BD* RY* RY* 
 Labels of output orbitals:  RY* RY* RY* RY* RY* RY* RY* RY* RY* RY* RY* RY* RY* RY* RY* RY* RY* RY* RY* RY* 
 Labels of output orbitals:  RY* RY* RY* RY* RY* RY* RY* RY* RY* RY* RY* RY* RY* RY* RY* RY* RY* RY* RY* RY* 
 GSVD:  LWork=       -2385 too small for GESVD, short by       10800 words or       10800 for optimal perf.
 Leave Link  607 at Mon Apr 21 21:21:33 2025, MaxMem=   536870912 cpu:               5.2 elap:               0.9
 (Enter /home/szhao/Apps/g16/l701.exe)
 ... and contract with generalized density number  0.
 Compute integral first derivatives.
 Leave Link  701 at Mon Apr 21 21:21:34 2025, MaxMem=   536870912 cpu:               1.3 elap:               0.2
 (Enter /home/szhao/Apps/g16/l702.exe)
 L702 exits ... SP integral derivatives will be done elsewhere.
 Leave Link  702 at Mon Apr 21 21:21:35 2025, MaxMem=   536870912 cpu:               0.6 elap:               0.1
 (Enter /home/szhao/Apps/g16/l703.exe)
 Integral derivatives from FoFJK, PRISM(SPDF).
 Compute integral first derivatives, UseDBF=F ICtDFT=           0.
 Calling FoFJK, ICntrl=      2127 FMM=F ISym2X=1 I1Cent= 0 IOpClX= 1 NMat=1 NMatS=1 NMatT=0.
 FoFJK:  IHMeth= 1 ICntrl=    2127 DoSepK=F KAlg= 0 I1Cent=           0 FoldK=F
 IRaf=         0 NMat=       1 IRICut=       1 DoRegI=T DoRafI=F ISym2E= 1 IDoP0=0 IntGTp=1.
 FoFCou: FMM=F IPFlag=           0 FMFlag=      100000 FMFlg1=         800
         NFxFlg=           0 DoJE=F BraDBF=F KetDBF=F FulRan=T
         wScrn=  0.000000 ICntrl=      2127 IOpCl=  1 I1Cent=           0 NGrid=           0
         NMat0=    1 NMatS0=      1 NMatT0=    0 NMatD0=    1 NMtDS0=    0 NMtDT0=    0
 Petite list used in FoFCou.
 Leave Link  703 at Mon Apr 21 21:21:35 2025, MaxMem=   536870912 cpu:               2.6 elap:               0.4
 (Enter /home/szhao/Apps/g16/l716.exe)
 Dipole        = 7.39557099D-31-2.53701148D-33 2.66453526D-15
 ***** Axes restored to original set *****
 -------------------------------------------------------------------
 Center     Atomic                   Forces (Hartrees/Bohr)
 Number     Number              X              Y              Z
 -------------------------------------------------------------------
      1       15           0.111462455   -0.000000000    0.000000000
      2       15          -0.111462455    0.000000000   -0.000000000
 -------------------------------------------------------------------
 Cartesian Forces:  Max     0.111462455 RMS     0.064352878
 Z-matrix is all fixed cartesians, so copy forces.
 Force constants in Cartesian coordinates: 
                1             2             3             4             5 
      1  0.453579D-01
      2  0.000000D+00  0.100000D+01
      3  0.000000D+00  0.000000D+00  0.100000D+01
      4 -0.453579D-01  0.000000D+00  0.000000D+00  0.453579D-01
      5  0.000000D+00  0.000000D+00  0.000000D+00  0.000000D+00  0.100000D+01
      6  0.000000D+00  0.000000D+00  0.000000D+00  0.000000D+00  0.000000D+00
                6 
      6  0.100000D+01
 Leave Link  716 at Mon Apr 21 21:21:36 2025, MaxMem=   536870912 cpu:               1.1 elap:               0.3
 (Enter /home/szhao/Apps/g16/l103.exe)

 GradGradGradGradGradGradGradGradGradGradGradGradGradGradGradGradGradGrad
 Berny optimization.
 Search for a local minimum.
 Step number   1 out of a maximum of    2
 All quantities printed in internal units (Hartrees-Bohrs-Radians)
 Second derivative matrix not updated -- first step.
 The second derivative matrix:
                          X1        Y1        Z1        X2        Y2
           X1           0.04536
           Y1           0.00000   1.00000
           Z1           0.00000   0.00000   1.00000
           X2          -0.04536   0.00000  -0.00000   0.04536
           Y2           0.00000   0.00000   0.00000   0.00000   1.00000
           Z2          -0.00000   0.00000  -0.00000   0.00000   0.00000
                          Z2
           Z2           1.00000
 ITU=  0
     Eigenvalues ---    0.09072
 Quadratic step=1.738D+00 exceeds max=3.000D-01 adjusted using Lamda=-4.347D-01.
 Angle between NR and scaled steps=   0.00 degrees.
 Angle between quadratic step and forces=   0.00 degrees.
 ClnCor:  largest displacement from symmetrization is 1.30D-17 for atom     1.
 Linear search not attempted -- first point.
 ClnCor:  largest displacement from symmetrization is 4.93D-32 for atom     2.
 B after Tr=     0.000000    0.000000    0.000000
         Rot=    1.000000    0.000000    0.000000    0.000000 Ang=   0.00 deg.
 Variable       Old X    -DE/DX   Delta X   Delta X   Delta X     New X
                                 (Linear)    (Quad)   (Total)
    X1       -2.71836   0.11146   0.00000   0.21214   0.21214  -2.50622
    Y1        0.00000  -0.00000   0.00000   0.00000   0.00000   0.00000
    Z1        0.00000   0.00000   0.00000   0.00000   0.00000   0.00000
    X2        2.71836  -0.11146   0.00000  -0.21214  -0.21214   2.50622
    Y2        0.00000   0.00000   0.00000   0.00000   0.00000   0.00000
    Z2        0.00000  -0.00000   0.00000  -0.00000  -0.00000   0.00000
         Item               Value     Threshold  Converged?
 Maximum Force            0.111462     0.000450     NO 
 RMS     Force            0.064353     0.000300     NO 
 Maximum Displacement     0.212145     0.001800     NO 
 RMS     Displacement     0.122482     0.001200     NO 
 Predicted change in Energy=-4.320965D-02
 GradGradGradGradGradGradGradGradGradGradGradGradGradGradGradGradGradGrad

 Leave Link  103 at Mon Apr 21 21:21:36 2025, MaxMem=   536870912 cpu:               0.4 elap:               0.1
 (Enter /home/szhao/Apps/g16/l9999.exe)
 1\1\GINC-NODE05\Force\UM062X\6-311+G(d,p)\P2\SZHAO\21-Apr-2025\0\\#p U
 M062X/6-311+G** force int=superfine pop=saveNBO\\Title Card Required\\
 0,1\P,-1.438495,0.,0.\P,1.438495,0.,0.\\Version=ES64L-G16RevA.03\State
 =1-SGG\HF=-682.44683\S2=0.\S2-1=0.\S2A=0.\RMSD=5.596e-09\RMSF=6.435e-0
 2\Dipole=0.,0.,0.\Quadrupole=1.9939548,-0.9969774,-0.9969774,0.,0.,0.\
 PG=D*H [C*(P1.P1)]\\@


 FROM WHENCE IT HAPPENS, THAT THEY WHICH TRUST TO BOOKS, DO AS THEY THAT CAST UP MANY LITTLE SUMMS INTO GREATER,
 WITHOUT CONSIDERING WETHER THOSE LITTLE SUMMES WERE RIGHTLY CAST UP OR NOT...
 AND AT LAST FINDING THE ERROUR VISIBLE, AND NOT MISTRUSTING THEIR FIRST GROUNDS,
 KNOW NOT WHICH WAY TO CLEERE THEMSELVES...
 BUT SPEND TIME IN FLUTTERING OVER THEIR BOOKES....
 AS BIRDS THAT ENTERING BY THE CHIMNEY, AND FINDING THEMSELVES INCLOSED IN A CHAMBER,
 FLUTTER AT THE FALSE LIGHT OF A GLASSE WINDOW,
 FOR WANT OF WIT TO CONSIDER WHICH WAY THEY CAME IN....
           LEVIATHAN
 Job cpu time:       0 days  0 hours  0 minutes 35.1 seconds.
 Elapsed time:       0 days  0 hours  0 minutes  5.9 seconds.
 File lengths (MBytes):  RWF=     17 Int=      0 D2E=      0 Chk=      2 Scr=      2
 Normal termination of Gaussian 16 at Mon Apr 21 21:21:37 2025.
