 Entering Gaussian System, Link 0=g16
 Initial command:
 /home/szhao/Apps/g16/l1.exe "/home/szhao/tmp/Gau-11586.inp" -scrdir="/home/szhao/tmp/"
 Default is to use a total of  16 processors:
                               16 via shared-memory
                                1 via Linda
 Entering Link 1 = /home/szhao/Apps/g16/l1.exe PID=     11587.
  
 Copyright (c) 1988,1990,1992,1993,1995,1998,2003,2009,2016,
            Gaussian, Inc.  All Rights Reserved.
  
 This is part of the Gaussian(R) 16 program.  It is based on
 the Gaussian(R) 09 system (copyright 2009, Gaussian, Inc.),
 the Gaussian(R) 03 system (copyright 2003, Gaussian, Inc.),
 the Gaussian(R) 98 system (copyright 1998, Gaussian, Inc.),
 the Gaussian(R) 94 system (copyright 1995, Gaussian, Inc.),
 the Gaussian 92(TM) system (copyright 1992, Gaussian, Inc.),
 the Gaussian 90(TM) system (copyright 1990, Gaussian, Inc.),
 the Gaussian 88(TM) system (copyright 1988, Gaussian, Inc.),
 the Gaussian 86(TM) system (copyright 1986, Carnegie Mellon
 University), and the Gaussian 82(TM) system (copyright 1983,
 Carnegie Mellon University). Gaussian is a federally registered
 trademark of Gaussian, Inc.
  
 This software contains proprietary and confidential information,
 including trade secrets, belonging to Gaussian, Inc.
  
 This software is provided under written license and may be
 used, copied, transmitted, or stored only in accord with that
 written license.
  
 The following legend is applicable only to US Government
 contracts under FAR:
  
                    RESTRICTED RIGHTS LEGEND
  
 Use, reproduction and disclosure by the US Government is
 subject to restrictions as set forth in subparagraphs (a)
 and (c) of the Commercial Computer Software - Restricted
 Rights clause in FAR 52.227-19.
  
 Gaussian, Inc.
 340 Quinnipiac St., Bldg. 40, Wallingford CT 06492
  
  
 ---------------------------------------------------------------
 Warning -- This program may not be used in any manner that
 competes with the business of Gaussian, Inc. or will provide
 assistance to any competitor of Gaussian, Inc.  The licensee
 of this program is prohibited from giving any competitor of
 Gaussian, Inc. access to this program.  By using this program,
 the user acknowledges that Gaussian, Inc. is engaged in the
 business of creating and licensing software in the field of
 computational chemistry and represents and warrants to the
 licensee that it is not a competitor of Gaussian, Inc. and that
 it will not use this program in any manner prohibited above.
 ---------------------------------------------------------------
  

 Cite this work as:
 Gaussian 16, Revision A.03,
 M. J. Frisch, G. W. Trucks, H. B. Schlegel, G. E. Scuseria, 
 M. A. Robb, J. R. Cheeseman, G. Scalmani, V. Barone, 
 G. A. Petersson, H. Nakatsuji, X. Li, M. Caricato, A. V. Marenich, 
 J. Bloino, B. G. Janesko, R. Gomperts, B. Mennucci, H. P. Hratchian, 
 J. V. Ortiz, A. F. Izmaylov, J. L. Sonnenberg, D. Williams-Young, 
 F. Ding, F. Lipparini, F. Egidi, J. Goings, B. Peng, A. Petrone, 
 T. Henderson, D. Ranasinghe, V. G. Zakrzewski, J. Gao, N. Rega, 
 G. Zheng, W. Liang, M. Hada, M. Ehara, K. Toyota, R. Fukuda, 
 J. Hasegawa, M. Ishida, T. Nakajima, Y. Honda, O. Kitao, H. Nakai, 
 T. Vreven, K. Throssell, J. A. Montgomery, Jr., J. E. Peralta, 
 F. Ogliaro, M. J. Bearpark, J. J. Heyd, E. N. Brothers, K. N. Kudin, 
 V. N. Staroverov, T. A. Keith, R. Kobayashi, J. Normand, 
 K. Raghavachari, A. P. Rendell, J. C. Burant, S. S. Iyengar, 
 J. Tomasi, M. Cossi, J. M. Millam, M. Klene, C. Adamo, R. Cammi, 
 J. W. Ochterski, R. L. Martin, K. Morokuma, O. Farkas, 
 J. B. Foresman, and D. J. Fox, Gaussian, Inc., Wallingford CT, 2016.
 
 ******************************************
 Gaussian 16:  ES64L-G16RevA.03 25-Dec-2016
                21-Apr-2025 
 ******************************************
 %chk=opt.chk
 %mem=4GB
 %nprocshared=8
 Will use up to    8 processors via shared memory.
 --------------------------------------------
 #p opt UM062X/6-311+G** nosymm int=superfine
 --------------------------------------------
 1/18=20,19=15,26=5,38=1/1,3;
 2/9=110,12=2,15=1,17=6,18=5,40=1/2;
 3/5=4,6=6,7=111,11=2,25=1,30=1,71=1,74=-55,75=-7,116=2/1,2,3;
 4//1;
 5/5=2,38=5/2;
 6/7=2,8=2,9=2,10=2,28=1/1;
 7/30=1/1,2,3,16;
 1/18=20,19=15,26=5/3(2);
 2/9=110,15=1/2;
 99//99;
 2/9=110,15=1/2;
 3/5=4,6=6,7=111,11=2,25=1,30=1,71=1,74=-55,75=-7,116=2/1,2,3;
 4/5=5,16=3,69=1/1;
 5/5=2,38=5/2;
 7/30=1/1,2,3,16;
 1/18=20,19=15,26=5/3(-5);
 2/9=110,15=1/2;
 6/7=2,8=2,9=2,10=2,19=2,28=1/1;
 99/9=1/99;
 Leave Link    1 at Mon Apr 21 19:10:20 2025, MaxMem=   536870912 cpu:               1.2 elap:               0.1
 (Enter /home/szhao/Apps/g16/l101.exe)
 -------------------
 Title Card Required
 -------------------
 Symbolic Z-matrix:
 Charge =  0 Multiplicity = 1
 C                    -1   -0.90545   0.        0. 
 P                    -1    0.90545   0.        0. 
 H                    0    -1.5263   -0.88884   0. 
 H                    0     1.08587  -1.41088   0.00126 
 H                    0    -1.43844   0.94545   0.00009 
 
 ITRead=  2  2  0  0  0
 MicOpt= -2 -2 -1 -1 -1
 NAtoms=      5 NQM=        3 NQMF=       2 NMMI=      0 NMMIF=      0
                NMic=       0 NMicF=      0.
                    Isotopes and Nuclear Properties:
 (Nuclear quadrupole moments (NQMom) in fm**2, nuclear magnetic moments (NMagM)
  in nuclear magnetons)

  Atom         1           2           3           4           5
 IAtWgt=          12          31           1           1           1
 AtmWgt=  12.0000000  30.9737634   1.0078250   1.0078250   1.0078250
 NucSpn=           0           1           1           1           1
 AtZEff=  -0.0000000  -0.0000000  -0.0000000  -0.0000000  -0.0000000
 NQMom=    0.0000000   0.0000000   0.0000000   0.0000000   0.0000000
 NMagM=    0.0000000   1.1316000   2.7928460   2.7928460   2.7928460
 AtZNuc=   6.0000000  15.0000000   1.0000000   1.0000000   1.0000000
 Leave Link  101 at Mon Apr 21 19:10:21 2025, MaxMem=   536870912 cpu:               2.7 elap:               0.4
 (Enter /home/szhao/Apps/g16/l103.exe)

 GradGradGradGradGradGradGradGradGradGradGradGradGradGradGradGradGradGrad
 Berny optimization.
 Initialization pass.
                           ----------------------------
                           !    Initial Parameters    !
                           ! (Angstroms and Degrees)  !
 --------------------------                            --------------------------
 ! Name  Definition              Value          Derivative Info.                !
 --------------------------------------------------------------------------------
 ! X1    R(1,-1)                -0.9055         Frozen                          !
 ! Y1    R(1,-2)                 0.0            Frozen                          !
 ! Z1    R(1,-3)                 0.0            Frozen                          !
 ! X2    R(2,-1)                 0.9055         Frozen                          !
 ! Y2    R(2,-2)                 0.0            Frozen                          !
 ! Z2    R(2,-3)                 0.0            Frozen                          !
 ! R1    R(1,3)                  1.0842         estimate D2E/DX2                !
 ! R2    R(1,5)                  1.0853         estimate D2E/DX2                !
 ! R3    R(2,4)                  1.4224         estimate D2E/DX2                !
 ! A1    A(2,1,3)              124.9341         estimate D2E/DX2                !
 ! A2    A(2,1,5)              119.4114         estimate D2E/DX2                !
 ! A3    A(3,1,5)              115.6545         estimate D2E/DX2                !
 ! A4    A(1,2,4)               97.2872         estimate D2E/DX2                !
 ! D1    D(3,1,2,4)             -0.0512         estimate D2E/DX2                !
 ! D2    D(5,1,2,4)            179.9435         estimate D2E/DX2                !
 --------------------------------------------------------------------------------
 Trust Radius=3.00D-01 FncErr=1.00D-07 GrdErr=1.00D-07 EigMax=2.50D+02 EigMin=1.00D-04
 Number of steps in this run=     25 maximum allowed number of steps=    100.
 GradGradGradGradGradGradGradGradGradGradGradGradGradGradGradGradGradGrad

 Leave Link  103 at Mon Apr 21 19:10:21 2025, MaxMem=   536870912 cpu:               0.2 elap:               0.1
 (Enter /home/szhao/Apps/g16/l202.exe)
                          Input orientation:                          
 ---------------------------------------------------------------------
 Center     Atomic      Atomic             Coordinates (Angstroms)
 Number     Number       Type             X           Y           Z
 ---------------------------------------------------------------------
      1          6           0       -0.905452    0.000000    0.000000
      2         15           0        0.905452    0.000000    0.000000
      3          1           0       -1.526304   -0.888844    0.000000
      4          1           0        1.085870   -1.410879    0.001261
      5          1           0       -1.438438    0.945455    0.000087
 ---------------------------------------------------------------------
                    Distance matrix (angstroms):
                    1          2          3          4          5
     1  C    0.000000
     2  P    1.810905   0.000000
     3  H    1.084205   2.589109   0.000000
     4  H    2.440481   1.422369   2.663828   0.000000
     5  H    1.085338   2.527391   1.836402   3.453179   0.000000
 Symmetry turned off by external request.
 Stoichiometry    CH3P
 Framework group  C1[X(CH3P)]
 Deg. of freedom     9
 Full point group                 C1      NOp   1
 Rotational constants (GHZ):         139.3938300          14.1126368          12.8151903
 Leave Link  202 at Mon Apr 21 19:10:21 2025, MaxMem=   536870912 cpu:               0.4 elap:               0.1
 (Enter /home/szhao/Apps/g16/l301.exe)
 Standard basis: 6-311+G(d,p) (5D, 7F)
 Ernie: Thresh=  0.10000D-02 Tol=  0.10000D-05 Strict=F.
    70 basis functions,   110 primitive gaussians,    72 cartesian basis functions
    12 alpha electrons       12 beta electrons
       nuclear repulsion energy        45.8815044254 Hartrees.
 IExCor= 4336 DFT=T Ex+Corr=M062X ExCW=0 ScaHFX=  0.540000
 ScaDFX=  1.000000  1.000000  1.000000  1.000000 ScalE2=  1.000000  1.000000
 IRadAn=      7 IRanWt=     -1 IRanGd=            0 ICorTp=0 IEmpDi=  4
 NAtoms=    5 NActive=    5 NUniq=    5 SFac= 1.00D+00 NAtFMM=   60 NAOKFM=F Big=F
 Integral buffers will be    131072 words long.
 Raffenetti 2 integral format.
 Two-electron integral symmetry is turned off.
 Leave Link  301 at Mon Apr 21 19:10:21 2025, MaxMem=   536870912 cpu:               1.0 elap:               0.2
 (Enter /home/szhao/Apps/g16/l302.exe)
 NPDir=0 NMtPBC=     1 NCelOv=     1 NCel=       1 NClECP=     1 NCelD=      1
         NCelK=      1 NCelE2=     1 NClLst=     1 CellRange=     0.0.
 One-electron integrals computed using PRISM.
 NBasis=    70 RedAO= T EigKep=  1.64D-03  NBF=    70
 NBsUse=    70 1.00D-06 EigRej= -1.00D+00 NBFU=    70
 Precomputing XC quadrature grid using
 IXCGrd= 4 IRadAn=           7 IRanWt=          -1 IRanGd=           0 AccXCQ= 0.00D+00.
 Generated NRdTot=       0 NPtTot=           0 NUsed=           0 NTot=          32
 NSgBfM=    72    72    72    72    72 MxSgAt=     5 MxSgA2=     5.
 Leave Link  302 at Mon Apr 21 19:10:22 2025, MaxMem=   536870912 cpu:               2.3 elap:               0.3
 (Enter /home/szhao/Apps/g16/l303.exe)
 DipDrv:  MaxL=1.
 Leave Link  303 at Mon Apr 21 19:10:22 2025, MaxMem=   536870912 cpu:               0.4 elap:               0.1
 (Enter /home/szhao/Apps/g16/l401.exe)
 ExpMin= 3.48D-02 ExpMax= 7.75D+04 ExpMxC= 2.65D+03 IAcc=3 IRadAn=         7 AccDes= 0.00D+00
 Harris functional with IExCor= 1009 and IRadAn=       7 diagonalized for initial guess.
 HarFok:  IExCor= 1009 AccDes= 0.00D+00 IRadAn=         7 IDoV= 1 UseB2=F ITyADJ=14
 ICtDFT=  3500011 ScaDFX=  1.000000  1.000000  1.000000  1.000000
 FoFCou: FMM=F IPFlag=           0 FMFlag=      100000 FMFlg1=           0
         NFxFlg=           0 DoJE=T BraDBF=F KetDBF=T FulRan=T
         wScrn=  0.000000 ICntrl=       500 IOpCl=  0 I1Cent=   200000004 NGrid=           0
         NMat0=    1 NMatS0=      1 NMatT0=    0 NMatD0=    1 NMtDS0=    0 NMtDT0=    0
 Symmetry not used in FoFCou.
 Harris En= -381.041753691275    
 JPrj=0 DoOrth=F DoCkMO=F.
 Initial guess <Sx>= 0.0000 <Sy>= 0.0000 <Sz>= 0.0000 <S**2>= 0.0000 S= 0.0000
 Leave Link  401 at Mon Apr 21 19:10:22 2025, MaxMem=   536870912 cpu:               3.4 elap:               0.5
 (Enter /home/szhao/Apps/g16/l502.exe)
 Keep R1 and R2 ints in memory in canonical form, NReq=13385587.
 FoFCou: FMM=F IPFlag=           0 FMFlag=           0 FMFlg1=           0
         NFxFlg=           0 DoJE=F BraDBF=F KetDBF=F FulRan=T
         wScrn=  0.000000 ICntrl=       600 IOpCl=  0 I1Cent=           0 NGrid=           0
         NMat0=    1 NMatS0=   2485 NMatT0=    0 NMatD0=    1 NMtDS0=    0 NMtDT0=    0
 Symmetry not used in FoFCou.
 Two-electron integral symmetry not used.
 UHF open shell SCF:
 Using DIIS extrapolation, IDIIS=  1040.
 NGot=   536870912 LenX=   530681581 LenY=   530675956
 Requested convergence on RMS density matrix=1.00D-08 within 128 cycles.
 Requested convergence on MAX density matrix=1.00D-06.
 Requested convergence on             energy=1.00D-06.
 No special actions if energy rises.

 Cycle   1  Pass 1  IDiag  1:
 E= -381.017497362806    
 DIIS: error= 5.45D-02 at cycle   1 NSaved=   1.
 NSaved= 1 IEnMin= 1 EnMin= -381.017497362806     IErMin= 1 ErrMin= 5.45D-02
 ErrMax= 5.45D-02  0.00D+00 EMaxC= 1.00D-01 BMatC= 6.71D-01 BMatP= 6.71D-01
 IDIUse=3 WtCom= 4.55D-01 WtEn= 5.45D-01
 Coeff-Com:  0.100D+01
 Coeff-En:   0.100D+01
 Coeff:      0.100D+01
 Gap=     0.348 Goal=   None    Shift=    0.000
 Gap=     0.348 Goal=   None    Shift=    0.000
 GapD=    0.348 DampG=1.000 DampE=0.500 DampFc=0.5000 IDamp=-1.
 Damping current iteration by 5.00D-01
 RMSDP=9.35D-03 MaxDP=2.11D-01              OVMax= 5.52D-01

 Cycle   2  Pass 1  IDiag  1:
 E= -381.066821715849     Delta-E=       -0.049324353043 Rises=F Damp=T
 DIIS: error= 1.51D-02 at cycle   2 NSaved=   2.
 NSaved= 2 IEnMin= 2 EnMin= -381.066821715849     IErMin= 2 ErrMin= 1.51D-02
 ErrMax= 1.51D-02  0.00D+00 EMaxC= 1.00D-01 BMatC= 6.98D-02 BMatP= 6.71D-01
 IDIUse=3 WtCom= 8.49D-01 WtEn= 1.51D-01
 Coeff-Com:  0.163D+00 0.837D+00
 Coeff-En:   0.343D+00 0.657D+00
 Coeff:      0.190D+00 0.810D+00
 Gap=     0.291 Goal=   None    Shift=    0.000
 Gap=     0.291 Goal=   None    Shift=    0.000
 RMSDP=2.79D-03 MaxDP=4.96D-02 DE=-4.93D-02 OVMax= 3.64D-01

 Cycle   3  Pass 1  IDiag  1:
 E= -381.176616926133     Delta-E=       -0.109795210283 Rises=F Damp=F
 DIIS: error= 6.59D-03 at cycle   3 NSaved=   3.
 NSaved= 3 IEnMin= 3 EnMin= -381.176616926133     IErMin= 3 ErrMin= 6.59D-03
 ErrMax= 6.59D-03  0.00D+00 EMaxC= 1.00D-01 BMatC= 4.75D-03 BMatP= 6.98D-02
 IDIUse=3 WtCom= 9.34D-01 WtEn= 6.59D-02
 Coeff-Com: -0.111D-01 0.159D+00 0.852D+00
 Coeff-En:   0.000D+00 0.000D+00 0.100D+01
 Coeff:     -0.103D-01 0.148D+00 0.862D+00
 Gap=     0.251 Goal=   None    Shift=    0.000
 Gap=     0.251 Goal=   None    Shift=    0.000
 RMSDP=1.02D-03 MaxDP=2.75D-02 DE=-1.10D-01 OVMax= 4.72D-02

 Cycle   4  Pass 1  IDiag  1:
 E= -381.178473061166     Delta-E=       -0.001856135034 Rises=F Damp=F
 DIIS: error= 2.25D-03 at cycle   4 NSaved=   4.
 NSaved= 4 IEnMin= 4 EnMin= -381.178473061166     IErMin= 4 ErrMin= 2.25D-03
 ErrMax= 2.25D-03  0.00D+00 EMaxC= 1.00D-01 BMatC= 1.33D-03 BMatP= 4.75D-03
 IDIUse=3 WtCom= 9.78D-01 WtEn= 2.25D-02
 Coeff-Com:  0.147D-01-0.303D-01 0.208D+00 0.808D+00
 Coeff-En:   0.000D+00 0.000D+00 0.560D-01 0.944D+00
 Coeff:      0.144D-01-0.296D-01 0.205D+00 0.811D+00
 Gap=     0.255 Goal=   None    Shift=    0.000
 Gap=     0.255 Goal=   None    Shift=    0.000
 RMSDP=2.78D-04 MaxDP=6.44D-03 DE=-1.86D-03 OVMax= 6.92D-03

 Cycle   5  Pass 1  IDiag  1:
 E= -381.178877920901     Delta-E=       -0.000404859734 Rises=F Damp=F
 DIIS: error= 6.58D-04 at cycle   5 NSaved=   5.
 NSaved= 5 IEnMin= 5 EnMin= -381.178877920901     IErMin= 5 ErrMin= 6.58D-04
 ErrMax= 6.58D-04  0.00D+00 EMaxC= 1.00D-01 BMatC= 7.17D-05 BMatP= 1.33D-03
 IDIUse=3 WtCom= 9.93D-01 WtEn= 6.58D-03
 Coeff-Com:  0.751D-02-0.250D-01 0.250D-01 0.189D+00 0.803D+00
 Coeff-En:   0.000D+00 0.000D+00 0.000D+00 0.000D+00 0.100D+01
 Coeff:      0.746D-02-0.249D-01 0.249D-01 0.188D+00 0.804D+00
 Gap=     0.256 Goal=   None    Shift=    0.000
 Gap=     0.256 Goal=   None    Shift=    0.000
 RMSDP=6.11D-05 MaxDP=1.01D-03 DE=-4.05D-04 OVMax= 1.73D-03

 Cycle   6  Pass 1  IDiag  1:
 E= -381.178899733190     Delta-E=       -0.000021812289 Rises=F Damp=F
 DIIS: error= 1.49D-04 at cycle   6 NSaved=   6.
 NSaved= 6 IEnMin= 6 EnMin= -381.178899733190     IErMin= 6 ErrMin= 1.49D-04
 ErrMax= 1.49D-04  0.00D+00 EMaxC= 1.00D-01 BMatC= 7.55D-06 BMatP= 7.17D-05
 IDIUse=3 WtCom= 9.99D-01 WtEn= 1.49D-03
 Coeff-Com:  0.290D-03-0.810D-03-0.124D-01-0.859D-01 0.621D-02 0.109D+01
 Coeff-En:   0.000D+00 0.000D+00 0.000D+00 0.000D+00 0.000D+00 0.100D+01
 Coeff:      0.290D-03-0.808D-03-0.124D-01-0.858D-01 0.620D-02 0.109D+01
 Gap=     0.255 Goal=   None    Shift=    0.000
 Gap=     0.255 Goal=   None    Shift=    0.000
 RMSDP=3.37D-05 MaxDP=5.59D-04 DE=-2.18D-05 OVMax= 9.01D-04

 Cycle   7  Pass 1  IDiag  1:
 E= -381.178902744329     Delta-E=       -0.000003011140 Rises=F Damp=F
 DIIS: error= 2.30D-05 at cycle   7 NSaved=   7.
 NSaved= 7 IEnMin= 7 EnMin= -381.178902744329     IErMin= 7 ErrMin= 2.30D-05
 ErrMax= 2.30D-05  0.00D+00 EMaxC= 1.00D-01 BMatC= 1.97D-07 BMatP= 7.55D-06
 IDIUse=1 WtCom= 1.00D+00 WtEn= 0.00D+00
 Coeff-Com: -0.663D-04 0.411D-03-0.124D-02-0.131D-01-0.256D-01 0.335D-01
 Coeff-Com:  0.101D+01
 Coeff:     -0.663D-04 0.411D-03-0.124D-02-0.131D-01-0.256D-01 0.335D-01
 Coeff:      0.101D+01
 Gap=     0.255 Goal=   None    Shift=    0.000
 Gap=     0.255 Goal=   None    Shift=    0.000
 RMSDP=7.18D-06 MaxDP=1.08D-04 DE=-3.01D-06 OVMax= 1.84D-04

 Cycle   8  Pass 1  IDiag  1:
 E= -381.178902844358     Delta-E=       -0.000000100029 Rises=F Damp=F
 DIIS: error= 7.30D-06 at cycle   8 NSaved=   8.
 NSaved= 8 IEnMin= 8 EnMin= -381.178902844358     IErMin= 8 ErrMin= 7.30D-06
 ErrMax= 7.30D-06  0.00D+00 EMaxC= 1.00D-01 BMatC= 1.54D-08 BMatP= 1.97D-07
 IDIUse=1 WtCom= 1.00D+00 WtEn= 0.00D+00
 Coeff-Com:  0.224D-04 0.160D-04 0.786D-03 0.509D-02-0.305D-03-0.100D+00
 Coeff-Com:  0.188D+00 0.906D+00
 Coeff:      0.224D-04 0.160D-04 0.786D-03 0.509D-02-0.305D-03-0.100D+00
 Coeff:      0.188D+00 0.906D+00
 Gap=     0.255 Goal=   None    Shift=    0.000
 Gap=     0.255 Goal=   None    Shift=    0.000
 RMSDP=1.96D-06 MaxDP=3.57D-05 DE=-1.00D-07 OVMax= 4.42D-05

 Cycle   9  Pass 1  IDiag  1:
 E= -381.178902850927     Delta-E=       -0.000000006568 Rises=F Damp=F
 DIIS: error= 5.35D-07 at cycle   9 NSaved=   9.
 NSaved= 9 IEnMin= 9 EnMin= -381.178902850927     IErMin= 9 ErrMin= 5.35D-07
 ErrMax= 5.35D-07  0.00D+00 EMaxC= 1.00D-01 BMatC= 1.02D-10 BMatP= 1.54D-08
 IDIUse=1 WtCom= 1.00D+00 WtEn= 0.00D+00
 Coeff-Com:  0.566D-05-0.145D-04 0.534D-04 0.417D-03 0.496D-03-0.340D-02
 Coeff-Com: -0.187D-01 0.153D-01 0.101D+01
 Coeff:      0.566D-05-0.145D-04 0.534D-04 0.417D-03 0.496D-03-0.340D-02
 Coeff:     -0.187D-01 0.153D-01 0.101D+01
 Gap=     0.255 Goal=   None    Shift=    0.000
 Gap=     0.255 Goal=   None    Shift=    0.000
 RMSDP=2.60D-07 MaxDP=3.15D-06 DE=-6.57D-09 OVMax= 6.14D-06

 Cycle  10  Pass 1  IDiag  1:
 E= -381.178902850989     Delta-E=       -0.000000000062 Rises=F Damp=F
 DIIS: error= 1.22D-07 at cycle  10 NSaved=  10.
 NSaved=10 IEnMin=10 EnMin= -381.178902850989     IErMin=10 ErrMin= 1.22D-07
 ErrMax= 1.22D-07  0.00D+00 EMaxC= 1.00D-01 BMatC= 2.79D-12 BMatP= 1.02D-10
 IDIUse=1 WtCom= 1.00D+00 WtEn= 0.00D+00
 Coeff-Com: -0.121D-05 0.666D-06-0.116D-04-0.863D-04 0.562D-04 0.176D-02
 Coeff-Com: -0.215D-02-0.206D-01-0.327D-01 0.105D+01
 Coeff:     -0.121D-05 0.666D-06-0.116D-04-0.863D-04 0.562D-04 0.176D-02
 Coeff:     -0.215D-02-0.206D-01-0.327D-01 0.105D+01
 Gap=     0.255 Goal=   None    Shift=    0.000
 Gap=     0.255 Goal=   None    Shift=    0.000
 RMSDP=4.43D-08 MaxDP=6.81D-07 DE=-6.25D-11 OVMax= 8.39D-07

 Cycle  11  Pass 1  IDiag  1:
 E= -381.178902850991     Delta-E=       -0.000000000001 Rises=F Damp=F
 DIIS: error= 1.51D-08 at cycle  11 NSaved=  11.
 NSaved=11 IEnMin=11 EnMin= -381.178902850991     IErMin=11 ErrMin= 1.51D-08
 ErrMax= 1.51D-08  0.00D+00 EMaxC= 1.00D-01 BMatC= 6.80D-14 BMatP= 2.79D-12
 IDIUse=1 WtCom= 1.00D+00 WtEn= 0.00D+00
 Coeff-Com: -0.170D-06 0.249D-06-0.191D-05-0.702D-05-0.853D-06 0.338D-04
 Coeff-Com:  0.468D-03-0.105D-02-0.241D-01 0.818D-02 0.102D+01
 Coeff:     -0.170D-06 0.249D-06-0.191D-05-0.702D-05-0.853D-06 0.338D-04
 Coeff:      0.468D-03-0.105D-02-0.241D-01 0.818D-02 0.102D+01
 Gap=     0.255 Goal=   None    Shift=    0.000
 Gap=     0.255 Goal=   None    Shift=    0.000
 RMSDP=7.06D-09 MaxDP=1.14D-07 DE=-1.48D-12 OVMax= 1.48D-07

 SCF Done:  E(UM062X) =  -381.178902851     A.U. after   11 cycles
            NFock= 11  Conv=0.71D-08     -V/T= 2.0023
 <Sx>= 0.0000 <Sy>= 0.0000 <Sz>= 0.0000 <S**2>=-0.0000 S=-0.0000
 <L.S>=  0.00000000000    
 KE= 3.802988278159D+02 PE=-9.960932472858D+02 EE= 1.887340121935D+02
 Annihilation of the first spin contaminant:
 S**2 before annihilation    -0.0000,   after    -0.0000
 Leave Link  502 at Mon Apr 21 19:10:30 2025, MaxMem=   536870912 cpu:              52.8 elap:               6.9
 (Enter /home/szhao/Apps/g16/l601.exe)
 Copying SCF densities to generalized density rwf, IOpCl= 1 IROHF=0.

 **********************************************************************

            Population analysis using the SCF density.

 **********************************************************************

 Alpha  occ. eigenvalues --  -78.03562 -10.58082  -6.85908  -4.97447  -4.97400
 Alpha  occ. eigenvalues --   -4.97186  -0.80013  -0.64830  -0.51087  -0.43286
 Alpha  occ. eigenvalues --   -0.34286  -0.30826
 Alpha virt. eigenvalues --   -0.05315   0.01099   0.02878   0.04193   0.04975
 Alpha virt. eigenvalues --    0.06225   0.07904   0.09607   0.10931   0.14205
 Alpha virt. eigenvalues --    0.15519   0.19443   0.21271   0.30825   0.32897
 Alpha virt. eigenvalues --    0.35247   0.40087   0.44941   0.46957   0.58496
 Alpha virt. eigenvalues --    0.59556   0.63315   0.67661   0.68287   0.73087
 Alpha virt. eigenvalues --    0.81635   0.85856   0.90886   0.96882   1.10191
 Alpha virt. eigenvalues --    1.35801   1.41193   1.47025   1.49678   1.53868
 Alpha virt. eigenvalues --    1.56173   1.62319   1.65678   1.77485   1.80827
 Alpha virt. eigenvalues --    1.84669   1.95142   2.06483   2.17228   2.48590
 Alpha virt. eigenvalues --    2.53185   2.55000   2.64536   2.69137   2.80086
 Alpha virt. eigenvalues --    3.24845   3.74728   7.03289  14.00203  14.05930
 Alpha virt. eigenvalues --   14.11299  23.84470 163.29972
  Beta  occ. eigenvalues --  -78.03562 -10.58082  -6.85908  -4.97447  -4.97400
  Beta  occ. eigenvalues --   -4.97186  -0.80013  -0.64830  -0.51087  -0.43286
  Beta  occ. eigenvalues --   -0.34286  -0.30826
  Beta virt. eigenvalues --   -0.05315   0.01099   0.02878   0.04193   0.04975
  Beta virt. eigenvalues --    0.06225   0.07904   0.09607   0.10931   0.14205
  Beta virt. eigenvalues --    0.15519   0.19443   0.21271   0.30825   0.32897
  Beta virt. eigenvalues --    0.35247   0.40087   0.44941   0.46957   0.58496
  Beta virt. eigenvalues --    0.59556   0.63315   0.67661   0.68287   0.73087
  Beta virt. eigenvalues --    0.81635   0.85856   0.90886   0.96882   1.10191
  Beta virt. eigenvalues --    1.35801   1.41193   1.47025   1.49678   1.53868
  Beta virt. eigenvalues --    1.56173   1.62319   1.65678   1.77485   1.80827
  Beta virt. eigenvalues --    1.84669   1.95142   2.06483   2.17228   2.48590
  Beta virt. eigenvalues --    2.53185   2.55000   2.64536   2.69137   2.80086
  Beta virt. eigenvalues --    3.24845   3.74728   7.03289  14.00203  14.05930
  Beta virt. eigenvalues --   14.11299  23.84470 163.29972
          Condensed to atoms (all electrons):
               1          2          3          4          5
     1  C    5.353918   0.363055   0.382891  -0.045633   0.388612
     2  P    0.363055  14.312063  -0.016349   0.260570  -0.031824
     3  H    0.382891  -0.016349   0.486347  -0.010639  -0.024480
     4  H   -0.045633   0.260570  -0.010639   0.824915   0.005660
     5  H    0.388612  -0.031824  -0.024480   0.005660   0.479031
          Atomic-Atomic Spin Densities.
               1          2          3          4          5
     1  C    0.000000  -0.000000  -0.000000   0.000000   0.000000
     2  P   -0.000000   0.000000   0.000000  -0.000000  -0.000000
     3  H   -0.000000   0.000000   0.000000  -0.000000   0.000000
     4  H    0.000000  -0.000000  -0.000000   0.000000  -0.000000
     5  H    0.000000  -0.000000   0.000000  -0.000000  -0.000000
 Mulliken charges and spin densities:
               1          2
     1  C   -0.442843  -0.000000
     2  P    0.112485   0.000000
     3  H    0.182231   0.000000
     4  H   -0.034873   0.000000
     5  H    0.183000   0.000000
 Sum of Mulliken charges =  -0.00000   0.00000
 Mulliken charges and spin densities with hydrogens summed into heavy atoms:
               1          2
     1  C   -0.077613  -0.000000
     2  P    0.077613   0.000000
 Electronic spatial extent (au):  <R**2>=            140.8948
 Charge=             -0.0000 electrons
 Dipole moment (field-independent basis, Debye):
    X=             -0.6607    Y=             -0.6051    Z=              0.0003  Tot=              0.8959
 Quadrupole moment (field-independent basis, Debye-Ang):
   XX=            -19.7062   YY=            -20.0447   ZZ=            -22.6211
   XY=             -1.2784   XZ=              0.0004   YZ=             -0.0006
 Traceless Quadrupole moment (field-independent basis, Debye-Ang):
   XX=              1.0844   YY=              0.7460   ZZ=             -1.8304
   XY=             -1.2784   XZ=              0.0004   YZ=             -0.0006
 Octapole moment (field-independent basis, Debye-Ang**2):
  XXX=            -18.9740  YYY=              3.0011  ZZZ=             -0.0031  XYY=             -7.5673
  XXY=             -1.2385  XXZ=              0.0001  XZZ=             -4.4391  YZZ=              0.7430
  YYZ=             -0.0009  XYZ=             -0.0010
 Hexadecapole moment (field-independent basis, Debye-Ang**3):
 XXXX=           -143.1403 YYYY=            -45.0548 ZZZZ=            -34.5389 XXXY=             -0.0701
 XXXZ=             -0.0018 YYYX=              2.1342 YYYZ=              0.0024 ZZZX=             -0.0025
 ZZZY=              0.0034 XXYY=            -29.6658 XXZZ=            -30.8633 YYZZ=            -13.8348
 XXYZ=              0.0015 YYXZ=             -0.0010 ZZXY=              0.5956
 N-N= 4.588150442544D+01 E-N=-9.960932467091D+02  KE= 3.802988278159D+02
                          Isotropic Fermi Contact Couplings
        Atom                 a.u.       MegaHertz       Gauss      10(-4) cm-1
     1  C(13)             -0.00000      -0.00000      -0.00000      -0.00000
     2  P(31)             -0.00000      -0.00000      -0.00000      -0.00000
     3  H(1)               0.00000       0.00000       0.00000       0.00000
     4  H(1)               0.00000       0.00000       0.00000       0.00000
     5  H(1)               0.00000       0.00000       0.00000       0.00000
 --------------------------------------------------------
       Center         ----  Spin Dipole Couplings  ----
                      3XX-RR        3YY-RR        3ZZ-RR
 --------------------------------------------------------
     1   Atom        0.000000      0.000000      0.000000
     2   Atom        0.000000      0.000000      0.000000
     3   Atom        0.000000      0.000000      0.000000
     4   Atom        0.000000      0.000000      0.000000
     5   Atom        0.000000      0.000000      0.000000
 --------------------------------------------------------
                        XY            XZ            YZ
 --------------------------------------------------------
     1   Atom        0.000000      0.000000      0.000000
     2   Atom        0.000000      0.000000      0.000000
     3   Atom        0.000000      0.000000      0.000000
     4   Atom        0.000000      0.000000      0.000000
     5   Atom        0.000000      0.000000      0.000000
 --------------------------------------------------------


 ---------------------------------------------------------------------------------
              Anisotropic Spin Dipole Couplings in Principal Axis System
 ---------------------------------------------------------------------------------

       Atom             a.u.   MegaHertz   Gauss  10(-4) cm-1        Axes

              Baa     0.0000     0.000     0.000     0.000  1.0000  0.0000  0.0000
     1 C(13)  Bbb     0.0000     0.000     0.000     0.000 -0.0000  1.0000  0.0000
              Bcc     0.0000     0.000     0.000     0.000  0.0000  0.0000  1.0000
 
              Baa     0.0000     0.000     0.000     0.000  1.0000  0.0000  0.0000
     2 P(31)  Bbb     0.0000     0.000     0.000     0.000 -0.0000  1.0000  0.0000
              Bcc     0.0000     0.000     0.000     0.000  0.0000  0.0000  1.0000
 
              Baa     0.0000     0.000     0.000     0.000  1.0000  0.0000  0.0000
     3 H(1)   Bbb     0.0000     0.000     0.000     0.000 -0.0000  1.0000  0.0000
              Bcc     0.0000     0.000     0.000     0.000  0.0000  0.0000  1.0000
 
              Baa     0.0000     0.000     0.000     0.000  1.0000  0.0000  0.0000
     4 H(1)   Bbb     0.0000     0.000     0.000     0.000 -0.0000  1.0000  0.0000
              Bcc     0.0000     0.000     0.000     0.000  0.0000  0.0000  1.0000
 
              Baa     0.0000     0.000     0.000     0.000  1.0000  0.0000  0.0000
     5 H(1)   Bbb     0.0000     0.000     0.000     0.000 -0.0000  1.0000  0.0000
              Bcc     0.0000     0.000     0.000     0.000  0.0000  0.0000  1.0000
 

 ---------------------------------------------------------------------------------

 No NMR shielding tensors so no spin-rotation constants.
 Leave Link  601 at Mon Apr 21 19:10:30 2025, MaxMem=   536870912 cpu:               2.0 elap:               0.3
 (Enter /home/szhao/Apps/g16/l701.exe)
 ... and contract with generalized density number  0.
 Compute integral first derivatives.
 Leave Link  701 at Mon Apr 21 19:10:31 2025, MaxMem=   536870912 cpu:               1.9 elap:               0.3
 (Enter /home/szhao/Apps/g16/l702.exe)
 L702 exits ... SP integral derivatives will be done elsewhere.
 Leave Link  702 at Mon Apr 21 19:10:31 2025, MaxMem=   536870912 cpu:               0.6 elap:               0.1
 (Enter /home/szhao/Apps/g16/l703.exe)
 Integral derivatives from FoFJK, PRISM(SPDF).
 Compute integral first derivatives, UseDBF=F ICtDFT=           0.
 Calling FoFJK, ICntrl=      2127 FMM=F ISym2X=0 I1Cent= 0 IOpClX= 1 NMat=1 NMatS=1 NMatT=0.
 FoFJK:  IHMeth= 1 ICntrl=    2127 DoSepK=F KAlg= 0 I1Cent=           0 FoldK=F
 IRaf=         0 NMat=       1 IRICut=       1 DoRegI=T DoRafI=F ISym2E= 0 IDoP0=0 IntGTp=1.
 FoFCou: FMM=F IPFlag=           0 FMFlag=      100000 FMFlg1=         800
         NFxFlg=           0 DoJE=F BraDBF=F KetDBF=F FulRan=T
         wScrn=  0.000000 ICntrl=      2127 IOpCl=  1 I1Cent=           0 NGrid=           0
         NMat0=    1 NMatS0=      1 NMatT0=    0 NMatD0=    1 NMtDS0=    0 NMtDT0=    0
 Symmetry not used in FoFCou.
 Leave Link  703 at Mon Apr 21 19:10:32 2025, MaxMem=   536870912 cpu:              10.2 elap:               1.4
 (Enter /home/szhao/Apps/g16/l716.exe)
 Dipole        =-2.59933766D-01-2.38069779D-01 9.97277917D-05
 -------------------------------------------------------------------
 Center     Atomic                   Forces (Hartrees/Bohr)
 Number     Number              X              Y              Z
 -------------------------------------------------------------------
      1        6          -0.000000000   -0.000000000   -0.000000000
      2       15          -0.000000000   -0.000000000   -0.000000000
      3        1           0.002862296   -0.002049696    0.000018450
      4        1          -0.003401321    0.000344537   -0.000030034
      5        1           0.003036582    0.000993130   -0.000027443
 -------------------------------------------------------------------
 Cartesian Forces:  Max     0.003401321 RMS     0.001511970
 Leave Link  716 at Mon Apr 21 19:10:33 2025, MaxMem=   536870912 cpu:               1.1 elap:               0.2
 (Enter /home/szhao/Apps/g16/l103.exe)

 GradGradGradGradGradGradGradGradGradGradGradGradGradGradGradGradGradGrad
 Berny optimization.
 FormGI is forming the generalized inverse of G from B-inverse, IUseBI=4.
 Internal  Forces:  Max     0.008951046 RMS     0.003313859
 Search for a local minimum.
 Step number   1 out of a maximum of   25
 All quantities printed in internal units (Hartrees-Bohrs-Radians)
 RMS Force = .35344D-02 SwitMx=.10000D-02 MixMth= 1
 Mixed Optimization -- RFO/linear search
 Second derivative matrix not updated -- first step.
 The second derivative matrix:
                          X1        Y1        Z1        X2        Y2
           X1           0.50000
           Y1           0.00000   0.50000
           Z1           0.00000   0.00000   0.50000
           X2           0.00000   0.00000   0.00000   0.50000
           Y2           0.00000   0.00000   0.00000   0.00000   0.50000
           Z2           0.00000   0.00000   0.00000   0.00000   0.00000
           R1           0.00000   0.00000   0.00000   0.00000   0.00000
           R2           0.00000   0.00000   0.00000   0.00000   0.00000
           R3           0.00000   0.00000   0.00000   0.00000   0.00000
           A1           0.00000   0.00000   0.00000   0.00000   0.00000
           A2           0.00000   0.00000   0.00000   0.00000   0.00000
           A3           0.00000   0.00000   0.00000   0.00000   0.00000
           A4           0.00000   0.00000   0.00000   0.00000   0.00000
           D1           0.00000   0.00000   0.00000   0.00000   0.00000
           D2           0.00000   0.00000   0.00000   0.00000   0.00000
                          Z2        R1        R2        R3        A1
           Z2           0.50000
           R1           0.00000   0.35491
           R2           0.00000   0.00000   0.35357
           R3           0.00000   0.00000   0.00000   0.20793
           A1           0.00000   0.00000   0.00000   0.00000   0.16000
           A2           0.00000   0.00000   0.00000   0.00000   0.00000
           A3           0.00000   0.00000   0.00000   0.00000   0.00000
           A4           0.00000   0.00000   0.00000   0.00000   0.00000
           D1           0.00000   0.00000   0.00000   0.00000   0.00000
           D2           0.00000   0.00000   0.00000   0.00000   0.00000
                          A2        A3        A4        D1        D2
           A2           0.16000
           A3           0.00000   0.16000
           A4           0.00000   0.00000   0.16000
           D1           0.00000   0.00000   0.00000   0.01020
           D2           0.00000   0.00000   0.00000   0.00000   0.01020
 ITU=  0
     Eigenvalues ---    0.01020   0.01020   0.16000   0.16000   0.16000
     Eigenvalues ---    0.20793   0.35357   0.354911000.000001000.00000
     Eigenvalues --- 1000.000001000.000001000.000001000.000001000.00000
 RFO step:  Lambda=-6.97699262D-04 EMin= 1.02000063D-02
 Linear search not attempted -- first point.
 Iteration  1 RMS(Cart)=  0.04014858 RMS(Int)=  0.00108076
 Iteration  2 RMS(Cart)=  0.00108088 RMS(Int)=  0.00000016
 Iteration  3 RMS(Cart)=  0.00000002 RMS(Int)=  0.00000016
 ITry= 1 IFail=0 DXMaxC= 1.49D-01 DCOld= 1.00D+10 DXMaxT= 3.00D-01 DXLimC= 3.00D+00 Rises=F
 Variable       Old X    -DE/DX   Delta X   Delta X   Delta X     New X
                                 (Linear)    (Quad)   (Total)
    X1       -1.71106   0.00590   0.00000   0.00000   0.00000  -1.71106
    Y1        0.00000   0.00133   0.00000   0.00000   0.00000   0.00000
    Z1        0.00000  -0.00001   0.00000   0.00000   0.00000   0.00000
    X2        1.71106  -0.00340   0.00000   0.00000   0.00000   1.71106
    Y2        0.00000  -0.00204   0.00000   0.00000   0.00000   0.00000
    Z2        0.00000  -0.00003   0.00000   0.00000   0.00000   0.00000
    R1        2.04885   0.00004   0.00000   0.00012   0.00012   2.04897
    R2        2.05099  -0.00063   0.00000  -0.00177  -0.00177   2.04922
    R3        2.68789  -0.00077   0.00000  -0.00371  -0.00371   2.68418
    A1        2.18051  -0.00267   0.00000  -0.01659  -0.01659   2.16392
    A2        2.08412  -0.00188   0.00000  -0.01170  -0.01170   2.07243
    A3        2.01855   0.00455   0.00000   0.02829   0.02829   2.04684
    A4        1.69798  -0.00895   0.00000  -0.05570  -0.05570   1.64228
    D1       -0.00089   0.00003   0.00000   0.00286   0.00286   0.00196
    D2        3.14061   0.00005   0.00000   0.00446   0.00446  -3.13812
         Item               Value     Threshold  Converged?
 Maximum Force            0.008951     0.000450     NO 
 RMS     Force            0.003534     0.000300     NO 
 Maximum Displacement     0.149226     0.001800     NO 
 RMS     Displacement     0.040146     0.001200     NO 
 Predicted change in Energy=-3.503706D-04
 Lowest energy point so far.  Saving SCF results.
 GradGradGradGradGradGradGradGradGradGradGradGradGradGradGradGradGradGrad

 Leave Link  103 at Mon Apr 21 19:10:33 2025, MaxMem=   536870912 cpu:               0.6 elap:               0.1
 (Enter /home/szhao/Apps/g16/l202.exe)
                          Input orientation:                          
 ---------------------------------------------------------------------
 Center     Atomic      Atomic             Coordinates (Angstroms)
 Number     Number       Type             X           Y           Z
 ---------------------------------------------------------------------
      1          6           0       -0.905452    0.000000    0.000000
      2         15           0        0.905452    0.000000    0.000000
      3          1           0       -1.511505   -0.899073    0.000928
      4          1           0        1.006904   -1.416779   -0.001317
      5          1           0       -1.426893    0.950801   -0.002422
 ---------------------------------------------------------------------
                    Distance matrix (angstroms):
                    1          2          3          4          5
     1  C    0.000000
     2  P    1.810905   0.000000
     3  H    1.084266   2.578763   0.000000
     4  H    2.379994   1.420407   2.571071   0.000000
     5  H    1.084403   2.518703   1.851811   3.395409   0.000000
 Symmetry turned off by external request.
 Stoichiometry    CH3P
 Framework group  C1[X(CH3P)]
 Deg. of freedom     9
 Full point group                 C1      NOp   1
 Rotational constants (GHZ):         137.4255029          14.1987201          12.8690983
 Leave Link  202 at Mon Apr 21 19:10:33 2025, MaxMem=   536870912 cpu:               0.5 elap:               0.1
 (Enter /home/szhao/Apps/g16/l301.exe)
 Standard basis: 6-311+G(d,p) (5D, 7F)
 Ernie: Thresh=  0.10000D-02 Tol=  0.10000D-05 Strict=F.
    70 basis functions,   110 primitive gaussians,    72 cartesian basis functions
    12 alpha electrons       12 beta electrons
       nuclear repulsion energy        45.9551411607 Hartrees.
 IExCor= 4336 DFT=T Ex+Corr=M062X ExCW=0 ScaHFX=  0.540000
 ScaDFX=  1.000000  1.000000  1.000000  1.000000 ScalE2=  1.000000  1.000000
 IRadAn=      7 IRanWt=     -1 IRanGd=            0 ICorTp=0 IEmpDi=  4
 NAtoms=    5 NActive=    5 NUniq=    5 SFac= 1.00D+00 NAtFMM=   60 NAOKFM=F Big=F
 Integral buffers will be    131072 words long.
 Raffenetti 2 integral format.
 Two-electron integral symmetry is turned off.
 Leave Link  301 at Mon Apr 21 19:10:33 2025, MaxMem=   536870912 cpu:               1.5 elap:               0.2
 (Enter /home/szhao/Apps/g16/l302.exe)
 NPDir=0 NMtPBC=     1 NCelOv=     1 NCel=       1 NClECP=     1 NCelD=      1
         NCelK=      1 NCelE2=     1 NClLst=     1 CellRange=     0.0.
 One-electron integrals computed using PRISM.
 NBasis=    70 RedAO= T EigKep=  1.63D-03  NBF=    70
 NBsUse=    70 1.00D-06 EigRej= -1.00D+00 NBFU=    70
 Precomputing XC quadrature grid using
 IXCGrd= 4 IRadAn=           7 IRanWt=          -1 IRanGd=           0 AccXCQ= 0.00D+00.
 Generated NRdTot=       0 NPtTot=           0 NUsed=           0 NTot=          32
 NSgBfM=    72    72    72    72    72 MxSgAt=     5 MxSgA2=     5.
 Leave Link  302 at Mon Apr 21 19:10:34 2025, MaxMem=   536870912 cpu:               1.4 elap:               0.2
 (Enter /home/szhao/Apps/g16/l303.exe)
 DipDrv:  MaxL=1.
 Leave Link  303 at Mon Apr 21 19:10:34 2025, MaxMem=   536870912 cpu:               0.4 elap:               0.1
 (Enter /home/szhao/Apps/g16/l401.exe)
 Initial guess from the checkpoint file:  "opt.chk"
 B after Tr=    -0.003699    0.001189   -0.000335
         Rot=    0.999998   -0.000033    0.000015    0.002065 Ang=  -0.24 deg.
 Guess basis will be translated and rotated to current coordinates.
 JPrj=2 DoOrth=T DoCkMO=T.
 Initial guess <Sx>= 0.0000 <Sy>= 0.0000 <Sz>= 0.0000 <S**2>=-0.0000 S=-0.0000
 Generating alternative initial guess.
 ExpMin= 3.48D-02 ExpMax= 7.75D+04 ExpMxC= 2.65D+03 IAcc=3 IRadAn=         5 AccDes= 0.00D+00
 Harris functional with IExCor= 1009 and IRadAn=       5 diagonalized for initial guess.
 HarFok:  IExCor= 1009 AccDes= 0.00D+00 IRadAn=         5 IDoV= 1 UseB2=F ITyADJ=14
 ICtDFT=  3500011 ScaDFX=  1.000000  1.000000  1.000000  1.000000
 FoFCou: FMM=F IPFlag=           0 FMFlag=      100000 FMFlg1=           0
         NFxFlg=           0 DoJE=T BraDBF=F KetDBF=T FulRan=T
         wScrn=  0.000000 ICntrl=       500 IOpCl=  0 I1Cent=   200000004 NGrid=           0
         NMat0=    1 NMatS0=      1 NMatT0=    0 NMatD0=    1 NMtDS0=    0 NMtDT0=    0
 Symmetry not used in FoFCou.
 Harris En= -381.043338572156    
 Leave Link  401 at Mon Apr 21 19:10:34 2025, MaxMem=   536870912 cpu:               2.3 elap:               0.3
 (Enter /home/szhao/Apps/g16/l502.exe)
 Keep R1 and R2 ints in memory in canonical form, NReq=13385587.
 FoFCou: FMM=F IPFlag=           0 FMFlag=           0 FMFlg1=           0
         NFxFlg=           0 DoJE=F BraDBF=F KetDBF=F FulRan=T
         wScrn=  0.000000 ICntrl=       600 IOpCl=  0 I1Cent=           0 NGrid=           0
         NMat0=    1 NMatS0=   2485 NMatT0=    0 NMatD0=    1 NMtDS0=    0 NMtDT0=    0
 Symmetry not used in FoFCou.
 Two-electron integral symmetry not used.
 UHF open shell SCF:
 Using DIIS extrapolation, IDIIS=  1040.
 NGot=   536870912 LenX=   530681581 LenY=   530675956
 Requested convergence on RMS density matrix=1.00D-08 within 128 cycles.
 Requested convergence on MAX density matrix=1.00D-06.
 Requested convergence on             energy=1.00D-06.
 No special actions if energy rises.

 Cycle   1  Pass 1  IDiag  1:
 E= -381.179021831325    
 DIIS: error= 1.24D-03 at cycle   1 NSaved=   1.
 NSaved= 1 IEnMin= 1 EnMin= -381.179021831325     IErMin= 1 ErrMin= 1.24D-03
 ErrMax= 1.24D-03  0.00D+00 EMaxC= 1.00D-01 BMatC= 4.39D-04 BMatP= 4.39D-04
 IDIUse=3 WtCom= 9.88D-01 WtEn= 1.24D-02
 Coeff-Com:  0.100D+01
 Coeff-En:   0.100D+01
 Coeff:      0.100D+01
 Gap=     0.474 Goal=   None    Shift=    0.000
 Gap=     0.474 Goal=   None    Shift=    0.000
 GapD=    0.474 DampG=2.000 DampE=1.000 DampFc=2.0000 IDamp=-1.
 RMSDP=1.95D-04 MaxDP=2.39D-03              OVMax= 6.14D-03

 Cycle   2  Pass 1  IDiag  1:
 E= -381.179196676460     Delta-E=       -0.000174845135 Rises=F Damp=F
 DIIS: error= 3.68D-04 at cycle   2 NSaved=   2.
 NSaved= 2 IEnMin= 2 EnMin= -381.179196676460     IErMin= 2 ErrMin= 3.68D-04
 ErrMax= 3.68D-04  0.00D+00 EMaxC= 1.00D-01 BMatC= 3.24D-05 BMatP= 4.39D-04
 IDIUse=3 WtCom= 9.96D-01 WtEn= 3.68D-03
 Coeff-Com: -0.242D-01 0.102D+01
 Coeff-En:   0.000D+00 0.100D+01
 Coeff:     -0.241D-01 0.102D+01
 Gap=     0.255 Goal=   None    Shift=    0.000
 Gap=     0.255 Goal=   None    Shift=    0.000
 RMSDP=9.09D-05 MaxDP=1.78D-03 DE=-1.75D-04 OVMax= 4.37D-03

 Cycle   3  Pass 1  IDiag  1:
 E= -381.179188176955     Delta-E=        0.000008499505 Rises=F Damp=F
 DIIS: error= 6.48D-04 at cycle   3 NSaved=   3.
 NSaved= 3 IEnMin= 2 EnMin= -381.179196676460     IErMin= 2 ErrMin= 3.68D-04
 ErrMax= 6.48D-04  0.00D+00 EMaxC= 1.00D-01 BMatC= 7.33D-05 BMatP= 3.24D-05
 IDIUse=3 WtCom= 2.82D-01 WtEn= 7.18D-01
 Coeff-Com: -0.822D-01 0.669D+00 0.413D+00
 Coeff-En:   0.000D+00 0.632D+00 0.368D+00
 Coeff:     -0.232D-01 0.643D+00 0.381D+00
 Gap=     0.255 Goal=   None    Shift=    0.000
 Gap=     0.255 Goal=   None    Shift=    0.000
 RMSDP=4.99D-05 MaxDP=1.10D-03 DE= 8.50D-06 OVMax= 2.85D-03

 Cycle   4  Pass 1  IDiag  1:
 E= -381.179210264022     Delta-E=       -0.000022087067 Rises=F Damp=F
 DIIS: error= 3.95D-05 at cycle   4 NSaved=   4.
 NSaved= 4 IEnMin= 4 EnMin= -381.179210264022     IErMin= 4 ErrMin= 3.95D-05
 ErrMax= 3.95D-05  0.00D+00 EMaxC= 1.00D-01 BMatC= 3.66D-07 BMatP= 3.24D-05
 IDIUse=1 WtCom= 1.00D+00 WtEn= 0.00D+00
 Coeff-Com: -0.120D-02-0.116D+00-0.143D-01 0.113D+01
 Coeff:     -0.120D-02-0.116D+00-0.143D-01 0.113D+01
 Gap=     0.255 Goal=   None    Shift=    0.000
 Gap=     0.255 Goal=   None    Shift=    0.000
 RMSDP=1.08D-05 MaxDP=1.33D-04 DE=-2.21D-05 OVMax= 2.74D-04

 Cycle   5  Pass 1  IDiag  1:
 E= -381.179210485989     Delta-E=       -0.000000221968 Rises=F Damp=F
 DIIS: error= 7.83D-06 at cycle   5 NSaved=   5.
 NSaved= 5 IEnMin= 5 EnMin= -381.179210485989     IErMin= 5 ErrMin= 7.83D-06
 ErrMax= 7.83D-06  0.00D+00 EMaxC= 1.00D-01 BMatC= 2.41D-08 BMatP= 3.66D-07
 IDIUse=1 WtCom= 1.00D+00 WtEn= 0.00D+00
 Coeff-Com:  0.338D-02-0.649D-01-0.212D-01 0.327D+00 0.756D+00
 Coeff:      0.338D-02-0.649D-01-0.212D-01 0.327D+00 0.756D+00
 Gap=     0.255 Goal=   None    Shift=    0.000
 Gap=     0.255 Goal=   None    Shift=    0.000
 RMSDP=2.21D-06 MaxDP=4.72D-05 DE=-2.22D-07 OVMax= 5.49D-05

 Cycle   6  Pass 1  IDiag  1:
 E= -381.179210495028     Delta-E=       -0.000000009038 Rises=F Damp=F
 DIIS: error= 1.67D-06 at cycle   6 NSaved=   6.
 NSaved= 6 IEnMin= 6 EnMin= -381.179210495028     IErMin= 6 ErrMin= 1.67D-06
 ErrMax= 1.67D-06  0.00D+00 EMaxC= 1.00D-01 BMatC= 1.23D-09 BMatP= 2.41D-08
 IDIUse=1 WtCom= 1.00D+00 WtEn= 0.00D+00
 Coeff-Com:  0.770D-03-0.599D-02-0.453D-02-0.785D-02 0.152D+00 0.865D+00
 Coeff:      0.770D-03-0.599D-02-0.453D-02-0.785D-02 0.152D+00 0.865D+00
 Gap=     0.255 Goal=   None    Shift=    0.000
 Gap=     0.255 Goal=   None    Shift=    0.000
 RMSDP=5.64D-07 MaxDP=6.58D-06 DE=-9.04D-09 OVMax= 9.86D-06

 Cycle   7  Pass 1  IDiag  1:
 E= -381.179210495449     Delta-E=       -0.000000000421 Rises=F Damp=F
 DIIS: error= 6.12D-07 at cycle   7 NSaved=   7.
 NSaved= 7 IEnMin= 7 EnMin= -381.179210495449     IErMin= 7 ErrMin= 6.12D-07
 ErrMax= 6.12D-07  0.00D+00 EMaxC= 1.00D-01 BMatC= 1.30D-10 BMatP= 1.23D-09
 IDIUse=1 WtCom= 1.00D+00 WtEn= 0.00D+00
 Coeff-Com: -0.201D-03 0.414D-02 0.194D-03-0.202D-01-0.311D-01-0.473D-04
 Coeff-Com:  0.105D+01
 Coeff:     -0.201D-03 0.414D-02 0.194D-03-0.202D-01-0.311D-01-0.473D-04
 Coeff:      0.105D+01
 Gap=     0.255 Goal=   None    Shift=    0.000
 Gap=     0.255 Goal=   None    Shift=    0.000
 RMSDP=1.91D-07 MaxDP=2.07D-06 DE=-4.21D-10 OVMax= 4.50D-06

 Cycle   8  Pass 1  IDiag  1:
 E= -381.179210495502     Delta-E=       -0.000000000054 Rises=F Damp=F
 DIIS: error= 1.05D-07 at cycle   8 NSaved=   8.
 NSaved= 8 IEnMin= 8 EnMin= -381.179210495502     IErMin= 8 ErrMin= 1.05D-07
 ErrMax= 1.05D-07  0.00D+00 EMaxC= 1.00D-01 BMatC= 3.33D-12 BMatP= 1.30D-10
 IDIUse=1 WtCom= 1.00D+00 WtEn= 0.00D+00
 Coeff-Com: -0.452D-05-0.158D-03-0.429D-04 0.180D-02-0.132D-02-0.179D-01
 Coeff-Com: -0.125D+00 0.114D+01
 Coeff:     -0.452D-05-0.158D-03-0.429D-04 0.180D-02-0.132D-02-0.179D-01
 Coeff:     -0.125D+00 0.114D+01
 Gap=     0.255 Goal=   None    Shift=    0.000
 Gap=     0.255 Goal=   None    Shift=    0.000
 RMSDP=3.19D-08 MaxDP=3.64D-07 DE=-5.37D-11 OVMax= 9.45D-07

 Cycle   9  Pass 1  IDiag  1:
 E= -381.179210495504     Delta-E=       -0.000000000002 Rises=F Damp=F
 DIIS: error= 3.89D-08 at cycle   9 NSaved=   9.
 NSaved= 9 IEnMin= 9 EnMin= -381.179210495504     IErMin= 9 ErrMin= 3.89D-08
 ErrMax= 3.89D-08  0.00D+00 EMaxC= 1.00D-01 BMatC= 4.69D-13 BMatP= 3.33D-12
 IDIUse=1 WtCom= 1.00D+00 WtEn= 0.00D+00
 Coeff-Com:  0.100D-04-0.214D-03-0.704D-04 0.114D-02 0.224D-02-0.179D-02
 Coeff-Com: -0.605D-01-0.253D-02 0.106D+01
 Coeff:      0.100D-04-0.214D-03-0.704D-04 0.114D-02 0.224D-02-0.179D-02
 Coeff:     -0.605D-01-0.253D-02 0.106D+01
 Gap=     0.255 Goal=   None    Shift=    0.000
 Gap=     0.255 Goal=   None    Shift=    0.000
 RMSDP=9.54D-09 MaxDP=2.02D-07 DE=-2.16D-12 OVMax= 2.37D-07

 SCF Done:  E(UM062X) =  -381.179210496     A.U. after    9 cycles
            NFock=  9  Conv=0.95D-08     -V/T= 2.0023
 <Sx>= 0.0000 <Sy>= 0.0000 <Sz>= 0.0000 <S**2>=-0.0000 S=-0.0000
 <L.S>=  0.00000000000    
 KE= 3.803079127298D+02 PE=-9.962598897734D+02 EE= 1.888176253873D+02
 Annihilation of the first spin contaminant:
 S**2 before annihilation    -0.0000,   after    -0.0000
 Leave Link  502 at Mon Apr 21 19:10:41 2025, MaxMem=   536870912 cpu:              45.9 elap:               6.0
 (Enter /home/szhao/Apps/g16/l701.exe)
 ... and contract with generalized density number  0.
 Compute integral first derivatives.
 Leave Link  701 at Mon Apr 21 19:10:41 2025, MaxMem=   536870912 cpu:               1.4 elap:               0.3
 (Enter /home/szhao/Apps/g16/l702.exe)
 L702 exits ... SP integral derivatives will be done elsewhere.
 Leave Link  702 at Mon Apr 21 19:10:42 2025, MaxMem=   536870912 cpu:               0.5 elap:               0.2
 (Enter /home/szhao/Apps/g16/l703.exe)
 Integral derivatives from FoFJK, PRISM(SPDF).
 Compute integral first derivatives, UseDBF=F ICtDFT=           0.
 Calling FoFJK, ICntrl=      2127 FMM=F ISym2X=0 I1Cent= 0 IOpClX= 1 NMat=1 NMatS=1 NMatT=0.
 FoFJK:  IHMeth= 1 ICntrl=    2127 DoSepK=F KAlg= 0 I1Cent=           0 FoldK=F
 IRaf=         0 NMat=       1 IRICut=       1 DoRegI=T DoRafI=F ISym2E= 0 IDoP0=0 IntGTp=1.
 FoFCou: FMM=F IPFlag=           0 FMFlag=      100000 FMFlg1=         800
         NFxFlg=           0 DoJE=F BraDBF=F KetDBF=F FulRan=T
         wScrn=  0.000000 ICntrl=      2127 IOpCl=  1 I1Cent=           0 NGrid=           0
         NMat0=    1 NMatS0=      1 NMatT0=    0 NMatD0=    1 NMtDS0=    0 NMtDT0=    0
 Symmetry not used in FoFCou.
 Leave Link  703 at Mon Apr 21 19:10:43 2025, MaxMem=   536870912 cpu:               7.9 elap:               1.0
 (Enter /home/szhao/Apps/g16/l716.exe)
 Dipole        =-2.52096446D-01-2.20100582D-01-3.25864617D-04
 -------------------------------------------------------------------
 Center     Atomic                   Forces (Hartrees/Bohr)
 Number     Number              X              Y              Z
 -------------------------------------------------------------------
      1        6          -0.000000000   -0.000000000   -0.000000000
      2       15          -0.000000000   -0.000000000   -0.000000000
      3        1           0.001755370   -0.000502637   -0.000029525
      4        1           0.001017109    0.000061477    0.000089303
      5        1           0.000386102    0.000111219    0.000105259
 -------------------------------------------------------------------
 Cartesian Forces:  Max     0.001755370 RMS     0.000550977
 Leave Link  716 at Mon Apr 21 19:10:43 2025, MaxMem=   536870912 cpu:               0.8 elap:               0.2
 (Enter /home/szhao/Apps/g16/l103.exe)

 GradGradGradGradGradGradGradGradGradGradGradGradGradGradGradGradGradGrad
 Berny optimization.
 Using GEDIIS/GDIIS optimizer.
 FormGI is forming the generalized inverse of G from B-inverse, IUseBI=4.
 Internal  Forces:  Max     0.002734935 RMS     0.001346596
 Search for a local minimum.
 Step number   2 out of a maximum of   25
 All quantities printed in internal units (Hartrees-Bohrs-Radians)
 RMS Force = .12827D-02 SwitMx=.10000D-02 MixMth= 1
 Mixed Optimization -- RFO/linear search
 Update second derivatives using D2CorX and points    1    2
 DE= -3.08D-04 DEPred=-3.50D-04 R= 8.78D-01
 TightC=F SS=  1.41D+00  RLast= 6.60D-02 DXNew= 5.0454D-01 1.9809D-01
 Trust test= 8.78D-01 RLast= 6.60D-02 DXMaxT set to 3.00D-01
 The second derivative matrix:
                          X1        Y1        Z1        X2        Y2
           X1           0.51804
           Y1           0.01596   0.51413
           Z1          -0.00048  -0.00043   0.50001
           X2          -0.02122  -0.01877   0.00057   0.52495
           Y2          -0.01780  -0.01575   0.00048   0.02093   0.51756
           Z2          -0.00050  -0.00044   0.00001   0.00059   0.00049
           R1           0.00291   0.00257  -0.00008  -0.00342  -0.00287
           R2          -0.00258  -0.00228   0.00007   0.00304   0.00255
           R3          -0.00377  -0.00333   0.00010   0.00443   0.00372
           A1          -0.00270  -0.00239   0.00007   0.00317   0.00266
           A2          -0.01215  -0.01075   0.00033   0.01429   0.01199
           A3           0.01485   0.01314  -0.00040  -0.01746  -0.01465
           A4          -0.05611  -0.04965   0.00150   0.06598   0.05535
           D1           0.00040   0.00036  -0.00001  -0.00047  -0.00040
           D2           0.00113   0.00100  -0.00003  -0.00133  -0.00112
                          Z2        R1        R2        R3        A1
           Z2           0.50001
           R1          -0.00008   0.35538
           R2           0.00007  -0.00038   0.35338
           R3           0.00010  -0.00056  -0.00015   0.20786
           A1           0.00007  -0.00028  -0.00200  -0.00238   0.15026
           A2           0.00034  -0.00185   0.00006   0.00046  -0.00533
           A3          -0.00041   0.00212   0.00195   0.00192   0.01508
           A4           0.00155  -0.00852   0.00001   0.00183  -0.02567
           D1          -0.00001   0.00006  -0.00003  -0.00005   0.00005
           D2          -0.00003   0.00018  -0.00012  -0.00019   0.00000
                          A2        A3        A4        D1        D2
           A2           0.16314
           A3           0.00220   0.14273
           A4           0.01377   0.01189   0.22017
           D1          -0.00019   0.00014  -0.00087   0.01021
           D2          -0.00064   0.00064  -0.00294   0.00002   0.01027
 ITU=  1  0
 Use linear search instead of GDIIS.
     Eigenvalues ---    0.01020   0.01022   0.12383   0.16000   0.20765
     Eigenvalues ---    0.23209   0.35336   0.356031000.000001000.00000
     Eigenvalues --- 1000.000001000.000001000.000001000.000001000.00000
 RFO step:  Lambda=-6.72609733D-05 EMin= 1.01994768D-02
 Quartic linear search produced a step of -0.10753.
 Iteration  1 RMS(Cart)=  0.01161481 RMS(Int)=  0.00006885
 Iteration  2 RMS(Cart)=  0.00006877 RMS(Int)=  0.00000818
 Iteration  3 RMS(Cart)=  0.00000000 RMS(Int)=  0.00000818
 ITry= 1 IFail=0 DXMaxC= 2.62D-02 DCOld= 1.00D+10 DXMaxT= 3.00D-01 DXLimC= 3.00D+00 Rises=F
 Variable       Old X    -DE/DX   Delta X   Delta X   Delta X     New X
                                 (Linear)    (Quad)   (Total)
    X1       -1.71106   0.00214   0.00000   0.00000   0.00000  -1.71106
    Y1        0.00000  -0.00200   0.00000   0.00000   0.00000   0.00000
    Z1        0.00000   0.00009   0.00000   0.00000   0.00000   0.00000
    X2        1.71106   0.00102   0.00000   0.00000   0.00000   1.71106
    Y2        0.00000   0.00167   0.00000   0.00000   0.00000   0.00000
    Z2        0.00000   0.00007   0.00000   0.00000   0.00000   0.00000
    R1        2.04897  -0.00056  -0.00001  -0.00140  -0.00141   2.04756
    R2        2.04922  -0.00009   0.00019  -0.00058  -0.00039   2.04883
    R3        2.68418   0.00001   0.00040  -0.00071  -0.00031   2.68387
    A1        2.16392  -0.00210   0.00178  -0.01513  -0.01337   2.15055
    A2        2.07243   0.00065   0.00126   0.00123   0.00247   2.07490
    A3        2.04684   0.00145  -0.00304   0.01392   0.01086   2.05770
    A4        1.64228   0.00273   0.00599   0.00381   0.00980   1.65208
    D1        0.00196  -0.00005  -0.00031  -0.00392  -0.00422  -0.00226
    D2       -3.13812  -0.00019  -0.00048  -0.01528  -0.01576   3.12931
         Item               Value     Threshold  Converged?
 Maximum Force            0.002735     0.000450     NO 
 RMS     Force            0.001283     0.000300     NO 
 Maximum Displacement     0.026206     0.001800     NO 
 RMS     Displacement     0.011616     0.001200     NO 
 Predicted change in Energy=-3.819750D-05
 Lowest energy point so far.  Saving SCF results.
 GradGradGradGradGradGradGradGradGradGradGradGradGradGradGradGradGradGrad

 Leave Link  103 at Mon Apr 21 19:10:44 2025, MaxMem=   536870912 cpu:               0.4 elap:               0.1
 (Enter /home/szhao/Apps/g16/l202.exe)
                          Input orientation:                          
 ---------------------------------------------------------------------
 Center     Atomic      Atomic             Coordinates (Angstroms)
 Number     Number       Type             X           Y           Z
 ---------------------------------------------------------------------
      1          6           0       -0.905452    0.000000    0.000000
      2         15           0        0.905452    0.000000    0.000000
      3          1           0       -1.499024   -0.906471    0.001635
      4          1           0        1.020771   -1.415540    0.005755
      5          1           0       -1.429139    0.949298    0.007803
 ---------------------------------------------------------------------
                    Distance matrix (angstroms):
                    1          2          3          4          5
     1  C    0.000000
     2  P    1.810905   0.000000
     3  H    1.083521   2.569669   0.000000
     4  H    2.390424   1.420242   2.570707   0.000000
     5  H    1.084194   2.520228   1.857095   3.405074   0.000000
 Symmetry turned off by external request.
 Stoichiometry    CH3P
 Framework group  C1[X(CH3P)]
 Deg. of freedom     9
 Full point group                 C1      NOp   1
 Rotational constants (GHZ):         137.2132650          14.2059473          12.8732211
 Leave Link  202 at Mon Apr 21 19:10:44 2025, MaxMem=   536870912 cpu:               0.1 elap:               0.1
 (Enter /home/szhao/Apps/g16/l301.exe)
 Standard basis: 6-311+G(d,p) (5D, 7F)
 Ernie: Thresh=  0.10000D-02 Tol=  0.10000D-05 Strict=F.
    70 basis functions,   110 primitive gaussians,    72 cartesian basis functions
    12 alpha electrons       12 beta electrons
       nuclear repulsion energy        45.9603094459 Hartrees.
 IExCor= 4336 DFT=T Ex+Corr=M062X ExCW=0 ScaHFX=  0.540000
 ScaDFX=  1.000000  1.000000  1.000000  1.000000 ScalE2=  1.000000  1.000000
 IRadAn=      7 IRanWt=     -1 IRanGd=            0 ICorTp=0 IEmpDi=  4
 NAtoms=    5 NActive=    5 NUniq=    5 SFac= 1.00D+00 NAtFMM=   60 NAOKFM=F Big=F
 Integral buffers will be    131072 words long.
 Raffenetti 2 integral format.
 Two-electron integral symmetry is turned off.
 Leave Link  301 at Mon Apr 21 19:10:44 2025, MaxMem=   536870912 cpu:               0.7 elap:               0.1
 (Enter /home/szhao/Apps/g16/l302.exe)
 NPDir=0 NMtPBC=     1 NCelOv=     1 NCel=       1 NClECP=     1 NCelD=      1
         NCelK=      1 NCelE2=     1 NClLst=     1 CellRange=     0.0.
 One-electron integrals computed using PRISM.
 NBasis=    70 RedAO= T EigKep=  1.63D-03  NBF=    70
 NBsUse=    70 1.00D-06 EigRej= -1.00D+00 NBFU=    70
 Precomputing XC quadrature grid using
 IXCGrd= 4 IRadAn=           7 IRanWt=          -1 IRanGd=           0 AccXCQ= 0.00D+00.
 Generated NRdTot=       0 NPtTot=           0 NUsed=           0 NTot=          32
 NSgBfM=    72    72    72    72    72 MxSgAt=     5 MxSgA2=     5.
 Leave Link  302 at Mon Apr 21 19:10:45 2025, MaxMem=   536870912 cpu:               1.7 elap:               0.3
 (Enter /home/szhao/Apps/g16/l303.exe)
 DipDrv:  MaxL=1.
 Leave Link  303 at Mon Apr 21 19:10:45 2025, MaxMem=   536870912 cpu:               0.7 elap:               0.1
 (Enter /home/szhao/Apps/g16/l401.exe)
 Initial guess from the checkpoint file:  "opt.chk"
 B after Tr=     0.001688   -0.001563    0.001713
         Rot=    0.999999    0.000082   -0.000320   -0.000980 Ang=   0.12 deg.
 Guess basis will be translated and rotated to current coordinates.
 JPrj=2 DoOrth=T DoCkMO=T.
 Initial guess <Sx>= 0.0000 <Sy>= 0.0000 <Sz>= 0.0000 <S**2>= 0.0000 S= 0.0000
 Generating alternative initial guess.
 ExpMin= 3.48D-02 ExpMax= 7.75D+04 ExpMxC= 2.65D+03 IAcc=3 IRadAn=         5 AccDes= 0.00D+00
 Harris functional with IExCor= 1009 and IRadAn=       5 diagonalized for initial guess.
 HarFok:  IExCor= 1009 AccDes= 0.00D+00 IRadAn=         5 IDoV= 1 UseB2=F ITyADJ=14
 ICtDFT=  3500011 ScaDFX=  1.000000  1.000000  1.000000  1.000000
 FoFCou: FMM=F IPFlag=           0 FMFlag=      100000 FMFlg1=           0
         NFxFlg=           0 DoJE=T BraDBF=F KetDBF=T FulRan=T
         wScrn=  0.000000 ICntrl=       500 IOpCl=  0 I1Cent=   200000004 NGrid=           0
         NMat0=    1 NMatS0=      1 NMatT0=    0 NMatD0=    1 NMtDS0=    0 NMtDT0=    0
 Symmetry not used in FoFCou.
 Harris En= -381.043262392298    
 Leave Link  401 at Mon Apr 21 19:10:45 2025, MaxMem=   536870912 cpu:               2.7 elap:               0.4
 (Enter /home/szhao/Apps/g16/l502.exe)
 Keep R1 and R2 ints in memory in canonical form, NReq=13385587.
 FoFCou: FMM=F IPFlag=           0 FMFlag=           0 FMFlg1=           0
         NFxFlg=           0 DoJE=F BraDBF=F KetDBF=F FulRan=T
         wScrn=  0.000000 ICntrl=       600 IOpCl=  0 I1Cent=           0 NGrid=           0
         NMat0=    1 NMatS0=   2485 NMatT0=    0 NMatD0=    1 NMtDS0=    0 NMtDT0=    0
 Symmetry not used in FoFCou.
 Two-electron integral symmetry not used.
 UHF open shell SCF:
 Using DIIS extrapolation, IDIIS=  1040.
 NGot=   536870912 LenX=   530681581 LenY=   530675956
 Requested convergence on RMS density matrix=1.00D-08 within 128 cycles.
 Requested convergence on MAX density matrix=1.00D-06.
 Requested convergence on             energy=1.00D-06.
 No special actions if energy rises.

 Cycle   1  Pass 1  IDiag  1:
 E= -381.179234643769    
 DIIS: error= 3.04D-04 at cycle   1 NSaved=   1.
 NSaved= 1 IEnMin= 1 EnMin= -381.179234643769     IErMin= 1 ErrMin= 3.04D-04
 ErrMax= 3.04D-04  0.00D+00 EMaxC= 1.00D-01 BMatC= 4.92D-05 BMatP= 4.92D-05
 IDIUse=3 WtCom= 9.97D-01 WtEn= 3.04D-03
 Coeff-Com:  0.100D+01
 Coeff-En:   0.100D+01
 Coeff:      0.100D+01
 Gap=     0.474 Goal=   None    Shift=    0.000
 Gap=     0.474 Goal=   None    Shift=    0.000
 RMSDP=7.12D-05 MaxDP=9.37D-04              OVMax= 1.44D-03

 Cycle   2  Pass 1  IDiag  1:
 E= -381.179252400785     Delta-E=       -0.000017757016 Rises=F Damp=F
 DIIS: error= 6.90D-05 at cycle   2 NSaved=   2.
 NSaved= 2 IEnMin= 2 EnMin= -381.179252400785     IErMin= 2 ErrMin= 6.90D-05
 ErrMax= 6.90D-05  0.00D+00 EMaxC= 1.00D-01 BMatC= 2.68D-06 BMatP= 4.92D-05
 IDIUse=1 WtCom= 1.00D+00 WtEn= 0.00D+00
 Coeff-Com: -0.367D-01 0.104D+01
 Coeff:     -0.367D-01 0.104D+01
 Gap=     0.255 Goal=   None    Shift=    0.000
 Gap=     0.255 Goal=   None    Shift=    0.000
 RMSDP=2.39D-05 MaxDP=3.78D-04 DE=-1.78D-05 OVMax= 9.32D-04

 Cycle   3  Pass 1  IDiag  1:
 E= -381.179252276374     Delta-E=        0.000000124411 Rises=F Damp=F
 DIIS: error= 1.58D-04 at cycle   3 NSaved=   3.
 NSaved= 3 IEnMin= 2 EnMin= -381.179252400785     IErMin= 2 ErrMin= 6.90D-05
 ErrMax= 1.58D-04  0.00D+00 EMaxC= 1.00D-01 BMatC= 4.37D-06 BMatP= 2.68D-06
 IDIUse=3 WtCom= 4.43D-01 WtEn= 5.57D-01
 Coeff-Com: -0.687D-01 0.622D+00 0.447D+00
 Coeff-En:   0.000D+00 0.534D+00 0.466D+00
 Coeff:     -0.304D-01 0.573D+00 0.457D+00
 Gap=     0.255 Goal=   None    Shift=    0.000
 Gap=     0.255 Goal=   None    Shift=    0.000
 RMSDP=1.42D-05 MaxDP=3.23D-04 DE= 1.24D-07 OVMax= 8.50D-04

 Cycle   4  Pass 1  IDiag  1:
 E= -381.179253520033     Delta-E=       -0.000001243659 Rises=F Damp=F
 DIIS: error= 3.68D-05 at cycle   4 NSaved=   4.
 NSaved= 4 IEnMin= 4 EnMin= -381.179253520033     IErMin= 4 ErrMin= 3.68D-05
 ErrMax= 3.68D-05  0.00D+00 EMaxC= 1.00D-01 BMatC= 3.09D-07 BMatP= 2.68D-06
 IDIUse=1 WtCom= 1.00D+00 WtEn= 0.00D+00
 Coeff-Com: -0.173D-01 0.308D-01 0.216D+00 0.770D+00
 Coeff:     -0.173D-01 0.308D-01 0.216D+00 0.770D+00
 Gap=     0.255 Goal=   None    Shift=    0.000
 Gap=     0.255 Goal=   None    Shift=    0.000
 RMSDP=4.09D-06 MaxDP=6.23D-05 DE=-1.24D-06 OVMax= 1.43D-04

 Cycle   5  Pass 1  IDiag  1:
 E= -381.179253622428     Delta-E=       -0.000000102395 Rises=F Damp=F
 DIIS: error= 3.29D-06 at cycle   5 NSaved=   5.
 NSaved= 5 IEnMin= 5 EnMin= -381.179253622428     IErMin= 5 ErrMin= 3.29D-06
 ErrMax= 3.29D-06  0.00D+00 EMaxC= 1.00D-01 BMatC= 3.70D-09 BMatP= 3.09D-07
 IDIUse=1 WtCom= 1.00D+00 WtEn= 0.00D+00
 Coeff-Com:  0.451D-02-0.561D-01-0.125D-01 0.580D-01 0.101D+01
 Coeff:      0.451D-02-0.561D-01-0.125D-01 0.580D-01 0.101D+01
 Gap=     0.255 Goal=   None    Shift=    0.000
 Gap=     0.255 Goal=   None    Shift=    0.000
 RMSDP=1.35D-06 MaxDP=1.64D-05 DE=-1.02D-07 OVMax= 3.04D-05

 Cycle   6  Pass 1  IDiag  1:
 E= -381.179253625397     Delta-E=       -0.000000002968 Rises=F Damp=F
 DIIS: error= 8.11D-07 at cycle   6 NSaved=   6.
 NSaved= 6 IEnMin= 6 EnMin= -381.179253625397     IErMin= 6 ErrMin= 8.11D-07
 ErrMax= 8.11D-07  0.00D+00 EMaxC= 1.00D-01 BMatC= 2.51D-10 BMatP= 3.70D-09
 IDIUse=1 WtCom= 1.00D+00 WtEn= 0.00D+00
 Coeff-Com:  0.860D-03-0.334D-02-0.839D-02-0.418D-01 0.804D-01 0.972D+00
 Coeff:      0.860D-03-0.334D-02-0.839D-02-0.418D-01 0.804D-01 0.972D+00
 Gap=     0.255 Goal=   None    Shift=    0.000
 Gap=     0.255 Goal=   None    Shift=    0.000
 RMSDP=2.83D-07 MaxDP=3.18D-06 DE=-2.97D-09 OVMax= 7.23D-06

 Cycle   7  Pass 1  IDiag  1:
 E= -381.179253625562     Delta-E=       -0.000000000166 Rises=F Damp=F
 DIIS: error= 2.39D-07 at cycle   7 NSaved=   7.
 NSaved= 7 IEnMin= 7 EnMin= -381.179253625562     IErMin= 7 ErrMin= 2.39D-07
 ErrMax= 2.39D-07  0.00D+00 EMaxC= 1.00D-01 BMatC= 2.23D-11 BMatP= 2.51D-10
 IDIUse=1 WtCom= 1.00D+00 WtEn= 0.00D+00
 Coeff-Com: -0.285D-03 0.444D-02 0.689D-03-0.120D-01-0.696D-01 0.855D-01
 Coeff-Com:  0.991D+00
 Coeff:     -0.285D-03 0.444D-02 0.689D-03-0.120D-01-0.696D-01 0.855D-01
 Coeff:      0.991D+00
 Gap=     0.255 Goal=   None    Shift=    0.000
 Gap=     0.255 Goal=   None    Shift=    0.000
 RMSDP=8.08D-08 MaxDP=9.17D-07 DE=-1.66D-10 OVMax= 2.78D-06

 Cycle   8  Pass 1  IDiag  1:
 E= -381.179253625577     Delta-E=       -0.000000000015 Rises=F Damp=F
 DIIS: error= 8.09D-08 at cycle   8 NSaved=   8.
 NSaved= 8 IEnMin= 8 EnMin= -381.179253625577     IErMin= 8 ErrMin= 8.09D-08
 ErrMax= 8.09D-08  0.00D+00 EMaxC= 1.00D-01 BMatC= 1.91D-12 BMatP= 2.23D-11
 IDIUse=1 WtCom= 1.00D+00 WtEn= 0.00D+00
 Coeff-Com: -0.132D-03 0.140D-02 0.838D-03-0.505D-03-0.223D-01-0.483D-01
 Coeff-Com:  0.257D+00 0.812D+00
 Coeff:     -0.132D-03 0.140D-02 0.838D-03-0.505D-03-0.223D-01-0.483D-01
 Coeff:      0.257D+00 0.812D+00
 Gap=     0.255 Goal=   None    Shift=    0.000
 Gap=     0.255 Goal=   None    Shift=    0.000
 RMSDP=1.81D-08 MaxDP=2.38D-07 DE=-1.48D-11 OVMax= 6.86D-07

 Cycle   9  Pass 1  IDiag  1:
 E= -381.179253625578     Delta-E=       -0.000000000001 Rises=F Damp=F
 DIIS: error= 2.18D-08 at cycle   9 NSaved=   9.
 NSaved= 9 IEnMin= 9 EnMin= -381.179253625578     IErMin= 9 ErrMin= 2.18D-08
 ErrMax= 2.18D-08  0.00D+00 EMaxC= 1.00D-01 BMatC= 1.02D-13 BMatP= 1.91D-12
 IDIUse=1 WtCom= 1.00D+00 WtEn= 0.00D+00
 Coeff-Com:  0.196D-04-0.350D-03-0.137D-04 0.109D-02 0.575D-02-0.140D-01
 Coeff-Com: -0.779D-01 0.227D-01 0.106D+01
 Coeff:      0.196D-04-0.350D-03-0.137D-04 0.109D-02 0.575D-02-0.140D-01
 Coeff:     -0.779D-01 0.227D-01 0.106D+01
 Gap=     0.255 Goal=   None    Shift=    0.000
 Gap=     0.255 Goal=   None    Shift=    0.000
 RMSDP=7.19D-09 MaxDP=9.40D-08 DE=-1.31D-12 OVMax= 2.85D-07

 SCF Done:  E(UM062X) =  -381.179253626     A.U. after    9 cycles
            NFock=  9  Conv=0.72D-08     -V/T= 2.0023
 <Sx>= 0.0000 <Sy>= 0.0000 <Sz>= 0.0000 <S**2>=-0.0000 S=-0.0000
 <L.S>=  0.00000000000    
 KE= 3.803086168958D+02 PE=-9.962703622393D+02 EE= 1.888221822720D+02
 Annihilation of the first spin contaminant:
 S**2 before annihilation    -0.0000,   after     0.0000
 Leave Link  502 at Mon Apr 21 19:10:51 2025, MaxMem=   536870912 cpu:              44.3 elap:               5.8
 (Enter /home/szhao/Apps/g16/l701.exe)
 ... and contract with generalized density number  0.
 Compute integral first derivatives.
 Leave Link  701 at Mon Apr 21 19:10:52 2025, MaxMem=   536870912 cpu:               1.1 elap:               0.2
 (Enter /home/szhao/Apps/g16/l702.exe)
 L702 exits ... SP integral derivatives will be done elsewhere.
 Leave Link  702 at Mon Apr 21 19:10:52 2025, MaxMem=   536870912 cpu:               0.7 elap:               0.2
 (Enter /home/szhao/Apps/g16/l703.exe)
 Integral derivatives from FoFJK, PRISM(SPDF).
 Compute integral first derivatives, UseDBF=F ICtDFT=           0.
 Calling FoFJK, ICntrl=      2127 FMM=F ISym2X=0 I1Cent= 0 IOpClX= 1 NMat=1 NMatS=1 NMatT=0.
 FoFJK:  IHMeth= 1 ICntrl=    2127 DoSepK=F KAlg= 0 I1Cent=           0 FoldK=F
 IRaf=         0 NMat=       1 IRICut=       1 DoRegI=T DoRafI=F ISym2E= 0 IDoP0=0 IntGTp=1.
 FoFCou: FMM=F IPFlag=           0 FMFlag=      100000 FMFlg1=         800
         NFxFlg=           0 DoJE=F BraDBF=F KetDBF=F FulRan=T
         wScrn=  0.000000 ICntrl=      2127 IOpCl=  1 I1Cent=           0 NGrid=           0
         NMat0=    1 NMatS0=      1 NMatT0=    0 NMatD0=    1 NMtDS0=    0 NMtDT0=    0
 Symmetry not used in FoFCou.
 Leave Link  703 at Mon Apr 21 19:10:53 2025, MaxMem=   536870912 cpu:               9.1 elap:               1.2
 (Enter /home/szhao/Apps/g16/l716.exe)
 Dipole        =-2.53800709D-01-2.25185436D-01 3.26072379D-03
 -------------------------------------------------------------------
 Center     Atomic                   Forces (Hartrees/Bohr)
 Number     Number              X              Y              Z
 -------------------------------------------------------------------
      1        6          -0.000000000   -0.000000000   -0.000000000
      2       15          -0.000000000   -0.000000000   -0.000000000
      3        1           0.000581639   -0.000232747   -0.000027116
      4        1           0.000182966   -0.000057510   -0.000250366
      5        1           0.000207461   -0.000117850   -0.000404425
 -------------------------------------------------------------------
 Cartesian Forces:  Max     0.000581639 RMS     0.000218047
 Leave Link  716 at Mon Apr 21 19:10:54 2025, MaxMem=   536870912 cpu:               0.5 elap:               0.1
 (Enter /home/szhao/Apps/g16/l103.exe)

 GradGradGradGradGradGradGradGradGradGradGradGradGradGradGradGradGradGrad
 Berny optimization.
 Using GEDIIS/GDIIS optimizer.
 FormGI is forming the generalized inverse of G from B-inverse, IUseBI=4.
 Internal  Forces:  Max     0.000789100 RMS     0.000477067
 Search for a local minimum.
 Step number   3 out of a maximum of   25
 All quantities printed in internal units (Hartrees-Bohrs-Radians)
 RMS Force = .43374D-03 SwitMx=.10000D-02 MixMth= 2
 Mixed Optimization -- En-DIIS/RFO-DIIS
 Update second derivatives using D2CorX and points    1    2    3
 DE= -4.31D-05 DEPred=-3.82D-05 R= 1.13D+00
 TightC=F SS=  1.41D+00  RLast= 2.58D-02 DXNew= 5.0454D-01 7.7498D-02
 Trust test= 1.13D+00 RLast= 2.58D-02 DXMaxT set to 3.00D-01
 The second derivative matrix:
                          X1        Y1        Z1        X2        Y2
           X1           0.56447
           Y1          -0.00974   0.52822
           Z1           0.01674  -0.00993   0.50639
           X2          -0.00861  -0.02562   0.00521   0.52823
           Y2           0.00916  -0.03053   0.01044   0.02810   0.53306
           Z2           0.00531  -0.00364   0.00216   0.00215   0.00385
           R1          -0.00873   0.00815  -0.00415  -0.00571  -0.00868
           R2          -0.00085  -0.00347   0.00078   0.00373   0.00380
           R3          -0.00742  -0.00142  -0.00123   0.00355   0.00171
           A1          -0.04528   0.01752  -0.01471  -0.00469  -0.01807
           A2          -0.00650  -0.01318   0.00223   0.01512   0.01451
           A3           0.05160  -0.00424   0.01242  -0.01047   0.00346
           A4          -0.01880  -0.06751   0.01457   0.07329   0.07397
           D1           0.00030   0.00034  -0.00003  -0.00043  -0.00037
           D2          -0.02368   0.01442  -0.00915  -0.00775  -0.01518
                          Z2        R1        R2        R3        A1
           Z2           0.50074
           R1          -0.00144   0.35413
           R2           0.00031  -0.00185   0.35318
           R3          -0.00034  -0.00015  -0.00041   0.20809
           A1          -0.00486  -0.00709  -0.00795  -0.00112   0.11595
           A2           0.00097   0.00016   0.00112   0.00043   0.00384
           A3           0.00387   0.00693   0.00681   0.00070   0.04015
           A4           0.00592  -0.00398   0.00490   0.00057  -0.00154
           D1          -0.00002  -0.00026  -0.00012  -0.00009  -0.00133
           D2          -0.00310   0.00478  -0.00146   0.00157   0.01596
                          A2        A3        A4        D1        D2
           A2           0.16103
           A3          -0.00485   0.12473
           A4           0.00695  -0.00538   0.20403
           D1           0.00008   0.00124   0.00021   0.01018
           D2          -0.00234  -0.01355  -0.01752  -0.00006   0.02291
 ITU=  1  1  0
 Use linear search instead of GDIIS.
     Eigenvalues ---    0.01007   0.01425   0.08574   0.16051   0.20691
     Eigenvalues ---    0.20832   0.35251   0.355921000.000001000.00000
     Eigenvalues --- 1000.000001000.000001000.000001000.000001000.00000
 RFO step:  Lambda=-7.69671152D-05 EMin= 1.00718405D-02
 Quartic linear search produced a step of  0.14992.
 Iteration  1 RMS(Cart)=  0.03040725 RMS(Int)=  0.00073763
 Iteration  2 RMS(Cart)=  0.00069119 RMS(Int)=  0.00034616
 Iteration  3 RMS(Cart)=  0.00000023 RMS(Int)=  0.00034616
 ITry= 1 IFail=0 DXMaxC= 9.12D-02 DCOld= 1.00D+10 DXMaxT= 3.00D-01 DXLimC= 3.00D+00 Rises=F
 Variable       Old X    -DE/DX   Delta X   Delta X   Delta X     New X
                                 (Linear)    (Quad)   (Total)
    X1       -1.71106   0.00079   0.00000   0.00000   0.00000  -1.71106
    Y1        0.00000  -0.00078   0.00000   0.00000   0.00000   0.00000
    Z1        0.00000  -0.00054   0.00000   0.00000   0.00000   0.00000
    X2        1.71106   0.00018   0.00000   0.00000   0.00000   1.71106
    Y2        0.00000   0.00037   0.00000   0.00000   0.00000   0.00000
    Z2        0.00000  -0.00014   0.00000   0.00000   0.00000   0.00000
    R1        2.04756  -0.00012  -0.00021  -0.00176  -0.00197   2.04559
    R2        2.04883  -0.00021  -0.00006  -0.00126  -0.00132   2.04751
    R3        2.68387   0.00007  -0.00005  -0.00032  -0.00037   2.68350
    A1        2.15055  -0.00075  -0.00200  -0.02008  -0.02285   2.12769
    A2        2.07490   0.00025   0.00037   0.00312   0.00272   2.07761
    A3        2.05770   0.00051   0.00163   0.01759   0.01844   2.07614
    A4        1.65208   0.00048   0.00147   0.00665   0.00812   1.66020
    D1       -0.00226  -0.00004  -0.00063  -0.00874  -0.00934  -0.01160
    D2        3.12931   0.00072  -0.00236   0.06711   0.06470  -3.08917
         Item               Value     Threshold  Converged?
 Maximum Force            0.000752     0.000450     NO 
 RMS     Force            0.000434     0.000300     NO 
 Maximum Displacement     0.091223     0.001800     NO 
 RMS     Displacement     0.030520     0.001200     NO 
 Predicted change in Energy=-3.937521D-05
 Lowest energy point so far.  Saving SCF results.
 GradGradGradGradGradGradGradGradGradGradGradGradGradGradGradGradGradGrad

 Leave Link  103 at Mon Apr 21 19:10:54 2025, MaxMem=   536870912 cpu:               0.5 elap:               0.2
 (Enter /home/szhao/Apps/g16/l202.exe)
                          Input orientation:                          
 ---------------------------------------------------------------------
 Center     Atomic      Atomic             Coordinates (Angstroms)
 Number     Number       Type             X           Y           Z
 ---------------------------------------------------------------------
      1          6           0       -0.905452    0.000000    0.000000
      2         15           0        0.905452    0.000000    0.000000
      3          1           0       -1.477604   -0.918709   -0.019554
      4          1           0        1.032247   -1.414309   -0.013695
      5          1           0       -1.431377    0.946427   -0.040470
 ---------------------------------------------------------------------
                    Distance matrix (angstroms):
                    1          2          3          4          5
     1  C    0.000000
     2  P    1.810905   0.000000
     3  H    1.082481   2.554088   0.000000
     4  H    2.398986   1.420047   2.558321   0.000000
     5  H    1.083494   2.521534   1.865826   3.412218   0.000000
 Symmetry turned off by external request.
 Stoichiometry    CH3P
 Framework group  C1[X(CH3P)]
 Deg. of freedom     9
 Full point group                 C1      NOp   1
 Rotational constants (GHZ):         136.7013874          14.2267208          12.8868933
 Leave Link  202 at Mon Apr 21 19:10:54 2025, MaxMem=   536870912 cpu:               0.0 elap:               0.0
 (Enter /home/szhao/Apps/g16/l301.exe)
 Standard basis: 6-311+G(d,p) (5D, 7F)
 Ernie: Thresh=  0.10000D-02 Tol=  0.10000D-05 Strict=F.
    70 basis functions,   110 primitive gaussians,    72 cartesian basis functions
    12 alpha electrons       12 beta electrons
       nuclear repulsion energy        45.9775936976 Hartrees.
 IExCor= 4336 DFT=T Ex+Corr=M062X ExCW=0 ScaHFX=  0.540000
 ScaDFX=  1.000000  1.000000  1.000000  1.000000 ScalE2=  1.000000  1.000000
 IRadAn=      7 IRanWt=     -1 IRanGd=            0 ICorTp=0 IEmpDi=  4
 NAtoms=    5 NActive=    5 NUniq=    5 SFac= 1.00D+00 NAtFMM=   60 NAOKFM=F Big=F
 Integral buffers will be    131072 words long.
 Raffenetti 2 integral format.
 Two-electron integral symmetry is turned off.
 Leave Link  301 at Mon Apr 21 19:10:54 2025, MaxMem=   536870912 cpu:               0.6 elap:               0.1
 (Enter /home/szhao/Apps/g16/l302.exe)
 NPDir=0 NMtPBC=     1 NCelOv=     1 NCel=       1 NClECP=     1 NCelD=      1
         NCelK=      1 NCelE2=     1 NClLst=     1 CellRange=     0.0.
 One-electron integrals computed using PRISM.
 NBasis=    70 RedAO= T EigKep=  1.62D-03  NBF=    70
 NBsUse=    70 1.00D-06 EigRej= -1.00D+00 NBFU=    70
 Precomputing XC quadrature grid using
 IXCGrd= 4 IRadAn=           7 IRanWt=          -1 IRanGd=           0 AccXCQ= 0.00D+00.
 Generated NRdTot=       0 NPtTot=           0 NUsed=           0 NTot=          32
 NSgBfM=    72    72    72    72    72 MxSgAt=     5 MxSgA2=     5.
 Leave Link  302 at Mon Apr 21 19:10:55 2025, MaxMem=   536870912 cpu:               1.6 elap:               0.2
 (Enter /home/szhao/Apps/g16/l303.exe)
 DipDrv:  MaxL=1.
 Leave Link  303 at Mon Apr 21 19:10:55 2025, MaxMem=   536870912 cpu:               0.6 elap:               0.1
 (Enter /home/szhao/Apps/g16/l401.exe)
 Initial guess from the checkpoint file:  "opt.chk"
 B after Tr=     0.002149   -0.002361   -0.009415
         Rot=    0.999996   -0.000192    0.002497   -0.001291 Ang=  -0.32 deg.
 Guess basis will be translated and rotated to current coordinates.
 JPrj=2 DoOrth=T DoCkMO=T.
 Initial guess <Sx>= 0.0000 <Sy>= 0.0000 <Sz>= 0.0000 <S**2>=-0.0000 S=-0.0000
 Generating alternative initial guess.
 ExpMin= 3.48D-02 ExpMax= 7.75D+04 ExpMxC= 2.65D+03 IAcc=3 IRadAn=         5 AccDes= 0.00D+00
[...]
 Symmetry not used in FoFCou.
 Leave Link  703 at Mon Apr 21 19:11:32 2025, MaxMem=   536870912 cpu:               8.9 elap:               1.2
 (Enter /home/szhao/Apps/g16/l716.exe)
 Dipole        =-2.54416755D-01-2.26718671D-01 1.42789684D-04
 -------------------------------------------------------------------
 Center     Atomic                   Forces (Hartrees/Bohr)
 Number     Number              X              Y              Z
 -------------------------------------------------------------------
      1        6          -0.000000000   -0.000000000   -0.000000000
      2       15          -0.000000000   -0.000000000   -0.000000000
      3        1           0.000005003   -0.000005041    0.000001383
      4        1          -0.000009835    0.000006462    0.000000037
      5        1          -0.000013589   -0.000003002    0.000001009
 -------------------------------------------------------------------
 Cartesian Forces:  Max     0.000013589 RMS     0.000005070
 Leave Link  716 at Mon Apr 21 19:11:32 2025, MaxMem=   536870912 cpu:               0.5 elap:               0.1
 (Enter /home/szhao/Apps/g16/l103.exe)

 GradGradGradGradGradGradGradGradGradGradGradGradGradGradGradGradGradGrad
 Berny optimization.
 Using GEDIIS/GDIIS optimizer.
 FormGI is forming the generalized inverse of G from B-inverse, IUseBI=4.
 Internal  Forces:  Max     0.000024870 RMS     0.000011732
 Search for a local minimum.
 Step number   7 out of a maximum of   25
 All quantities printed in internal units (Hartrees-Bohrs-Radians)
 RMS Force = .13286D-04 SwitMx=.10000D-02 MixMth= 2
 Mixed Optimization -- En-DIIS/RFO-DIIS
 Swapping is turned off.
 Update second derivatives using D2CorX and points    1    2    4    3    5
                                                      6    7
 DE= -1.91D-06 DEPred=-1.94D-06 R= 9.86D-01
 TightC=F SS=  1.41D+00  RLast= 7.77D-03 DXNew= 2.5227D-01 2.3317D-02
 Trust test= 9.86D-01 RLast= 7.77D-03 DXMaxT set to 1.50D-01
 The second derivative matrix:
                          X1        Y1        Z1        X2        Y2
           X1           0.59553
           Y1          -0.03833   0.55720
           Z1          -0.00030   0.00944   0.57429
           X2          -0.00574  -0.03075   0.00017   0.52818
           Y2           0.01230  -0.03773   0.00152   0.02734   0.53005
           Z2           0.00051  -0.00144  -0.01599   0.00009  -0.00036
           R1          -0.01299   0.01154   0.00068  -0.00678  -0.01015
           R2          -0.00328   0.00683   0.00030   0.00295   0.00552
           R3          -0.00772  -0.00564  -0.00016   0.00364   0.00035
           A1          -0.06189   0.04330  -0.00015  -0.00886  -0.01969
           A2          -0.00856  -0.02282   0.00410   0.01457   0.01041
           A3           0.06865  -0.02118  -0.00061  -0.00615   0.00790
           A4          -0.01315  -0.08033  -0.00107   0.07533   0.07432
           D1          -0.00062   0.00546   0.04829   0.00011   0.00126
           D2          -0.00015  -0.00733  -0.05234  -0.00027  -0.00090
                          Z2        R1        R2        R3        A1
           Z2           0.51709
           R1          -0.00053   0.35480
           R2           0.00174  -0.00139   0.35281
           R3          -0.00104  -0.00023  -0.00043   0.20824
           A1           0.00039  -0.00411  -0.00917  -0.00035   0.12023
           A2          -0.00141  -0.00072   0.00316  -0.00036   0.00733
           A3           0.00062   0.00478   0.00582   0.00086   0.03218
           A4           0.00062  -0.00639   0.00345   0.00102  -0.01004
           D1          -0.02627   0.00029   0.00039  -0.00023  -0.00062
           D2          -0.00683  -0.00055  -0.00042   0.00027   0.00119
                          A2        A3        A4        D1        D2
           A2           0.15504
           A3          -0.00310   0.13082
           A4           0.00791   0.00232   0.21283
           D1           0.00147  -0.00084  -0.00032   0.04991
           D2          -0.00287   0.00178   0.00085  -0.01294   0.06094
 ITU=  1  1  0 -1  1  1  0
     Eigenvalues ---    0.04136   0.06928   0.09055   0.15353   0.20809
     Eigenvalues ---    0.21452   0.35273   0.355931000.000001000.00000
     Eigenvalues --- 1000.000001000.000001000.000001000.000001000.00000
 En-DIIS/RFO-DIIS/Sim-DIIS IScMMF=       -3 using points:     7    6    5
 RFO step:  Lambda=-9.99372031D-09.
 NNeg= 0 NGDIIS= 3 SimSw=  2.50D-01 Rises=F DC= -1.91D-06 SmlDif=  1.00D-05
 NRisDI= 0 DoIntr=F SqrtH=F CThrHd= 10.0 CDAdj=  3.0
 RMS Error=  0.7242636530D-04 NUsed= 3 OKEnD=F EnDIS=F
 InvSVX:  RCond= 1.03D-05 Info=           0 Equed=N FErr=  1.22D-15 BErr=  6.21D-17
 DidBck=F Rises=F RFO-DIIS coefs:    0.96766    0.02358    0.00877
 Iteration  1 RMS(Cart)=  0.00015734 RMS(Int)=  0.00000010
 Iteration  2 RMS(Cart)=  0.00000001 RMS(Int)=  0.00000010
 ITry= 1 IFail=0 DXMaxC= 3.53D-04 DCOld= 1.00D+10 DXMaxT= 1.50D-01 DXLimC= 3.00D+00 Rises=F
 Variable       Old X    -DE/DX   Delta X   Delta X   Delta X     New X
                                 (Linear)    (Quad)   (Total)
    X1       -1.71106  -0.00001   0.00000   0.00000   0.00000  -1.71106
    Y1        0.00000  -0.00001   0.00000   0.00000   0.00000   0.00000
    Z1        0.00000   0.00000   0.00000   0.00000   0.00000   0.00000
    X2        1.71106  -0.00001   0.00000   0.00000   0.00000   1.71106
    Y2        0.00000   0.00001   0.00000   0.00000   0.00000   0.00000
    Z2        0.00000  -0.00000   0.00000   0.00000   0.00000   0.00000
    R1        2.04709   0.00000  -0.00001   0.00001  -0.00000   2.04709
    R2        2.04790   0.00000  -0.00001   0.00002   0.00001   2.04791
    R3        2.68417  -0.00001   0.00000  -0.00004  -0.00003   2.68414
    A1        2.14261  -0.00002  -0.00010  -0.00008  -0.00018   2.14243
    A2        2.07721   0.00002   0.00001   0.00015   0.00016   2.07737
    A3        2.06336  -0.00000   0.00009  -0.00008   0.00002   2.06338
    A4        1.65380  -0.00002   0.00001  -0.00014  -0.00013   1.65367
    D1       -0.00004   0.00000   0.00003   0.00000   0.00003  -0.00001
    D2       -3.14157  -0.00000  -0.00003   0.00002  -0.00001  -3.14159
         Item               Value     Threshold  Converged?
 Maximum Force            0.000025     0.000450     YES
 RMS     Force            0.000013     0.000300     YES
 Maximum Displacement     0.000353     0.001800     YES
 RMS     Displacement     0.000157     0.001200     YES
 Predicted change in Energy=-5.313863D-09
 Optimization completed.
    -- Stationary point found.
                           ----------------------------
                           !   Optimized Parameters   !
                           ! (Angstroms and Degrees)  !
 --------------------------                            --------------------------
 ! Name  Definition              Value          Derivative Info.                !
 --------------------------------------------------------------------------------
 ! X1    R(1,-1)                -0.9055         -DE/DX =    0.0                 !
 ! Y1    R(1,-2)                 0.0            -DE/DX =    0.0                 !
 ! Z1    R(1,-3)                 0.0            -DE/DX =    0.0                 !
 ! X2    R(2,-1)                 0.9055         -DE/DX =    0.0                 !
 ! Y2    R(2,-2)                 0.0            -DE/DX =    0.0                 !
 ! Z2    R(2,-3)                 0.0            -DE/DX =    0.0                 !
 ! R1    R(1,3)                  1.0833         -DE/DX =    0.0                 !
 ! R2    R(1,5)                  1.0837         -DE/DX =    0.0                 !
 ! R3    R(2,4)                  1.4204         -DE/DX =    0.0                 !
 ! A1    A(2,1,3)              122.7625         -DE/DX =    0.0                 !
 ! A2    A(2,1,5)              119.0156         -DE/DX =    0.0                 !
 ! A3    A(3,1,5)              118.2219         -DE/DX =    0.0                 !
 ! A4    A(1,2,4)               94.7559         -DE/DX =    0.0                 !
 ! D1    D(3,1,2,4)             -0.0026         -DE/DX =    0.0                 !
 ! D2    D(5,1,2,4)           -179.999          -DE/DX =    0.0                 !
 --------------------------------------------------------------------------------
 Lowest energy point so far.  Saving SCF results.
 Largest change from initial coordinates is atom    4       0.008 Angstoms.
 GradGradGradGradGradGradGradGradGradGradGradGradGradGradGradGradGradGrad

 Leave Link  103 at Mon Apr 21 19:11:32 2025, MaxMem=   536870912 cpu:               0.5 elap:               0.1
 (Enter /home/szhao/Apps/g16/l202.exe)
                          Input orientation:                          
 ---------------------------------------------------------------------
 Center     Atomic      Atomic             Coordinates (Angstroms)
 Number     Number       Type             X           Y           Z
 ---------------------------------------------------------------------
      1          6           0       -0.905452    0.000000    0.000000
      2         15           0        0.905452    0.000000    0.000000
      3          1           0       -1.491676   -0.910948    0.000627
      4          1           0        1.023219   -1.415513    0.001038
      5          1           0       -1.431100    0.947686   -0.000712
 ---------------------------------------------------------------------
                    Distance matrix (angstroms):
                    1          2          3          4          5
     1  C    0.000000
     2  P    1.810905   0.000000
     3  H    1.083275   2.564381   0.000000
     4  H    2.392373   1.420404   2.565011   0.000000
     5  H    1.083704   2.521425   1.859621   3.407109   0.000000
 Symmetry turned off by external request.
 Stoichiometry    CH3P
 Framework group  C1[X(CH3P)]
 Deg. of freedom     9
 Full point group                 C1      NOp   1
 Rotational constants (GHZ):         137.0450774          14.2126265          12.8771656
 Leave Link  202 at Mon Apr 21 19:11:32 2025, MaxMem=   536870912 cpu:               0.1 elap:               0.0
 (Enter /home/szhao/Apps/g16/l601.exe)
 Copying SCF densities to generalized density rwf, IOpCl= 1 IROHF=0.

 **********************************************************************

            Population analysis using the SCF density.

 **********************************************************************

 Alpha  occ. eigenvalues --  -78.03473 -10.58019  -6.85830  -4.97368  -4.97319
 Alpha  occ. eigenvalues --   -4.97108  -0.80070  -0.64635  -0.51440  -0.42830
 Alpha  occ. eigenvalues --   -0.34500  -0.30815
 Alpha virt. eigenvalues --   -0.05276   0.01070   0.02915   0.04152   0.04974
 Alpha virt. eigenvalues --    0.06156   0.07856   0.09579   0.10945   0.14412
 Alpha virt. eigenvalues --    0.15510   0.19479   0.21326   0.30825   0.32904
 Alpha virt. eigenvalues --    0.35267   0.40519   0.44312   0.46793   0.58499
 Alpha virt. eigenvalues --    0.59588   0.63120   0.68249   0.68283   0.73151
 Alpha virt. eigenvalues --    0.81602   0.86348   0.91292   0.96833   1.09864
 Alpha virt. eigenvalues --    1.36420   1.40461   1.47191   1.50304   1.53085
 Alpha virt. eigenvalues --    1.56545   1.62449   1.66985   1.77734   1.81505
 Alpha virt. eigenvalues --    1.83259   1.96441   2.06755   2.14493   2.48706
 Alpha virt. eigenvalues --    2.54491   2.57020   2.64086   2.69138   2.80103
 Alpha virt. eigenvalues --    3.24227   3.75339   7.03748  14.00276  14.06132
 Alpha virt. eigenvalues --   14.11314  23.84652 163.30422
  Beta  occ. eigenvalues --  -78.03473 -10.58019  -6.85830  -4.97368  -4.97319
  Beta  occ. eigenvalues --   -4.97108  -0.80070  -0.64635  -0.51440  -0.42830
  Beta  occ. eigenvalues --   -0.34500  -0.30815
  Beta virt. eigenvalues --   -0.05276   0.01070   0.02915   0.04152   0.04974
  Beta virt. eigenvalues --    0.06156   0.07856   0.09579   0.10945   0.14412
  Beta virt. eigenvalues --    0.15510   0.19479   0.21326   0.30825   0.32904
  Beta virt. eigenvalues --    0.35267   0.40519   0.44312   0.46793   0.58499
  Beta virt. eigenvalues --    0.59588   0.63120   0.68249   0.68283   0.73151
  Beta virt. eigenvalues --    0.81602   0.86348   0.91292   0.96833   1.09864
  Beta virt. eigenvalues --    1.36420   1.40461   1.47191   1.50304   1.53085
  Beta virt. eigenvalues --    1.56545   1.62449   1.66985   1.77734   1.81505
  Beta virt. eigenvalues --    1.83259   1.96441   2.06755   2.14493   2.48706
  Beta virt. eigenvalues --    2.54491   2.57020   2.64086   2.69138   2.80103
  Beta virt. eigenvalues --    3.24227   3.75339   7.03748  14.00276  14.06132
  Beta virt. eigenvalues --   14.11314  23.84652 163.30422
          Condensed to atoms (all electrons):
               1          2          3          4          5
     1  C    5.360669   0.358198   0.385123  -0.050174   0.387776
     2  P    0.358198  14.315518  -0.017673   0.265423  -0.031582
     3  H    0.385123  -0.017673   0.483721  -0.012125  -0.022417
     4  H   -0.050174   0.265423  -0.012125   0.826344   0.006159
     5  H    0.387776  -0.031582  -0.022417   0.006159   0.476334
          Atomic-Atomic Spin Densities.
               1          2          3          4          5
     1  C   -0.000000  -0.000000  -0.000000   0.000000   0.000000
     2  P   -0.000000   0.000000   0.000000  -0.000000   0.000000
     3  H   -0.000000   0.000000   0.000000  -0.000000   0.000000
     4  H    0.000000  -0.000000  -0.000000   0.000000  -0.000000
     5  H    0.000000   0.000000   0.000000  -0.000000   0.000000
 Mulliken charges and spin densities:
               1          2
     1  C   -0.441591  -0.000000
     2  P    0.110117   0.000000
     3  H    0.183371   0.000000
     4  H   -0.035627   0.000000
     5  H    0.183731   0.000000
 Sum of Mulliken charges =  -0.00000   0.00000
 Mulliken charges and spin densities with hydrogens summed into heavy atoms:
               1          2
     1  C   -0.074489  -0.000000
     2  P    0.074489   0.000000
 Electronic spatial extent (au):  <R**2>=            140.2202
 Charge=              0.0000 electrons
 Dipole moment (field-independent basis, Debye):
    X=             -0.6467    Y=             -0.5763    Z=              0.0004  Tot=              0.8662
 Quadrupole moment (field-independent basis, Debye-Ang):
   XX=            -19.8871   YY=            -19.9174   ZZ=            -22.6236
   XY=             -1.1765   XZ=              0.0009   YZ=             -0.0020
 Traceless Quadrupole moment (field-independent basis, Debye-Ang):
   XX=              0.9223   YY=              0.8919   ZZ=             -1.8142
   XY=             -1.1765   XZ=              0.0009   YZ=             -0.0020
 Octapole moment (field-independent basis, Debye-Ang**2):
  XXX=            -18.6899  YYY=              3.0789  ZZZ=             -0.0016  XYY=             -7.6165
  XXY=             -1.0413  XXZ=              0.0006  XZZ=             -4.4202  YZZ=              0.7873
  YYZ=             -0.0011  XYZ=              0.0023
 Hexadecapole moment (field-independent basis, Debye-Ang**3):
 XXXX=           -143.0292 YYYY=            -44.8899 ZZZZ=            -34.5621 XXXY=             -0.1497
 XXXZ=              0.0000 YYYX=              2.1774 YYYZ=              0.0025 ZZZX=             -0.0014
 ZZZY=              0.0051 XXYY=            -29.5130 XXZZ=            -30.6954 YYZZ=            -13.8404
 XXYZ=             -0.0008 YYXZ=             -0.0007 ZZXY=              0.5563
 N-N= 4.596542826089D+01 E-N=-9.962812267412D+02  KE= 3.803093536738D+02
                          Isotropic Fermi Contact Couplings
        Atom                 a.u.       MegaHertz       Gauss      10(-4) cm-1
     1  C(13)             -0.00000      -0.00000      -0.00000      -0.00000
     2  P(31)              0.00000       0.00000       0.00000       0.00000
     3  H(1)              -0.00000      -0.00000      -0.00000      -0.00000
     4  H(1)               0.00000       0.00000       0.00000       0.00000
     5  H(1)              -0.00000      -0.00000      -0.00000      -0.00000
 --------------------------------------------------------
       Center         ----  Spin Dipole Couplings  ----
                      3XX-RR        3YY-RR        3ZZ-RR
 --------------------------------------------------------
     1   Atom        0.000000      0.000000      0.000000
     2   Atom        0.000000      0.000000      0.000000
     3   Atom        0.000000      0.000000      0.000000
     4   Atom        0.000000      0.000000      0.000000
     5   Atom        0.000000      0.000000      0.000000
 --------------------------------------------------------
                        XY            XZ            YZ
 --------------------------------------------------------
     1   Atom        0.000000      0.000000      0.000000
     2   Atom        0.000000      0.000000      0.000000
     3   Atom        0.000000      0.000000      0.000000
     4   Atom        0.000000      0.000000      0.000000
     5   Atom        0.000000      0.000000      0.000000
 --------------------------------------------------------


 ---------------------------------------------------------------------------------
              Anisotropic Spin Dipole Couplings in Principal Axis System
 ---------------------------------------------------------------------------------

       Atom             a.u.   MegaHertz   Gauss  10(-4) cm-1        Axes

              Baa     0.0000     0.000     0.000     0.000  1.0000  0.0000  0.0000
     1 C(13)  Bbb     0.0000     0.000     0.000     0.000 -0.0000  1.0000  0.0000
              Bcc     0.0000     0.000     0.000     0.000  0.0000  0.0000  1.0000
 
              Baa     0.0000     0.000     0.000     0.000  1.0000  0.0000  0.0000
     2 P(31)  Bbb     0.0000     0.000     0.000     0.000 -0.0000  1.0000  0.0000
              Bcc     0.0000     0.000     0.000     0.000  0.0000  0.0000  1.0000
 
              Baa     0.0000     0.000     0.000     0.000  1.0000  0.0000  0.0000
     3 H(1)   Bbb     0.0000     0.000     0.000     0.000 -0.0000  1.0000  0.0000
              Bcc     0.0000     0.000     0.000     0.000  0.0000  0.0000  1.0000
 
              Baa     0.0000     0.000     0.000     0.000  1.0000  0.0000  0.0000
     4 H(1)   Bbb     0.0000     0.000     0.000     0.000 -0.0000  1.0000  0.0000
              Bcc     0.0000     0.000     0.000     0.000  0.0000  0.0000  1.0000
 
              Baa     0.0000     0.000     0.000     0.000  1.0000  0.0000  0.0000
     5 H(1)   Bbb     0.0000     0.000     0.000     0.000 -0.0000  1.0000  0.0000
              Bcc     0.0000     0.000     0.000     0.000  0.0000  0.0000  1.0000
 

 ---------------------------------------------------------------------------------

 No NMR shielding tensors so no spin-rotation constants.
 Leave Link  601 at Mon Apr 21 19:11:33 2025, MaxMem=   536870912 cpu:               1.5 elap:               0.3
 (Enter /home/szhao/Apps/g16/l9999.exe)
 1\1\GINC-NODE06\FOpt\UM062X\6-311+G(d,p)\C1H3P1\SZHAO\21-Apr-2025\0\\#
 p opt UM062X/6-311+G** nosymm int=superfine\\Title Card Required\\0,1\
 C,-0.90545248,0.,0.\P,0.90545248,0.,0.\H,-1.4916757894,-0.9109484546,0
 .0006272454\H,1.0232185552,-1.4155132598,0.0010378425\H,-1.4311000631,
 0.9476855068,-0.0007120427\\Version=ES64L-G16RevA.03\HF=-381.1792633\S
 2=0.\S2-1=0.\S2A=0.\RMSD=3.394e-09\RMSF=5.070e-06\Dipole=-0.2544168,-0
 .2267187,0.0001428\Quadrupole=0.6857039,0.663126,-1.34883,-0.8746813,0
 .0006747,-0.0014593\PG=C01 [X(C1H3P1)]\\@


 BE CAREFUL NOT TO BECOME TOO GOOD OF A SONGBIRD OR 
 THEY'LL THROW YOU INTO A CAGE.

                                    -- SNOOPY TO WOODSTOCK
 Job cpu time:       0 days  0 hours  7 minutes 31.5 seconds.
 Elapsed time:       0 days  0 hours  1 minutes  1.9 seconds.
 File lengths (MBytes):  RWF=     22 Int=      0 D2E=      0 Chk=      2 Scr=      2
 Normal termination of Gaussian 16 at Mon Apr 21 19:11:33 2025.
