 Entering Gaussian System, Link 0=g16
 Initial command:
 /home/szhao/Apps/g16/l1.exe "/home/szhao/tmp/Gau-94369.inp" -scrdir="/home/szhao/tmp/"
 Default is to use a total of  16 processors:
                               16 via shared-memory
                                1 via Linda
 Entering Link 1 = /home/szhao/Apps/g16/l1.exe PID=     94371.
  
 Copyright (c) 1988,1990,1992,1993,1995,1998,2003,2009,2016,
            Gaussian, Inc.  All Rights Reserved.
  
 This is part of the Gaussian(R) 16 program.  It is based on
 the Gaussian(R) 09 system (copyright 2009, Gaussian, Inc.),
 the Gaussian(R) 03 system (copyright 2003, Gaussian, Inc.),
 the Gaussian(R) 98 system (copyright 1998, Gaussian, Inc.),
 the Gaussian(R) 94 system (copyright 1995, Gaussian, Inc.),
 the Gaussian 92(TM) system (copyright 1992, Gaussian, Inc.),
 the Gaussian 90(TM) system (copyright 1990, Gaussian, Inc.),
 the Gaussian 88(TM) system (copyright 1988, Gaussian, Inc.),
 the Gaussian 86(TM) system (copyright 1986, Carnegie Mellon
 University), and the Gaussian 82(TM) system (copyright 1983,
 Carnegie Mellon University). Gaussian is a federally registered
 trademark of Gaussian, Inc.
  
 This software contains proprietary and confidential information,
 including trade secrets, belonging to Gaussian, Inc.
  
 This software is provided under written license and may be
 used, copied, transmitted, or stored only in accord with that
 written license.
  
 The following legend is applicable only to US Government
 contracts under FAR:
  
                    RESTRICTED RIGHTS LEGEND
  
 Use, reproduction and disclosure by the US Government is
 subject to restrictions as set forth in subparagraphs (a)
 and (c) of the Commercial Computer Software - Restricted
 Rights clause in FAR 52.227-19.
  
 Gaussian, Inc.
 340 Quinnipiac St., Bldg. 40, Wallingford CT 06492
  
  
 ---------------------------------------------------------------
 Warning -- This program may not be used in any manner that
 competes with the business of Gaussian, Inc. or will provide
 assistance to any competitor of Gaussian, Inc.  The licensee
 of this program is prohibited from giving any competitor of
 Gaussian, Inc. access to this program.  By using this program,
 the user acknowledges that Gaussian, Inc. is engaged in the
 business of creating and licensing software in the field of
 computational chemistry and represents and warrants to the
 licensee that it is not a competitor of Gaussian, Inc. and that
 it will not use this program in any manner prohibited above.
 ---------------------------------------------------------------
  

 Cite this work as:
 Gaussian 16, Revision A.03,
 M. J. Frisch, G. W. Trucks, H. B. Schlegel, G. E. Scuseria, 
 M. A. Robb, J. R. Cheeseman, G. Scalmani, V. Barone, 
 G. A. Petersson, H. Nakatsuji, X. Li, M. Caricato, A. V. Marenich, 
 J. Bloino, B. G. Janesko, R. Gomperts, B. Mennucci, H. P. Hratchian, 
 J. V. Ortiz, A. F. Izmaylov, J. L. Sonnenberg, D. Williams-Young, 
 F. Ding, F. Lipparini, F. Egidi, J. Goings, B. Peng, A. Petrone, 
 T. Henderson, D. Ranasinghe, V. G. Zakrzewski, J. Gao, N. Rega, 
 G. Zheng, W. Liang, M. Hada, M. Ehara, K. Toyota, R. Fukuda, 
 J. Hasegawa, M. Ishida, T. Nakajima, Y. Honda, O. Kitao, H. Nakai, 
 T. Vreven, K. Throssell, J. A. Montgomery, Jr., J. E. Peralta, 
 F. Ogliaro, M. J. Bearpark, J. J. Heyd, E. N. Brothers, K. N. Kudin, 
 V. N. Staroverov, T. A. Keith, R. Kobayashi, J. Normand, 
 K. Raghavachari, A. P. Rendell, J. C. Burant, S. S. Iyengar, 
 J. Tomasi, M. Cossi, J. M. Millam, M. Klene, C. Adamo, R. Cammi, 
 J. W. Ochterski, R. L. Martin, K. Morokuma, O. Farkas, 
 J. B. Foresman, and D. J. Fox, Gaussian, Inc., Wallingford CT, 2016.
 
 ******************************************
 Gaussian 16:  ES64L-G16RevA.03 25-Dec-2016
                16-Apr-2025 
 ******************************************
 %chk=force.chk
 %mem=4GB
 %nprocshared=8
 Will use up to    8 processors via shared memory.
 ---------------------------------------------------
 #p UM062X/6-311+G** force int=superfine pop=saveNBO
 ---------------------------------------------------
 1/10=7,30=1,38=1/1,3;
 2/12=2,17=6,18=5,40=1/2;
 3/5=4,6=6,7=111,11=2,25=1,30=1,71=1,74=-55,75=-7,116=2/1,2,3;
 4//1;
 5/5=2,38=5/2;
 6/7=2,8=2,9=2,10=2,28=1,40=1,73=1/1,7;
 7/29=1/1,2,3,16;
 1/10=7,30=1/3;
 99//99;
 Leave Link    1 at Wed Apr 16 02:25:48 2025, MaxMem=   536870912 cpu:               0.3 elap:               0.1
 (Enter /home/szhao/Apps/g16/l101.exe)
 -------------------
 Title Card Required
 -------------------
 Symbolic Z-matrix:
 Charge =  0 Multiplicity = 1
 C                    -0.57239   0.        0. 
 N                     0.57239   0.        0. 
 H                    -1.64004   0.        0. 
 
 ITRead=  0  0  0
 MicOpt= -1 -1 -1
 NAtoms=      3 NQM=        3 NQMF=       0 NMMI=      0 NMMIF=      0
                NMic=       0 NMicF=      0.
                    Isotopes and Nuclear Properties:
 (Nuclear quadrupole moments (NQMom) in fm**2, nuclear magnetic moments (NMagM)
  in nuclear magnetons)

  Atom         1           2           3
 IAtWgt=          12          14           1
 AtmWgt=  12.0000000  14.0030740   1.0078250
 NucSpn=           0           2           1
 AtZEff=  -0.0000000  -0.0000000  -0.0000000
 NQMom=    0.0000000   2.0440000   0.0000000
 NMagM=    0.0000000   0.4037610   2.7928460
 AtZNuc=   6.0000000   7.0000000   1.0000000
 Leave Link  101 at Wed Apr 16 02:25:48 2025, MaxMem=   536870912 cpu:               1.6 elap:               0.4
 (Enter /home/szhao/Apps/g16/l103.exe)

 GradGradGradGradGradGradGradGradGradGradGradGradGradGradGradGradGradGrad
 Berny optimization.
 Initialization pass.
 Trust Radius=3.00D-01 FncErr=1.00D-07 GrdErr=1.00D-07 EigMax=2.50D+02 EigMin=1.00D-04
 Number of steps in this run=      2 maximum allowed number of steps=      2.
 GradGradGradGradGradGradGradGradGradGradGradGradGradGradGradGradGradGrad

 Leave Link  103 at Wed Apr 16 02:25:48 2025, MaxMem=   536870912 cpu:               0.3 elap:               0.1
 (Enter /home/szhao/Apps/g16/l202.exe)
                          Input orientation:                          
 ---------------------------------------------------------------------
 Center     Atomic      Atomic             Coordinates (Angstroms)
 Number     Number       Type             X           Y           Z
 ---------------------------------------------------------------------
      1          6           0       -0.572395    0.000000    0.000000
      2          7           0        0.572395    0.000000    0.000000
      3          1           0       -1.640038    0.000000    0.000000
 ---------------------------------------------------------------------
                    Distance matrix (angstroms):
                    1          2          3
     1  C    0.000000
     2  N    1.144789   0.000000
     3  H    1.067643   2.212432   0.000000
 Stoichiometry    CHN
 Framework group  C*V[C*(HCN)]
 Deg. of freedom     2
 Full point group                 C*V     NOp   4
 Largest Abelian subgroup         C2V     NOp   4
 Largest concise Abelian subgroup C1      NOp   1
                         Standard orientation:                         
 ---------------------------------------------------------------------
 Center     Atomic      Atomic             Coordinates (Angstroms)
 Number     Number       Type             X           Y           Z
 ---------------------------------------------------------------------
      1          6           0        0.000000    0.000000   -0.496134
      2          7           0        0.000000    0.000000    0.648655
      3          1           0        0.000000    0.000000   -1.563777
 ---------------------------------------------------------------------
 Rotational constants (GHZ):           0.0000000          45.0394477          45.0394477
 Leave Link  202 at Wed Apr 16 02:25:48 2025, MaxMem=   536870912 cpu:               0.4 elap:               0.1
 (Enter /home/szhao/Apps/g16/l301.exe)
 Standard basis: 6-311+G(d,p) (5D, 7F)
 Ernie: Thresh=  0.10000D-02 Tol=  0.10000D-05 Strict=F.
 There are    28 symmetry adapted cartesian basis functions of A1  symmetry.
 There are     2 symmetry adapted cartesian basis functions of A2  symmetry.
 There are    11 symmetry adapted cartesian basis functions of B1  symmetry.
 There are    11 symmetry adapted cartesian basis functions of B2  symmetry.
 There are    26 symmetry adapted basis functions of A1  symmetry.
 There are     2 symmetry adapted basis functions of A2  symmetry.
 There are    11 symmetry adapted basis functions of B1  symmetry.
 There are    11 symmetry adapted basis functions of B2  symmetry.
    50 basis functions,    80 primitive gaussians,    52 cartesian basis functions
     7 alpha electrons        7 beta electrons
       nuclear repulsion energy        24.0626290149 Hartrees.
 IExCor= 4336 DFT=T Ex+Corr=M062X ExCW=0 ScaHFX=  0.540000
 ScaDFX=  1.000000  1.000000  1.000000  1.000000 ScalE2=  1.000000  1.000000
 IRadAn=      7 IRanWt=     -1 IRanGd=            0 ICorTp=0 IEmpDi=  4
 NAtoms=    3 NActive=    3 NUniq=    3 SFac= 1.00D+00 NAtFMM=   60 NAOKFM=F Big=F
 Integral buffers will be    131072 words long.
 Raffenetti 2 integral format.
 Two-electron integral symmetry is turned on.
 Leave Link  301 at Wed Apr 16 02:25:49 2025, MaxMem=   536870912 cpu:               0.5 elap:               0.1
 (Enter /home/szhao/Apps/g16/l302.exe)
 NPDir=0 NMtPBC=     1 NCelOv=     1 NCel=       1 NClECP=     1 NCelD=      1
         NCelK=      1 NCelE2=     1 NClLst=     1 CellRange=     0.0.
 One-electron integrals computed using PRISM.
 One-electron integral symmetry used in STVInt
 NBasis=    50 RedAO= T EigKep=  1.36D-03  NBF=    26     2    11    11
 NBsUse=    50 1.00D-06 EigRej= -1.00D+00 NBFU=    26     2    11    11
 Precomputing XC quadrature grid using
 IXCGrd= 4 IRadAn=           7 IRanWt=          -1 IRanGd=           0 AccXCQ= 0.00D+00.
 Generated NRdTot=       0 NPtTot=           0 NUsed=           0 NTot=          32
 NSgBfM=    52    52    52    52    52 MxSgAt=     3 MxSgA2=     3.
 Leave Link  302 at Wed Apr 16 02:25:49 2025, MaxMem=   536870912 cpu:               1.5 elap:               0.4
 (Enter /home/szhao/Apps/g16/l303.exe)
 DipDrv:  MaxL=1.
 Leave Link  303 at Wed Apr 16 02:25:49 2025, MaxMem=   536870912 cpu:               0.4 elap:               0.1
 (Enter /home/szhao/Apps/g16/l401.exe)
 ExpMin= 4.38D-02 ExpMax= 6.29D+03 ExpMxC= 9.49D+02 IAcc=3 IRadAn=         7 AccDes= 0.00D+00
 Harris functional with IExCor= 1009 and IRadAn=       7 diagonalized for initial guess.
 HarFok:  IExCor= 1009 AccDes= 0.00D+00 IRadAn=         7 IDoV= 1 UseB2=F ITyADJ=14
 ICtDFT=  3500011 ScaDFX=  1.000000  1.000000  1.000000  1.000000
 FoFCou: FMM=F IPFlag=           0 FMFlag=      100000 FMFlg1=           0
         NFxFlg=           0 DoJE=T BraDBF=F KetDBF=T FulRan=T
         wScrn=  0.000000 ICntrl=       500 IOpCl=  0 I1Cent=   200000004 NGrid=           0
         NMat0=    1 NMatS0=      1 NMatT0=    0 NMatD0=    1 NMtDS0=    0 NMtDT0=    0
 Petite list used in FoFCou.
 Harris En= -93.3631906163867    
 JPrj=0 DoOrth=F DoCkMO=F.
 Initial guess orbital symmetries:
 Alpha Orbitals:
       Occupied  (SG) (SG) (SG) (SG) (SG) (PI) (PI)
       Virtual   (PI) (PI) (SG) (SG) (PI) (PI) (SG) (SG) (PI) (PI)
                 (SG) (SG) (PI) (PI) (SG) (SG) (SG) (PI) (PI) (SG)
                 (PI) (PI) (DLTA) (DLTA) (SG) (PI) (PI) (SG) (DLTA)
                 (DLTA) (SG) (PI) (PI) (SG) (PI) (PI) (SG) (SG)
                 (PI) (PI) (SG) (SG) (SG)
 Beta  Orbitals:
       Occupied  (SG) (SG) (SG) (SG) (SG) (PI) (PI)
       Virtual   (PI) (PI) (SG) (SG) (PI) (PI) (SG) (SG) (PI) (PI)
                 (SG) (SG) (PI) (PI) (SG) (SG) (SG) (PI) (PI) (SG)
                 (PI) (PI) (DLTA) (DLTA) (SG) (PI) (PI) (SG) (DLTA)
                 (DLTA) (SG) (PI) (PI) (SG) (PI) (PI) (SG) (SG)
                 (PI) (PI) (SG) (SG) (SG)
 The electronic state of the initial guess is 1-SG.
 Initial guess <Sx>= 0.0000 <Sy>= 0.0000 <Sz>= 0.0000 <S**2>= 0.0000 S= 0.0000
 Leave Link  401 at Wed Apr 16 02:25:49 2025, MaxMem=   536870912 cpu:               1.4 elap:               0.4
 (Enter /home/szhao/Apps/g16/l502.exe)
 Keep R1 and R2 ints in memory in symmetry-blocked form, NReq=7859137.
 FoFCou: FMM=F IPFlag=           0 FMFlag=           0 FMFlg1=           0
         NFxFlg=           0 DoJE=F BraDBF=F KetDBF=F FulRan=T
         wScrn=  0.000000 ICntrl=       600 IOpCl=  0 I1Cent=           0 NGrid=           0
         NMat0=    1 NMatS0=   1275 NMatT0=    0 NMatD0=    1 NMtDS0=    0 NMtDT0=    0
 Petite list used in FoFCou.
 UHF open shell SCF:
 Using DIIS extrapolation, IDIIS=  1040.
 NGot=   536870912 LenX=   536402663 LenY=   536399518
 Requested convergence on RMS density matrix=1.00D-08 within 128 cycles.
 Requested convergence on MAX density matrix=1.00D-06.
 Requested convergence on             energy=1.00D-06.
 No special actions if energy rises.

 Cycle   1  Pass 1  IDiag  1:
 E= -93.3690528117631    
 DIIS: error= 3.41D-02 at cycle   1 NSaved=   1.
 NSaved= 1 IEnMin= 1 EnMin= -93.3690528117631     IErMin= 1 ErrMin= 3.41D-02
 ErrMax= 3.41D-02  0.00D+00 EMaxC= 1.00D-01 BMatC= 2.57D-01 BMatP= 2.57D-01
 IDIUse=3 WtCom= 6.59D-01 WtEn= 3.41D-01
 Coeff-Com:  0.100D+01
 Coeff-En:   0.100D+01
 Coeff:      0.100D+01
 Gap=     0.392 Goal=   None    Shift=    0.000
 Gap=     0.392 Goal=   None    Shift=    0.000
 GapD=    0.392 DampG=1.000 DampE=0.500 DampFc=0.5000 IDamp=-1.
 Damping current iteration by 5.00D-01
 RMSDP=5.73D-03 MaxDP=7.50D-02              OVMax= 1.45D-01

 Cycle   2  Pass 1  IDiag  1:
 E= -93.3878158207561     Delta-E=       -0.018763008993 Rises=F Damp=T
 DIIS: error= 1.20D-02 at cycle   2 NSaved=   2.
 NSaved= 2 IEnMin= 2 EnMin= -93.3878158207561     IErMin= 2 ErrMin= 1.20D-02
 ErrMax= 1.20D-02  0.00D+00 EMaxC= 1.00D-01 BMatC= 3.51D-02 BMatP= 2.57D-01
 IDIUse=3 WtCom= 8.80D-01 WtEn= 1.20D-01
 Coeff-Com:  0.228D-01 0.977D+00
 Coeff-En:   0.123D+00 0.877D+00
 Coeff:      0.348D-01 0.965D+00
 Gap=     0.445 Goal=   None    Shift=    0.000
 Gap=     0.445 Goal=   None    Shift=    0.000
 RMSDP=1.64D-03 MaxDP=3.26D-02 DE=-1.88D-02 OVMax= 1.04D-01

 Cycle   3  Pass 1  IDiag  1:
 E= -93.4081267379231     Delta-E=       -0.020310917167 Rises=F Damp=F
 DIIS: error= 1.26D-02 at cycle   3 NSaved=   3.
 NSaved= 3 IEnMin= 3 EnMin= -93.4081267379231     IErMin= 2 ErrMin= 1.20D-02
 ErrMax= 1.26D-02  0.00D+00 EMaxC= 1.00D-01 BMatC= 2.96D-02 BMatP= 3.51D-02
 IDIUse=3 WtCom= 8.74D-01 WtEn= 1.26D-01
 Coeff-Com: -0.122D+00 0.532D+00 0.590D+00
 Coeff-En:   0.000D+00 0.000D+00 0.100D+01
 Coeff:     -0.106D+00 0.464D+00 0.642D+00
 Gap=     0.457 Goal=   None    Shift=    0.000
 Gap=     0.457 Goal=   None    Shift=    0.000
 RMSDP=1.16D-03 MaxDP=1.93D-02 DE=-2.03D-02 OVMax= 3.77D-02

 Cycle   4  Pass 1  IDiag  1:
 E= -93.4136893062885     Delta-E=       -0.005562568365 Rises=F Damp=F
 DIIS: error= 4.47D-03 at cycle   4 NSaved=   4.
 NSaved= 4 IEnMin= 4 EnMin= -93.4136893062885     IErMin= 4 ErrMin= 4.47D-03
 ErrMax= 4.47D-03  0.00D+00 EMaxC= 1.00D-01 BMatC= 3.61D-03 BMatP= 2.96D-02
 IDIUse=3 WtCom= 9.55D-01 WtEn= 4.47D-02
 Coeff-Com: -0.134D-01 0.241D-01 0.278D+00 0.712D+00
 Coeff-En:   0.000D+00 0.000D+00 0.108D+00 0.892D+00
 Coeff:     -0.128D-01 0.230D-01 0.270D+00 0.720D+00
 Gap=     0.454 Goal=   None    Shift=    0.000
 Gap=     0.454 Goal=   None    Shift=    0.000
 RMSDP=3.55D-04 MaxDP=5.96D-03 DE=-5.56D-03 OVMax= 9.37D-03

 Cycle   5  Pass 1  IDiag  1:
 E= -93.4144420246593     Delta-E=       -0.000752718371 Rises=F Damp=F
 DIIS: error= 1.48D-04 at cycle   5 NSaved=   5.
 NSaved= 5 IEnMin= 5 EnMin= -93.4144420246593     IErMin= 5 ErrMin= 1.48D-04
 ErrMax= 1.48D-04  0.00D+00 EMaxC= 1.00D-01 BMatC= 3.06D-06 BMatP= 3.61D-03
 IDIUse=3 WtCom= 9.99D-01 WtEn= 1.48D-03
 Coeff-Com:  0.187D-02-0.525D-02-0.333D-01-0.526D-01 0.109D+01
 Coeff-En:   0.000D+00 0.000D+00 0.000D+00 0.000D+00 0.100D+01
 Coeff:      0.186D-02-0.524D-02-0.332D-01-0.526D-01 0.109D+01
 Gap=     0.455 Goal=   None    Shift=    0.000
 Gap=     0.455 Goal=   None    Shift=    0.000
 RMSDP=1.98D-05 MaxDP=2.44D-04 DE=-7.53D-04 OVMax= 3.65D-04

 Cycle   6  Pass 1  IDiag  1:
 E= -93.4144428877804     Delta-E=       -0.000000863121 Rises=F Damp=F
 DIIS: error= 1.26D-05 at cycle   6 NSaved=   6.
 NSaved= 6 IEnMin= 6 EnMin= -93.4144428877804     IErMin= 6 ErrMin= 1.26D-05
 ErrMax= 1.26D-05  0.00D+00 EMaxC= 1.00D-01 BMatC= 1.90D-08 BMatP= 3.06D-06
 IDIUse=1 WtCom= 1.00D+00 WtEn= 0.00D+00
 Coeff-Com:  0.420D-03-0.877D-03-0.647D-02-0.144D-01 0.448D-01 0.977D+00
 Coeff:      0.420D-03-0.877D-03-0.647D-02-0.144D-01 0.448D-01 0.977D+00
 Gap=     0.455 Goal=   None    Shift=    0.000
 Gap=     0.455 Goal=   None    Shift=    0.000
 RMSDP=3.95D-06 MaxDP=5.75D-05 DE=-8.63D-07 OVMax= 6.10D-05

 Cycle   7  Pass 1  IDiag  1:
 E= -93.4144428969344     Delta-E=       -0.000000009154 Rises=F Damp=F
 DIIS: error= 3.45D-06 at cycle   7 NSaved=   7.
 NSaved= 7 IEnMin= 7 EnMin= -93.4144428969344     IErMin= 7 ErrMin= 3.45D-06
 ErrMax= 3.45D-06  0.00D+00 EMaxC= 1.00D-01 BMatC= 1.36D-09 BMatP= 1.90D-08
 IDIUse=1 WtCom= 1.00D+00 WtEn= 0.00D+00
 Coeff-Com: -0.345D-04 0.981D-04 0.124D-02 0.206D-02-0.286D-01-0.675D-01
 Coeff-Com:  0.109D+01
 Coeff:     -0.345D-04 0.981D-04 0.124D-02 0.206D-02-0.286D-01-0.675D-01
 Coeff:      0.109D+01
 Gap=     0.455 Goal=   None    Shift=    0.000
 Gap=     0.455 Goal=   None    Shift=    0.000
 RMSDP=6.59D-07 MaxDP=8.36D-06 DE=-9.15D-09 OVMax= 1.08D-05

 Cycle   8  Pass 1  IDiag  1:
 E= -93.4144428973082     Delta-E=       -0.000000000374 Rises=F Damp=F
 DIIS: error= 4.70D-07 at cycle   8 NSaved=   8.
 NSaved= 8 IEnMin= 8 EnMin= -93.4144428973082     IErMin= 8 ErrMin= 4.70D-07
 ErrMax= 4.70D-07  0.00D+00 EMaxC= 1.00D-01 BMatC= 2.40D-11 BMatP= 1.36D-09
 IDIUse=1 WtCom= 1.00D+00 WtEn= 0.00D+00
 Coeff-Com:  0.230D-07-0.140D-05-0.265D-04-0.799D-04 0.190D-02-0.536D-02
 Coeff-Com: -0.603D-01 0.106D+01
 Coeff:      0.230D-07-0.140D-05-0.265D-04-0.799D-04 0.190D-02-0.536D-02
 Coeff:     -0.603D-01 0.106D+01
 Gap=     0.455 Goal=   None    Shift=    0.000
 Gap=     0.455 Goal=   None    Shift=    0.000
 RMSDP=5.26D-08 MaxDP=6.09D-07 DE=-3.74D-10 OVMax= 8.33D-07

 Cycle   9  Pass 1  IDiag  1:
 E= -93.4144428973134     Delta-E=       -0.000000000005 Rises=F Damp=F
 DIIS: error= 3.26D-08 at cycle   9 NSaved=   9.
 NSaved= 9 IEnMin= 9 EnMin= -93.4144428973134     IErMin= 9 ErrMin= 3.26D-08
 ErrMax= 3.26D-08  0.00D+00 EMaxC= 1.00D-01 BMatC= 1.80D-13 BMatP= 2.40D-11
 IDIUse=1 WtCom= 1.00D+00 WtEn= 0.00D+00
 Coeff-Com: -0.199D-06 0.148D-06-0.488D-05-0.890D-05 0.159D-03 0.315D-03
 Coeff-Com: -0.979D-02-0.508D-01 0.106D+01
 Coeff:     -0.199D-06 0.148D-06-0.488D-05-0.890D-05 0.159D-03 0.315D-03
 Coeff:     -0.979D-02-0.508D-01 0.106D+01
 Gap=     0.455 Goal=   None    Shift=    0.000
 Gap=     0.455 Goal=   None    Shift=    0.000
 RMSDP=6.73D-09 MaxDP=9.07D-08 DE=-5.12D-12 OVMax= 1.15D-07

 SCF Done:  E(UM062X) =  -93.4144428973     A.U. after    9 cycles
            NFock=  9  Conv=0.67D-08     -V/T= 2.0035
 <Sx>= 0.0000 <Sy>= 0.0000 <Sz>= 0.0000 <S**2>= 0.0000 S= 0.0000
 <L.S>=  0.00000000000    
 KE= 9.308963634023D+01 PE=-2.661531948799D+02 EE= 5.558648662750D+01
 Annihilation of the first spin contaminant:
 S**2 before annihilation     0.0000,   after     0.0000
 Leave Link  502 at Wed Apr 16 02:25:51 2025, MaxMem=   536870912 cpu:               8.0 elap:               1.9
 (Enter /home/szhao/Apps/g16/l601.exe)
 Copying SCF densities to generalized density rwf, IOpCl= 1 IROHF=0.

 **********************************************************************

            Population analysis using the SCF density.

 **********************************************************************

 Orbital symmetries:
 Alpha Orbitals:
       Occupied  (SG) (SG) (SG) (SG) (SG) (PI) (PI)
       Virtual   (SG) (PI) (PI) (SG) (PI) (PI) (SG) (SG) (PI) (PI)
                 (SG) (SG) (PI) (PI) (SG) (SG) (SG) (PI) (PI) (SG)
                 (PI) (PI) (DLTA) (DLTA) (SG) (PI) (PI) (SG) (DLTA)
                 (DLTA) (SG) (PI) (PI) (SG) (PI) (PI) (SG) (SG)
                 (PI) (PI) (SG) (SG) (SG)
 Beta  Orbitals:
       Occupied  (SG) (SG) (SG) (SG) (SG) (PI) (PI)
       Virtual   (SG) (PI) (PI) (SG) (PI) (PI) (SG) (SG) (PI) (PI)
                 (SG) (SG) (PI) (PI) (SG) (SG) (SG) (PI) (PI) (SG)
                 (PI) (PI) (DLTA) (DLTA) (SG) (PI) (PI) (SG) (DLTA)
                 (DLTA) (SG) (PI) (PI) (SG) (PI) (PI) (SG) (SG)
                 (PI) (PI) (SG) (SG) (SG)
 The electronic state is 1-SG.
 Alpha  occ. eigenvalues --  -14.77836 -10.59508  -1.03983  -0.68874  -0.46730
 Alpha  occ. eigenvalues --   -0.43712  -0.43712
 Alpha virt. eigenvalues --    0.01749   0.03012   0.03012   0.03909   0.08605
 Alpha virt. eigenvalues --    0.08605   0.13285   0.19555   0.19708   0.19708
 Alpha virt. eigenvalues --    0.25969   0.41683   0.56164   0.56164   0.59968
 Alpha virt. eigenvalues --    0.79415   0.82465   0.88850   0.88850   1.07389
 Alpha virt. eigenvalues --    1.21724   1.21724   1.28762   1.28762   1.28790
 Alpha virt. eigenvalues --    1.84364   1.84364   1.96629   2.11489   2.11489
 Alpha virt. eigenvalues --    2.51338   2.67513   2.67513   2.91084   2.92190
 Alpha virt. eigenvalues --    2.92190   3.10741   3.44135   3.99975   3.99975
 Alpha virt. eigenvalues --    4.63154  24.40083  35.86504
  Beta  occ. eigenvalues --  -14.77836 -10.59508  -1.03983  -0.68874  -0.46730
  Beta  occ. eigenvalues --   -0.43712  -0.43712
  Beta virt. eigenvalues --    0.01749   0.03012   0.03012   0.03909   0.08605
  Beta virt. eigenvalues --    0.08605   0.13285   0.19555   0.19708   0.19708
  Beta virt. eigenvalues --    0.25969   0.41683   0.56164   0.56164   0.59968
  Beta virt. eigenvalues --    0.79415   0.82465   0.88850   0.88850   1.07389
  Beta virt. eigenvalues --    1.21724   1.21724   1.28762   1.28762   1.28790
  Beta virt. eigenvalues --    1.84364   1.84364   1.96629   2.11489   2.11489
  Beta virt. eigenvalues --    2.51338   2.67513   2.67513   2.91084   2.92190
  Beta virt. eigenvalues --    2.92190   3.10741   3.44135   3.99975   3.99975
  Beta virt. eigenvalues --    4.63154  24.40083  35.86504
          Condensed to atoms (all electrons):
               1          2          3
     1  C    4.949816   0.610289   0.392737
     2  N    0.610289   6.667091  -0.021198
     3  H    0.392737  -0.021198   0.419436
          Atomic-Atomic Spin Densities.
               1          2          3
     1  C    0.000000  -0.000000   0.000000
     2  N   -0.000000   0.000000  -0.000000
     3  H    0.000000  -0.000000  -0.000000
 Mulliken charges and spin densities:
               1          2
     1  C    0.047158  -0.000000
     2  N   -0.256182   0.000000
     3  H    0.209024  -0.000000
 Sum of Mulliken charges =   0.00000  -0.00000
 Mulliken charges and spin densities with hydrogens summed into heavy atoms:
               1          2
     1  C    0.256182  -0.000000
     2  N   -0.256182   0.000000
 Electronic spatial extent (au):  <R**2>=             49.3947
 Charge=              0.0000 electrons
 Dipole moment (field-independent basis, Debye):
    X=              0.0000    Y=              0.0000    Z=             -3.0738  Tot=              3.0738
 Quadrupole moment (field-independent basis, Debye-Ang):
   XX=            -11.8213   YY=            -11.8213   ZZ=             -9.8086
   XY=              0.0000   XZ=              0.0000   YZ=              0.0000
 Traceless Quadrupole moment (field-independent basis, Debye-Ang):
   XX=             -0.6709   YY=             -0.6709   ZZ=              1.3418
   XY=              0.0000   XZ=              0.0000   YZ=              0.0000
 Octapole moment (field-independent basis, Debye-Ang**2):
  XXX=              0.0000  YYY=              0.0000  ZZZ=             -7.8286  XYY=              0.0000
  XXY=              0.0000  XXZ=             -0.3063  XZZ=              0.0000  YZZ=              0.0000
  YYZ=             -0.3063  XYZ=              0.0000
 Hexadecapole moment (field-independent basis, Debye-Ang**3):
 XXXX=            -12.0917 YYYY=            -12.0917 ZZZZ=            -35.8671 XXXY=              0.0000
 XXXZ=              0.0000 YYYX=              0.0000 YYYZ=              0.0000 ZZZX=              0.0000
 ZZZY=              0.0000 XXYY=             -4.0306 XXZZ=             -9.2669 YYZZ=             -9.2669
 XXYZ=              0.0000 YYXZ=              0.0000 ZZXY=              0.0000
 N-N= 2.406262901490D+01 E-N=-2.661531945184D+02  KE= 9.308963634023D+01
 Symmetry A1   KE= 8.744170851873D+01
 Symmetry A2   KE=-2.087891019067D-51
 Symmetry B1   KE= 2.823963910751D+00
 Symmetry B2   KE= 2.823963910751D+00
 Symmetry A1   SP=-1.300739930844D-14
 Symmetry A2   SP= 3.540979964229D-54
 Symmetry B1   SP=-3.853908636021D-15
 Symmetry B2   SP=-3.396649855845D-15
                          Isotropic Fermi Contact Couplings
        Atom                 a.u.       MegaHertz       Gauss      10(-4) cm-1
     1  C(13)             -0.00000      -0.00000      -0.00000      -0.00000
     2  N(14)              0.00000       0.00000       0.00000       0.00000
     3  H(1)               0.00000       0.00000       0.00000       0.00000
 --------------------------------------------------------
       Center         ----  Spin Dipole Couplings  ----
                      3XX-RR        3YY-RR        3ZZ-RR
 --------------------------------------------------------
     1   Atom        0.000000      0.000000      0.000000
     2   Atom        0.000000      0.000000      0.000000
     3   Atom        0.000000      0.000000      0.000000
 --------------------------------------------------------
                        XY            XZ            YZ
 --------------------------------------------------------
     1   Atom        0.000000      0.000000      0.000000
     2   Atom        0.000000      0.000000      0.000000
     3   Atom        0.000000      0.000000      0.000000
 --------------------------------------------------------


 ---------------------------------------------------------------------------------
              Anisotropic Spin Dipole Couplings in Principal Axis System
 ---------------------------------------------------------------------------------

       Atom             a.u.   MegaHertz   Gauss  10(-4) cm-1        Axes

              Baa     0.0000     0.000     0.000     0.000  1.0000  0.0000  0.0000
     1 C(13)  Bbb     0.0000     0.000     0.000     0.000 -0.0000  1.0000  0.0000
              Bcc     0.0000     0.000     0.000     0.000  0.0000  0.0000  1.0000
 
              Baa     0.0000     0.000     0.000     0.000  1.0000  0.0000  0.0000
     2 N(14)  Bbb     0.0000     0.000     0.000     0.000 -0.0000  1.0000  0.0000
              Bcc     0.0000     0.000     0.000     0.000  0.0000  0.0000  1.0000
 
              Baa     0.0000     0.000     0.000     0.000  1.0000  0.0000  0.0000
     3 H(1)   Bbb     0.0000     0.000     0.000     0.000 -0.0000  1.0000  0.0000
              Bcc     0.0000     0.000     0.000     0.000  0.0000  0.0000  1.0000
 

 ---------------------------------------------------------------------------------

 No NMR shielding tensors so no spin-rotation constants.
 Leave Link  601 at Wed Apr 16 02:25:52 2025, MaxMem=   536870912 cpu:               1.7 elap:               0.4
 (Enter /home/szhao/Apps/g16/l607.exe)
 ******************************Gaussian NBO Version 3.1******************************
             N A T U R A L   A T O M I C   O R B I T A L   A N D
          N A T U R A L   B O N D   O R B I T A L   A N A L Y S I S
 ******************************Gaussian NBO Version 3.1******************************
       /RESON  / : Allow strongly delocalized NBO set

 Analyzing the SCF density

 Job title: Title Card Required                                             

 Storage needed:      7820 in NPA,     10181 in NBO ( 536870849 available)
 GSVD:  LWork=         460 too small for GESVD, short by        3350 words or        3350 for optimal perf.


 NATURAL POPULATIONS:  Natural atomic orbital occupancies 
                                                          
   NAO  Atom  No  lang   Type(AO)    Occupancy
 --------------------------------------------
     1    C    1  S      Cor( 1S)     1.99940
     2    C    1  S      Val( 2S)     0.97668
     3    C    1  S      Ryd( 3S)     0.01429
     4    C    1  S      Ryd( 4S)     0.00001
     5    C    1  S      Ryd( 5S)     0.00001
     6    C    1  px     Val( 2p)     0.91035
     7    C    1  px     Ryd( 3p)     0.00027
     8    C    1  px     Ryd( 4p)     0.00007
     9    C    1  px     Ryd( 5p)     0.00000
    10    C    1  py     Val( 2p)     0.91035
    11    C    1  py     Ryd( 3p)     0.00027
    12    C    1  py     Ryd( 4p)     0.00007
    13    C    1  py     Ryd( 5p)     0.00000
    14    C    1  pz     Val( 2p)     1.09180
    15    C    1  pz     Ryd( 3p)     0.00987
    16    C    1  pz     Ryd( 4p)     0.00031
    17    C    1  pz     Ryd( 5p)     0.00001
    18    C    1  dxy    Ryd( 3d)     0.00000
    19    C    1  dxz    Ryd( 3d)     0.00211
    20    C    1  dyz    Ryd( 3d)     0.00211
    21    C    1  dx2y2  Ryd( 3d)     0.00000
    22    C    1  dz2    Ryd( 3d)     0.00067
 
    23    N    2  S      Cor( 1S)     1.99966
    24    N    2  S      Val( 2S)     1.59483
    25    N    2  S      Ryd( 3S)     0.01084
    26    N    2  S      Ryd( 4S)     0.00000
    27    N    2  S      Ryd( 5S)     0.00000
    28    N    2  px     Val( 2p)     1.08424
    29    N    2  px     Ryd( 3p)     0.00007
    30    N    2  px     Ryd( 4p)     0.00004
    31    N    2  px     Ryd( 5p)     0.00000
    32    N    2  py     Val( 2p)     1.08424
    33    N    2  py     Ryd( 3p)     0.00007
    34    N    2  py     Ryd( 4p)     0.00004
    35    N    2  py     Ryd( 5p)     0.00000
    36    N    2  pz     Val( 2p)     1.52240
    37    N    2  pz     Ryd( 3p)     0.00165
    38    N    2  pz     Ryd( 4p)     0.00041
    39    N    2  pz     Ryd( 5p)     0.00001
    40    N    2  dxy    Ryd( 3d)     0.00000
    41    N    2  dxz    Ryd( 3d)     0.00279
    42    N    2  dyz    Ryd( 3d)     0.00279
    43    N    2  dx2y2  Ryd( 3d)     0.00000
    44    N    2  dz2    Ryd( 3d)     0.00238
 
    45    H    3  S      Val( 1S)     0.77370
    46    H    3  S      Ryd( 2S)     0.00040
    47    H    3  S      Ryd( 3S)     0.00010
    48    H    3  px     Ryd( 2p)     0.00005
    49    H    3  py     Ryd( 2p)     0.00005
    50    H    3  pz     Ryd( 2p)     0.00057


 Summary of Natural Population Analysis:                  
                                                          
                                       Natural Population 
                Natural  -----------------------------------------------
    Atom  No    Charge         Core      Valence    Rydberg      Total
 -----------------------------------------------------------------------
      C    1    0.08133      1.99940     3.88918    0.03009     5.91867
      N    2   -0.30647      1.99966     5.28571    0.02110     7.30647
      H    3    0.22514      0.00000     0.77370    0.00117     0.77486
 =======================================================================
   * Total *   -0.00000      3.99906     9.94859    0.05236    14.00000

                                 Natural Population      
 --------------------------------------------------------
   Core                       3.99906 ( 99.9764% of   4)
   Valence                    9.94859 ( 99.4859% of  10)
   Natural Minimal Basis     13.94764 ( 99.6260% of  14)
   Natural Rydberg Basis      0.05236 (  0.3740% of  14)
 --------------------------------------------------------

    Atom  No          Natural Electron Configuration
 ----------------------------------------------------------------------------
      C    1      [core]2S( 0.98)2p( 2.91)3S( 0.01)3p( 0.01)
      N    2      [core]2S( 1.59)2p( 3.69)3S( 0.01)3d( 0.01)
      H    3            1S( 0.77)


 ***************************************************
 *******         Alpha spin orbitals         *******
 ***************************************************


 NATURAL POPULATIONS:  Natural atomic orbital occupancies 
                                                          
   NAO  Atom  No  lang   Type(AO)    Occupancy      Energy
 ----------------------------------------------------------
     1    C    1  S      Cor( 1S)     0.99970     -10.46561
     2    C    1  S      Val( 2S)     0.48834      -0.23869
     3    C    1  S      Ryd( 3S)     0.00715       0.53938
     4    C    1  S      Ryd( 5S)     0.00001      16.46391
     5    C    1  S      Ryd( 4S)     0.00001       7.02735
     6    C    1  px     Val( 2p)     0.45517      -0.12959
     7    C    1  px     Ryd( 3p)     0.00014       0.73116
     8    C    1  px     Ryd( 4p)     0.00004       1.13197
     9    C    1  px     Ryd( 5p)     0.00000       1.51715
    10    C    1  py     Val( 2p)     0.45517      -0.12959
    11    C    1  py     Ryd( 3p)     0.00014       0.73116
    12    C    1  py     Ryd( 4p)     0.00004       1.13197
    13    C    1  py     Ryd( 5p)     0.00000       1.51715
    14    C    1  pz     Val( 2p)     0.54590       0.00246
    15    C    1  pz     Ryd( 3p)     0.00494       1.21870
    16    C    1  pz     Ryd( 5p)     0.00015       1.49233
    17    C    1  pz     Ryd( 4p)     0.00000       1.25374
    18    C    1  dxy    Ryd( 3d)     0.00000       1.35414
    19    C    1  dxz    Ryd( 3d)     0.00106       1.88523
    20    C    1  dyz    Ryd( 3d)     0.00106       1.88523
    21    C    1  dx2y2  Ryd( 3d)     0.00000       1.35414
    22    C    1  dz2    Ryd( 3d)     0.00033       3.33740
 
    23    N    2  S      Cor( 1S)     0.99983     -14.51601
    24    N    2  S      Val( 2S)     0.79741      -0.66650
    25    N    2  S      Ryd( 4S)     0.00542       1.33097
    26    N    2  S      Ryd( 5S)     0.00000      35.31130
    27    N    2  S      Ryd( 3S)     0.00000       0.86027
    28    N    2  px     Val( 2p)     0.54212      -0.17883
    29    N    2  px     Ryd( 3p)     0.00004       0.61663
    30    N    2  px     Ryd( 5p)     0.00002       3.40805
    31    N    2  px     Ryd( 4p)     0.00000       0.97675
    32    N    2  py     Val( 2p)     0.54212      -0.17883
    33    N    2  py     Ryd( 3p)     0.00004       0.61663
    34    N    2  py     Ryd( 5p)     0.00002       3.40805
    35    N    2  py     Ryd( 4p)     0.00000       0.97675
    36    N    2  pz     Val( 2p)     0.76120      -0.23732
    37    N    2  pz     Ryd( 3p)     0.00082       0.66508
    38    N    2  pz     Ryd( 5p)     0.00021       4.02200
    39    N    2  pz     Ryd( 4p)     0.00000       0.96422
    40    N    2  dxy    Ryd( 3d)     0.00000       2.04837
    41    N    2  dxz    Ryd( 3d)     0.00139       2.45194
    42    N    2  dyz    Ryd( 3d)     0.00139       2.45194
    43    N    2  dx2y2  Ryd( 3d)     0.00000       2.04837
    44    N    2  dz2    Ryd( 3d)     0.00119       3.24568
 
    45    H    3  S      Val( 1S)     0.38685      -0.00437
    46    H    3  S      Ryd( 3S)     0.00020       1.66253
    47    H    3  S      Ryd( 2S)     0.00005       0.90646
    48    H    3  px     Ryd( 2p)     0.00003       1.57348
    49    H    3  py     Ryd( 2p)     0.00003       1.57348
    50    H    3  pz     Ryd( 2p)     0.00029       2.73382

 WARNING:  Population inversion found on atom  C    1
           Population inversion found on atom  N    2
           Population inversion found on atom  H    3


 Summary of Natural Population Analysis:                  
                                                          
                                       Natural Population 
                Natural  -----------------------------------------------
    Atom  No    Charge         Core      Valence    Rydberg      Total
 -----------------------------------------------------------------------
      C    1    0.04067      0.99970     1.94459    0.01504     2.95933
      N    2   -0.15323      0.99983     2.64285    0.01055     3.65323
      H    3    0.11257      0.00000     0.38685    0.00058     0.38743
 =======================================================================
   * Total *    0.00000      1.99953     4.97429    0.02618     7.00000

                                 Natural Population      
 --------------------------------------------------------
   Core                       1.99953 ( 99.9764% of   2)
   Valence                    4.97429 ( 99.4859% of   5)
   Natural Minimal Basis      6.97382 ( 99.6260% of   7)
   Natural Rydberg Basis      0.02618 (  0.3740% of   7)
 --------------------------------------------------------

    Atom  No          Natural Electron Configuration
 ----------------------------------------------------------------------------
      C    1      [core]2S( 0.49)2p( 1.46)3S( 0.01)3p( 0.01)
      N    2      [core]2S( 0.80)2p( 1.85)4S( 0.01)
      H    3            1S( 0.39)


 NATURAL BOND ORBITAL ANALYSIS, alpha spin orbitals:

                       Occupancies       Lewis Structure    Low   High
           Occ.    -------------------  -----------------   occ   occ
  Cycle   Thresh.   Lewis   Non-Lewis     CR  BD  3C  LP    (L)   (NL)   Dev
 =============================================================================
   1(1)    0.90     6.98591   0.01409      2   4   0   1     0      0    0.00
 -----------------------------------------------------------------------------

 Structure accepted: No low occupancy Lewis orbitals

 --------------------------------------------------------
   Core                      1.99953 ( 99.976% of   2)
   Valence Lewis             4.98638 ( 99.728% of   5)
  ==================       ============================
   Total Lewis               6.98591 ( 99.799% of   7)
  -----------------------------------------------------
   Valence non-Lewis         0.00630 (  0.090% of   7)
   Rydberg non-Lewis         0.00779 (  0.111% of   7)
  ==================       ============================
   Total non-Lewis           0.01409 (  0.201% of   7)
 --------------------------------------------------------


       (Occupancy)   Bond orbital/ Coefficients/ Hybrids
 ---------------------------------------------------------------------------------
     1. (0.99997) BD ( 1) C   1 - N   2  
                ( 45.64%)   0.6756* C   1 s(  0.00%)p 1.00( 99.77%)d 0.00(  0.23%)
                                            0.0000  0.0000  0.0000  0.0000  0.0000
                                            0.9987  0.0172  0.0089 -0.0001  0.0000
                                            0.0000  0.0000  0.0000  0.0000  0.0000
                                            0.0000  0.0000  0.0000  0.0481  0.0000
                                            0.0000  0.0000
                ( 54.36%)   0.7373* N   2 s(  0.00%)p 1.00( 99.74%)d 0.00(  0.26%)
                                            0.0000  0.0000  0.0000  0.0000  0.0000
                                            0.9987 -0.0082 -0.0063 -0.0008  0.0000
                                            0.0000  0.0000  0.0000  0.0000  0.0000
                                            0.0000  0.0000  0.0000 -0.0506  0.0000
                                            0.0000  0.0000
     2. (0.99997) BD ( 2) C   1 - N   2  
                ( 45.64%)   0.6756* C   1 s(  0.00%)p 1.00( 99.77%)d 0.00(  0.23%)
                                            0.0000  0.0000  0.0000  0.0000  0.0000
                                            0.0000  0.0000  0.0000  0.0000  0.9987
                                            0.0172  0.0089 -0.0001  0.0000  0.0000
                                            0.0000  0.0000  0.0000  0.0000  0.0481
                                            0.0000  0.0000
                ( 54.36%)   0.7373* N   2 s(  0.00%)p 1.00( 99.74%)d 0.00(  0.26%)
                                            0.0000  0.0000  0.0000  0.0000  0.0000
                                            0.0000  0.0000  0.0000  0.0000  0.9987
                                           -0.0082 -0.0063 -0.0008  0.0000  0.0000
                                            0.0000  0.0000  0.0000  0.0000 -0.0506
                                            0.0000  0.0000
     3. (0.99918) BD ( 3) C   1 - N   2  
                ( 42.54%)   0.6522* C   1 s( 48.54%)p 1.06( 51.42%)d 0.00(  0.05%)
                                           -0.0000  0.6922  0.0785 -0.0019  0.0015
                                            0.0000  0.0000  0.0000  0.0000  0.0000
                                            0.0000  0.0000  0.0000  0.7144 -0.0606
                                           -0.0088  0.0001  0.0000  0.0000  0.0000
                                            0.0000  0.0213
                ( 57.46%)   0.7580* N   2 s( 46.60%)p 1.14( 53.25%)d 0.00(  0.15%)
                                            0.0000  0.6786 -0.0741 -0.0004 -0.0003
                                            0.0000  0.0000  0.0000  0.0000  0.0000
                                            0.0000  0.0000  0.0000 -0.7295  0.0162
                                           -0.0095 -0.0016  0.0000  0.0000  0.0000
                                            0.0000  0.0391
     4. (0.99721) BD ( 1) C   1 - H   3  
                ( 61.47%)   0.7840* C   1 s( 52.07%)p 0.92( 47.91%)d 0.00(  0.03%)
                                            0.0001 -0.7196  0.0540 -0.0011  0.0009
                                            0.0000  0.0000  0.0000  0.0000  0.0000
                                            0.0000  0.0000  0.0000  0.6920  0.0052
                                           -0.0112  0.0001  0.0000  0.0000  0.0000
                                            0.0000 -0.0161
                ( 38.53%)   0.6207* H   3 s( 99.93%)p 0.00(  0.07%)
                                           -0.9996 -0.0019  0.0000  0.0000  0.0000
                                           -0.0270
     5. (0.99970) CR ( 1) C   1           s(100.00%)
                                            1.0000  0.0001 -0.0000  0.0000 -0.0000
                                            0.0000  0.0000  0.0000  0.0000  0.0000
                                            0.0000  0.0000  0.0000 -0.0001 -0.0000
                                            0.0000 -0.0000  0.0000  0.0000  0.0000
                                            0.0000  0.0000
     6. (0.99983) CR ( 1) N   2           s(100.00%)p 0.00(  0.00%)
                                            1.0000  0.0004  0.0000  0.0000  0.0000
                                            0.0000  0.0000  0.0000  0.0000  0.0000
                                            0.0000  0.0000  0.0000  0.0004  0.0000
                                            0.0000  0.0000  0.0000  0.0000  0.0000
                                            0.0000 -0.0000
     7. (0.99005) LP ( 1) N   2           s( 53.95%)p 0.85( 46.02%)d 0.00(  0.03%)
                                           -0.0006  0.7335  0.0382  0.0003  0.0002
                                            0.0000  0.0000  0.0000  0.0000  0.0000
                                            0.0000  0.0000  0.0000  0.6780  0.0230
                                            0.0049  0.0002  0.0000  0.0000  0.0000
                                            0.0000 -0.0174
     8. (0.00606) RY*( 1) C   1           s( 43.75%)p 1.29( 56.24%)d 0.00(  0.01%)
                                           -0.0000 -0.0445  0.6591  0.0269 -0.0206
                                           -0.0000 -0.0000 -0.0000 -0.0000 -0.0000
                                           -0.0000 -0.0000 -0.0000 -0.0910 -0.7409
                                            0.0723 -0.0011 -0.0000 -0.0000 -0.0000
                                           -0.0000 -0.0082
     9. (0.00001) RY*( 2) C   1           s( 54.85%)p 0.82( 45.15%)d 0.00(  0.00%)
    10. (0.00000) RY*( 3) C   1           s( 99.98%)p 0.00(  0.02%)
    11. (0.00000) RY*( 4) C   1           s(  0.00%)p 1.00(100.00%)d 0.00(  0.00%)
    12. (0.00000) RY*( 5) C   1           s(  0.00%)p 1.00(100.00%)d 0.00(  0.00%)
    13. (0.00000) RY*( 6) C   1           s(  0.00%)p 1.00(100.00%)
    14. (0.00000) RY*( 7) C   1           s(  0.00%)p 1.00(100.00%)d 0.00(  0.00%)
    15. (0.00000) RY*( 8) C   1           s(  0.00%)p 1.00(100.00%)d 0.00(  0.00%)
    16. (0.00000) RY*( 9) C   1           s(  0.00%)p 1.00(100.00%)
    17. (0.00000) RY*(10) C   1           s( 99.59%)p 0.00(  0.41%)
    18. (0.00000) RY*(11) C   1           s(  1.16%)p85.25( 98.84%)d 0.00(  0.00%)
    19. (0.00000) RY*(12) C   1           s(  0.00%)p 1.00(100.00%)
    20. (0.00000) RY*(13) C   1           s(  0.00%)p 0.00(  0.00%)d 1.00(100.00%)
    21. (0.00000) RY*(14) C   1           s(  0.00%)p 1.00(  0.23%)d99.99( 99.77%)
    22. (0.00000) RY*(15) C   1           s(  0.00%)p 1.00(  0.23%)d99.99( 99.77%)
    23. (0.00000) RY*(16) C   1           s(  0.00%)p 0.00(  0.00%)d 1.00(100.00%)
    24. (0.00000) RY*(17) C   1           s(  0.07%)p 0.07(  0.00%)d99.99( 99.92%)
    25. (0.00130) RY*( 1) N   2           s( 82.38%)p 0.21( 17.26%)d 0.00(  0.36%)
                                            0.0000  0.0288  0.9066 -0.0264 -0.0166
                                            0.0000  0.0000  0.0000  0.0000  0.0000
                                            0.0000  0.0000  0.0000 -0.0780 -0.2398
                                            0.3286 -0.0316  0.0000  0.0000  0.0000
                                            0.0000 -0.0602
    26. (0.00010) RY*( 2) N   2           s(  5.33%)p15.86( 84.59%)d 1.89( 10.08%)
                                           -0.0000 -0.0246  0.2202 -0.0107 -0.0642
                                            0.0000  0.0000  0.0000  0.0000  0.0000
                                            0.0000  0.0000  0.0000 -0.0092  0.9114
                                            0.1056 -0.0627  0.0000  0.0000  0.0000
                                            0.0000  0.3175
    27. (0.00000) RY*( 3) N   2           s( 99.65%)p 0.00(  0.32%)d 0.00(  0.04%)
    28. (0.00000) RY*( 4) N   2           s(  0.00%)p 1.00(100.00%)d 0.00(  0.00%)
    29. (0.00000) RY*( 5) N   2           s(  0.00%)p 1.00(100.00%)d 0.00(  0.00%)
    30. (0.00000) RY*( 6) N   2           s(  0.00%)p 1.00(100.00%)
    31. (0.00000) RY*( 7) N   2           s(  0.00%)p 1.00(100.00%)d 0.00(  0.00%)
    32. (0.00000) RY*( 8) N   2           s(  0.00%)p 1.00(100.00%)d 0.00(  0.00%)
    33. (0.00000) RY*( 9) N   2           s(  0.00%)p 1.00(100.00%)
    34. (0.00000) RY*(10) N   2           s( 99.99%)p 0.00(  0.01%)d 0.00(  0.00%)
    35. (0.00000) RY*(11) N   2           s( 11.90%)p 7.40( 88.10%)d 0.00(  0.00%)
    36. (0.00000) RY*(12) N   2           s(  0.18%)p99.99( 99.78%)d 0.22(  0.04%)
    37. (0.00000) RY*(13) N   2           s(  0.00%)p 0.00(  0.00%)d 1.00(100.00%)
    38. (0.00000) RY*(14) N   2           s(  0.00%)p 1.00(  0.26%)d99.99( 99.74%)
    39. (0.00000) RY*(15) N   2           s(  0.00%)p 1.00(  0.26%)d99.99( 99.74%)
    40. (0.00000) RY*(16) N   2           s(  0.00%)p 0.00(  0.00%)d 1.00(100.00%)
    41. (0.00000) RY*(17) N   2           s(  0.02%)p99.99( 10.68%)d99.99( 89.30%)
    42. (0.00020) RY*( 1) H   3           s( 99.47%)p 0.01(  0.53%)
                                           -0.0039  0.9973  0.0003  0.0000  0.0000
                                            0.0728
    43. (0.00005) RY*( 2) H   3           s( 99.94%)p 0.00(  0.06%)
    44. (0.00003) RY*( 3) H   3           s(  0.00%)p 1.00(100.00%)
    45. (0.00003) RY*( 4) H   3           s(  0.00%)p 1.00(100.00%)
    46. (0.00000) RY*( 5) H   3           s(  0.66%)p99.99( 99.34%)
    47. (0.00000) BD*( 1) C   1 - N   2  
                ( 54.36%)   0.7373* C   1 s(  0.00%)p 1.00( 99.77%)d 0.00(  0.23%)
                ( 45.64%)  -0.6756* N   2 s(  0.00%)p 1.00( 99.74%)d 0.00(  0.26%)
    48. (0.00000) BD*( 2) C   1 - N   2  
                ( 54.36%)   0.7373* C   1 s(  0.00%)p 1.00( 99.77%)d 0.00(  0.23%)
                ( 45.64%)  -0.6756* N   2 s(  0.00%)p 1.00( 99.74%)d 0.00(  0.26%)
    49. (0.00158) BD*( 3) C   1 - N   2  
                ( 57.46%)   0.7580* C   1 s( 48.54%)p 1.06( 51.42%)d 0.00(  0.05%)
                                           -0.0000  0.6922  0.0785 -0.0019  0.0015
                                            0.0000  0.0000  0.0000  0.0000  0.0000
                                            0.0000  0.0000  0.0000  0.7144 -0.0606
                                           -0.0088  0.0001  0.0000  0.0000  0.0000
                                            0.0000  0.0213
                ( 42.54%)  -0.6522* N   2 s( 46.60%)p 1.14( 53.25%)d 0.00(  0.15%)
                                            0.0000  0.6786 -0.0741 -0.0004 -0.0003
                                            0.0000  0.0000  0.0000  0.0000  0.0000
                                            0.0000  0.0000  0.0000 -0.7295  0.0162
                                           -0.0095 -0.0016  0.0000  0.0000  0.0000
                                            0.0000  0.0391
    50. (0.00472) BD*( 1) C   1 - H   3  
                ( 38.53%)   0.6207* C   1 s( 52.07%)p 0.92( 47.91%)d 0.00(  0.03%)
                                           -0.0001  0.7196 -0.0540  0.0011 -0.0009
                                           -0.0000 -0.0000 -0.0000 -0.0000 -0.0000
                                           -0.0000 -0.0000 -0.0000 -0.6920 -0.0052
                                            0.0112 -0.0001 -0.0000 -0.0000 -0.0000
                                           -0.0000  0.0161
                ( 61.47%)  -0.7840* H   3 s( 99.93%)p 0.00(  0.07%)
                                            0.9996  0.0019 -0.0000 -0.0000 -0.0000
                                            0.0270


 NHO Directionality and "Bond Bending" (deviations from line of nuclear centers)

         [Thresholds for printing:  angular deviation  >  1.0 degree]
                                    hybrid p-character > 25.0%
                                    orbital occupancy  >  0.10e

                                Line of Centers        Hybrid 1              Hybrid 2
                                ---------------  -------------------   ------------------
                NBO               Theta   Phi    Theta   Phi    Dev    Theta   Phi    Dev
 ========================================================================================
     1. BD (   1) C   1 - N   2     0.0    0.0    90.0    0.0  90.0     90.0    0.0  90.0
     2. BD (   2) C   1 - N   2     0.0    0.0    90.0   90.0  90.0     90.0   90.0  90.0
     7. LP (   1) N   2             --     --      0.0    0.0   --       --     --    --


 Second Order Perturbation Theory Analysis of Fock Matrix in NBO Basis

     Threshold for printing:   0.25 kcal/mol
                                                                              E(2)  E(j)-E(i) F(i,j)
         Donor NBO (i)                     Acceptor NBO (j)                 kcal/mol   a.u.    a.u. 
 ===================================================================================================

 within unit  1
   3. BD (   3) C   1 - N   2        /  8. RY*(   1) C   1                    0.40    2.31    0.038
   3. BD (   3) C   1 - N   2        / 50. BD*(   1) C   1 - H   3            1.33    1.63    0.059
   4. BD (   1) C   1 - H   3        / 10. RY*(   3) C   1                    0.27    7.73    0.058
   4. BD (   1) C   1 - H   3        / 25. RY*(   1) N   2                    1.59    2.18    0.074
   4. BD (   1) C   1 - H   3        / 49. BD*(   3) C   1 - N   2            1.57    1.77    0.066
   5. CR (   1) C   1                / 25. RY*(   1) N   2                    0.58   11.91    0.105
   5. CR (   1) C   1                / 26. RY*(   2) N   2                    0.65   11.33    0.108
   5. CR (   1) C   1                / 42. RY*(   1) H   3                    0.46   12.12    0.094
   5. CR (   1) C   1                / 49. BD*(   3) C   1 - N   2            0.48   11.50    0.094
   5. CR (   1) C   1                / 50. BD*(   1) C   1 - H   3            0.25   10.91    0.067
   6. CR (   1) N   2                /  8. RY*(   1) C   1                    2.93   15.64    0.271
   6. CR (   1) N   2                / 50. BD*(   1) C   1 - H   3            1.66   14.96    0.199
   7. LP (   1) N   2                /  8. RY*(   1) C   1                    8.46    1.75    0.154
   7. LP (   1) N   2                /  9. RY*(   2) C   1                    0.61    1.70    0.041
   7. LP (   1) N   2                / 18. RY*(  11) C   1                    0.96    1.80    0.053
   7. LP (   1) N   2                / 19. RY*(  12) C   1                    0.36    1.88    0.033
   7. LP (   1) N   2                / 25. RY*(   1) N   2                    0.43    2.07    0.038
   7. LP (   1) N   2                / 50. BD*(   1) C   1 - H   3            3.93    1.07    0.082


 Natural Bond Orbitals (Summary):

                                                            Principal Delocalizations
           NBO                        Occupancy    Energy   (geminal,vicinal,remote)
 ====================================================================================
 Molecular unit  1  (CHN)
     1. BD (   1) C   1 - N   2          0.99997    -0.43707   
     2. BD (   2) C   1 - N   2          0.99997    -0.43707   
     3. BD (   3) C   1 - N   2          0.99918    -1.19117  50(g),8(g)
     4. BD (   1) C   1 - H   3          0.99721    -0.73484  25(v),49(g),10(g)
     5. CR (   1) C   1                  0.99970   -10.46582  26(v),25(v),49(g),42(v)
                                                    50(g)
     6. CR (   1) N   2                  0.99983   -14.51753  8(v),50(v)
     7. LP (   1) N   2                  0.99005    -0.62760  8(v),50(v),18(v),9(v),25(g)
                                                    19(v)
     8. RY*(   1) C   1                  0.00606     1.11882   
     9. RY*(   2) C   1                  0.00001     1.07093   
    10. RY*(   3) C   1                  0.00000     6.99783   
    11. RY*(   4) C   1                  0.00000     0.73471   
    12. RY*(   5) C   1                  0.00000     1.13173   
    13. RY*(   6) C   1                  0.00000     1.51715   
    14. RY*(   7) C   1                  0.00000     0.73471   
    15. RY*(   8) C   1                  0.00000     1.13173   
    16. RY*(   9) C   1                  0.00000     1.51715   
    17. RY*(  10) C   1                  0.00000    16.36441   
    18. RY*(  11) C   1                  0.00000     1.17112   
    19. RY*(  12) C   1                  0.00000     1.25278   
    20. RY*(  13) C   1                  0.00000     1.35414   
    21. RY*(  14) C   1                  0.00000     1.87949   
    22. RY*(  15) C   1                  0.00000     1.87949   
    23. RY*(  16) C   1                  0.00000     1.35414   
    24. RY*(  17) C   1                  0.00000     3.32036   
    25. RY*(   1) N   2                  0.00130     1.44625   
    26. RY*(   2) N   2                  0.00010     0.86215   
    27. RY*(   3) N   2                  0.00000     0.90355   
    28. RY*(   4) N   2                  0.00000     0.61539   
    29. RY*(   5) N   2                  0.00000     3.40838   
    30. RY*(   6) N   2                  0.00000     0.97675   
    31. RY*(   7) N   2                  0.00000     0.61539   
    32. RY*(   8) N   2                  0.00000     3.40838   
    33. RY*(   9) N   2                  0.00000     0.97675   
    34. RY*(  10) N   2                  0.00000    35.35082   
    35. RY*(  11) N   2                  0.00000     3.85132   
    36. RY*(  12) N   2                  0.00000     1.00280   
    37. RY*(  13) N   2                  0.00000     2.04837   
    38. RY*(  14) N   2                  0.00000     2.45105   
    39. RY*(  15) N   2                  0.00000     2.45105   
    40. RY*(  16) N   2                  0.00000     2.04837   
    41. RY*(  17) N   2                  0.00000     2.96099   
    42. RY*(   1) H   3                  0.00020     1.65430   
    43. RY*(   2) H   3                  0.00005     0.89535   
    44. RY*(   3) H   3                  0.00003     1.57348   
    45. RY*(   4) H   3                  0.00003     1.57348   
    46. RY*(   5) H   3                  0.00000     2.74901   
    47. BD*(   1) C   1 - N   2          0.00000     0.13285   
    48. BD*(   2) C   1 - N   2          0.00000     0.13285   
    49. BD*(   3) C   1 - N   2          0.00158     1.03023   
    50. BD*(   1) C   1 - H   3          0.00472     0.44305   
       -------------------------------
              Total Lewis    6.98591  ( 99.7987%)
        Valence non-Lewis    0.00630  (  0.0900%)
        Rydberg non-Lewis    0.00779  (  0.1113%)
       -------------------------------
            Total unit  1    7.00000  (100.0000%)
           Charge unit  1    0.00000
 Sorting of NBOs:                    6    5    3    4    7    2    1   48   47   50
 Sorting of NBOs:                   28   31   11   14   26   43   27   33   30   36
 Sorting of NBOs:                   49    9    8   12   15   18   19   20   23   25
 Sorting of NBOs:                   13   16   44   45   42   22   21   37   40   39
 Sorting of NBOs:                   38   46   41   24   32   29   35   10   17   34
 Reordering of NBOs for storage:     6    5    3    4    7    2    1   48   47   50
 Reordering of NBOs for storage:    49   28   31   11   14   26   43   27   33   30
 Reordering of NBOs for storage:    36    9    8   12   15   18   19   20   23   25
 Reordering of NBOs for storage:    13   16   44   45   42   22   21   37   40   39
 Reordering of NBOs for storage:    38   46   41   24   32   29   35   10   17   34
 Labels of output orbitals:  CR  CR  BD  BD  LP  BD  BD  BD* BD* BD* BD* RY* RY* RY* RY* RY* RY* RY* RY* RY* 
 Labels of output orbitals:  RY* RY* RY* RY* RY* RY* RY* RY* RY* RY* RY* RY* RY* RY* RY* RY* RY* RY* RY* RY* 
 Labels of output orbitals:  RY* RY* RY* RY* RY* RY* RY* RY* RY* RY* 
 GSVD:  LWork=       -2193 too small for GESVD, short by        9890 words or        9890 for optimal perf.


 ***************************************************
 *******         Beta  spin orbitals         *******
 ***************************************************


 NATURAL POPULATIONS:  Natural atomic orbital occupancies 
                                                          
   NAO  Atom  No  lang   Type(AO)    Occupancy      Energy
 ----------------------------------------------------------
     1    C    1  S      Cor( 1S)     0.99970     -10.46561
     2    C    1  S      Val( 2S)     0.48834      -0.23869
     3    C    1  S      Ryd( 3S)     0.00715       0.53938
     4    C    1  S      Ryd( 5S)     0.00001      16.46391
     5    C    1  S      Ryd( 4S)     0.00001       7.02735
     6    C    1  px     Val( 2p)     0.45517      -0.12959
     7    C    1  px     Ryd( 3p)     0.00014       0.73116
     8    C    1  px     Ryd( 4p)     0.00004       1.13197
     9    C    1  px     Ryd( 5p)     0.00000       1.51715
    10    C    1  py     Val( 2p)     0.45517      -0.12959
    11    C    1  py     Ryd( 3p)     0.00014       0.73116
    12    C    1  py     Ryd( 4p)     0.00004       1.13197
    13    C    1  py     Ryd( 5p)     0.00000       1.51715
    14    C    1  pz     Val( 2p)     0.54590       0.00246
    15    C    1  pz     Ryd( 3p)     0.00494       1.21870
    16    C    1  pz     Ryd( 5p)     0.00015       1.49233
    17    C    1  pz     Ryd( 4p)     0.00000       1.25374
    18    C    1  dxy    Ryd( 3d)     0.00000       1.35414
    19    C    1  dxz    Ryd( 3d)     0.00106       1.88523
    20    C    1  dyz    Ryd( 3d)     0.00106       1.88523
    21    C    1  dx2y2  Ryd( 3d)     0.00000       1.35414
    22    C    1  dz2    Ryd( 3d)     0.00033       3.33740
 
    23    N    2  S      Cor( 1S)     0.99983     -14.51601
    24    N    2  S      Val( 2S)     0.79741      -0.66650
    25    N    2  S      Ryd( 4S)     0.00542       1.33097
    26    N    2  S      Ryd( 5S)     0.00000      35.31130
    27    N    2  S      Ryd( 3S)     0.00000       0.86027
    28    N    2  px     Val( 2p)     0.54212      -0.17883
    29    N    2  px     Ryd( 3p)     0.00004       0.61663
    30    N    2  px     Ryd( 5p)     0.00002       3.40805
    31    N    2  px     Ryd( 4p)     0.00000       0.97675
    32    N    2  py     Val( 2p)     0.54212      -0.17883
    33    N    2  py     Ryd( 3p)     0.00004       0.61663
    34    N    2  py     Ryd( 5p)     0.00002       3.40805
    35    N    2  py     Ryd( 4p)     0.00000       0.97675
    36    N    2  pz     Val( 2p)     0.76120      -0.23732
    37    N    2  pz     Ryd( 3p)     0.00082       0.66508
    38    N    2  pz     Ryd( 5p)     0.00021       4.02200
    39    N    2  pz     Ryd( 4p)     0.00000       0.96422
    40    N    2  dxy    Ryd( 3d)     0.00000       2.04837
    41    N    2  dxz    Ryd( 3d)     0.00139       2.45194
    42    N    2  dyz    Ryd( 3d)     0.00139       2.45194
    43    N    2  dx2y2  Ryd( 3d)     0.00000       2.04837
    44    N    2  dz2    Ryd( 3d)     0.00119       3.24568
 
    45    H    3  S      Val( 1S)     0.38685      -0.00437
    46    H    3  S      Ryd( 3S)     0.00020       1.66253
    47    H    3  S      Ryd( 2S)     0.00005       0.90646
    48    H    3  px     Ryd( 2p)     0.00003       1.57348
    49    H    3  py     Ryd( 2p)     0.00003       1.57348
    50    H    3  pz     Ryd( 2p)     0.00029       2.73382

 WARNING:  Population inversion found on atom  C    1
           Population inversion found on atom  N    2
           Population inversion found on atom  H    3


 Summary of Natural Population Analysis:                  
                                                          
                                       Natural Population 
                Natural  -----------------------------------------------
    Atom  No    Charge         Core      Valence    Rydberg      Total
 -----------------------------------------------------------------------
      C    1    0.04067      0.99970     1.94459    0.01504     2.95933
      N    2   -0.15323      0.99983     2.64285    0.01055     3.65323
      H    3    0.11257      0.00000     0.38685    0.00058     0.38743
 =======================================================================
   * Total *   -0.00000      1.99953     4.97429    0.02618     7.00000

                                 Natural Population      
 --------------------------------------------------------
   Core                       1.99953 ( 99.9764% of   2)
   Valence                    4.97429 ( 99.4859% of   5)
   Natural Minimal Basis      6.97382 ( 99.6260% of   7)
   Natural Rydberg Basis      0.02618 (  0.3740% of   7)
 --------------------------------------------------------

    Atom  No          Natural Electron Configuration
 ----------------------------------------------------------------------------
      C    1      [core]2S( 0.49)2p( 1.46)3S( 0.01)3p( 0.01)
      N    2      [core]2S( 0.80)2p( 1.85)4S( 0.01)
      H    3            1S( 0.39)


 NATURAL BOND ORBITAL ANALYSIS, beta spin orbitals:

                       Occupancies       Lewis Structure    Low   High
           Occ.    -------------------  -----------------   occ   occ
  Cycle   Thresh.   Lewis   Non-Lewis     CR  BD  3C  LP    (L)   (NL)   Dev
 =============================================================================
   1(1)    0.90     6.98591   0.01409      2   4   0   1     0      0    0.00
 -----------------------------------------------------------------------------

 Structure accepted: No low occupancy Lewis orbitals

 --------------------------------------------------------
   Core                      1.99953 ( 99.976% of   2)
   Valence Lewis             4.98638 ( 99.728% of   5)
  ==================       ============================
   Total Lewis               6.98591 ( 99.799% of   7)
  -----------------------------------------------------
   Valence non-Lewis         0.00630 (  0.090% of   7)
   Rydberg non-Lewis         0.00779 (  0.111% of   7)
  ==================       ============================
   Total non-Lewis           0.01409 (  0.201% of   7)
 --------------------------------------------------------


       (Occupancy)   Bond orbital/ Coefficients/ Hybrids
 ---------------------------------------------------------------------------------
     1. (0.99997) BD ( 1) C   1 - N   2  
                ( 45.64%)   0.6756* C   1 s(  0.00%)p 1.00( 99.77%)d 0.00(  0.23%)
                                            0.0000  0.0000  0.0000  0.0000  0.0000
                                            0.9987  0.0172  0.0089 -0.0001  0.0000
                                            0.0000  0.0000  0.0000  0.0000  0.0000
                                            0.0000  0.0000  0.0000  0.0481  0.0000
                                            0.0000  0.0000
                ( 54.36%)   0.7373* N   2 s(  0.00%)p 1.00( 99.74%)d 0.00(  0.26%)
                                            0.0000  0.0000  0.0000  0.0000  0.0000
                                            0.9987 -0.0082 -0.0063 -0.0008  0.0000
                                            0.0000  0.0000  0.0000  0.0000  0.0000
                                            0.0000  0.0000  0.0000 -0.0506  0.0000
                                            0.0000  0.0000
     2. (0.99997) BD ( 2) C   1 - N   2  
                ( 45.64%)   0.6756* C   1 s(  0.00%)p 1.00( 99.77%)d 0.00(  0.23%)
                                            0.0000  0.0000  0.0000  0.0000  0.0000
                                            0.0000  0.0000  0.0000  0.0000  0.9987
                                            0.0172  0.0089 -0.0001  0.0000  0.0000
                                            0.0000  0.0000  0.0000  0.0000  0.0481
                                            0.0000  0.0000
                ( 54.36%)   0.7373* N   2 s(  0.00%)p 1.00( 99.74%)d 0.00(  0.26%)
                                            0.0000  0.0000  0.0000  0.0000  0.0000
                                            0.0000  0.0000  0.0000  0.0000  0.9987
                                           -0.0082 -0.0063 -0.0008  0.0000  0.0000
                                            0.0000  0.0000  0.0000  0.0000 -0.0506
                                            0.0000  0.0000
     3. (0.99918) BD ( 3) C   1 - N   2  
                ( 42.54%)   0.6522* C   1 s( 48.54%)p 1.06( 51.42%)d 0.00(  0.05%)
                                           -0.0000  0.6922  0.0785 -0.0019  0.0015
                                            0.0000  0.0000  0.0000  0.0000  0.0000
                                            0.0000  0.0000  0.0000  0.7144 -0.0606
                                           -0.0088  0.0001  0.0000  0.0000  0.0000
                                            0.0000  0.0213
                ( 57.46%)   0.7580* N   2 s( 46.60%)p 1.14( 53.25%)d 0.00(  0.15%)
                                            0.0000  0.6786 -0.0741 -0.0004 -0.0003
                                            0.0000  0.0000  0.0000  0.0000  0.0000
                                            0.0000  0.0000  0.0000 -0.7295  0.0162
                                           -0.0095 -0.0016  0.0000  0.0000  0.0000
                                            0.0000  0.0391
     4. (0.99721) BD ( 1) C   1 - H   3  
                ( 61.47%)   0.7840* C   1 s( 52.07%)p 0.92( 47.91%)d 0.00(  0.03%)
                                            0.0001 -0.7196  0.0540 -0.0011  0.0009
                                            0.0000  0.0000  0.0000  0.0000  0.0000
                                            0.0000  0.0000  0.0000  0.6920  0.0052
                                           -0.0112  0.0001  0.0000  0.0000  0.0000
                                            0.0000 -0.0161
                ( 38.53%)   0.6207* H   3 s( 99.93%)p 0.00(  0.07%)
                                           -0.9996 -0.0019  0.0000  0.0000  0.0000
                                           -0.0270
     5. (0.99970) CR ( 1) C   1           s(100.00%)
                                            1.0000  0.0001 -0.0000  0.0000 -0.0000
                                            0.0000  0.0000  0.0000  0.0000  0.0000
                                            0.0000  0.0000  0.0000 -0.0001 -0.0000
                                            0.0000 -0.0000  0.0000  0.0000  0.0000
                                            0.0000  0.0000
     6. (0.99983) CR ( 1) N   2           s(100.00%)p 0.00(  0.00%)
                                            1.0000  0.0004  0.0000  0.0000  0.0000
                                            0.0000  0.0000  0.0000  0.0000  0.0000
                                            0.0000  0.0000  0.0000  0.0004  0.0000
                                            0.0000  0.0000  0.0000  0.0000  0.0000
                                            0.0000 -0.0000
     7. (0.99005) LP ( 1) N   2           s( 53.95%)p 0.85( 46.02%)d 0.00(  0.03%)
                                           -0.0006  0.7335  0.0382  0.0003  0.0002
                                            0.0000  0.0000  0.0000  0.0000  0.0000
                                            0.0000  0.0000  0.0000  0.6780  0.0230
                                            0.0049  0.0002  0.0000  0.0000  0.0000
                                            0.0000 -0.0174
     8. (0.00606) RY*( 1) C   1           s( 43.75%)p 1.29( 56.24%)d 0.00(  0.01%)
                                           -0.0000 -0.0445  0.6591  0.0269 -0.0206
                                           -0.0000 -0.0000 -0.0000 -0.0000 -0.0000
                                           -0.0000 -0.0000 -0.0000 -0.0910 -0.7409
                                            0.0723 -0.0011 -0.0000 -0.0000 -0.0000
                                           -0.0000 -0.0082
     9. (0.00001) RY*( 2) C   1           s( 54.85%)p 0.82( 45.15%)d 0.00(  0.00%)
    10. (0.00000) RY*( 3) C   1           s( 99.98%)p 0.00(  0.02%)
    11. (0.00000) RY*( 4) C   1           s(  0.00%)p 1.00(100.00%)d 0.00(  0.00%)
    12. (0.00000) RY*( 5) C   1           s(  0.00%)p 1.00(100.00%)d 0.00(  0.00%)
    13. (0.00000) RY*( 6) C   1           s(  0.00%)p 1.00(100.00%)
    14. (0.00000) RY*( 7) C   1           s(  0.00%)p 1.00(100.00%)d 0.00(  0.00%)
    15. (0.00000) RY*( 8) C   1           s(  0.00%)p 1.00(100.00%)d 0.00(  0.00%)
    16. (0.00000) RY*( 9) C   1           s(  0.00%)p 1.00(100.00%)
    17. (0.00000) RY*(10) C   1           s( 99.59%)p 0.00(  0.41%)
    18. (0.00000) RY*(11) C   1           s(  1.16%)p85.25( 98.84%)d 0.00(  0.00%)
    19. (0.00000) RY*(12) C   1           s(  0.00%)p 1.00(100.00%)
    20. (0.00000) RY*(13) C   1           s(  0.00%)p 0.00(  0.00%)d 1.00(100.00%)
    21. (0.00000) RY*(14) C   1           s(  0.00%)p 1.00(  0.23%)d99.99( 99.77%)
    22. (0.00000) RY*(15) C   1           s(  0.00%)p 1.00(  0.23%)d99.99( 99.77%)
    23. (0.00000) RY*(16) C   1           s(  0.00%)p 0.00(  0.00%)d 1.00(100.00%)
    24. (0.00000) RY*(17) C   1           s(  0.07%)p 0.07(  0.00%)d99.99( 99.92%)
    25. (0.00130) RY*( 1) N   2           s( 82.38%)p 0.21( 17.26%)d 0.00(  0.36%)
                                           -0.0000  0.0288  0.9066 -0.0264 -0.0166
                                            0.0000  0.0000  0.0000  0.0000  0.0000
                                            0.0000  0.0000  0.0000 -0.0780 -0.2398
                                            0.3286 -0.0316  0.0000  0.0000  0.0000
                                            0.0000 -0.0602
    26. (0.00010) RY*( 2) N   2           s(  5.33%)p15.86( 84.59%)d 1.89( 10.08%)
                                           -0.0000 -0.0246  0.2202 -0.0107 -0.0642
                                            0.0000  0.0000  0.0000  0.0000  0.0000
                                            0.0000  0.0000  0.0000 -0.0092  0.9114
                                            0.1056 -0.0627  0.0000  0.0000  0.0000
                                            0.0000  0.3175
    27. (0.00000) RY*( 3) N   2           s( 99.65%)p 0.00(  0.32%)d 0.00(  0.04%)
    28. (0.00000) RY*( 4) N   2           s(  0.00%)p 1.00(100.00%)d 0.00(  0.00%)
    29. (0.00000) RY*( 5) N   2           s(  0.00%)p 1.00(100.00%)d 0.00(  0.00%)
    30. (0.00000) RY*( 6) N   2           s(  0.00%)p 1.00(100.00%)
    31. (0.00000) RY*( 7) N   2           s(  0.00%)p 1.00(100.00%)d 0.00(  0.00%)
    32. (0.00000) RY*( 8) N   2           s(  0.00%)p 1.00(100.00%)d 0.00(  0.00%)
    33. (0.00000) RY*( 9) N   2           s(  0.00%)p 1.00(100.00%)
    34. (0.00000) RY*(10) N   2           s( 99.99%)p 0.00(  0.01%)d 0.00(  0.00%)
    35. (0.00000) RY*(11) N   2           s( 11.90%)p 7.40( 88.10%)d 0.00(  0.00%)
    36. (0.00000) RY*(12) N   2           s(  0.18%)p99.99( 99.78%)d 0.22(  0.04%)
    37. (0.00000) RY*(13) N   2           s(  0.00%)p 0.00(  0.00%)d 1.00(100.00%)
    38. (0.00000) RY*(14) N   2           s(  0.00%)p 1.00(  0.26%)d99.99( 99.74%)
    39. (0.00000) RY*(15) N   2           s(  0.00%)p 1.00(  0.26%)d99.99( 99.74%)
    40. (0.00000) RY*(16) N   2           s(  0.00%)p 0.00(  0.00%)d 1.00(100.00%)
    41. (0.00000) RY*(17) N   2           s(  0.02%)p99.99( 10.68%)d99.99( 89.30%)
    42. (0.00020) RY*( 1) H   3           s( 99.47%)p 0.01(  0.53%)
                                           -0.0039  0.9973  0.0003  0.0000  0.0000
                                            0.0728
    43. (0.00005) RY*( 2) H   3           s( 99.94%)p 0.00(  0.06%)
    44. (0.00003) RY*( 3) H   3           s(  0.00%)p 1.00(100.00%)
    45. (0.00003) RY*( 4) H   3           s(  0.00%)p 1.00(100.00%)
    46. (0.00000) RY*( 5) H   3           s(  0.66%)p99.99( 99.34%)
    47. (0.00000) BD*( 1) C   1 - N   2  
                ( 54.36%)   0.7373* C   1 s(  0.00%)p 1.00( 99.77%)d 0.00(  0.23%)
                ( 45.64%)  -0.6756* N   2 s(  0.00%)p 1.00( 99.74%)d 0.00(  0.26%)
    48. (0.00000) BD*( 2) C   1 - N   2  
                ( 54.36%)   0.7373* C   1 s(  0.00%)p 1.00( 99.77%)d 0.00(  0.23%)
                ( 45.64%)  -0.6756* N   2 s(  0.00%)p 1.00( 99.74%)d 0.00(  0.26%)
    49. (0.00158) BD*( 3) C   1 - N   2  
                ( 57.46%)   0.7580* C   1 s( 48.54%)p 1.06( 51.42%)d 0.00(  0.05%)
                                           -0.0000  0.6922  0.0785 -0.0019  0.0015
                                            0.0000  0.0000  0.0000  0.0000  0.0000
                                            0.0000  0.0000  0.0000  0.7144 -0.0606
                                           -0.0088  0.0001  0.0000  0.0000  0.0000
                                            0.0000  0.0213
                ( 42.54%)  -0.6522* N   2 s( 46.60%)p 1.14( 53.25%)d 0.00(  0.15%)
                                            0.0000  0.6786 -0.0741 -0.0004 -0.0003
                                            0.0000  0.0000  0.0000  0.0000  0.0000
                                            0.0000  0.0000  0.0000 -0.7295  0.0162
                                           -0.0095 -0.0016  0.0000  0.0000  0.0000
                                            0.0000  0.0391
    50. (0.00472) BD*( 1) C   1 - H   3  
                ( 38.53%)   0.6207* C   1 s( 52.07%)p 0.92( 47.91%)d 0.00(  0.03%)
                                           -0.0001  0.7196 -0.0540  0.0011 -0.0009
                                           -0.0000 -0.0000 -0.0000 -0.0000 -0.0000
                                           -0.0000 -0.0000 -0.0000 -0.6920 -0.0052
                                            0.0112 -0.0001 -0.0000 -0.0000 -0.0000
                                           -0.0000  0.0161
                ( 61.47%)  -0.7840* H   3 s( 99.93%)p 0.00(  0.07%)
                                            0.9996  0.0019 -0.0000 -0.0000 -0.0000
                                            0.0270


 NHO Directionality and "Bond Bending" (deviations from line of nuclear centers)

         [Thresholds for printing:  angular deviation  >  1.0 degree]
                                    hybrid p-character > 25.0%
                                    orbital occupancy  >  0.10e

                                Line of Centers        Hybrid 1              Hybrid 2
                                ---------------  -------------------   ------------------
                NBO               Theta   Phi    Theta   Phi    Dev    Theta   Phi    Dev
 ========================================================================================
     1. BD (   1) C   1 - N   2     0.0    0.0    90.0    0.0  90.0     90.0    0.0  90.0
     2. BD (   2) C   1 - N   2     0.0    0.0    90.0   90.0  90.0     90.0   90.0  90.0
     7. LP (   1) N   2             --     --      0.0    0.0   --       --     --    --


 Second Order Perturbation Theory Analysis of Fock Matrix in NBO Basis

     Threshold for printing:   0.25 kcal/mol
                                                                              E(2)  E(j)-E(i) F(i,j)
         Donor NBO (i)                     Acceptor NBO (j)                 kcal/mol   a.u.    a.u. 
 ===================================================================================================

 within unit  1
   3. BD (   3) C   1 - N   2        /  8. RY*(   1) C   1                    0.40    2.31    0.038
   3. BD (   3) C   1 - N   2        / 50. BD*(   1) C   1 - H   3            1.33    1.63    0.059
   4. BD (   1) C   1 - H   3        / 10. RY*(   3) C   1                    0.27    7.73    0.058
   4. BD (   1) C   1 - H   3        / 25. RY*(   1) N   2                    1.59    2.18    0.074
   4. BD (   1) C   1 - H   3        / 49. BD*(   3) C   1 - N   2            1.57    1.77    0.066
   5. CR (   1) C   1                / 25. RY*(   1) N   2                    0.58   11.91    0.105
   5. CR (   1) C   1                / 26. RY*(   2) N   2                    0.65   11.33    0.108
   5. CR (   1) C   1                / 42. RY*(   1) H   3                    0.46   12.12    0.094
   5. CR (   1) C   1                / 49. BD*(   3) C   1 - N   2            0.48   11.50    0.094
   5. CR (   1) C   1                / 50. BD*(   1) C   1 - H   3            0.25   10.91    0.067
   6. CR (   1) N   2                /  8. RY*(   1) C   1                    2.93   15.64    0.271
   6. CR (   1) N   2                / 50. BD*(   1) C   1 - H   3            1.66   14.96    0.199
   7. LP (   1) N   2                /  8. RY*(   1) C   1                    8.46    1.75    0.154
   7. LP (   1) N   2                /  9. RY*(   2) C   1                    0.61    1.70    0.041
   7. LP (   1) N   2                / 18. RY*(  11) C   1                    0.96    1.80    0.053
   7. LP (   1) N   2                / 19. RY*(  12) C   1                    0.36    1.88    0.033
   7. LP (   1) N   2                / 25. RY*(   1) N   2                    0.43    2.07    0.038
   7. LP (   1) N   2                / 50. BD*(   1) C   1 - H   3            3.93    1.07    0.082


 Natural Bond Orbitals (Summary):

                                                            Principal Delocalizations
           NBO                        Occupancy    Energy   (geminal,vicinal,remote)
 ====================================================================================
 Molecular unit  1  (CHN)
     1. BD (   1) C   1 - N   2          0.99997    -0.43707   
     2. BD (   2) C   1 - N   2          0.99997    -0.43707   
     3. BD (   3) C   1 - N   2          0.99918    -1.19117  50(g),8(g)
     4. BD (   1) C   1 - H   3          0.99721    -0.73484  25(v),49(g),10(g)
     5. CR (   1) C   1                  0.99970   -10.46582  26(v),25(v),49(g),42(v)
                                                    50(g)
     6. CR (   1) N   2                  0.99983   -14.51753  8(v),50(v)
     7. LP (   1) N   2                  0.99005    -0.62760  8(v),50(v),18(v),9(v),25(g)
                                                    19(v)
     8. RY*(   1) C   1                  0.00606     1.11882   
     9. RY*(   2) C   1                  0.00001     1.07093   
    10. RY*(   3) C   1                  0.00000     6.99783   
    11. RY*(   4) C   1                  0.00000     0.73471   
    12. RY*(   5) C   1                  0.00000     1.13173   
    13. RY*(   6) C   1                  0.00000     1.51715   
    14. RY*(   7) C   1                  0.00000     0.73471   
    15. RY*(   8) C   1                  0.00000     1.13173   
    16. RY*(   9) C   1                  0.00000     1.51715   
    17. RY*(  10) C   1                  0.00000    16.36441   
    18. RY*(  11) C   1                  0.00000     1.17112   
    19. RY*(  12) C   1                  0.00000     1.25278   
    20. RY*(  13) C   1                  0.00000     1.35414   
    21. RY*(  14) C   1                  0.00000     1.87949   
    22. RY*(  15) C   1                  0.00000     1.87949   
    23. RY*(  16) C   1                  0.00000     1.35414   
    24. RY*(  17) C   1                  0.00000     3.32036   
    25. RY*(   1) N   2                  0.00130     1.44625   
    26. RY*(   2) N   2                  0.00010     0.86215   
    27. RY*(   3) N   2                  0.00000     0.90355   
    28. RY*(   4) N   2                  0.00000     0.61539   
    29. RY*(   5) N   2                  0.00000     3.40838   
    30. RY*(   6) N   2                  0.00000     0.97675   
    31. RY*(   7) N   2                  0.00000     0.61539   
    32. RY*(   8) N   2                  0.00000     3.40838   
    33. RY*(   9) N   2                  0.00000     0.97675   
    34. RY*(  10) N   2                  0.00000    35.35082   
    35. RY*(  11) N   2                  0.00000     3.85132   
    36. RY*(  12) N   2                  0.00000     1.00280   
    37. RY*(  13) N   2                  0.00000     2.04837   
    38. RY*(  14) N   2                  0.00000     2.45105   
    39. RY*(  15) N   2                  0.00000     2.45105   
    40. RY*(  16) N   2                  0.00000     2.04837   
    41. RY*(  17) N   2                  0.00000     2.96099   
    42. RY*(   1) H   3                  0.00020     1.65430   
    43. RY*(   2) H   3                  0.00005     0.89535   
    44. RY*(   3) H   3                  0.00003     1.57348   
    45. RY*(   4) H   3                  0.00003     1.57348   
    46. RY*(   5) H   3                  0.00000     2.74901   
    47. BD*(   1) C   1 - N   2          0.00000     0.13285   
    48. BD*(   2) C   1 - N   2          0.00000     0.13285   
    49. BD*(   3) C   1 - N   2          0.00158     1.03023   
    50. BD*(   1) C   1 - H   3          0.00472     0.44305   
       -------------------------------
              Total Lewis    6.98591  ( 99.7987%)
        Valence non-Lewis    0.00630  (  0.0900%)
        Rydberg non-Lewis    0.00779  (  0.1113%)
       -------------------------------
            Total unit  1    7.00000  (100.0000%)
           Charge unit  1    0.00000
 Sorting of NBOs:                    6    5    3    4    7    2    1   48   47   50
 Sorting of NBOs:                   28   31   11   14   26   43   27   33   30   36
 Sorting of NBOs:                   49    9    8   12   15   18   19   20   23   25
 Sorting of NBOs:                   13   16   44   45   42   22   21   37   40   39
 Sorting of NBOs:                   38   46   41   24   32   29   35   10   17   34
 Reordering of NBOs for storage:     6    5    3    4    7    2    1   48   47   50
 Reordering of NBOs for storage:    49   28   31   11   14   26   43   27   33   30
 Reordering of NBOs for storage:    36    9    8   12   15   18   19   20   23   25
 Reordering of NBOs for storage:    13   16   44   45   42   22   21   37   40   39
 Reordering of NBOs for storage:    38   46   41   24   32   29   35   10   17   34
 Labels of output orbitals:  CR  CR  BD  BD  LP  BD  BD  BD* BD* BD* BD* RY* RY* RY* RY* RY* RY* RY* RY* RY* 
 Labels of output orbitals:  RY* RY* RY* RY* RY* RY* RY* RY* RY* RY* RY* RY* RY* RY* RY* RY* RY* RY* RY* RY* 
 Labels of output orbitals:  RY* RY* RY* RY* RY* RY* RY* RY* RY* RY* 
 GSVD:  LWork=       -2193 too small for GESVD, short by        9890 words or        9890 for optimal perf.
 Leave Link  607 at Wed Apr 16 02:25:53 2025, MaxMem=   536870912 cpu:               5.2 elap:               1.2
 (Enter /home/szhao/Apps/g16/l701.exe)
 ... and contract with generalized density number  0.
 Compute integral first derivatives.
 Leave Link  701 at Wed Apr 16 02:25:54 2025, MaxMem=   536870912 cpu:               1.1 elap:               0.3
 (Enter /home/szhao/Apps/g16/l702.exe)
 L702 exits ... SP integral derivatives will be done elsewhere.
 Leave Link  702 at Wed Apr 16 02:25:54 2025, MaxMem=   536870912 cpu:               0.3 elap:               0.1
 (Enter /home/szhao/Apps/g16/l703.exe)
 Integral derivatives from FoFJK, PRISM(SPDF).
 Compute integral first derivatives, UseDBF=F ICtDFT=           0.
 Calling FoFJK, ICntrl=      2127 FMM=F ISym2X=1 I1Cent= 0 IOpClX= 1 NMat=1 NMatS=1 NMatT=0.
 FoFJK:  IHMeth= 1 ICntrl=    2127 DoSepK=F KAlg= 0 I1Cent=           0 FoldK=F
 IRaf=         0 NMat=       1 IRICut=       1 DoRegI=T DoRafI=F ISym2E= 1 IDoP0=0 IntGTp=1.
 FoFCou: FMM=F IPFlag=           0 FMFlag=      100000 FMFlg1=         800
         NFxFlg=           0 DoJE=F BraDBF=F KetDBF=F FulRan=T
         wScrn=  0.000000 ICntrl=      2127 IOpCl=  1 I1Cent=           0 NGrid=           0
         NMat0=    1 NMatS0=      1 NMatT0=    0 NMatD0=    1 NMtDS0=    0 NMtDT0=    0
 Petite list used in FoFCou.
 Leave Link  703 at Wed Apr 16 02:25:55 2025, MaxMem=   536870912 cpu:               2.6 elap:               0.7
 (Enter /home/szhao/Apps/g16/l716.exe)
 Dipole        = 0.00000000D+00 0.00000000D+00-1.20931886D+00
 ***** Axes restored to original set *****
 -------------------------------------------------------------------
 Center     Atomic                   Forces (Hartrees/Bohr)
 Number     Number              X              Y              Z
 -------------------------------------------------------------------
      1        6           0.000069011   -0.000000000   -0.000000000
      2        7          -0.000068870   -0.000000000   -0.000000000
      3        1          -0.000000141   -0.000000000   -0.000000000
 -------------------------------------------------------------------
 Cartesian Forces:  Max     0.000069011 RMS     0.000032499
 Z-matrix is all fixed cartesians, so copy forces.
 Force constants in Cartesian coordinates: 
                1             2             3             4             5 
      1  0.175818D+01
      2  0.000000D+00  0.146811D+00
      3  0.000000D+00  0.000000D+00  0.146811D+00
      4 -0.138288D+01  0.000000D+00  0.000000D+00  0.138288D+01
      5  0.000000D+00 -0.708460D-01  0.000000D+00  0.000000D+00  0.341878D-01
      6  0.000000D+00  0.000000D+00 -0.708460D-01  0.000000D+00  0.000000D+00
      7 -0.375296D+00  0.000000D+00  0.000000D+00  0.000000D+00  0.000000D+00
      8  0.000000D+00 -0.759652D-01  0.000000D+00  0.000000D+00  0.366582D-01
      9  0.000000D+00  0.000000D+00 -0.759652D-01  0.000000D+00  0.000000D+00
                6             7             8             9 
      6  0.341878D-01
      7  0.000000D+00  0.375296D+00
      8  0.000000D+00  0.000000D+00  0.393070D-01
      9  0.366582D-01  0.000000D+00  0.000000D+00  0.393070D-01
 Leave Link  716 at Wed Apr 16 02:25:55 2025, MaxMem=   536870912 cpu:               0.3 elap:               0.1
 (Enter /home/szhao/Apps/g16/l103.exe)

 GradGradGradGradGradGradGradGradGradGradGradGradGradGradGradGradGradGrad
 Berny optimization.
 Search for a local minimum.
 Step number   1 out of a maximum of    2
 All quantities printed in internal units (Hartrees-Bohrs-Radians)
 Second derivative matrix not updated -- first step.
 The second derivative matrix:
                          X1        Y1        Z1        X2        Y2
           X1           1.75818
           Y1           0.00000   0.14681
           Z1           0.00000   0.00000   0.14681
           X2          -1.38288   0.00000   0.00000   1.38288
           Y2           0.00000  -0.07085   0.00000   0.00000   0.03419
           Z2           0.00000   0.00000  -0.07085   0.00000   0.00000
           X3          -0.37530   0.00000   0.00000   0.00000   0.00000
           Y3           0.00000  -0.07597   0.00000   0.00000   0.03666
           Z3           0.00000   0.00000  -0.07597   0.00000   0.00000
                          Z2        X3        Y3        Z3
           Z2           0.03419
           X3           0.00000   0.37530
           Y3           0.00000   0.00000   0.03931
           Z3           0.03666   0.00000   0.00000   0.03931
 ITU=  0
     Eigenvalues ---    0.18323   0.18323   0.45960   2.99663
 Angle between quadratic step and forces=  31.84 degrees.
 ClnCor:  largest displacement from symmetrization is 0.00D+00 for atom     0.
 Linear search not attempted -- first point.
 ClnCor:  largest displacement from symmetrization is 0.00D+00 for atom     0.
 B after Tr=    -0.000005    0.000000    0.000000
         Rot=    1.000000    0.000000    0.000000    0.000000 Ang=   0.00 deg.
 Variable       Old X    -DE/DX   Delta X   Delta X   Delta X     New X
                                 (Linear)    (Quad)   (Total)
    X1       -1.08167   0.00007   0.00000   0.00002   0.00002  -1.08165
    Y1        0.00000  -0.00000   0.00000   0.00000   0.00000   0.00000
    Z1        0.00000  -0.00000   0.00000   0.00000   0.00000   0.00000
    X2        1.08167  -0.00007   0.00000  -0.00003  -0.00003   1.08164
    Y2        0.00000  -0.00000   0.00000   0.00000   0.00000   0.00000
    Z2        0.00000  -0.00000   0.00000   0.00000   0.00000   0.00000
    X3       -3.09922  -0.00000   0.00000   0.00002   0.00002  -3.09921
    Y3        0.00000  -0.00000   0.00000   0.00000   0.00000   0.00000
    Z3        0.00000  -0.00000   0.00000   0.00000   0.00000   0.00000
         Item               Value     Threshold  Converged?
 Maximum Force            0.000069     0.000450     YES
 RMS     Force            0.000032     0.000300     YES
 Maximum Displacement     0.000033     0.001800     YES
 RMS     Displacement     0.000014     0.001200     YES
 Predicted change in Energy=-1.714942D-09
 Optimization completed.
    -- Stationary point found.
 GradGradGradGradGradGradGradGradGradGradGradGradGradGradGradGradGradGrad

 Leave Link  103 at Wed Apr 16 02:25:55 2025, MaxMem=   536870912 cpu:               0.6 elap:               0.2
 (Enter /home/szhao/Apps/g16/l9999.exe)
 1\1\GINC-NODE01\Force\UM062X\6-311+G(d,p)\C1H1N1\SZHAO\16-Apr-2025\0\\
 #p UM062X/6-311+G** force int=superfine pop=saveNBO\\Title Card Requir
 ed\\0,1\C,-0.5723945,0.,0.\N,0.5723945,0.,0.\H,-1.6400375,0.,0.\\Versi
 on=ES64L-G16RevA.03\State=1-SG\HF=-93.4144429\S2=0.\S2-1=0.\S2A=0.\RMS
 D=6.727e-09\RMSF=3.250e-05\Dipole=-1.2093189,0.,0.\Quadrupole=0.997599
 9,-0.4988,-0.4988,0.,0.,0.\PG=C*V [C*(H1C1N1)]\\@


 IF YOU PERCEIVE THAT THERE ARE FOUR POSSIBLE WAYS IN
 WHICH A PROCEDURE CAN GO WRONG AND CIRCUMVENT THESE, 
 THEN A FIFTH WAY WILL DEVELOP.

                              -- MURPHY'S TWELFTH LAW
 Job cpu time:       0 days  0 hours  0 minutes 26.9 seconds.
 Elapsed time:       0 days  0 hours  0 minutes  6.7 seconds.
 File lengths (MBytes):  RWF=      6 Int=      0 D2E=      0 Chk=      1 Scr=      1
 Normal termination of Gaussian 16 at Wed Apr 16 02:25:55 2025.
