 Entering Gaussian System, Link 0=g16
 Initial command:
 /home/szhao/Apps/g16/l1.exe "/home/szhao/tmp/Gau-79397.inp" -scrdir="/home/szhao/tmp/"
 Default is to use a total of  16 processors:
                               16 via shared-memory
                                1 via Linda
 Entering Link 1 = /home/szhao/Apps/g16/l1.exe PID=     79398.
  
 Copyright (c) 1988,1990,1992,1993,1995,1998,2003,2009,2016,
            Gaussian, Inc.  All Rights Reserved.
  
 This is part of the Gaussian(R) 16 program.  It is based on
 the Gaussian(R) 09 system (copyright 2009, Gaussian, Inc.),
 the Gaussian(R) 03 system (copyright 2003, Gaussian, Inc.),
 the Gaussian(R) 98 system (copyright 1998, Gaussian, Inc.),
 the Gaussian(R) 94 system (copyright 1995, Gaussian, Inc.),
 the Gaussian 92(TM) system (copyright 1992, Gaussian, Inc.),
 the Gaussian 90(TM) system (copyright 1990, Gaussian, Inc.),
 the Gaussian 88(TM) system (copyright 1988, Gaussian, Inc.),
 the Gaussian 86(TM) system (copyright 1986, Carnegie Mellon
 University), and the Gaussian 82(TM) system (copyright 1983,
 Carnegie Mellon University). Gaussian is a federally registered
 trademark of Gaussian, Inc.
  
 This software contains proprietary and confidential information,
 including trade secrets, belonging to Gaussian, Inc.
  
 This software is provided under written license and may be
 used, copied, transmitted, or stored only in accord with that
 written license.
  
 The following legend is applicable only to US Government
 contracts under FAR:
  
                    RESTRICTED RIGHTS LEGEND
  
 Use, reproduction and disclosure by the US Government is
 subject to restrictions as set forth in subparagraphs (a)
 and (c) of the Commercial Computer Software - Restricted
 Rights clause in FAR 52.227-19.
  
 Gaussian, Inc.
 340 Quinnipiac St., Bldg. 40, Wallingford CT 06492
  
  
 ---------------------------------------------------------------
 Warning -- This program may not be used in any manner that
 competes with the business of Gaussian, Inc. or will provide
 assistance to any competitor of Gaussian, Inc.  The licensee
 of this program is prohibited from giving any competitor of
 Gaussian, Inc. access to this program.  By using this program,
 the user acknowledges that Gaussian, Inc. is engaged in the
 business of creating and licensing software in the field of
 computational chemistry and represents and warrants to the
 licensee that it is not a competitor of Gaussian, Inc. and that
 it will not use this program in any manner prohibited above.
 ---------------------------------------------------------------
  

 Cite this work as:
 Gaussian 16, Revision A.03,
 M. J. Frisch, G. W. Trucks, H. B. Schlegel, G. E. Scuseria, 
 M. A. Robb, J. R. Cheeseman, G. Scalmani, V. Barone, 
 G. A. Petersson, H. Nakatsuji, X. Li, M. Caricato, A. V. Marenich, 
 J. Bloino, B. G. Janesko, R. Gomperts, B. Mennucci, H. P. Hratchian, 
 J. V. Ortiz, A. F. Izmaylov, J. L. Sonnenberg, D. Williams-Young, 
 F. Ding, F. Lipparini, F. Egidi, J. Goings, B. Peng, A. Petrone, 
 T. Henderson, D. Ranasinghe, V. G. Zakrzewski, J. Gao, N. Rega, 
 G. Zheng, W. Liang, M. Hada, M. Ehara, K. Toyota, R. Fukuda, 
 J. Hasegawa, M. Ishida, T. Nakajima, Y. Honda, O. Kitao, H. Nakai, 
 T. Vreven, K. Throssell, J. A. Montgomery, Jr., J. E. Peralta, 
 F. Ogliaro, M. J. Bearpark, J. J. Heyd, E. N. Brothers, K. N. Kudin, 
 V. N. Staroverov, T. A. Keith, R. Kobayashi, J. Normand, 
 K. Raghavachari, A. P. Rendell, J. C. Burant, S. S. Iyengar, 
 J. Tomasi, M. Cossi, J. M. Millam, M. Klene, C. Adamo, R. Cammi, 
 J. W. Ochterski, R. L. Martin, K. Morokuma, O. Farkas, 
 J. B. Foresman, and D. J. Fox, Gaussian, Inc., Wallingford CT, 2016.
 
 ******************************************
 Gaussian 16:  ES64L-G16RevA.03 25-Dec-2016
                21-Apr-2025 
 ******************************************
 %chk=opt.chk
 %mem=4GB
 %nprocshared=8
 Will use up to    8 processors via shared memory.
 --------------------------------------------
 #p opt UM062X/6-311+G** nosymm int=superfine
 --------------------------------------------
 1/18=20,19=15,26=5,38=1/1,3;
 2/9=110,12=2,15=1,17=6,18=5,40=1/2;
 3/5=4,6=6,7=111,11=2,25=1,30=1,71=1,74=-55,75=-7,116=2/1,2,3;
 4//1;
 5/5=2,38=5/2;
 6/7=2,8=2,9=2,10=2,28=1/1;
 7/30=1/1,2,3,16;
 1/18=20,19=15,26=5/3(2);
 2/9=110,15=1/2;
 99//99;
 2/9=110,15=1/2;
 3/5=4,6=6,7=111,11=2,25=1,30=1,71=1,74=-55,75=-7,116=2/1,2,3;
 4/5=5,16=3,69=1/1;
 5/5=2,38=5/2;
 7/30=1/1,2,3,16;
 1/18=20,19=15,26=5/3(-5);
 2/9=110,15=1/2;
 6/7=2,8=2,9=2,10=2,19=2,28=1/1;
 99/9=1/99;
 Leave Link    1 at Mon Apr 21 16:53:43 2025, MaxMem=   536870912 cpu:               0.8 elap:               0.1
 (Enter /home/szhao/Apps/g16/l101.exe)
 -------------------
 Title Card Required
 -------------------
 Symbolic Z-matrix:
 Charge = -1 Multiplicity = 2
 B                    -1   -1.79067   0.        0. 
 B                    -1    1.79067   0.        0. 
 H                    0     1.99813  -1.18849   0. 
 H                    0    -1.99788  -0.59427   1.02929 
 H                    0     1.99806   0.59429  -1.02925 
 H                    0     1.99779   0.59426   1.02932 
 H                    0    -1.99814   1.18848   0.00001 
 H                    0    -1.99797  -0.59428  -1.02927 
 
 Add virtual bond connecting atoms B2         and B1         Dist= 6.77D+00.
 ITRead=  2  2  0  0  0  0  0  0
 MicOpt= -2 -2 -1 -1 -1 -1 -1 -1
 NAtoms=      8 NQM=        6 NQMF=       2 NMMI=      0 NMMIF=      0
                NMic=       0 NMicF=      0.
                    Isotopes and Nuclear Properties:
 (Nuclear quadrupole moments (NQMom) in fm**2, nuclear magnetic moments (NMagM)
  in nuclear magnetons)

  Atom         1           2           3           4           5           6           7           8
 IAtWgt=          11          11           1           1           1           1           1           1
 AtmWgt=  11.0093053  11.0093053   1.0078250   1.0078250   1.0078250   1.0078250   1.0078250   1.0078250
 NucSpn=           3           3           1           1           1           1           1           1
 AtZEff=  -0.0000000  -0.0000000  -0.0000000  -0.0000000  -0.0000000  -0.0000000  -0.0000000  -0.0000000
 NQMom=    4.0590000   4.0590000   0.0000000   0.0000000   0.0000000   0.0000000   0.0000000   0.0000000
 NMagM=    2.6886370   2.6886370   2.7928460   2.7928460   2.7928460   2.7928460   2.7928460   2.7928460
 AtZNuc=   5.0000000   5.0000000   1.0000000   1.0000000   1.0000000   1.0000000   1.0000000   1.0000000
 Leave Link  101 at Mon Apr 21 16:53:44 2025, MaxMem=   536870912 cpu:               2.5 elap:               0.3
 (Enter /home/szhao/Apps/g16/l103.exe)

 GradGradGradGradGradGradGradGradGradGradGradGradGradGradGradGradGradGrad
 Berny optimization.
 Initialization pass.
                           ----------------------------
                           !    Initial Parameters    !
                           ! (Angstroms and Degrees)  !
 --------------------------                            --------------------------
 ! Name  Definition              Value          Derivative Info.                !
 --------------------------------------------------------------------------------
 ! X1    R(1,-1)                -1.7907         Frozen                          !
 ! Y1    R(1,-2)                 0.0            Frozen                          !
 ! Z1    R(1,-3)                 0.0            Frozen                          !
 ! X2    R(2,-1)                 1.7907         Frozen                          !
 ! Y2    R(2,-2)                 0.0            Frozen                          !
 ! Z2    R(2,-3)                 0.0            Frozen                          !
 ! R1    R(1,4)                  1.2065         estimate D2E/DX2                !
 ! R2    R(1,7)                  1.2065         estimate D2E/DX2                !
 ! R3    R(1,8)                  1.2065         estimate D2E/DX2                !
 ! R4    R(2,3)                  1.2065         estimate D2E/DX2                !
 ! R5    R(2,5)                  1.2065         estimate D2E/DX2                !
 ! R6    R(2,6)                  1.2065         estimate D2E/DX2                !
 ! A1    A(2,1,4)               99.8894         estimate D2E/DX2                !
 ! A2    A(2,1,7)               99.902          estimate D2E/DX2                !
 ! A3    A(2,1,8)               99.8937         estimate D2E/DX2                !
 ! A4    A(4,1,7)              117.11           estimate D2E/DX2                !
 ! A5    A(4,1,8)              117.1107         estimate D2E/DX2                !
 ! A6    A(7,1,8)              117.1101         estimate D2E/DX2                !
 ! A7    A(1,2,3)               99.9016         estimate D2E/DX2                !
 ! A8    A(1,2,5)               99.8984         estimate D2E/DX2                !
 ! A9    A(1,2,6)               99.8852         estimate D2E/DX2                !
 ! A10   A(3,2,5)              117.1094         estimate D2E/DX2                !
 ! A11   A(3,2,6)              117.1107         estimate D2E/DX2                !
 ! A12   A(5,2,6)              117.1107         estimate D2E/DX2                !
 ! D1    D(4,1,2,3)             59.9995         estimate D2E/DX2                !
 ! D2    D(4,1,2,5)           -179.9984         estimate D2E/DX2                !
 ! D3    D(4,1,2,6)            -59.9999         estimate D2E/DX2                !
 ! D4    D(7,1,2,3)            179.9996         estimate D2E/DX2                !
 ! D5    D(7,1,2,5)            -59.9983         estimate D2E/DX2                !
 ! D6    D(7,1,2,6)             60.0002         estimate D2E/DX2                !
 ! D7    D(8,1,2,3)            -59.9988         estimate D2E/DX2                !
 ! D8    D(8,1,2,5)             60.0032         estimate D2E/DX2                !
 ! D9    D(8,1,2,6)           -179.9983         estimate D2E/DX2                !
 --------------------------------------------------------------------------------
 Trust Radius=3.00D-01 FncErr=1.00D-07 GrdErr=1.00D-07 EigMax=2.50D+02 EigMin=1.00D-04
 Number of steps in this run=     43 maximum allowed number of steps=    100.
 GradGradGradGradGradGradGradGradGradGradGradGradGradGradGradGradGradGrad

 Leave Link  103 at Mon Apr 21 16:53:44 2025, MaxMem=   536870912 cpu:               0.8 elap:               0.1
 (Enter /home/szhao/Apps/g16/l202.exe)
                          Input orientation:                          
 ---------------------------------------------------------------------
 Center     Atomic      Atomic             Coordinates (Angstroms)
 Number     Number       Type             X           Y           Z
 ---------------------------------------------------------------------
      1          5           0       -1.790672    0.000000    0.000000
      2          5           0        1.790672    0.000000    0.000000
      3          1           0        1.998130   -1.188486    0.000000
      4          1           0       -1.997877   -0.594273    1.029292
      5          1           0        1.998064    0.594287   -1.029250
      6          1           0        1.997790    0.594262    1.029316
      7          1           0       -1.998139    1.188485    0.000008
      8          1           0       -1.997967   -0.594279   -1.029273
 ---------------------------------------------------------------------
                    Distance matrix (angstroms):
                    1          2          3          4          5
     1  B    0.000000
     2  B    3.581343   0.000000
     3  H    3.970833   1.206457   0.000000
     4  H    1.206457   3.970605   4.169005   0.000000
     5  H    3.970774   1.206459   2.058552   4.649497   0.000000
     6  H    3.970526   1.206456   2.058563   4.168689   2.058566
     7  H    1.206457   3.970841   4.649748   2.058556   4.169182
     8  H    1.206459   3.970686   4.169085   2.058566   4.169047
                    6          7          8
     6  H    0.000000
     7  H    4.168935   0.000000
     8  H    4.649354   2.058559   0.000000
 Symmetry turned off by external request.
 This structure is nearly, but not quite of a higher symmetry.
 Consider Symm=Loose if the higher symmetry is desired.
 Stoichiometry    B2H6(1-,2)
 Framework group  C1[X(B2H6)]
 Deg. of freedom    18
 Full point group                 C1      NOp   1
 Rotational constants (GHZ):          59.1663657           5.1041740           5.1041711
 Leave Link  202 at Mon Apr 21 16:53:45 2025, MaxMem=   536870912 cpu:               0.0 elap:               0.0
 (Enter /home/szhao/Apps/g16/l301.exe)
 Standard basis: 6-311+G(d,p) (5D, 7F)
 Ernie: Thresh=  0.10000D-02 Tol=  0.10000D-05 Strict=F.
    80 basis functions,   120 primitive gaussians,    82 cartesian basis functions
     9 alpha electrons        8 beta electrons
       nuclear repulsion energy        23.4961113557 Hartrees.
 IExCor= 4336 DFT=T Ex+Corr=M062X ExCW=0 ScaHFX=  0.540000
 ScaDFX=  1.000000  1.000000  1.000000  1.000000 ScalE2=  1.000000  1.000000
 IRadAn=      7 IRanWt=     -1 IRanGd=            0 ICorTp=0 IEmpDi=  4
 NAtoms=    8 NActive=    8 NUniq=    8 SFac= 1.00D+00 NAtFMM=   60 NAOKFM=F Big=F
 Integral buffers will be    131072 words long.
 Raffenetti 2 integral format.
 Two-electron integral symmetry is turned off.
 Leave Link  301 at Mon Apr 21 16:53:45 2025, MaxMem=   536870912 cpu:               0.5 elap:               0.1
 (Enter /home/szhao/Apps/g16/l302.exe)
 NPDir=0 NMtPBC=     1 NCelOv=     1 NCel=       1 NClECP=     1 NCelD=      1
         NCelK=      1 NCelE2=     1 NClLst=     1 CellRange=     0.0.
 One-electron integrals computed using PRISM.
 NBasis=    80 RedAO= T EigKep=  4.72D-03  NBF=    80
 NBsUse=    80 1.00D-06 EigRej= -1.00D+00 NBFU=    80
 Precomputing XC quadrature grid using
 IXCGrd= 4 IRadAn=           7 IRanWt=          -1 IRanGd=           0 AccXCQ= 0.00D+00.
 Generated NRdTot=       0 NPtTot=           0 NUsed=           0 NTot=          32
 NSgBfM=    82    82    82    82    82 MxSgAt=     8 MxSgA2=     8.
 Leave Link  302 at Mon Apr 21 16:53:45 2025, MaxMem=   536870912 cpu:               1.3 elap:               0.2
 (Enter /home/szhao/Apps/g16/l303.exe)
 DipDrv:  MaxL=1.
 Leave Link  303 at Mon Apr 21 16:53:45 2025, MaxMem=   536870912 cpu:               0.4 elap:               0.1
 (Enter /home/szhao/Apps/g16/l401.exe)
 ExpMin= 3.15D-02 ExpMax= 2.86D+03 ExpMxC= 4.28D+02 IAcc=3 IRadAn=         7 AccDes= 0.00D+00
 Harris functional with IExCor= 1009 and IRadAn=       7 diagonalized for initial guess.
 HarFok:  IExCor= 1009 AccDes= 0.00D+00 IRadAn=         7 IDoV= 1 UseB2=F ITyADJ=14
 ICtDFT=  3500011 ScaDFX=  1.000000  1.000000  1.000000  1.000000
 FoFCou: FMM=F IPFlag=           0 FMFlag=      100000 FMFlg1=           0
         NFxFlg=           0 DoJE=T BraDBF=F KetDBF=T FulRan=T
         wScrn=  0.000000 ICntrl=       500 IOpCl=  0 I1Cent=   200000004 NGrid=           0
         NMat0=    1 NMatS0=      1 NMatT0=    0 NMatD0=    1 NMtDS0=    0 NMtDT0=    0
 Symmetry not used in FoFCou.
 Harris En= -53.3711774459684    
 JPrj=0 DoOrth=F DoCkMO=F.
 Initial guess <Sx>= 0.0000 <Sy>= 0.0000 <Sz>= 0.5000 <S**2>= 0.7500 S= 0.5000
 Leave Link  401 at Mon Apr 21 16:53:46 2025, MaxMem=   536870912 cpu:               3.8 elap:               0.5
 (Enter /home/szhao/Apps/g16/l502.exe)
 Keep R1 and R2 ints in memory in canonical form, NReq=17776582.
 FoFCou: FMM=F IPFlag=           0 FMFlag=           0 FMFlg1=           0
         NFxFlg=           0 DoJE=F BraDBF=F KetDBF=F FulRan=T
         wScrn=  0.000000 ICntrl=       600 IOpCl=  0 I1Cent=           0 NGrid=           0
         NMat0=    1 NMatS0=   3240 NMatT0=    0 NMatD0=    1 NMtDS0=    0 NMtDT0=    0
 Symmetry not used in FoFCou.
 Two-electron integral symmetry not used.
 UHF open shell SCF:
 Using DIIS extrapolation, IDIIS=  1040.
 NGot=   536870912 LenX=   526355138 LenY=   526347973
 Requested convergence on RMS density matrix=1.00D-08 within 128 cycles.
 Requested convergence on MAX density matrix=1.00D-06.
 Requested convergence on             energy=1.00D-06.
 No special actions if energy rises.

 Cycle   1  Pass 1  IDiag  1:
 E= -53.0988496991765    
 DIIS: error= 3.74D-02 at cycle   1 NSaved=   1.
 NSaved= 1 IEnMin= 1 EnMin= -53.0988496991765     IErMin= 1 ErrMin= 3.74D-02
 ErrMax= 3.74D-02  0.00D+00 EMaxC= 1.00D-01 BMatC= 2.86D-01 BMatP= 2.86D-01
 IDIUse=3 WtCom= 6.26D-01 WtEn= 3.74D-01
 Coeff-Com:  0.100D+01
 Coeff-En:   0.100D+01
 Coeff:      0.100D+01
 Gap=     0.167 Goal=   None    Shift=    0.000
 Gap=     0.359 Goal=   None    Shift=    0.000
 GapD=    0.167 DampG=1.000 DampE=0.500 DampFc=0.5000 IDamp=-1.
 Damping current iteration by 5.00D-01
 RMSDP=5.21D-03 MaxDP=1.10D-01              OVMax= 2.72D-01

 Cycle   2  Pass 1  IDiag  1:
 E= -53.1583148027157     Delta-E=       -0.059465103539 Rises=F Damp=T
 DIIS: error= 9.44D-03 at cycle   2 NSaved=   2.
 NSaved= 2 IEnMin= 2 EnMin= -53.1583148027157     IErMin= 2 ErrMin= 9.44D-03
 ErrMax= 9.44D-03  0.00D+00 EMaxC= 1.00D-01 BMatC= 2.52D-02 BMatP= 2.86D-01
 IDIUse=3 WtCom= 9.06D-01 WtEn= 9.44D-02
 Coeff-Com: -0.285D+00 0.129D+01
 Coeff-En:   0.000D+00 0.100D+01
 Coeff:     -0.258D+00 0.126D+01
 Gap=     0.167 Goal=   None    Shift=    0.000
 Gap=     0.334 Goal=   None    Shift=    0.000
 RMSDP=1.34D-03 MaxDP=1.40D-02 DE=-5.95D-02 OVMax= 1.08D-01

 Cycle   3  Pass 1  IDiag  1:
 E= -53.2091428585898     Delta-E=       -0.050828055874 Rises=F Damp=F
 DIIS: error= 1.38D-03 at cycle   3 NSaved=   3.
 NSaved= 3 IEnMin= 3 EnMin= -53.2091428585898     IErMin= 3 ErrMin= 1.38D-03
 ErrMax= 1.38D-03  0.00D+00 EMaxC= 1.00D-01 BMatC= 2.78D-04 BMatP= 2.52D-02
 IDIUse=3 WtCom= 9.86D-01 WtEn= 1.38D-02
 Coeff-Com: -0.352D-01 0.101D+00 0.935D+00
 Coeff-En:   0.000D+00 0.000D+00 0.100D+01
 Coeff:     -0.347D-01 0.992D-01 0.936D+00
 Gap=     0.138 Goal=   None    Shift=    0.000
 Gap=     0.326 Goal=   None    Shift=    0.000
 RMSDP=1.65D-04 MaxDP=2.09D-03 DE=-5.08D-02 OVMax= 9.46D-03

 Cycle   4  Pass 1  IDiag  1:
 E= -53.2092702811170     Delta-E=       -0.000127422527 Rises=F Damp=F
 DIIS: error= 5.24D-04 at cycle   4 NSaved=   4.
 NSaved= 4 IEnMin= 4 EnMin= -53.2092702811170     IErMin= 4 ErrMin= 5.24D-04
 ErrMax= 5.24D-04  0.00D+00 EMaxC= 1.00D-01 BMatC= 2.20D-05 BMatP= 2.78D-04
 IDIUse=3 WtCom= 9.95D-01 WtEn= 5.24D-03
 Coeff-Com:  0.250D-02-0.954D-02 0.111D+00 0.896D+00
 Coeff-En:   0.000D+00 0.000D+00 0.000D+00 0.100D+01
 Coeff:      0.248D-02-0.949D-02 0.111D+00 0.896D+00
 Gap=     0.137 Goal=   None    Shift=    0.000
 Gap=     0.325 Goal=   None    Shift=    0.000
 RMSDP=5.71D-05 MaxDP=7.85D-04 DE=-1.27D-04 OVMax= 2.12D-03

 Cycle   5  Pass 1  IDiag  1:
 E= -53.2092809323473     Delta-E=       -0.000010651230 Rises=F Damp=F
 DIIS: error= 1.53D-04 at cycle   5 NSaved=   5.
 NSaved= 5 IEnMin= 5 EnMin= -53.2092809323473     IErMin= 5 ErrMin= 1.53D-04
 ErrMax= 1.53D-04  0.00D+00 EMaxC= 1.00D-01 BMatC= 1.78D-06 BMatP= 2.20D-05
 IDIUse=3 WtCom= 9.98D-01 WtEn= 1.53D-03
 Coeff-Com:  0.292D-02-0.750D-02-0.789D-01-0.894D-01 0.117D+01
 Coeff-En:   0.000D+00 0.000D+00 0.000D+00 0.000D+00 0.100D+01
 Coeff:      0.291D-02-0.749D-02-0.788D-01-0.892D-01 0.117D+01
 Gap=     0.137 Goal=   None    Shift=    0.000
 Gap=     0.326 Goal=   None    Shift=    0.000
 RMSDP=2.02D-05 MaxDP=2.57D-04 DE=-1.07D-05 OVMax= 8.60D-04

 Cycle   6  Pass 1  IDiag  1:
 E= -53.2092825856777     Delta-E=       -0.000001653330 Rises=F Damp=F
 DIIS: error= 3.31D-05 at cycle   6 NSaved=   6.
 NSaved= 6 IEnMin= 6 EnMin= -53.2092825856777     IErMin= 6 ErrMin= 3.31D-05
 ErrMax= 3.31D-05  0.00D+00 EMaxC= 1.00D-01 BMatC= 1.12D-07 BMatP= 1.78D-06
 IDIUse=1 WtCom= 1.00D+00 WtEn= 0.00D+00
 Coeff-Com: -0.682D-03 0.166D-02 0.103D-02-0.481D-01-0.126D+00 0.117D+01
 Coeff:     -0.682D-03 0.166D-02 0.103D-02-0.481D-01-0.126D+00 0.117D+01
 Gap=     0.137 Goal=   None    Shift=    0.000
 Gap=     0.326 Goal=   None    Shift=    0.000
 RMSDP=6.01D-06 MaxDP=1.14D-04 DE=-1.65D-06 OVMax= 2.29D-04

 Cycle   7  Pass 1  IDiag  1:
 E= -53.2092826875207     Delta-E=       -0.000000101843 Rises=F Damp=F
 DIIS: error= 8.01D-06 at cycle   7 NSaved=   7.
 NSaved= 7 IEnMin= 7 EnMin= -53.2092826875207     IErMin= 7 ErrMin= 8.01D-06
 ErrMax= 8.01D-06  0.00D+00 EMaxC= 1.00D-01 BMatC= 5.14D-09 BMatP= 1.12D-07
 IDIUse=1 WtCom= 1.00D+00 WtEn= 0.00D+00
 Coeff-Com: -0.249D-03 0.580D-03 0.390D-02 0.577D-02-0.679D-01 0.429D-01
 Coeff-Com:  0.102D+01
 Coeff:     -0.249D-03 0.580D-03 0.390D-02 0.577D-02-0.679D-01 0.429D-01
 Coeff:      0.102D+01
 Gap=     0.137 Goal=   None    Shift=    0.000
 Gap=     0.326 Goal=   None    Shift=    0.000
 RMSDP=1.10D-06 MaxDP=1.64D-05 DE=-1.02D-07 OVMax= 4.44D-05

 Cycle   8  Pass 1  IDiag  1:
 E= -53.2092826916634     Delta-E=       -0.000000004143 Rises=F Damp=F
 DIIS: error= 1.55D-06 at cycle   8 NSaved=   8.
 NSaved= 8 IEnMin= 8 EnMin= -53.2092826916634     IErMin= 8 ErrMin= 1.55D-06
 ErrMax= 1.55D-06  0.00D+00 EMaxC= 1.00D-01 BMatC= 2.20D-10 BMatP= 5.14D-09
 IDIUse=1 WtCom= 1.00D+00 WtEn= 0.00D+00
 Coeff-Com:  0.571D-04-0.142D-03-0.880D-03 0.901D-03 0.144D-01-0.550D-01
 Coeff-Com: -0.135D+00 0.118D+01
 Coeff:      0.571D-04-0.142D-03-0.880D-03 0.901D-03 0.144D-01-0.550D-01
 Coeff:     -0.135D+00 0.118D+01
 Gap=     0.137 Goal=   None    Shift=    0.000
 Gap=     0.326 Goal=   None    Shift=    0.000
 RMSDP=3.17D-07 MaxDP=4.35D-06 DE=-4.14D-09 OVMax= 1.87D-05

 Cycle   9  Pass 1  IDiag  1:
 E= -53.2092826919002     Delta-E=       -0.000000000237 Rises=F Damp=F
 DIIS: error= 3.85D-07 at cycle   9 NSaved=   9.
 NSaved= 9 IEnMin= 9 EnMin= -53.2092826919002     IErMin= 9 ErrMin= 3.85D-07
 ErrMax= 3.85D-07  0.00D+00 EMaxC= 1.00D-01 BMatC= 5.07D-12 BMatP= 2.20D-10
 IDIUse=1 WtCom= 1.00D+00 WtEn= 0.00D+00
 Coeff-Com: -0.166D-05 0.660D-05 0.327D-04-0.128D-03-0.234D-03 0.375D-02
 Coeff-Com: -0.175D-01-0.733D-01 0.109D+01
 Coeff:     -0.166D-05 0.660D-05 0.327D-04-0.128D-03-0.234D-03 0.375D-02
 Coeff:     -0.175D-01-0.733D-01 0.109D+01
 Gap=     0.137 Goal=   None    Shift=    0.000
 Gap=     0.326 Goal=   None    Shift=    0.000
 RMSDP=7.92D-08 MaxDP=1.51D-06 DE=-2.37D-10 OVMax= 5.01D-06

 Cycle  10  Pass 1  IDiag  1:
 E= -53.2092826919085     Delta-E=       -0.000000000008 Rises=F Damp=F
 DIIS: error= 7.51D-08 at cycle  10 NSaved=  10.
 NSaved=10 IEnMin=10 EnMin= -53.2092826919085     IErMin=10 ErrMin= 7.51D-08
 ErrMax= 7.51D-08  0.00D+00 EMaxC= 1.00D-01 BMatC= 2.98D-13 BMatP= 5.07D-12
 IDIUse=1 WtCom= 1.00D+00 WtEn= 0.00D+00
 Coeff-Com: -0.713D-06 0.715D-06 0.153D-05 0.241D-04-0.224D-03 0.492D-03
 Coeff-Com:  0.540D-02-0.162D-01-0.235D+00 0.125D+01
 Coeff:     -0.713D-06 0.715D-06 0.153D-05 0.241D-04-0.224D-03 0.492D-03
 Coeff:      0.540D-02-0.162D-01-0.235D+00 0.125D+01
 Gap=     0.137 Goal=   None    Shift=    0.000
 Gap=     0.326 Goal=   None    Shift=    0.000
 RMSDP=2.78D-08 MaxDP=5.60D-07 DE=-8.36D-12 OVMax= 1.67D-06

 Cycle  11  Pass 1  IDiag  1:
 E= -53.2092826919093     Delta-E=       -0.000000000001 Rises=F Damp=F
 DIIS: error= 1.48D-08 at cycle  11 NSaved=  11.
 NSaved=11 IEnMin=11 EnMin= -53.2092826919093     IErMin=11 ErrMin= 1.48D-08
 ErrMax= 1.48D-08  0.00D+00 EMaxC= 1.00D-01 BMatC= 3.33D-14 BMatP= 2.98D-13
 IDIUse=1 WtCom= 1.00D+00 WtEn= 0.00D+00
 Coeff-Com: -0.189D-06 0.112D-06 0.235D-06 0.101D-04-0.675D-04 0.774D-04
 Coeff-Com:  0.217D-02-0.398D-02-0.943D-01 0.359D+00 0.737D+00
 Coeff:     -0.189D-06 0.112D-06 0.235D-06 0.101D-04-0.675D-04 0.774D-04
 Coeff:      0.217D-02-0.398D-02-0.943D-01 0.359D+00 0.737D+00
 Gap=     0.137 Goal=   None    Shift=    0.000
 Gap=     0.326 Goal=   None    Shift=    0.000
 RMSDP=3.86D-09 MaxDP=8.14D-08 DE=-7.39D-13 OVMax= 2.91D-07

 SCF Done:  E(UM062X) =  -53.2092826919     A.U. after   11 cycles
            NFock= 11  Conv=0.39D-08     -V/T= 2.0080
 <Sx>= 0.0000 <Sy>= 0.0000 <Sz>= 0.5000 <S**2>= 0.7532 S= 0.5016
 <L.S>=  0.00000000000    
 KE= 5.278761139043D+01 PE=-1.715805889435D+02 EE= 4.208758350544D+01
 Annihilation of the first spin contaminant:
 S**2 before annihilation     0.7532,   after     0.7500
 Leave Link  502 at Mon Apr 21 16:53:57 2025, MaxMem=   536870912 cpu:              83.8 elap:              11.0
 (Enter /home/szhao/Apps/g16/l601.exe)
 Copying SCF densities to generalized density rwf, IOpCl= 1 IROHF=0.

 **********************************************************************

            Population analysis using the SCF density.

 **********************************************************************

 Alpha  occ. eigenvalues --   -6.84196  -6.84195  -0.39514  -0.38661  -0.20905
 Alpha  occ. eigenvalues --   -0.20905  -0.20463  -0.20463  -0.00440
 Alpha virt. eigenvalues --    0.13306   0.16743   0.17721   0.17721   0.18323
 Alpha virt. eigenvalues --    0.18323   0.19506   0.22763   0.23251   0.33174
 Alpha virt. eigenvalues --    0.33175   0.34237   0.34238   0.38348   0.39492
 Alpha virt. eigenvalues --    0.49164   0.49165   0.53742   0.54241   0.54523
 Alpha virt. eigenvalues --    0.54523   0.60617   0.73312   0.73313   0.75375
 Alpha virt. eigenvalues --    0.75375   0.76220   0.82120   0.85360   1.00022
 Alpha virt. eigenvalues --    1.00023   1.01426   1.01426   1.23459   1.24111
 Alpha virt. eigenvalues --    1.32897   1.32897   1.37627   1.37628   1.60046
 Alpha virt. eigenvalues --    1.60047   1.82363   1.84406   1.84407   1.84765
 Alpha virt. eigenvalues --    1.84766   1.88110   2.06478   2.06478   2.08540
 Alpha virt. eigenvalues --    2.08540   2.08744   2.16542   2.25388   2.25389
 Alpha virt. eigenvalues --    2.25665   2.25666   2.38281   2.39080   2.73406
 Alpha virt. eigenvalues --    2.73406   2.75775   2.75777   2.82112   2.82112
 Alpha virt. eigenvalues --    2.83191   2.83192   2.98930   3.06549  14.73688
 Alpha virt. eigenvalues --   14.78768
  Beta  occ. eigenvalues --   -6.84137  -6.84137  -0.37660  -0.37154  -0.20632
  Beta  occ. eigenvalues --   -0.20632  -0.20230  -0.20230
  Beta virt. eigenvalues --    0.12329   0.14121   0.14509   0.15713   0.15713
  Beta virt. eigenvalues --    0.18089   0.18089   0.21971   0.22284   0.25797
  Beta virt. eigenvalues --    0.32438   0.32439   0.33778   0.33780   0.37732
  Beta virt. eigenvalues --    0.39654   0.48713   0.48714   0.53311   0.53960
  Beta virt. eigenvalues --    0.53961   0.55721   0.61427   0.73945   0.73945
  Beta virt. eigenvalues --    0.75908   0.75909   0.76446   0.82827   0.86433
  Beta virt. eigenvalues --    1.02109   1.02109   1.03371   1.03372   1.28174
  Beta virt. eigenvalues --    1.28298   1.33519   1.33520   1.38312   1.38312
  Beta virt. eigenvalues --    1.60351   1.60351   1.83248   1.85452   1.85452
  Beta virt. eigenvalues --    1.85886   1.85887   1.88782   2.07338   2.07338
  Beta virt. eigenvalues --    2.09352   2.09353   2.11395   2.18910   2.26130
  Beta virt. eigenvalues --    2.26131   2.26400   2.26400   2.39079   2.39811
  Beta virt. eigenvalues --    2.74556   2.74556   2.77180   2.77181   2.82928
  Beta virt. eigenvalues --    2.82928   2.83729   2.83730   2.99961   3.07459
  Beta virt. eigenvalues --   14.74721  14.79826
          Condensed to atoms (all electrons):
               1          2          3          4          5          6
     1  B    3.967633   0.118948  -0.005832   0.413743  -0.005834  -0.005840
     2  B    0.118948   3.967633   0.413733  -0.005838   0.413736   0.413746
     3  H   -0.005832   0.413733   0.731602   0.000003  -0.038181  -0.038178
     4  H    0.413743  -0.005838   0.000003   0.731586   0.000094   0.000003
     5  H   -0.005834   0.413736  -0.038181   0.000094   0.731598  -0.038181
     6  H   -0.005840   0.413746  -0.038178   0.000003  -0.038181   0.731579
     7  H    0.413732  -0.005831   0.000094  -0.038179   0.000003   0.000003
     8  H    0.413740  -0.005837   0.000003  -0.038181   0.000003   0.000094
               7          8
     1  B    0.413732   0.413740
     2  B   -0.005831  -0.005837
     3  H    0.000094   0.000003
     4  H   -0.038179  -0.038181
     5  H    0.000003   0.000003
     6  H    0.000003   0.000094
     7  H    0.731603  -0.038180
     8  H   -0.038180   0.731591
          Atomic-Atomic Spin Densities.
               1          2          3          4          5          6
     1  B    0.469631   0.121459  -0.005382  -0.003340  -0.005382  -0.005384
     2  B    0.121459   0.469631  -0.003342  -0.005383  -0.003342  -0.003340
     3  H   -0.005382  -0.003342  -0.016714   0.000116   0.001776   0.001775
     4  H   -0.003340  -0.005383   0.000116  -0.016716   0.000012   0.000116
     5  H   -0.005382  -0.003342   0.001776   0.000012  -0.016715   0.001780
     6  H   -0.005384  -0.003340   0.001775   0.000116   0.001780  -0.016715
     7  H   -0.003342  -0.005382   0.000012   0.001775   0.000116   0.000116
     8  H   -0.003341  -0.005383   0.000116   0.001780   0.000116   0.000012
               7          8
     1  B   -0.003342  -0.003341
     2  B   -0.005382  -0.005383
     3  H    0.000012   0.000116
     4  H    0.001775   0.001780
     5  H    0.000116   0.000116
     6  H    0.000116   0.000012
     7  H   -0.016714   0.001776
     8  H    0.001776  -0.016715
 Mulliken charges and spin densities:
               1          2
     1  B   -0.310290   0.564920
     2  B   -0.310290   0.564920
     3  H   -0.063245  -0.021642
     4  H   -0.063231  -0.021639
     5  H   -0.063238  -0.021639
     6  H   -0.063227  -0.021639
     7  H   -0.063245  -0.021642
     8  H   -0.063234  -0.021639
 Sum of Mulliken charges =  -1.00000   1.00000
 Mulliken charges and spin densities with hydrogens summed into heavy atoms:
               1          2
     1  B   -0.500000   0.500000
     2  B   -0.500000   0.500000
 Electronic spatial extent (au):  <R**2>=            296.1648
 Charge=             -1.0000 electrons
 Dipole moment (field-independent basis, Debye):
    X=             -0.0000    Y=             -0.0000    Z=              0.0001  Tot=              0.0001
 Quadrupole moment (field-independent basis, Debye-Ang):
   XX=            -39.9184   YY=            -24.3320   ZZ=            -24.3318
   XY=              0.0000   XZ=              0.0000   YZ=              0.0000
 Traceless Quadrupole moment (field-independent basis, Debye-Ang):
   XX=            -10.3910   YY=              5.1954   ZZ=              5.1956
   XY=              0.0000   XZ=              0.0000   YZ=              0.0000
 Octapole moment (field-independent basis, Debye-Ang**2):
  XXX=             -0.0000  YYY=             -0.0000  ZZZ=              0.0001  XYY=              0.0000
  XXY=             -0.0000  XXZ=              0.0004  XZZ=             -0.0000  YZZ=             -0.0000
  YYZ=              0.0001  XYZ=              0.0001
 Hexadecapole moment (field-independent basis, Debye-Ang**3):
 XXXX=           -576.8584 YYYY=            -70.2889 ZZZZ=            -70.2882 XXXY=              0.0015
 XXXZ=              0.0008 YYYX=              1.6075 YYYZ=              0.0000 ZZZX=              0.0003
 ZZZY=              0.0000 XXYY=           -102.8534 XXZZ=           -102.8522 YYZZ=            -23.4295
 XXYZ=              0.0002 YYXZ=              0.0001 ZZXY=             -1.6070
 N-N= 2.349611135569D+01 E-N=-1.715805889521D+02  KE= 5.278761139043D+01
                          Isotropic Fermi Contact Couplings
        Atom                 a.u.       MegaHertz       Gauss      10(-4) cm-1
     1  B(11)              0.06665      95.59891      34.11207      31.88836
     2  B(11)              0.06665      95.59897      34.11209      31.88838
     3  H(1)              -0.00361     -16.11955      -5.75186      -5.37690
     4  H(1)              -0.00361     -16.11904      -5.75168      -5.37673
     5  H(1)              -0.00361     -16.11956      -5.75186      -5.37691
     6  H(1)              -0.00361     -16.11767      -5.75119      -5.37628
     7  H(1)              -0.00361     -16.11959      -5.75187      -5.37692
     8  H(1)              -0.00361     -16.11818      -5.75137      -5.37645
 --------------------------------------------------------
       Center         ----  Spin Dipole Couplings  ----
                      3XX-RR        3YY-RR        3ZZ-RR
 --------------------------------------------------------
     1   Atom        0.178008     -0.089003     -0.089005
     2   Atom        0.178008     -0.089003     -0.089005
     3   Atom        0.007545      0.012811     -0.020356
     4   Atom        0.007543     -0.012064      0.004521
     5   Atom        0.007545     -0.012064      0.004519
     6   Atom        0.007543     -0.012064      0.004522
     7   Atom        0.007545      0.012811     -0.020356
     8   Atom        0.007544     -0.012064      0.004520
 --------------------------------------------------------
                        XY            XZ            YZ
 --------------------------------------------------------
     1   Atom        0.000034     -0.000011      0.000000
     2   Atom        0.000032      0.000038     -0.000000
     3   Atom       -0.006951      0.000003      0.000000
     4   Atom        0.003476     -0.006017     -0.014362
     5   Atom        0.003478     -0.006017     -0.014362
     6   Atom        0.003474      0.006017      0.014363
     7   Atom       -0.006951     -0.000001      0.000000
     8   Atom        0.003477      0.006016      0.014362
 --------------------------------------------------------


 ---------------------------------------------------------------------------------
              Anisotropic Spin Dipole Couplings in Principal Axis System
 ---------------------------------------------------------------------------------

       Atom             a.u.   MegaHertz   Gauss  10(-4) cm-1        Axes

              Baa    -0.0890   -15.239    -5.438    -5.083  0.0000 -0.0453  0.9990
     1 B(11)  Bbb    -0.0890   -15.239    -5.438    -5.083 -0.0001  0.9990  0.0453
              Bcc     0.1780    30.478    10.875    10.166  1.0000  0.0001 -0.0000
 
              Baa    -0.0890   -15.239    -5.438    -5.083 -0.0002  0.1010  0.9949
     2 B(11)  Bbb    -0.0890   -15.239    -5.438    -5.083 -0.0001  0.9949 -0.1010
              Bcc     0.1780    30.478    10.875    10.166  1.0000  0.0001  0.0001
 
              Baa    -0.0204   -10.861    -3.875    -3.623 -0.0001 -0.0000  1.0000
     3 H(1)   Bbb     0.0027     1.464     0.523     0.488  0.8229  0.5682  0.0001
              Bcc     0.0176     9.396     3.353     3.134 -0.5682  0.8229 -0.0000
 
              Baa    -0.0204   -10.861    -3.875    -3.623 -0.0001  0.8660  0.5000
     4 H(1)   Bbb     0.0027     1.466     0.523     0.489  0.8230 -0.2840  0.4920
              Bcc     0.0176     9.395     3.353     3.134 -0.5681 -0.4115  0.7127
 
              Baa    -0.0204   -10.861    -3.875    -3.623 -0.0001  0.8660  0.5000
     5 H(1)   Bbb     0.0027     1.465     0.523     0.489  0.8229 -0.2840  0.4921
              Bcc     0.0176     9.396     3.353     3.134 -0.5682 -0.4115  0.7126
 
              Baa    -0.0204   -10.861    -3.876    -3.623 -0.0000  0.8660 -0.5000
     6 H(1)   Bbb     0.0027     1.466     0.523     0.489  0.8230 -0.2840 -0.4920
              Bcc     0.0176     9.395     3.352     3.134  0.5680  0.4115  0.7127
 
              Baa    -0.0204   -10.861    -3.875    -3.623  0.0000 -0.0000  1.0000
     7 H(1)   Bbb     0.0027     1.464     0.523     0.488  0.8229  0.5683 -0.0000
              Bcc     0.0176     9.396     3.353     3.134 -0.5683  0.8229  0.0000
 
              Baa    -0.0204   -10.861    -3.875    -3.623 -0.0001  0.8660 -0.5000
     8 H(1)   Bbb     0.0027     1.466     0.523     0.489  0.8229 -0.2840 -0.4921
              Bcc     0.0176     9.395     3.353     3.134  0.5681  0.4115  0.7127
 

 ---------------------------------------------------------------------------------

 No NMR shielding tensors so no spin-rotation constants.
 Leave Link  601 at Mon Apr 21 16:53:58 2025, MaxMem=   536870912 cpu:               2.8 elap:               0.4
 (Enter /home/szhao/Apps/g16/l701.exe)
 ... and contract with generalized density number  0.
 Compute integral first derivatives.
 Leave Link  701 at Mon Apr 21 16:53:58 2025, MaxMem=   536870912 cpu:               1.7 elap:               0.3
 (Enter /home/szhao/Apps/g16/l702.exe)
 L702 exits ... SP integral derivatives will be done elsewhere.
 Leave Link  702 at Mon Apr 21 16:53:58 2025, MaxMem=   536870912 cpu:               0.6 elap:               0.2
 (Enter /home/szhao/Apps/g16/l703.exe)
 Integral derivatives from FoFJK, PRISM(SPDF).
 Compute integral first derivatives, UseDBF=F ICtDFT=           0.
 Calling FoFJK, ICntrl=      2127 FMM=F ISym2X=0 I1Cent= 0 IOpClX= 1 NMat=1 NMatS=1 NMatT=0.
 FoFJK:  IHMeth= 1 ICntrl=    2127 DoSepK=F KAlg= 0 I1Cent=           0 FoldK=F
 IRaf=         0 NMat=       1 IRICut=       1 DoRegI=T DoRafI=F ISym2E= 0 IDoP0=0 IntGTp=1.
 FoFCou: FMM=F IPFlag=           0 FMFlag=      100000 FMFlg1=         800
         NFxFlg=           0 DoJE=F BraDBF=F KetDBF=F FulRan=T
         wScrn=  0.000000 ICntrl=      2127 IOpCl=  1 I1Cent=           0 NGrid=           0
         NMat0=    1 NMatS0=      1 NMatT0=    0 NMatD0=    1 NMtDS0=    0 NMtDT0=    0
 Symmetry not used in FoFCou.
 Leave Link  703 at Mon Apr 21 16:54:00 2025, MaxMem=   536870912 cpu:              12.5 elap:               1.6
 (Enter /home/szhao/Apps/g16/l716.exe)
 Dipole        =-2.60242756D-07-1.08623344D-06 2.44418061D-05
 -------------------------------------------------------------------
 Center     Atomic                   Forces (Hartrees/Bohr)
 Number     Number              X              Y              Z
 -------------------------------------------------------------------
      1        5          -0.000000000   -0.000000000   -0.000000000
      2        5          -0.000000000   -0.000000000   -0.000000000
      3        1          -0.005727233    0.001279705   -0.000000018
      4        1           0.005725824    0.000640739   -0.001110224
      5        1          -0.005726866   -0.000640715    0.001109756
      6        1          -0.005725009   -0.000641148   -0.001110673
      7        1           0.005727271   -0.001279737   -0.000000381
      8        1           0.005725971    0.000641205    0.001110247
 -------------------------------------------------------------------
 Cartesian Forces:  Max     0.005727271 RMS     0.002933971
 Leave Link  716 at Mon Apr 21 16:54:00 2025, MaxMem=   536870912 cpu:               0.4 elap:               0.1
 (Enter /home/szhao/Apps/g16/l103.exe)

 GradGradGradGradGradGradGradGradGradGradGradGradGradGradGradGradGradGrad
 Berny optimization.
 FormGI is forming the generalized inverse of G from B-inverse, IUseBI=4.
 Internal  Forces:  Max     0.017179108 RMS     0.006305214
 Search for a local minimum.
 Step number   1 out of a maximum of   43
 All quantities printed in internal units (Hartrees-Bohrs-Radians)
 RMS Force = .51701D-02 SwitMx=.10000D-02 MixMth= 1
 Mixed Optimization -- RFO/linear search
 Second derivative matrix not updated -- first step.
 ITU=  0
     Eigenvalues ---    0.00230   0.07356   0.07356   0.07356   0.07357
     Eigenvalues ---    0.16000   0.16000   0.16000   0.16000   0.16000
     Eigenvalues ---    0.16000   0.24200   0.24200   0.24200   0.24200
     Eigenvalues ---    0.24200   0.242001000.000001000.000001000.00000
     Eigenvalues --- 1000.000001000.000001000.000001000.000001000.00000
     Eigenvalues --- 1000.000001000.000001000.000001000.000001000.00000
     Eigenvalues --- 1000.000001000.000001000.00000
 RFO step:  Lambda=-4.33041749D-03 EMin= 2.30000000D-03
 Linear search not attempted -- first point.
 Iteration  1 RMS(Cart)=  0.05529558 RMS(Int)=  0.00261699
 Iteration  2 RMS(Cart)=  0.00215670 RMS(Int)=  0.00197543
 Iteration  3 RMS(Cart)=  0.00001918 RMS(Int)=  0.00197541
 Iteration  4 RMS(Cart)=  0.00000023 RMS(Int)=  0.00197541
 ITry= 1 IFail=0 DXMaxC= 1.33D-01 DCOld= 1.00D+10 DXMaxT= 3.00D-01 DXLimC= 3.00D+00 Rises=F
 Variable       Old X    -DE/DX   Delta X   Delta X   Delta X     New X
                                 (Linear)    (Quad)   (Total)
    X1       -3.38388   0.01718   0.00000   0.00000   0.00000  -3.38388
    Y1        0.00000   0.00000   0.00000   0.00000   0.00000   0.00000
    Z1        0.00000   0.00000   0.00000   0.00000   0.00000   0.00000
    X2        3.38388  -0.01718   0.00000   0.00000   0.00000   3.38388
    Y2        0.00000  -0.00000   0.00000   0.00000   0.00000   0.00000
    Z2        0.00000  -0.00000   0.00000   0.00000   0.00000   0.00000
    R1        2.27987  -0.00225   0.00000  -0.00912  -0.00912   2.27075
    R2        2.27987  -0.00225   0.00000  -0.00912  -0.00912   2.27076
    R3        2.27988  -0.00225   0.00000  -0.00912  -0.00912   2.27076
    R4        2.27987  -0.00225   0.00000  -0.00912  -0.00912   2.27076
    R5        2.27988  -0.00225   0.00000  -0.00912  -0.00912   2.27076
    R6        2.27987  -0.00225   0.00000  -0.00912  -0.00912   2.27075
    A1        1.74340  -0.00932   0.00000  -0.05673  -0.05841   1.68499
    A2        1.74362  -0.00933   0.00000  -0.05675  -0.05843   1.68519
    A3        1.74347  -0.00932   0.00000  -0.05673  -0.05841   1.68507
    A4        2.04395   0.00532   0.00000   0.03238   0.02806   2.07201
    A5        2.04397   0.00532   0.00000   0.03237   0.02805   2.07202
    A6        2.04396   0.00532   0.00000   0.03237   0.02805   2.07201
    A7        1.74361  -0.00933   0.00000  -0.05675  -0.05842   1.68519
    A8        1.74356  -0.00932   0.00000  -0.05674  -0.05842   1.68514
    A9        1.74333  -0.00932   0.00000  -0.05672  -0.05840   1.68493
   A10        2.04394   0.00532   0.00000   0.03238   0.02806   2.07200
   A11        2.04397   0.00532   0.00000   0.03237   0.02805   2.07202
   A12        2.04397   0.00532   0.00000   0.03237   0.02805   2.07202
    D1        1.04719   0.00000   0.00000   0.00001   0.00001   1.04720
    D2       -3.14156  -0.00000   0.00000  -0.00001  -0.00001  -3.14157
    D3       -1.04720   0.00000   0.00000   0.00001   0.00001  -1.04719
    D4        3.14159   0.00000   0.00000   0.00001   0.00001  -3.14159
    D5       -1.04717  -0.00000   0.00000  -0.00001  -0.00001  -1.04717
    D6        1.04720   0.00000   0.00000   0.00001   0.00001   1.04721
    D7       -1.04718  -0.00000   0.00000  -0.00000  -0.00000  -1.04718
    D8        1.04725  -0.00000   0.00000  -0.00002  -0.00002   1.04724
    D9       -3.14156  -0.00000   0.00000  -0.00001  -0.00001  -3.14157
         Item               Value     Threshold  Converged?
 Maximum Force            0.009326     0.000450     NO 
 RMS     Force            0.005170     0.000300     NO 
 Maximum Displacement     0.132853     0.001800     NO 
 RMS     Displacement     0.056798     0.001200     NO 
 Predicted change in Energy=-2.210261D-03
 Lowest energy point so far.  Saving SCF results.
 GradGradGradGradGradGradGradGradGradGradGradGradGradGradGradGradGradGrad

 Leave Link  103 at Mon Apr 21 16:54:00 2025, MaxMem=   536870912 cpu:               0.6 elap:               0.2
 (Enter /home/szhao/Apps/g16/l202.exe)
                          Input orientation:                          
 ---------------------------------------------------------------------
 Center     Atomic      Atomic             Coordinates (Angstroms)
 Number     Number       Type             X           Y           Z
 ---------------------------------------------------------------------
      1          5           0       -1.790672    0.000000    0.000000
      2          5           0        1.790672    0.000000    0.000000
      3          1           0        1.927828   -1.193780   -0.000010
      4          1           0       -1.927594   -0.596906    1.033863
      5          1           0        1.927769    0.596920   -1.033834
      6          1           0        1.927518    0.596894    1.033879
      7          1           0       -1.927836    1.193779    0.000003
      8          1           0       -1.927684   -0.596910   -1.033850
 ---------------------------------------------------------------------
                    Distance matrix (angstroms):
                    1          2          3          4          5
     1  B    0.000000
     2  B    3.581343   0.000000
     3  H    3.905425   1.201633   0.000000
     4  H    1.201631   3.905211   4.036017   0.000000
     5  H    3.905371   1.201633   2.067703   4.534801   0.000000
     6  H    3.905141   1.201630   2.067714   4.035722   2.067713
     7  H    1.201633   3.905433   4.535039   2.067709   4.036180
     8  H    1.201632   3.905293   4.036093   2.067713   4.036056
                    6          7          8
     6  H    0.000000
     7  H    4.035954   0.000000
     8  H    4.534672   2.067708   0.000000
 Symmetry turned off by external request.
 Stoichiometry    B2H6(1-,2)
 Framework group  C1[X(B2H6)]
 Deg. of freedom    18
 Full point group                 C1      NOp   1
 Rotational constants (GHZ):          58.6439008           5.1896349           5.1896331
 Leave Link  202 at Mon Apr 21 16:54:01 2025, MaxMem=   536870912 cpu:               0.2 elap:               0.1
 (Enter /home/szhao/Apps/g16/l301.exe)
 Standard basis: 6-311+G(d,p) (5D, 7F)
 Ernie: Thresh=  0.10000D-02 Tol=  0.10000D-05 Strict=F.
    80 basis functions,   120 primitive gaussians,    82 cartesian basis functions
     9 alpha electrons        8 beta electrons
       nuclear repulsion energy        23.6428102048 Hartrees.
 IExCor= 4336 DFT=T Ex+Corr=M062X ExCW=0 ScaHFX=  0.540000
 ScaDFX=  1.000000  1.000000  1.000000  1.000000 ScalE2=  1.000000  1.000000
 IRadAn=      7 IRanWt=     -1 IRanGd=            0 ICorTp=0 IEmpDi=  4
 NAtoms=    8 NActive=    8 NUniq=    8 SFac= 1.00D+00 NAtFMM=   60 NAOKFM=F Big=F
 Integral buffers will be    131072 words long.
 Raffenetti 2 integral format.
 Two-electron integral symmetry is turned off.
 Leave Link  301 at Mon Apr 21 16:54:01 2025, MaxMem=   536870912 cpu:               0.4 elap:               0.1
 (Enter /home/szhao/Apps/g16/l302.exe)
 NPDir=0 NMtPBC=     1 NCelOv=     1 NCel=       1 NClECP=     1 NCelD=      1
         NCelK=      1 NCelE2=     1 NClLst=     1 CellRange=     0.0.
 One-electron integrals computed using PRISM.
 NBasis=    80 RedAO= T EigKep=  4.70D-03  NBF=    80
 NBsUse=    80 1.00D-06 EigRej= -1.00D+00 NBFU=    80
 Precomputing XC quadrature grid using
 IXCGrd= 4 IRadAn=           7 IRanWt=          -1 IRanGd=           0 AccXCQ= 0.00D+00.
 Generated NRdTot=       0 NPtTot=           0 NUsed=           0 NTot=          32
 NSgBfM=    82    82    82    82    82 MxSgAt=     8 MxSgA2=     8.
 Leave Link  302 at Mon Apr 21 16:54:01 2025, MaxMem=   536870912 cpu:               1.6 elap:               0.2
 (Enter /home/szhao/Apps/g16/l303.exe)
 DipDrv:  MaxL=1.
 Leave Link  303 at Mon Apr 21 16:54:01 2025, MaxMem=   536870912 cpu:               0.4 elap:               0.1
 (Enter /home/szhao/Apps/g16/l401.exe)
 Initial guess from the checkpoint file:  "opt.chk"
 B after Tr=    -0.000000    0.000000   -0.000005
         Rot=    1.000000   -0.000000   -0.000001    0.000001 Ang=  -0.00 deg.
 Guess basis will be translated and rotated to current coordinates.
 JPrj=2 DoOrth=T DoCkMO=T.
 Initial guess <Sx>= 0.0000 <Sy>= 0.0000 <Sz>= 0.5000 <S**2>= 0.7532 S= 0.5016
 Generating alternative initial guess.
 ExpMin= 3.15D-02 ExpMax= 2.86D+03 ExpMxC= 4.28D+02 IAcc=3 IRadAn=         5 AccDes= 0.00D+00
 Harris functional with IExCor= 1009 and IRadAn=       5 diagonalized for initial guess.
 HarFok:  IExCor= 1009 AccDes= 0.00D+00 IRadAn=         5 IDoV= 1 UseB2=F ITyADJ=14
 ICtDFT=  3500011 ScaDFX=  1.000000  1.000000  1.000000  1.000000
 FoFCou: FMM=F IPFlag=           0 FMFlag=      100000 FMFlg1=           0
         NFxFlg=           0 DoJE=T BraDBF=F KetDBF=T FulRan=T
         wScrn=  0.000000 ICntrl=       500 IOpCl=  0 I1Cent=   200000004 NGrid=           0
         NMat0=    1 NMatS0=      1 NMatT0=    0 NMatD0=    1 NMtDS0=    0 NMtDT0=    0
 Symmetry not used in FoFCou.
 Harris En= -53.3764593183216    
 Leave Link  401 at Mon Apr 21 16:54:02 2025, MaxMem=   536870912 cpu:               2.7 elap:               0.4
 (Enter /home/szhao/Apps/g16/l502.exe)
 Keep R1 and R2 ints in memory in canonical form, NReq=17776582.
 FoFCou: FMM=F IPFlag=           0 FMFlag=           0 FMFlg1=           0
         NFxFlg=           0 DoJE=F BraDBF=F KetDBF=F FulRan=T
         wScrn=  0.000000 ICntrl=       600 IOpCl=  0 I1Cent=           0 NGrid=           0
         NMat0=    1 NMatS0=   3240 NMatT0=    0 NMatD0=    1 NMtDS0=    0 NMtDT0=    0
 Symmetry not used in FoFCou.
 Two-electron integral symmetry not used.
 UHF open shell SCF:
 Using DIIS extrapolation, IDIIS=  1040.
 NGot=   536870912 LenX=   526355138 LenY=   526347973
 Requested convergence on RMS density matrix=1.00D-08 within 128 cycles.
 Requested convergence on MAX density matrix=1.00D-06.
 Requested convergence on             energy=1.00D-06.
 No special actions if energy rises.

 Cycle   1  Pass 1  IDiag  1:
 E= -53.2114870090458    
 DIIS: error= 4.82D-03 at cycle   1 NSaved=   1.
 NSaved= 1 IEnMin= 1 EnMin= -53.2114870090458     IErMin= 1 ErrMin= 4.82D-03
 ErrMax= 4.82D-03  0.00D+00 EMaxC= 1.00D-01 BMatC= 1.67D-03 BMatP= 1.67D-03
 IDIUse=3 WtCom= 9.52D-01 WtEn= 4.82D-02
 Coeff-Com:  0.100D+01
 Coeff-En:   0.100D+01
 Coeff:      0.100D+01
 Gap=     0.372 Goal=   None    Shift=    0.000
 Gap=     0.483 Goal=   None    Shift=    0.000
 GapD=    0.372 DampG=1.000 DampE=1.000 DampFc=1.0000 IDamp=-1.
 RMSDP=3.19D-04 MaxDP=5.15D-03              OVMax= 2.39D-02

 Cycle   2  Pass 1  IDiag  1:
 E= -53.2123099326417     Delta-E=       -0.000822923596 Rises=F Damp=F
 DIIS: error= 1.28D-03 at cycle   2 NSaved=   2.
 NSaved= 2 IEnMin= 2 EnMin= -53.2123099326417     IErMin= 2 ErrMin= 1.28D-03
 ErrMax= 1.28D-03  0.00D+00 EMaxC= 1.00D-01 BMatC= 7.04D-05 BMatP= 1.67D-03
 IDIUse=3 WtCom= 9.87D-01 WtEn= 1.28D-02
 Coeff-Com: -0.108D+00 0.111D+01
 Coeff-En:   0.000D+00 0.100D+01
 Coeff:     -0.107D+00 0.111D+01
 Gap=     0.131 Goal=   None    Shift=    0.000
 Gap=     0.330 Goal=   None    Shift=    0.000
 RMSDP=1.97D-04 MaxDP=3.61D-03 DE=-8.23D-04 OVMax= 1.09D-02

 Cycle   3  Pass 1  IDiag  1:
 E= -53.2123793266683     Delta-E=       -0.000069394027 Rises=F Damp=F
 DIIS: error= 4.47D-04 at cycle   3 NSaved=   3.
 NSaved= 3 IEnMin= 3 EnMin= -53.2123793266683     IErMin= 3 ErrMin= 4.47D-04
 ErrMax= 4.47D-04  0.00D+00 EMaxC= 1.00D-01 BMatC= 1.12D-05 BMatP= 7.04D-05
 IDIUse=3 WtCom= 9.96D-01 WtEn= 4.47D-03
 Coeff-Com: -0.377D-01 0.105D+00 0.932D+00
 Coeff-En:   0.000D+00 0.000D+00 0.100D+01
 Coeff:     -0.376D-01 0.105D+00 0.933D+00
 Gap=     0.131 Goal=   None    Shift=    0.000
 Gap=     0.331 Goal=   None    Shift=    0.000
 RMSDP=5.41D-05 MaxDP=9.15D-04 DE=-6.94D-05 OVMax= 1.95D-03

 Cycle   4  Pass 1  IDiag  1:
 E= -53.2123878140149     Delta-E=       -0.000008487347 Rises=F Damp=F
 DIIS: error= 1.53D-04 at cycle   4 NSaved=   4.
 NSaved= 4 IEnMin= 4 EnMin= -53.2123878140149     IErMin= 4 ErrMin= 1.53D-04
 ErrMax= 1.53D-04  0.00D+00 EMaxC= 1.00D-01 BMatC= 1.97D-06 BMatP= 1.12D-05
 IDIUse=3 WtCom= 9.98D-01 WtEn= 1.53D-03
 Coeff-Com:  0.130D-01-0.181D+00 0.129D+00 0.104D+01
 Coeff-En:   0.000D+00 0.000D+00 0.000D+00 0.100D+01
 Coeff:      0.129D-01-0.181D+00 0.129D+00 0.104D+01
 Gap=     0.131 Goal=   None    Shift=    0.000
 Gap=     0.331 Goal=   None    Shift=    0.000
 RMSDP=3.69D-05 MaxDP=6.49D-04 DE=-8.49D-06 OVMax= 1.74D-03

 Cycle   5  Pass 1  IDiag  1:
 E= -53.2123896374942     Delta-E=       -0.000001823479 Rises=F Damp=F
 DIIS: error= 3.12D-05 at cycle   5 NSaved=   5.
 NSaved= 5 IEnMin= 5 EnMin= -53.2123896374942     IErMin= 5 ErrMin= 3.12D-05
 ErrMax= 3.12D-05  0.00D+00 EMaxC= 1.00D-01 BMatC= 8.52D-08 BMatP= 1.97D-06
 IDIUse=1 WtCom= 1.00D+00 WtEn= 0.00D+00
 Coeff-Com:  0.252D-02-0.135D-01-0.592D-01 0.395D-01 0.103D+01
 Coeff:      0.252D-02-0.135D-01-0.592D-01 0.395D-01 0.103D+01
 Gap=     0.130 Goal=   None    Shift=    0.000
 Gap=     0.331 Goal=   None    Shift=    0.000
 RMSDP=5.48D-06 MaxDP=1.03D-04 DE=-1.82D-06 OVMax= 2.04D-04

 Cycle   6  Pass 1  IDiag  1:
 E= -53.2123897112838     Delta-E=       -0.000000073790 Rises=F Damp=F
 DIIS: error= 8.52D-06 at cycle   6 NSaved=   6.
 NSaved= 6 IEnMin= 6 EnMin= -53.2123897112838     IErMin= 6 ErrMin= 8.52D-06
 ErrMax= 8.52D-06  0.00D+00 EMaxC= 1.00D-01 BMatC= 4.91D-09 BMatP= 8.52D-08
 IDIUse=1 WtCom= 1.00D+00 WtEn= 0.00D+00
 Coeff-Com: -0.111D-02 0.154D-01-0.106D-01-0.842D-01 0.151D-02 0.108D+01
 Coeff:     -0.111D-02 0.154D-01-0.106D-01-0.842D-01 0.151D-02 0.108D+01
 Gap=     0.131 Goal=   None    Shift=    0.000
 Gap=     0.331 Goal=   None    Shift=    0.000
 RMSDP=9.45D-07 MaxDP=1.52D-05 DE=-7.38D-08 OVMax= 5.24D-05

 Cycle   7  Pass 1  IDiag  1:
 E= -53.2123897156576     Delta-E=       -0.000000004374 Rises=F Damp=F
 DIIS: error= 1.68D-06 at cycle   7 NSaved=   7.
 NSaved= 7 IEnMin= 7 EnMin= -53.2123897156576     IErMin= 7 ErrMin= 1.68D-06
 ErrMax= 1.68D-06  0.00D+00 EMaxC= 1.00D-01 BMatC= 1.69D-10 BMatP= 4.91D-09
 IDIUse=1 WtCom= 1.00D+00 WtEn= 0.00D+00
 Coeff-Com: -0.903D-04 0.244D-03 0.327D-02-0.110D-02-0.458D-01 0.733D-02
 Coeff-Com:  0.104D+01
 Coeff:     -0.903D-04 0.244D-03 0.327D-02-0.110D-02-0.458D-01 0.733D-02
 Coeff:      0.104D+01
 Gap=     0.131 Goal=   None    Shift=    0.000
 Gap=     0.331 Goal=   None    Shift=    0.000
 RMSDP=3.70D-07 MaxDP=7.86D-06 DE=-4.37D-09 OVMax= 2.40D-05

 Cycle   8  Pass 1  IDiag  1:
 E= -53.2123897158730     Delta-E=       -0.000000000215 Rises=F Damp=F
 DIIS: error= 3.49D-07 at cycle   8 NSaved=   8.
 NSaved= 8 IEnMin= 8 EnMin= -53.2123897158730     IErMin= 8 ErrMin= 3.49D-07
 ErrMax= 3.49D-07  0.00D+00 EMaxC= 1.00D-01 BMatC= 1.10D-11 BMatP= 1.69D-10
 IDIUse=1 WtCom= 1.00D+00 WtEn= 0.00D+00
 Coeff-Com:  0.489D-04-0.786D-03 0.846D-03 0.429D-02 0.642D-03-0.619D-01
 Coeff-Com:  0.359D-02 0.105D+01
 Coeff:      0.489D-04-0.786D-03 0.846D-03 0.429D-02 0.642D-03-0.619D-01
 Coeff:      0.359D-02 0.105D+01
 Gap=     0.131 Goal=   None    Shift=    0.000
 Gap=     0.331 Goal=   None    Shift=    0.000
 RMSDP=1.39D-07 MaxDP=3.10D-06 DE=-2.15D-10 OVMax= 1.00D-05

 Cycle   9  Pass 1  IDiag  1:
 E= -53.2123897158953     Delta-E=       -0.000000000022 Rises=F Damp=F
 DIIS: error= 1.16D-07 at cycle   9 NSaved=   9.
 NSaved= 9 IEnMin= 9 EnMin= -53.2123897158953     IErMin= 9 ErrMin= 1.16D-07
 ErrMax= 1.16D-07  0.00D+00 EMaxC= 1.00D-01 BMatC= 7.00D-13 BMatP= 1.10D-11
 IDIUse=1 WtCom= 1.00D+00 WtEn= 0.00D+00
 Coeff-Com: -0.548D-05 0.139D-03-0.387D-03-0.840D-03 0.321D-02 0.782D-02
 Coeff-Com: -0.673D-01-0.181D+00 0.124D+01
 Coeff:     -0.548D-05 0.139D-03-0.387D-03-0.840D-03 0.321D-02 0.782D-02
 Coeff:     -0.673D-01-0.181D+00 0.124D+01
 Gap=     0.131 Goal=   None    Shift=    0.000
 Gap=     0.331 Goal=   None    Shift=    0.000
 RMSDP=5.27D-08 MaxDP=9.83D-07 DE=-2.23D-11 OVMax= 3.56D-06

 Cycle  10  Pass 1  IDiag  1:
 E= -53.2123897158973     Delta-E=       -0.000000000002 Rises=F Damp=F
 DIIS: error= 1.87D-08 at cycle  10 NSaved=  10.
 NSaved=10 IEnMin=10 EnMin= -53.2123897158973     IErMin=10 ErrMin= 1.87D-08
 ErrMax= 1.87D-08  0.00D+00 EMaxC= 1.00D-01 BMatC= 2.35D-14 BMatP= 7.00D-13
 IDIUse=1 WtCom= 1.00D+00 WtEn= 0.00D+00
 Coeff-Com: -0.185D-05 0.218D-04-0.119D-04-0.888D-04-0.242D-03 0.141D-02
 Coeff-Com:  0.493D-02-0.189D-01-0.832D-01 0.110D+01
 Coeff:     -0.185D-05 0.218D-04-0.119D-04-0.888D-04-0.242D-03 0.141D-02
 Coeff:      0.493D-02-0.189D-01-0.832D-01 0.110D+01
 Gap=     0.131 Goal=   None    Shift=    0.000
 Gap=     0.331 Goal=   None    Shift=    0.000
 RMSDP=8.11D-09 MaxDP=1.77D-07 DE=-1.93D-12 OVMax= 5.25D-07

 SCF Done:  E(UM062X) =  -53.2123897159     A.U. after   10 cycles
            NFock= 10  Conv=0.81D-08     -V/T= 2.0075
 <Sx>= 0.0000 <Sy>= 0.0000 <Sz>= 0.5000 <S**2>= 0.7532 S= 0.5016
 <L.S>=  0.00000000000    
 KE= 5.281729025726D+01 PE=-1.719139806627D+02 EE= 4.224149048472D+01
 Annihilation of the first spin contaminant:
 S**2 before annihilation     0.7532,   after     0.7500
 Leave Link  502 at Mon Apr 21 16:54:12 2025, MaxMem=   536870912 cpu:              76.4 elap:              10.0
 (Enter /home/szhao/Apps/g16/l701.exe)
 ... and contract with generalized density number  0.
 Compute integral first derivatives.
 Leave Link  701 at Mon Apr 21 16:54:12 2025, MaxMem=   536870912 cpu:               1.3 elap:               0.2
 (Enter /home/szhao/Apps/g16/l702.exe)
 L702 exits ... SP integral derivatives will be done elsewhere.
 Leave Link  702 at Mon Apr 21 16:54:12 2025, MaxMem=   536870912 cpu:               0.5 elap:               0.1
 (Enter /home/szhao/Apps/g16/l703.exe)
 Integral derivatives from FoFJK, PRISM(SPDF).
 Compute integral first derivatives, UseDBF=F ICtDFT=           0.
 Calling FoFJK, ICntrl=      2127 FMM=F ISym2X=0 I1Cent= 0 IOpClX= 1 NMat=1 NMatS=1 NMatT=0.
 FoFJK:  IHMeth= 1 ICntrl=    2127 DoSepK=F KAlg= 0 I1Cent=           0 FoldK=F
 IRaf=         0 NMat=       1 IRICut=       1 DoRegI=T DoRafI=F ISym2E= 0 IDoP0=0 IntGTp=1.
 FoFCou: FMM=F IPFlag=           0 FMFlag=      100000 FMFlg1=         800
         NFxFlg=           0 DoJE=F BraDBF=F KetDBF=F FulRan=T
         wScrn=  0.000000 ICntrl=      2127 IOpCl=  1 I1Cent=           0 NGrid=           0
         NMat0=    1 NMatS0=      1 NMatT0=    0 NMatD0=    1 NMtDS0=    0 NMtDT0=    0
 Symmetry not used in FoFCou.
 Leave Link  703 at Mon Apr 21 16:54:14 2025, MaxMem=   536870912 cpu:              13.0 elap:               1.6
 (Enter /home/szhao/Apps/g16/l716.exe)
 Dipole        = 2.40248498D-07-1.18437982D-06 2.70577628D-05
 -------------------------------------------------------------------
 Center     Atomic                   Forces (Hartrees/Bohr)
 Number     Number              X              Y              Z
 -------------------------------------------------------------------
      1        5          -0.000000000   -0.000000000   -0.000000000
      2        5          -0.000000000   -0.000000000   -0.000000000
      3        1          -0.002293682    0.000480362    0.000000357
      4        1           0.002292677    0.000240447   -0.000416379
      5        1          -0.002293434   -0.000240170    0.000416163
      6        1          -0.002292052   -0.000240702   -0.000416402
      7        1           0.002293711   -0.000480342   -0.000000061
      8        1           0.002292756    0.000240417    0.000416201
 -------------------------------------------------------------------
 Cartesian Forces:  Max     0.002293711 RMS     0.001171438
 Leave Link  716 at Mon Apr 21 16:54:14 2025, MaxMem=   536870912 cpu:               0.4 elap:               0.1
 (Enter /home/szhao/Apps/g16/l103.exe)

 GradGradGradGradGradGradGradGradGradGradGradGradGradGradGradGradGradGrad
 Berny optimization.
 Using GEDIIS/GDIIS optimizer.
 FormGI is forming the generalized inverse of G from B-inverse, IUseBI=4.
 Internal  Forces:  Max     0.006879168 RMS     0.002645054
 Search for a local minimum.
 Step number   2 out of a maximum of   43
 All quantities printed in internal units (Hartrees-Bohrs-Radians)
 RMS Force = .22463D-02 SwitMx=.10000D-02 MixMth= 1
 Mixed Optimization -- RFO/linear search
 Update second derivatives using D2CorX and points    1    2
 DE= -3.11D-03 DEPred=-2.21D-03 R= 1.41D+00
 TightC=F SS=  1.41D+00  RLast= 1.60D-01 DXNew= 5.0454D-01 4.8088D-01
 Trust test= 1.41D+00 RLast= 1.60D-01 DXMaxT set to 4.81D-01
 ITU=  1  0
 Use linear search instead of GDIIS.
     Eigenvalues ---    0.00230   0.07767   0.07767   0.07768   0.07768
     Eigenvalues ---    0.09133   0.16000   0.16000   0.16000   0.16000
     Eigenvalues ---    0.16000   0.24139   0.24200   0.24200   0.24200
     Eigenvalues ---    0.24200   0.242001000.000001000.000001000.00000
     Eigenvalues --- 1000.000001000.000001000.000001000.000001000.00000
     Eigenvalues --- 1000.000001000.000001000.000001000.000001000.00000
     Eigenvalues --- 1000.000001000.000001000.00000
 RFO step:  Lambda=-4.37512566D-06 EMin= 2.30000000D-03
 Quartic linear search produced a step of  0.67902.
 Iteration  1 RMS(Cart)=  0.04086208 RMS(Int)=  0.00279856
 Iteration  2 RMS(Cart)=  0.00088258 RMS(Int)=  0.00266125
 Iteration  3 RMS(Cart)=  0.00000385 RMS(Int)=  0.00266125
 Iteration  4 RMS(Cart)=  0.00000007 RMS(Int)=  0.00266125
 ITry= 1 IFail=0 DXMaxC= 9.62D-02 DCOld= 1.00D+10 DXMaxT= 4.81D-01 DXLimC= 3.00D+00 Rises=F
 Variable       Old X    -DE/DX   Delta X   Delta X   Delta X     New X
                                 (Linear)    (Quad)   (Total)
    X1       -3.38388   0.00688   0.00000   0.00000   0.00000  -3.38388
    Y1        0.00000   0.00000   0.00000   0.00000   0.00000   0.00000
    Z1        0.00000   0.00000   0.00000   0.00000   0.00000   0.00000
    X2        3.38388  -0.00688   0.00000   0.00000   0.00000   3.38388
    Y2        0.00000  -0.00000   0.00000   0.00000   0.00000   0.00000
    Z2        0.00000  -0.00000   0.00000   0.00000   0.00000   0.00000
    R1        2.27075  -0.00074  -0.00619   0.00145  -0.00474   2.26601
    R2        2.27076  -0.00074  -0.00619   0.00145  -0.00474   2.26601
    R3        2.27076  -0.00074  -0.00619   0.00145  -0.00474   2.26601
    R4        2.27076  -0.00074  -0.00619   0.00145  -0.00474   2.26601
    R5        2.27076  -0.00074  -0.00619   0.00145  -0.00474   2.26601
    R6        2.27075  -0.00074  -0.00619   0.00145  -0.00474   2.26601
    A1        1.68499  -0.00439  -0.03966  -0.00124  -0.04240   1.64259
    A2        1.68519  -0.00439  -0.03967  -0.00125  -0.04242   1.64277
    A3        1.68507  -0.00439  -0.03966  -0.00125  -0.04240   1.64267
    A4        2.07201   0.00170   0.01905   0.00048   0.01347   2.08548
    A5        2.07202   0.00170   0.01905   0.00048   0.01347   2.08549
    A6        2.07201   0.00170   0.01905   0.00048   0.01347   2.08548
    A7        1.68519  -0.00439  -0.03967  -0.00125  -0.04242   1.64277
    A8        1.68514  -0.00439  -0.03967  -0.00125  -0.04242   1.64272
    A9        1.68493  -0.00439  -0.03965  -0.00124  -0.04239   1.64254
   A10        2.07200   0.00170   0.01905   0.00049   0.01348   2.08548
   A11        2.07202   0.00170   0.01905   0.00048   0.01347   2.08549
   A12        2.07202   0.00170   0.01905   0.00048   0.01347   2.08549
    D1        1.04720   0.00000   0.00001   0.00000   0.00001   1.04721
    D2       -3.14157  -0.00000  -0.00000   0.00000  -0.00000  -3.14157
    D3       -1.04719   0.00000   0.00000   0.00001   0.00001  -1.04718
    D4       -3.14159   0.00000   0.00001  -0.00000   0.00001  -3.14158
    D5       -1.04717  -0.00000  -0.00000   0.00000  -0.00000  -1.04718
    D6        1.04721   0.00000   0.00000   0.00000   0.00001   1.04721
    D7       -1.04718  -0.00000  -0.00000  -0.00000  -0.00000  -1.04718
    D8        1.04724  -0.00000  -0.00001   0.00000  -0.00001   1.04722
    D9       -3.14157  -0.00000  -0.00000   0.00000  -0.00000  -3.14157
         Item               Value     Threshold  Converged?
 Maximum Force            0.004391     0.000450     NO 
 RMS     Force            0.002246     0.000300     NO 
 Maximum Displacement     0.096246     0.001800     NO 
 RMS     Displacement     0.041065     0.001200     NO 
 Predicted change in Energy=-7.325556D-04
 Lowest energy point so far.  Saving SCF results.
 GradGradGradGradGradGradGradGradGradGradGradGradGradGradGradGradGradGrad

 Leave Link  103 at Mon Apr 21 16:54:15 2025, MaxMem=   536870912 cpu:               0.7 elap:               0.1
 (Enter /home/szhao/Apps/g16/l202.exe)
                          Input orientation:                          
 ---------------------------------------------------------------------
 Center     Atomic      Atomic             Coordinates (Angstroms)
 Number     Number       Type             X           Y           Z
 ---------------------------------------------------------------------
      1          5           0       -1.790672    0.000000    0.000000
      2          5           0        1.790672    0.000000    0.000000
      3          1           0        1.876897   -1.196018   -0.000014
      4          1           0       -1.876689   -0.598014    1.035795
      5          1           0        1.876846    0.598032   -1.035773
      6          1           0        1.876628    0.598001    1.035807
      7          1           0       -1.876905    1.196018   -0.000000
      8          1           0       -1.876777   -0.598020   -1.035785
 ---------------------------------------------------------------------
                    Distance matrix (angstroms):
                    1          2          3          4          5
     1  B    0.000000
     2  B    3.581343   0.000000
     3  H    3.857657   1.199122   0.000000
     4  H    1.199121   3.857464   3.939533   0.000000
     5  H    3.857610   1.199122   2.071572   4.450949   0.000000
     6  H    3.857407   1.199121   2.071577   3.939270   2.071580
     7  H    1.199122   3.857665   4.451165   2.071575   3.939678
     8  H    1.199122   3.857546   3.939606   2.071580   3.939572
                    6          7          8
     6  H    0.000000
     7  H    3.939484   0.000000
     8  H    4.450844   2.071574   0.000000
 Symmetry turned off by external request.
 Stoichiometry    B2H6(1-,2)
 Framework group  C1[X(B2H6)]
 Deg. of freedom    18
 Full point group                 C1      NOp   1
 Rotational constants (GHZ):          58.4251837           5.2519351           5.2519334
 Leave Link  202 at Mon Apr 21 16:54:15 2025, MaxMem=   536870912 cpu:               0.3 elap:               0.1
 (Enter /home/szhao/Apps/g16/l301.exe)
 Standard basis: 6-311+G(d,p) (5D, 7F)
 Ernie: Thresh=  0.10000D-02 Tol=  0.10000D-05 Strict=F.
    80 basis functions,   120 primitive gaussians,    82 cartesian basis functions
     9 alpha electrons        8 beta electrons
       nuclear repulsion energy        23.7437853932 Hartrees.
 IExCor= 4336 DFT=T Ex+Corr=M062X ExCW=0 ScaHFX=  0.540000
 ScaDFX=  1.000000  1.000000  1.000000  1.000000 ScalE2=  1.000000  1.000000
 IRadAn=      7 IRanWt=     -1 IRanGd=            0 ICorTp=0 IEmpDi=  4
 NAtoms=    8 NActive=    8 NUniq=    8 SFac= 1.00D+00 NAtFMM=   60 NAOKFM=F Big=F
 Integral buffers will be    131072 words long.
 Raffenetti 2 integral format.
 Two-electron integral symmetry is turned off.
 Leave Link  301 at Mon Apr 21 16:54:15 2025, MaxMem=   536870912 cpu:               0.6 elap:               0.2
 (Enter /home/szhao/Apps/g16/l302.exe)
 NPDir=0 NMtPBC=     1 NCelOv=     1 NCel=       1 NClECP=     1 NCelD=      1
         NCelK=      1 NCelE2=     1 NClLst=     1 CellRange=     0.0.
 One-electron integrals computed using PRISM.
 NBasis=    80 RedAO= T EigKep=  4.69D-03  NBF=    80
 NBsUse=    80 1.00D-06 EigRej= -1.00D+00 NBFU=    80
 Precomputing XC quadrature grid using
 IXCGrd= 4 IRadAn=           7 IRanWt=          -1 IRanGd=           0 AccXCQ= 0.00D+00.
 Generated NRdTot=       0 NPtTot=           0 NUsed=           0 NTot=          32
 NSgBfM=    82    82    82    82    82 MxSgAt=     8 MxSgA2=     8.
 Leave Link  302 at Mon Apr 21 16:54:15 2025, MaxMem=   536870912 cpu:               1.6 elap:               0.2
 (Enter /home/szhao/Apps/g16/l303.exe)
 DipDrv:  MaxL=1.
 Leave Link  303 at Mon Apr 21 16:54:16 2025, MaxMem=   536870912 cpu:               0.5 elap:               0.1
 (Enter /home/szhao/Apps/g16/l401.exe)
 Initial guess from the checkpoint file:  "opt.chk"
 B after Tr=    -0.000000    0.000000   -0.000003
         Rot=    1.000000   -0.000000   -0.000000    0.000001 Ang=  -0.00 deg.
 Guess basis will be translated and rotated to current coordinates.
 JPrj=2 DoOrth=T DoCkMO=T.
 Initial guess <Sx>= 0.0000 <Sy>= 0.0000 <Sz>= 0.5000 <S**2>= 0.7533 S= 0.5016
 Generating alternative initial guess.
 ExpMin= 3.15D-02 ExpMax= 2.86D+03 ExpMxC= 4.28D+02 IAcc=3 IRadAn=         5 AccDes= 0.00D+00
 Harris functional with IExCor= 1009 and IRadAn=       5 diagonalized for initial guess.
 HarFok:  IExCor= 1009 AccDes= 0.00D+00 IRadAn=         5 IDoV= 1 UseB2=F ITyADJ=14
 ICtDFT=  3500011 ScaDFX=  1.000000  1.000000  1.000000  1.000000
 FoFCou: FMM=F IPFlag=           0 FMFlag=      100000 FMFlg1=           0
         NFxFlg=           0 DoJE=T BraDBF=F KetDBF=T FulRan=T
         wScrn=  0.000000 ICntrl=       500 IOpCl=  0 I1Cent=   200000004 NGrid=           0
         NMat0=    1 NMatS0=      1 NMatT0=    0 NMatD0=    1 NMtDS0=    0 NMtDT0=    0
 Symmetry not used in FoFCou.
 Harris En= -53.3786597449458    
 Leave Link  401 at Mon Apr 21 16:54:16 2025, MaxMem=   536870912 cpu:               2.7 elap:               0.3
 (Enter /home/szhao/Apps/g16/l502.exe)
 Keep R1 and R2 ints in memory in canonical form, NReq=17776582.
 FoFCou: FMM=F IPFlag=           0 FMFlag=           0 FMFlg1=           0
         NFxFlg=           0 DoJE=F BraDBF=F KetDBF=F FulRan=T
         wScrn=  0.000000 ICntrl=       600 IOpCl=  0 I1Cent=           0 NGrid=           0
         NMat0=    1 NMatS0=   3240 NMatT0=    0 NMatD0=    1 NMtDS0=    0 NMtDT0=    0
 Symmetry not used in FoFCou.
 Two-electron integral symmetry not used.
 UHF open shell SCF:
 Using DIIS extrapolation, IDIIS=  1040.
 NGot=   536870912 LenX=   526355138 LenY=   526347973
 Requested convergence on RMS density matrix=1.00D-08 within 128 cycles.
 Requested convergence on MAX density matrix=1.00D-06.
 Requested convergence on             energy=1.00D-06.
 No special actions if energy rises.

 Cycle   1  Pass 1  IDiag  1:
 E= -53.2125678755287    
 DIIS: error= 3.74D-03 at cycle   1 NSaved=   1.
 NSaved= 1 IEnMin= 1 EnMin= -53.2125678755287     IErMin= 1 ErrMin= 3.74D-03
 ErrMax= 3.74D-03  0.00D+00 EMaxC= 1.00D-01 BMatC= 8.88D-04 BMatP= 8.88D-04
 IDIUse=3 WtCom= 9.63D-01 WtEn= 3.74D-02
 Coeff-Com:  0.100D+01
 Coeff-En:   0.100D+01
 Coeff:      0.100D+01
 Gap=     0.368 Goal=   None    Shift=    0.000
 Gap=     0.490 Goal=   None    Shift=    0.000
 GapD=    0.368 DampG=1.000 DampE=1.000 DampFc=1.0000 IDamp=-1.
 RMSDP=2.34D-04 MaxDP=4.11D-03              OVMax= 1.81D-02

 Cycle   2  Pass 1  IDiag  1:
 E= -53.2130183744531     Delta-E=       -0.000450498924 Rises=F Damp=F
 DIIS: error= 1.01D-03 at cycle   2 NSaved=   2.
 NSaved= 2 IEnMin= 2 EnMin= -53.2130183744531     IErMin= 2 ErrMin= 1.01D-03
 ErrMax= 1.01D-03  0.00D+00 EMaxC= 1.00D-01 BMatC= 3.89D-05 BMatP= 8.88D-04
 IDIUse=3 WtCom= 9.90D-01 WtEn= 1.01D-02
 Coeff-Com: -0.121D+00 0.112D+01
 Coeff-En:   0.000D+00 0.100D+01
 Coeff:     -0.120D+00 0.112D+01
 Gap=     0.126 Goal=   None    Shift=    0.000
 Gap=     0.333 Goal=   None    Shift=    0.000
 RMSDP=1.46D-04 MaxDP=2.78D-03 DE=-4.50D-04 OVMax= 7.93D-03

 Cycle   3  Pass 1  IDiag  1:
 E= -53.2130584012931     Delta-E=       -0.000040026840 Rises=F Damp=F
 DIIS: error= 3.46D-04 at cycle   3 NSaved=   3.
 NSaved= 3 IEnMin= 3 EnMin= -53.2130584012931     IErMin= 3 ErrMin= 3.46D-04
 ErrMax= 3.46D-04  0.00D+00 EMaxC= 1.00D-01 BMatC= 5.12D-06 BMatP= 3.89D-05
 IDIUse=3 WtCom= 9.97D-01 WtEn= 3.46D-03
 Coeff-Com: -0.236D-01-0.289D-01 0.105D+01
 Coeff-En:   0.000D+00 0.000D+00 0.100D+01
 Coeff:     -0.235D-01-0.288D-01 0.105D+01
 Gap=     0.126 Goal=   None    Shift=    0.000
 Gap=     0.333 Goal=   None    Shift=    0.000
 RMSDP=4.36D-05 MaxDP=7.47D-04 DE=-4.00D-05 OVMax= 1.67D-03

 Cycle   4  Pass 1  IDiag  1:
 E= -53.2130631781439     Delta-E=       -0.000004776851 Rises=F Damp=F
 DIIS: error= 1.05D-04 at cycle   4 NSaved=   4.
 NSaved= 4 IEnMin= 4 EnMin= -53.2130631781439     IErMin= 4 ErrMin= 1.05D-04
 ErrMax= 1.05D-04  0.00D+00 EMaxC= 1.00D-01 BMatC= 9.84D-07 BMatP= 5.12D-06
 IDIUse=3 WtCom= 9.99D-01 WtEn= 1.05D-03
 Coeff-Com:  0.146D-01-0.185D+00 0.189D+00 0.981D+00
 Coeff-En:   0.000D+00 0.000D+00 0.000D+00 0.100D+01
 Coeff:      0.146D-01-0.185D+00 0.189D+00 0.981D+00
 Gap=     0.126 Goal=   None    Shift=    0.000
 Gap=     0.333 Goal=   None    Shift=    0.000
 RMSDP=2.43D-05 MaxDP=4.35D-04 DE=-4.78D-06 OVMax= 1.15D-03

 Cycle   5  Pass 1  IDiag  1:
 E= -53.2130640281872     Delta-E=       -0.000000850043 Rises=F Damp=F
 DIIS: error= 2.41D-05 at cycle   5 NSaved=   5.
 NSaved= 5 IEnMin= 5 EnMin= -53.2130640281872     IErMin= 5 ErrMin= 2.41D-05
 ErrMax= 2.41D-05  0.00D+00 EMaxC= 1.00D-01 BMatC= 5.28D-08 BMatP= 9.84D-07
 IDIUse=1 WtCom= 1.00D+00 WtEn= 0.00D+00
 Coeff-Com:  0.250D-02-0.118D-01-0.676D-01 0.788D-01 0.998D+00
 Coeff:      0.250D-02-0.118D-01-0.676D-01 0.788D-01 0.998D+00
 Gap=     0.126 Goal=   None    Shift=    0.000
 Gap=     0.333 Goal=   None    Shift=    0.000
 RMSDP=3.43D-06 MaxDP=6.10D-05 DE=-8.50D-07 OVMax= 1.49D-04

 Cycle   6  Pass 1  IDiag  1:
 E= -53.2130640689958     Delta-E=       -0.000000040809 Rises=F Damp=F
 DIIS: error= 6.30D-06 at cycle   6 NSaved=   6.
 NSaved= 6 IEnMin= 6 EnMin= -53.2130640689958     IErMin= 6 ErrMin= 6.30D-06
 ErrMax= 6.30D-06  0.00D+00 EMaxC= 1.00D-01 BMatC= 3.09D-09 BMatP= 5.28D-08
 IDIUse=1 WtCom= 1.00D+00 WtEn= 0.00D+00
 Coeff-Com: -0.129D-02 0.171D-01-0.208D-01-0.851D-01 0.502D-01 0.104D+01
 Coeff:     -0.129D-02 0.171D-01-0.208D-01-0.851D-01 0.502D-01 0.104D+01
 Gap=     0.126 Goal=   None    Shift=    0.000
 Gap=     0.333 Goal=   None    Shift=    0.000
 RMSDP=7.53D-07 MaxDP=1.10D-05 DE=-4.08D-08 OVMax= 3.89D-05

 Cycle   7  Pass 1  IDiag  1:
 E= -53.2130640714838     Delta-E=       -0.000000002488 Rises=F Damp=F
 DIIS: error= 1.23D-06 at cycle   7 NSaved=   7.
 NSaved= 7 IEnMin= 7 EnMin= -53.2130640714838     IErMin= 7 ErrMin= 1.23D-06
 ErrMax= 1.23D-06  0.00D+00 EMaxC= 1.00D-01 BMatC= 8.81D-11 BMatP= 3.09D-09
 IDIUse=1 WtCom= 1.00D+00 WtEn= 0.00D+00
 Coeff-Com: -0.109D-03 0.546D-03 0.313D-02-0.533D-02-0.388D-01 0.279D-01
 Coeff-Com:  0.101D+01
 Coeff:     -0.109D-03 0.546D-03 0.313D-02-0.533D-02-0.388D-01 0.279D-01
 Coeff:      0.101D+01
 Gap=     0.126 Goal=   None    Shift=    0.000
 Gap=     0.333 Goal=   None    Shift=    0.000
 RMSDP=2.70D-07 MaxDP=5.95D-06 DE=-2.49D-09 OVMax= 1.77D-05

 Cycle   8  Pass 1  IDiag  1:
 E= -53.2130640715982     Delta-E=       -0.000000000114 Rises=F Damp=F
 DIIS: error= 2.57D-07 at cycle   8 NSaved=   8.
 NSaved= 8 IEnMin= 8 EnMin= -53.2130640715982     IErMin= 8 ErrMin= 2.57D-07
 ErrMax= 2.57D-07  0.00D+00 EMaxC= 1.00D-01 BMatC= 5.65D-12 BMatP= 8.81D-11
 IDIUse=1 WtCom= 1.00D+00 WtEn= 0.00D+00
 Coeff-Com:  0.557D-04-0.811D-03 0.110D-02 0.410D-02 0.706D-03-0.575D-01
 Coeff-Com: -0.604D-01 0.111D+01
 Coeff:      0.557D-04-0.811D-03 0.110D-02 0.410D-02 0.706D-03-0.575D-01
 Coeff:     -0.604D-01 0.111D+01
 Gap=     0.126 Goal=   None    Shift=    0.000
 Gap=     0.333 Goal=   None    Shift=    0.000
 RMSDP=1.16D-07 MaxDP=2.67D-06 DE=-1.14D-10 OVMax= 8.54D-06

 Cycle   9  Pass 1  IDiag  1:
 E= -53.2130640716125     Delta-E=       -0.000000000014 Rises=F Damp=F
 DIIS: error= 9.52D-08 at cycle   9 NSaved=   9.
 NSaved= 9 IEnMin= 9 EnMin= -53.2130640716125     IErMin= 9 ErrMin= 9.52D-08
 ErrMax= 9.52D-08  0.00D+00 EMaxC= 1.00D-01 BMatC= 4.02D-13 BMatP= 5.65D-12
 IDIUse=1 WtCom= 1.00D+00 WtEn= 0.00D+00
 Coeff-Com: -0.117D-04 0.206D-03-0.554D-03-0.879D-03 0.285D-02 0.107D-01
 Coeff-Com: -0.519D-01-0.260D+00 0.130D+01
 Coeff:     -0.117D-04 0.206D-03-0.554D-03-0.879D-03 0.285D-02 0.107D-01
 Coeff:     -0.519D-01-0.260D+00 0.130D+01
 Gap=     0.126 Goal=   None    Shift=    0.000
 Gap=     0.333 Goal=   None    Shift=    0.000
 RMSDP=4.55D-08 MaxDP=8.81D-07 DE=-1.43D-11 OVMax= 3.08D-06

 Cycle  10  Pass 1  IDiag  1:
 E= -53.2130640716138     Delta-E=       -0.000000000001 Rises=F Damp=F
 DIIS: error= 1.82D-08 at cycle  10 NSaved=  10.
 NSaved=10 IEnMin=10 EnMin= -53.2130640716138     IErMin=10 ErrMin= 1.82D-08
 ErrMax= 1.82D-08  0.00D+00 EMaxC= 1.00D-01 BMatC= 4.17D-14 BMatP= 4.02D-13
 IDIUse=1 WtCom= 1.00D+00 WtEn= 0.00D+00
 Coeff-Com: -0.577D-05 0.934D-04-0.215D-03-0.411D-03 0.877D-03 0.514D-02
 Coeff-Com: -0.149D-01-0.115D+00 0.416D+00 0.709D+00
 Coeff:     -0.577D-05 0.934D-04-0.215D-03-0.411D-03 0.877D-03 0.514D-02
 Coeff:     -0.149D-01-0.115D+00 0.416D+00 0.709D+00
 Gap=     0.126 Goal=   None    Shift=    0.000
 Gap=     0.333 Goal=   None    Shift=    0.000
 RMSDP=4.50D-09 MaxDP=9.59D-08 DE=-1.24D-12 OVMax= 3.38D-07

 SCF Done:  E(UM062X) =  -53.2130640716     A.U. after   10 cycles
            NFock= 10  Conv=0.45D-08     -V/T= 2.0072
 <Sx>= 0.0000 <Sy>= 0.0000 <Sz>= 0.5000 <S**2>= 0.7533 S= 0.5017
 <L.S>=  0.00000000000    
 KE= 5.283339092909D+01 PE=-1.721369425946D+02 EE= 4.234670220067D+01
 Annihilation of the first spin contaminant:
 S**2 before annihilation     0.7533,   after     0.7500
 Leave Link  502 at Mon Apr 21 16:54:26 2025, MaxMem=   536870912 cpu:              76.5 elap:               9.9
 (Enter /home/szhao/Apps/g16/l701.exe)
 ... and contract with generalized density number  0.
 Compute integral first derivatives.
 Leave Link  701 at Mon Apr 21 16:54:26 2025, MaxMem=   536870912 cpu:               1.1 elap:               0.2
 (Enter /home/szhao/Apps/g16/l702.exe)
 L702 exits ... SP integral derivatives will be done elsewhere.
 Leave Link  702 at Mon Apr 21 16:54:27 2025, MaxMem=   536870912 cpu:               0.4 elap:               0.1
 (Enter /home/szhao/Apps/g16/l703.exe)
 Integral derivatives from FoFJK, PRISM(SPDF).
 Compute integral first derivatives, UseDBF=F ICtDFT=           0.
 Calling FoFJK, ICntrl=      2127 FMM=F ISym2X=0 I1Cent= 0 IOpClX= 1 NMat=1 NMatS=1 NMatT=0.
 FoFJK:  IHMeth= 1 ICntrl=    2127 DoSepK=F KAlg= 0 I1Cent=           0 FoldK=F
 IRaf=         0 NMat=       1 IRICut=       1 DoRegI=T DoRafI=F ISym2E= 0 IDoP0=0 IntGTp=1.
 FoFCou: FMM=F IPFlag=           0 FMFlag=      100000 FMFlg1=         800
         NFxFlg=           0 DoJE=F BraDBF=F KetDBF=F FulRan=T
         wScrn=  0.000000 ICntrl=      2127 IOpCl=  1 I1Cent=           0 NGrid=           0
         NMat0=    1 NMatS0=      1 NMatT0=    0 NMatD0=    1 NMtDS0=    0 NMtDT0=    0
 Symmetry not used in FoFCou.
 Leave Link  703 at Mon Apr 21 16:54:28 2025, MaxMem=   536870912 cpu:              11.1 elap:               1.5
 (Enter /home/szhao/Apps/g16/l716.exe)
 Dipole        = 4.23514796D-07-1.10899185D-06 2.50591729D-05
 -------------------------------------------------------------------
 Center     Atomic                   Forces (Hartrees/Bohr)
 Number     Number              X              Y              Z
 -------------------------------------------------------------------
      1        5          -0.000000000   -0.000000000   -0.000000000
      2        5          -0.000000000   -0.000000000   -0.000000000
      3        1          -0.000100579   -0.000096383    0.000000283
      4        1           0.000102167   -0.000047946    0.000084643
      5        1          -0.000102658    0.000048057   -0.000084540
      6        1          -0.000101731    0.000047837    0.000084733
      7        1           0.000100604    0.000096377    0.000000032
      8        1           0.000102199   -0.000047964   -0.000084612
 -------------------------------------------------------------------
 Cartesian Forces:  Max     0.000102658 RMS     0.000070248
 Leave Link  716 at Mon Apr 21 16:54:28 2025, MaxMem=   536870912 cpu:               0.5 elap:               0.1
 (Enter /home/szhao/Apps/g16/l103.exe)

 GradGradGradGradGradGradGradGradGradGradGradGradGradGradGradGradGradGrad
 Berny optimization.
 Using GEDIIS/GDIIS optimizer.
 FormGI is forming the generalized inverse of G from B-inverse, IUseBI=4.
 Internal  Forces:  Max     0.000304970 RMS     0.000131998
 Search for a local minimum.
 Step number   3 out of a maximum of   43
 All quantities printed in internal units (Hartrees-Bohrs-Radians)
 RMS Force = .12002D-03 SwitMx=.10000D-02 MixMth= 2
 Mixed Optimization -- En-DIIS/RFO-DIIS
 Update second derivatives using D2CorX and points    1    2    3
 DE= -6.74D-04 DEPred=-7.33D-04 R= 9.21D-01
 TightC=F SS=  1.41D+00  RLast= 1.10D-01 DXNew= 8.0873D-01 3.2883D-01
 Trust test= 9.21D-01 RLast= 1.10D-01 DXMaxT set to 4.81D-01
 ITU=  1  1  0
 Use linear search instead of GDIIS.
     Eigenvalues ---    0.00230   0.07974   0.07974   0.07975   0.07975
     Eigenvalues ---    0.10004   0.16000   0.16000   0.16000   0.16000
     Eigenvalues ---    0.16000   0.24200   0.24200   0.24200   0.24200
[...]
    A6        2.08601   0.00000   0.00001  -0.00000   0.00000   2.08602
    A7        1.64057  -0.00000  -0.00003   0.00001  -0.00001   1.64056
    A8        1.64050  -0.00000  -0.00003  -0.00001  -0.00004   1.64046
    A9        1.64033  -0.00000  -0.00003   0.00000  -0.00003   1.64030
   A10        2.08601   0.00000   0.00001  -0.00000   0.00001   2.08602
   A11        2.08602   0.00000   0.00001  -0.00000   0.00000   2.08602
   A12        2.08604   0.00000   0.00001   0.00000   0.00001   2.08605
    D1        1.04721   0.00000   0.00000   0.00000   0.00000   1.04721
    D2       -3.14157   0.00000   0.00000   0.00000   0.00000  -3.14157
    D3       -1.04717   0.00000   0.00000   0.00000   0.00000  -1.04717
    D4       -3.14158  -0.00000  -0.00000  -0.00000  -0.00000  -3.14158
    D5       -1.04718  -0.00000  -0.00000  -0.00000  -0.00000  -1.04718
    D6        1.04722   0.00000   0.00000   0.00000   0.00000   1.04722
    D7       -1.04718  -0.00000  -0.00000  -0.00000  -0.00000  -1.04718
    D8        1.04722  -0.00000  -0.00000  -0.00000  -0.00000   1.04722
    D9       -3.14157   0.00000   0.00000   0.00000   0.00000  -3.14157
         Item               Value     Threshold  Converged?
 Maximum Force            0.000005     0.000450     YES
 RMS     Force            0.000002     0.000300     YES
 Maximum Displacement     0.000084     0.001800     YES
 RMS     Displacement     0.000026     0.001200     YES
 Predicted change in Energy=-3.485476D-10
 Optimization completed.
    -- Stationary point found.
                           ----------------------------
                           !   Optimized Parameters   !
                           ! (Angstroms and Degrees)  !
 --------------------------                            --------------------------
 ! Name  Definition              Value          Derivative Info.                !
 --------------------------------------------------------------------------------
 ! X1    R(1,-1)                -1.7907         -DE/DX =    0.0                 !
 ! Y1    R(1,-2)                 0.0            -DE/DX =    0.0                 !
 ! Z1    R(1,-3)                 0.0            -DE/DX =    0.0                 !
 ! X2    R(2,-1)                 1.7907         -DE/DX =    0.0                 !
 ! Y2    R(2,-2)                 0.0            -DE/DX =    0.0                 !
 ! Z2    R(2,-3)                 0.0            -DE/DX =    0.0                 !
 ! R1    R(1,4)                  1.1993         -DE/DX =    0.0                 !
 ! R2    R(1,7)                  1.1993         -DE/DX =    0.0                 !
 ! R3    R(1,8)                  1.1993         -DE/DX =    0.0                 !
 ! R4    R(2,3)                  1.1993         -DE/DX =    0.0                 !
 ! R5    R(2,5)                  1.1993         -DE/DX =    0.0                 !
 ! R6    R(2,6)                  1.1993         -DE/DX =    0.0                 !
 ! A1    A(2,1,4)               93.9864         -DE/DX =    0.0                 !
 ! A2    A(2,1,7)               93.998          -DE/DX =    0.0                 !
 ! A3    A(2,1,8)               93.9906         -DE/DX =    0.0                 !
 ! A4    A(4,1,7)              119.5199         -DE/DX =    0.0                 !
 ! A5    A(4,1,8)              119.5211         -DE/DX =    0.0                 !
 ! A6    A(7,1,8)              119.5198         -DE/DX =    0.0                 !
 ! A7    A(1,2,3)               93.9976         -DE/DX =    0.0                 !
 ! A8    A(1,2,5)               93.9935         -DE/DX =    0.0                 !
 ! A9    A(1,2,6)               93.9839         -DE/DX =    0.0                 !
 ! A10   A(3,2,5)              119.5197         -DE/DX =    0.0                 !
 ! A11   A(3,2,6)              119.52           -DE/DX =    0.0                 !
 ! A12   A(5,2,6)              119.5211         -DE/DX =    0.0                 !
 ! D1    D(4,1,2,3)             60.0009         -DE/DX =    0.0                 !
 ! D2    D(4,1,2,5)           -179.9987         -DE/DX =    0.0                 !
 ! D3    D(4,1,2,6)            -59.9986         -DE/DX =    0.0                 !
 ! D4    D(7,1,2,3)           -179.9994         -DE/DX =    0.0                 !
 ! D5    D(7,1,2,5)            -59.999          -DE/DX =    0.0                 !
 ! D6    D(7,1,2,6)             60.0011         -DE/DX =    0.0                 !
 ! D7    D(8,1,2,3)            -59.9992         -DE/DX =    0.0                 !
 ! D8    D(8,1,2,5)             60.0012         -DE/DX =    0.0                 !
 ! D9    D(8,1,2,6)           -179.9987         -DE/DX =    0.0                 !
 --------------------------------------------------------------------------------
 Lowest energy point so far.  Saving SCF results.
 Largest change from initial coordinates is atom    5       0.124 Angstoms.
 GradGradGradGradGradGradGradGradGradGradGradGradGradGradGradGradGradGrad

 Leave Link  103 at Mon Apr 21 16:54:40 2025, MaxMem=   536870912 cpu:               2.1 elap:               0.3
 (Enter /home/szhao/Apps/g16/l202.exe)
                          Input orientation:                          
 ---------------------------------------------------------------------
 Center     Atomic      Atomic             Coordinates (Angstroms)
 Number     Number       Type             X           Y           Z
 ---------------------------------------------------------------------
      1          5           0       -1.790672    0.000000    0.000000
      2          5           0        1.790672    0.000000    0.000000
      3          1           0        1.874280   -1.196365   -0.000013
      4          1           0       -1.874046   -0.598186    1.036100
      5          1           0        1.874193    0.598204   -1.036078
      6          1           0        1.873992    0.598172    1.036112
      7          1           0       -1.874287    1.196364   -0.000000
      8          1           0       -1.874133   -0.598191   -1.036090
 ---------------------------------------------------------------------
                    Distance matrix (angstroms):
                    1          2          3          4          5
     1  B    0.000000
     2  B    3.581343   0.000000
     3  H    3.855277   1.199283   0.000000
     4  H    1.199283   3.855059   3.934627   0.000000
     5  H    3.855197   1.199284   2.072175   4.446860   0.000000
     6  H    3.855009   1.199283   2.072177   3.934344   2.072190
     7  H    1.199283   3.855284   4.447124   2.072176   3.934763
     8  H    1.199284   3.855140   3.934700   2.072190   3.934630
                    6          7          8
     6  H    0.000000
     7  H    3.934585   0.000000
     8  H    4.446768   2.072176   0.000000
 Symmetry turned off by external request.
 Stoichiometry    B2H6(1-,2)
 Framework group  C1[X(B2H6)]
 Deg. of freedom    18
 Full point group                 C1      NOp   1
 Rotational constants (GHZ):          58.3911194           5.2550630           5.2550587
 Leave Link  202 at Mon Apr 21 16:54:41 2025, MaxMem=   536870912 cpu:               0.8 elap:               0.2
 (Enter /home/szhao/Apps/g16/l601.exe)
 Copying SCF densities to generalized density rwf, IOpCl= 1 IROHF=0.

 **********************************************************************

            Population analysis using the SCF density.

 **********************************************************************

 Alpha  occ. eigenvalues --   -6.83762  -6.83761  -0.39488  -0.38501  -0.21191
 Alpha  occ. eigenvalues --   -0.21191  -0.20671  -0.20671   0.00631
 Alpha virt. eigenvalues --    0.13163   0.17081   0.17734   0.17734   0.18610
 Alpha virt. eigenvalues --    0.18610   0.20259   0.22742   0.23393   0.32930
 Alpha virt. eigenvalues --    0.32930   0.35320   0.35320   0.38092   0.39317
 Alpha virt. eigenvalues --    0.48992   0.48993   0.52721   0.54443   0.54443
 Alpha virt. eigenvalues --    0.55770   0.61487   0.74212   0.74212   0.76178
 Alpha virt. eigenvalues --    0.76507   0.76508   0.82439   0.85923   1.00641
 Alpha virt. eigenvalues --    1.00642   1.01926   1.01926   1.25496   1.26805
 Alpha virt. eigenvalues --    1.31108   1.31109   1.36931   1.36931   1.59590
 Alpha virt. eigenvalues --    1.59590   1.78796   1.85625   1.92075   1.92075
 Alpha virt. eigenvalues --    1.92616   1.92617   2.05617   2.05619   2.07108
 Alpha virt. eigenvalues --    2.07108   2.07907   2.15186   2.21732   2.21733
 Alpha virt. eigenvalues --    2.22662   2.22663   2.39648   2.40907   2.73175
 Alpha virt. eigenvalues --    2.73176   2.77675   2.77676   2.87616   2.87617
 Alpha virt. eigenvalues --    2.87887   2.87888   2.98413   3.08516  14.74934
 Alpha virt. eigenvalues --   14.79677
  Beta  occ. eigenvalues --   -6.83722  -6.83722  -0.37585  -0.36959  -0.20974
  Beta  occ. eigenvalues --   -0.20974  -0.20507  -0.20507
  Beta virt. eigenvalues --    0.12779   0.14035   0.15010   0.15891   0.15891
  Beta virt. eigenvalues --    0.18177   0.18177   0.22454   0.23055   0.26148
  Beta virt. eigenvalues --    0.32026   0.32027   0.34830   0.34831   0.37752
  Beta virt. eigenvalues --    0.39609   0.48712   0.48713   0.52567   0.53940
  Beta virt. eigenvalues --    0.53940   0.56563   0.62136   0.74651   0.74652
  Beta virt. eigenvalues --    0.76479   0.77030   0.77030   0.83034   0.86723
  Beta virt. eigenvalues --    1.02762   1.02763   1.03877   1.03878   1.29956
  Beta virt. eigenvalues --    1.31415   1.31607   1.31608   1.37409   1.37409
  Beta virt. eigenvalues --    1.59910   1.59910   1.79664   1.86248   1.93212
  Beta virt. eigenvalues --    1.93213   1.93850   1.93851   2.06238   2.06239
  Beta virt. eigenvalues --    2.07642   2.07643   2.10885   2.17978   2.22674
  Beta virt. eigenvalues --    2.22674   2.23611   2.23611   2.40344   2.41631
  Beta virt. eigenvalues --    2.74282   2.74283   2.78909   2.78910   2.88370
  Beta virt. eigenvalues --    2.88371   2.88770   2.88770   2.99500   3.09497
  Beta virt. eigenvalues --   14.75945  14.80708
          Condensed to atoms (all electrons):
               1          2          3          4          5          6
     1  B    3.983555   0.097066  -0.004252   0.418403  -0.004253  -0.004257
     2  B    0.097066   3.983555   0.418388  -0.004256   0.418397   0.418405
     3  H   -0.004252   0.418388   0.718035  -0.000080  -0.036561  -0.036559
     4  H    0.418403  -0.004256  -0.000080   0.717997   0.000111  -0.000080
     5  H   -0.004253   0.418397  -0.036561   0.000111   0.718007  -0.036562
     6  H   -0.004257   0.418405  -0.036559  -0.000080  -0.036562   0.717993
     7  H    0.418387  -0.004252   0.000111  -0.036560  -0.000080  -0.000080
     8  H    0.418400  -0.004255  -0.000080  -0.036562  -0.000080   0.000111
               7          8
     1  B    0.418387   0.418400
     2  B   -0.004252  -0.004255
     3  H    0.000111  -0.000080
     4  H   -0.036560  -0.036562
     5  H   -0.000080  -0.000080
     6  H   -0.000080   0.000111
     7  H    0.718035  -0.036560
     8  H   -0.036560   0.718003
          Atomic-Atomic Spin Densities.
               1          2          3          4          5          6
     1  B    0.489221   0.100778  -0.003622  -0.000171  -0.003623  -0.003624
     2  B    0.100778   0.489221  -0.000166  -0.003624  -0.000171  -0.000170
     3  H   -0.003622  -0.000166  -0.024115   0.000074   0.000769   0.000768
     4  H   -0.000171  -0.003624   0.000074  -0.024094  -0.000004   0.000074
     5  H   -0.003623  -0.000171   0.000769  -0.000004  -0.024094   0.000774
     6  H   -0.003624  -0.000170   0.000768   0.000074   0.000774  -0.024094
     7  H   -0.000166  -0.003622  -0.000004   0.000768   0.000074   0.000074
     8  H   -0.000171  -0.003624   0.000074   0.000774   0.000074  -0.000004
               7          8
     1  B   -0.000166  -0.000171
     2  B   -0.003622  -0.003624
     3  H   -0.000004   0.000074
     4  H    0.000768   0.000774
     5  H    0.000074   0.000074
     6  H    0.000074  -0.000004
     7  H   -0.024115   0.000769
     8  H    0.000769  -0.024094
 Mulliken charges and spin densities:
               1          2
     1  B   -0.323049   0.578622
     2  B   -0.323049   0.578622
     3  H   -0.059001  -0.026221
     4  H   -0.058973  -0.026201
     5  H   -0.058979  -0.026200
     6  H   -0.058970  -0.026201
     7  H   -0.059001  -0.026221
     8  H   -0.058976  -0.026200
 Sum of Mulliken charges =  -1.00000   1.00000
 Mulliken charges and spin densities with hydrogens summed into heavy atoms:
               1          2
     1  B   -0.500000   0.500000
     2  B   -0.500000   0.500000
 Electronic spatial extent (au):  <R**2>=            286.1716
 Charge=             -1.0000 electrons
 Dipole moment (field-independent basis, Debye):
    X=              0.0000    Y=             -0.0000    Z=              0.0001  Tot=              0.0001
 Quadrupole moment (field-independent basis, Debye-Ang):
   XX=            -39.9603   YY=            -24.2300   ZZ=            -24.2298
   XY=              0.0001   XZ=              0.0000   YZ=              0.0000
 Traceless Quadrupole moment (field-independent basis, Debye-Ang):
   XX=            -10.4869   YY=              5.2433   ZZ=              5.2436
   XY=              0.0001   XZ=              0.0000   YZ=              0.0000
 Octapole moment (field-independent basis, Debye-Ang**2):
  XXX=              0.0000  YYY=             -0.0000  ZZZ=              0.0002  XYY=              0.0000
  XXY=             -0.0000  XXZ=              0.0001  XZZ=             -0.0000  YZZ=             -0.0000
  YYZ=              0.0001  XYZ=              0.0001
 Hexadecapole moment (field-independent basis, Debye-Ang**3):
 XXXX=           -579.1469 YYYY=            -70.4351 ZZZZ=            -70.4345 XXXY=              0.0016
 XXXZ=              0.0002 YYYX=              1.4129 YYYZ=              0.0000 ZZZX=              0.0001
 ZZZY=              0.0000 XXYY=           -101.4354 XXZZ=           -101.4340 YYZZ=            -23.4782
 XXYZ=              0.0001 YYXZ=              0.0001 ZZXY=             -1.4119
 N-N= 2.374544693028D+01 E-N=-1.721396542599D+02  KE= 5.283246305136D+01
                          Isotropic Fermi Contact Couplings
        Atom                 a.u.       MegaHertz       Gauss      10(-4) cm-1
     1  B(11)              0.05357      76.83929      27.41817      25.63083
     2  B(11)              0.05357      76.83929      27.41817      25.63083
     3  H(1)              -0.00503     -22.49462      -8.02664      -7.50340
     4  H(1)              -0.00503     -22.48591      -8.02353      -7.50049
     5  H(1)              -0.00503     -22.48554      -8.02340      -7.50037
     6  H(1)              -0.00503     -22.48573      -8.02347      -7.50043
     7  H(1)              -0.00503     -22.49460      -8.02663      -7.50339
     8  H(1)              -0.00503     -22.48538      -8.02334      -7.50032
 --------------------------------------------------------
       Center         ----  Spin Dipole Couplings  ----
                      3XX-RR        3YY-RR        3ZZ-RR
 --------------------------------------------------------
     1   Atom        0.179588     -0.089796     -0.089792
     2   Atom        0.179588     -0.089796     -0.089792
     3   Atom        0.008049      0.013119     -0.021169
     4   Atom        0.008049     -0.012597      0.004548
     5   Atom        0.008049     -0.012597      0.004547
     6   Atom        0.008049     -0.012598      0.004549
     7   Atom        0.008049      0.013119     -0.021169
     8   Atom        0.008049     -0.012597      0.004548
 --------------------------------------------------------
                        XY            XZ            YZ
 --------------------------------------------------------
     1   Atom        0.000039     -0.000011      0.000000
     2   Atom        0.000038      0.000028     -0.000000
     3   Atom       -0.003515      0.000002      0.000001
     4   Atom        0.001757     -0.003040     -0.014848
     5   Atom        0.001759     -0.003040     -0.014848
     6   Atom        0.001756      0.003039      0.014848
     7   Atom       -0.003515     -0.000001      0.000000
     8   Atom        0.001758      0.003039      0.014848
 --------------------------------------------------------


 ---------------------------------------------------------------------------------
              Anisotropic Spin Dipole Couplings in Principal Axis System
 ---------------------------------------------------------------------------------

       Atom             a.u.   MegaHertz   Gauss  10(-4) cm-1        Axes

              Baa    -0.0898   -15.374    -5.486    -5.128 -0.0001  0.9996 -0.0295
     1 B(11)  Bbb    -0.0898   -15.374    -5.486    -5.128  0.0000  0.0295  0.9996
              Bcc     0.1796    30.748    10.972    10.256  1.0000  0.0001 -0.0000
 
              Baa    -0.0898   -15.374    -5.486    -5.128 -0.0001  0.9995  0.0329
     2 B(11)  Bbb    -0.0898   -15.374    -5.486    -5.128 -0.0001 -0.0329  0.9995
              Bcc     0.1796    30.748    10.972    10.256  1.0000  0.0001  0.0001
 
              Baa    -0.0212   -11.295    -4.030    -3.767 -0.0001 -0.0000  1.0000
     3 H(1)   Bbb     0.0063     3.335     1.190     1.112  0.8902  0.4556  0.0001
              Bcc     0.0149     7.960     2.840     2.655 -0.4556  0.8902 -0.0000
 
              Baa    -0.0212   -11.295    -4.030    -3.768 -0.0001  0.8660  0.5000
     4 H(1)   Bbb     0.0063     3.337     1.191     1.113  0.8904 -0.2276  0.3943
              Bcc     0.0149     7.958     2.840     2.655 -0.4552 -0.4452  0.7711
 
              Baa    -0.0212   -11.295    -4.030    -3.768 -0.0001  0.8660  0.5000
     5 H(1)   Bbb     0.0063     3.336     1.190     1.113  0.8903 -0.2276  0.3944
              Bcc     0.0149     7.959     2.840     2.655 -0.4553 -0.4452  0.7710
 
              Baa    -0.0212   -11.295    -4.030    -3.768 -0.0000  0.8660 -0.5000
     6 H(1)   Bbb     0.0063     3.337     1.191     1.113  0.8904 -0.2276 -0.3943
              Bcc     0.0149     7.958     2.840     2.655  0.4552  0.4452  0.7711
 
              Baa    -0.0212   -11.295    -4.030    -3.767  0.0000  0.0000  1.0000
     7 H(1)   Bbb     0.0063     3.335     1.190     1.112  0.8902  0.4556 -0.0000
              Bcc     0.0149     7.960     2.840     2.655 -0.4556  0.8902  0.0000
 
              Baa    -0.0212   -11.295    -4.030    -3.768 -0.0001  0.8660 -0.5000
     8 H(1)   Bbb     0.0063     3.337     1.191     1.113  0.8903 -0.2276 -0.3944
              Bcc     0.0149     7.958     2.840     2.655  0.4553  0.4452  0.7710
 

 ---------------------------------------------------------------------------------

 No NMR shielding tensors so no spin-rotation constants.
 Leave Link  601 at Mon Apr 21 16:54:41 2025, MaxMem=   536870912 cpu:               2.4 elap:               0.4
 (Enter /home/szhao/Apps/g16/l9999.exe)
 1\1\GINC-NODE05\FOpt\UM062X\6-311+G(d,p)\B2H6(1-,2)\SZHAO\21-Apr-2025\
 0\\#p opt UM062X/6-311+G** nosymm int=superfine\\Title Card Required\\
 -1,2\B,-1.79067151,0.,0.\B,1.79067151,0.,0.\H,1.8742800941,-1.19636476
 15,-0.0000134375\H,-1.874045525,-0.5981861027,1.0360997919\H,1.8741933
 88,0.5982042711,-1.0360784906\H,1.8739922247,0.5981722725,1.0361115752
 \H,-1.8742874943,1.1963643097,-0.0000000399\H,-1.8741327099,-0.5981912
 856,-1.036090373\\Version=ES64L-G16RevA.03\HF=-53.2130658\S2=0.753329\
 S2-1=0.\S2A=0.750009\RMSD=5.553e-09\RMSF=1.576e-06\Dipole=0.0000004,-0
 .0000012,0.0000264\Quadrupole=-7.7967538,3.8982887,3.8984651,0.0000878
 ,0.0000113,0.0000065\PG=C01 [X(B2H6)]\\@


 ONLY THE DAY DAWNS TO WHICH YOU ARE AWAKE.

                                 -- THOREAU
 Job cpu time:       0 days  0 hours  6 minutes 30.3 seconds.
 Elapsed time:       0 days  0 hours  0 minutes 52.5 seconds.
 File lengths (MBytes):  RWF=     22 Int=      0 D2E=      0 Chk=      3 Scr=      2
 Normal termination of Gaussian 16 at Mon Apr 21 16:54:41 2025.
