 Entering Gaussian System, Link 0=g16
 Initial command:
 /home/szhao/Apps/g16/l1.exe "/home/szhao/tmp/Gau-122657.inp" -scrdir="/home/szhao/tmp/"
 Default is to use a total of  16 processors:
                               16 via shared-memory
                                1 via Linda
 Entering Link 1 = /home/szhao/Apps/g16/l1.exe PID=    122659.
  
 Copyright (c) 1988,1990,1992,1993,1995,1998,2003,2009,2016,
            Gaussian, Inc.  All Rights Reserved.
  
 This is part of the Gaussian(R) 16 program.  It is based on
 the Gaussian(R) 09 system (copyright 2009, Gaussian, Inc.),
 the Gaussian(R) 03 system (copyright 2003, Gaussian, Inc.),
 the Gaussian(R) 98 system (copyright 1998, Gaussian, Inc.),
 the Gaussian(R) 94 system (copyright 1995, Gaussian, Inc.),
 the Gaussian 92(TM) system (copyright 1992, Gaussian, Inc.),
 the Gaussian 90(TM) system (copyright 1990, Gaussian, Inc.),
 the Gaussian 88(TM) system (copyright 1988, Gaussian, Inc.),
 the Gaussian 86(TM) system (copyright 1986, Carnegie Mellon
 University), and the Gaussian 82(TM) system (copyright 1983,
 Carnegie Mellon University). Gaussian is a federally registered
 trademark of Gaussian, Inc.
  
 This software contains proprietary and confidential information,
 including trade secrets, belonging to Gaussian, Inc.
  
 This software is provided under written license and may be
 used, copied, transmitted, or stored only in accord with that
 written license.
  
 The following legend is applicable only to US Government
 contracts under FAR:
  
                    RESTRICTED RIGHTS LEGEND
  
 Use, reproduction and disclosure by the US Government is
 subject to restrictions as set forth in subparagraphs (a)
 and (c) of the Commercial Computer Software - Restricted
 Rights clause in FAR 52.227-19.
  
 Gaussian, Inc.
 340 Quinnipiac St., Bldg. 40, Wallingford CT 06492
  
  
 ---------------------------------------------------------------
 Warning -- This program may not be used in any manner that
 competes with the business of Gaussian, Inc. or will provide
 assistance to any competitor of Gaussian, Inc.  The licensee
 of this program is prohibited from giving any competitor of
 Gaussian, Inc. access to this program.  By using this program,
 the user acknowledges that Gaussian, Inc. is engaged in the
 business of creating and licensing software in the field of
 computational chemistry and represents and warrants to the
 licensee that it is not a competitor of Gaussian, Inc. and that
 it will not use this program in any manner prohibited above.
 ---------------------------------------------------------------
  

 Cite this work as:
 Gaussian 16, Revision A.03,
 M. J. Frisch, G. W. Trucks, H. B. Schlegel, G. E. Scuseria, 
 M. A. Robb, J. R. Cheeseman, G. Scalmani, V. Barone, 
 G. A. Petersson, H. Nakatsuji, X. Li, M. Caricato, A. V. Marenich, 
 J. Bloino, B. G. Janesko, R. Gomperts, B. Mennucci, H. P. Hratchian, 
 J. V. Ortiz, A. F. Izmaylov, J. L. Sonnenberg, D. Williams-Young, 
 F. Ding, F. Lipparini, F. Egidi, J. Goings, B. Peng, A. Petrone, 
 T. Henderson, D. Ranasinghe, V. G. Zakrzewski, J. Gao, N. Rega, 
 G. Zheng, W. Liang, M. Hada, M. Ehara, K. Toyota, R. Fukuda, 
 J. Hasegawa, M. Ishida, T. Nakajima, Y. Honda, O. Kitao, H. Nakai, 
 T. Vreven, K. Throssell, J. A. Montgomery, Jr., J. E. Peralta, 
 F. Ogliaro, M. J. Bearpark, J. J. Heyd, E. N. Brothers, K. N. Kudin, 
 V. N. Staroverov, T. A. Keith, R. Kobayashi, J. Normand, 
 K. Raghavachari, A. P. Rendell, J. C. Burant, S. S. Iyengar, 
 J. Tomasi, M. Cossi, J. M. Millam, M. Klene, C. Adamo, R. Cammi, 
 J. W. Ochterski, R. L. Martin, K. Morokuma, O. Farkas, 
 J. B. Foresman, and D. J. Fox, Gaussian, Inc., Wallingford CT, 2016.
 
 ******************************************
 Gaussian 16:  ES64L-G16RevA.03 25-Dec-2016
                19-Nov-2024 
 ******************************************
 %chk=opt.chk
 %mem=4GB
 %nprocshared=8
 Will use up to    8 processors via shared memory.
 --------------------------------------------
 #p opt UM062X/6-311+G** nosymm int=superfine
 --------------------------------------------
 1/18=20,19=15,26=5,38=1/1,3;
 2/9=110,12=2,15=1,17=6,18=5,40=1/2;
 3/5=4,6=6,7=111,11=2,25=1,30=1,71=1,74=-55,75=-7,116=2/1,2,3;
 4//1;
 5/5=2,38=5/2;
 6/7=2,8=2,9=2,10=2,28=1/1;
 7/30=1/1,2,3,16;
 1/18=20,19=15,26=5/3(2);
 2/9=110,15=1/2;
 99//99;
 2/9=110,15=1/2;
 3/5=4,6=6,7=111,11=2,25=1,30=1,71=1,74=-55,75=-7,116=2/1,2,3;
 4/5=5,16=3,69=1/1;
 5/5=2,38=5/2;
 7/30=1/1,2,3,16;
 1/18=20,19=15,26=5/3(-5);
 2/9=110,15=1/2;
 6/7=2,8=2,9=2,10=2,19=2,28=1/1;
 99/9=1/99;
 Leave Link    1 at Tue Nov 19 10:50:23 2024, MaxMem=   536870912 cpu:               0.3 elap:               0.0
 (Enter /home/szhao/Apps/g16/l101.exe)
 -------------------
 Title Card Required
 -------------------
 Symbolic Z-matrix:
 Charge =  1 Multiplicity = 2
 C                    -1   -0.55138   0.        0. 
 C                    -1    0.55138   0.        0. 
 H                    0    -0.98492  -0.9323    0. 
 H                    0    -0.98236   0.93666   0. 
 H                    0     0.98492   0.9323    0. 
 H                    0     0.98236  -0.93666   0. 
 
 ITRead=  2  2  0  0  0  0
 MicOpt= -2 -2 -1 -1 -1 -1
 NAtoms=      6 NQM=        4 NQMF=       2 NMMI=      0 NMMIF=      0
                NMic=       0 NMicF=      0.
                    Isotopes and Nuclear Properties:
 (Nuclear quadrupole moments (NQMom) in fm**2, nuclear magnetic moments (NMagM)
  in nuclear magnetons)

  Atom         1           2           3           4           5           6
 IAtWgt=          12          12           1           1           1           1
 AtmWgt=  12.0000000  12.0000000   1.0078250   1.0078250   1.0078250   1.0078250
 NucSpn=           0           0           1           1           1           1
 AtZEff=  -0.0000000  -0.0000000  -0.0000000  -0.0000000  -0.0000000  -0.0000000
 NQMom=    0.0000000   0.0000000   0.0000000   0.0000000   0.0000000   0.0000000
 NMagM=    0.0000000   0.0000000   2.7928460   2.7928460   2.7928460   2.7928460
 AtZNuc=   6.0000000   6.0000000   1.0000000   1.0000000   1.0000000   1.0000000
 Leave Link  101 at Tue Nov 19 10:50:23 2024, MaxMem=   536870912 cpu:               2.6 elap:               0.3
 (Enter /home/szhao/Apps/g16/l103.exe)

 GradGradGradGradGradGradGradGradGradGradGradGradGradGradGradGradGradGrad
 Berny optimization.
 Initialization pass.
                           ----------------------------
                           !    Initial Parameters    !
                           ! (Angstroms and Degrees)  !
 --------------------------                            --------------------------
 ! Name  Definition              Value          Derivative Info.                !
 --------------------------------------------------------------------------------
 ! X1    R(1,-1)                -0.5514         Frozen                          !
 ! Y1    R(1,-2)                 0.0            Frozen                          !
 ! Z1    R(1,-3)                 0.0            Frozen                          !
 ! X2    R(2,-1)                 0.5514         Frozen                          !
 ! Y2    R(2,-2)                 0.0            Frozen                          !
 ! Z2    R(2,-3)                 0.0            Frozen                          !
 ! R1    R(1,3)                  1.0282         estimate D2E/DX2                !
 ! R2    R(1,4)                  1.0311         estimate D2E/DX2                !
 ! R3    R(2,5)                  1.0282         estimate D2E/DX2                !
 ! R4    R(2,6)                  1.0311         estimate D2E/DX2                !
 ! A1    A(2,1,3)              114.9398         estimate D2E/DX2                !
 ! A2    A(2,1,4)              114.7084         estimate D2E/DX2                !
 ! A3    A(3,1,4)              130.3518         estimate D2E/DX2                !
 ! A4    A(1,2,5)              114.9398         estimate D2E/DX2                !
 ! A5    A(1,2,6)              114.7084         estimate D2E/DX2                !
 ! A6    A(5,2,6)              130.3518         estimate D2E/DX2                !
 ! D1    D(3,1,2,5)            180.0            estimate D2E/DX2                !
 ! D2    D(3,1,2,6)              0.0            estimate D2E/DX2                !
 ! D3    D(4,1,2,5)              0.0            estimate D2E/DX2                !
 ! D4    D(4,1,2,6)            180.0            estimate D2E/DX2                !
 --------------------------------------------------------------------------------
 Trust Radius=3.00D-01 FncErr=1.00D-07 GrdErr=1.00D-07 EigMax=2.50D+02 EigMin=1.00D-04
 Number of steps in this run=     30 maximum allowed number of steps=    100.
 GradGradGradGradGradGradGradGradGradGradGradGradGradGradGradGradGradGrad

 Leave Link  103 at Tue Nov 19 10:50:23 2024, MaxMem=   536870912 cpu:               0.1 elap:               0.0
 (Enter /home/szhao/Apps/g16/l202.exe)
                          Input orientation:                          
 ---------------------------------------------------------------------
 Center     Atomic      Atomic             Coordinates (Angstroms)
 Number     Number       Type             X           Y           Z
 ---------------------------------------------------------------------
      1          6           0       -0.551376    0.000000    0.000000
      2          6           0        0.551376    0.000000    0.000000
      3          1           0       -0.984920   -0.932297    0.000000
      4          1           0       -0.982357    0.936658    0.000000
      5          1           0        0.984920    0.932297    0.000000
      6          1           0        0.982357   -0.936658    0.000000
 ---------------------------------------------------------------------
                    Distance matrix (angstroms):
                    1          2          3          4          5
     1  C    0.000000
     2  C    1.102752   0.000000
     3  H    1.028172   1.797048   0.000000
     4  H    1.031054   1.797127   1.868957   0.000000
     5  H    1.797048   1.028172   2.712375   1.967282   0.000000
     6  H    1.797127   1.031054   1.967282   2.714666   1.868957
                    6
     6  H    0.000000
 Symmetry turned off by external request.
 Stoichiometry    C2H4(1+,2)
 Framework group  C2H[SGH(C2H4)]
 Deg. of freedom     5
 Full point group                 C2H     NOp   4
 Rotational constants (GHZ):         143.5595991          45.1358723          34.3393918
 Leave Link  202 at Tue Nov 19 10:50:23 2024, MaxMem=   536870912 cpu:               0.0 elap:               0.0
 (Enter /home/szhao/Apps/g16/l301.exe)
 Standard basis: 6-311+G(d,p) (5D, 7F)
 Ernie: Thresh=  0.10000D-02 Tol=  0.10000D-05 Strict=F.
    68 basis functions,   104 primitive gaussians,    70 cartesian basis functions
     8 alpha electrons        7 beta electrons
       nuclear repulsion energy        38.1717325979 Hartrees.
 IExCor= 4336 DFT=T Ex+Corr=M062X ExCW=0 ScaHFX=  0.540000
 ScaDFX=  1.000000  1.000000  1.000000  1.000000 ScalE2=  1.000000  1.000000
 IRadAn=      7 IRanWt=     -1 IRanGd=            0 ICorTp=0 IEmpDi=  4
 NAtoms=    6 NActive=    6 NUniq=    6 SFac= 1.00D+00 NAtFMM=   60 NAOKFM=F Big=F
 Integral buffers will be    131072 words long.
 Raffenetti 2 integral format.
 Two-electron integral symmetry is turned off.
 Leave Link  301 at Tue Nov 19 10:50:23 2024, MaxMem=   536870912 cpu:               0.3 elap:               0.0
 (Enter /home/szhao/Apps/g16/l302.exe)
 NPDir=0 NMtPBC=     1 NCelOv=     1 NCel=       1 NClECP=     1 NCelD=      1
         NCelK=      1 NCelE2=     1 NClLst=     1 CellRange=     0.0.
 One-electron integrals computed using PRISM.
 NBasis=    68 RedAO= T EigKep=  4.49D-05  NBF=    68
 NBsUse=    68 1.00D-06 EigRej= -1.00D+00 NBFU=    68
 Precomputing XC quadrature grid using
 IXCGrd= 4 IRadAn=           7 IRanWt=          -1 IRanGd=           0 AccXCQ= 0.00D+00.
 Generated NRdTot=       0 NPtTot=           0 NUsed=           0 NTot=          32
 NSgBfM=    70    70    70    70    70 MxSgAt=     6 MxSgA2=     6.
 Leave Link  302 at Tue Nov 19 10:50:24 2024, MaxMem=   536870912 cpu:               1.0 elap:               0.1
 (Enter /home/szhao/Apps/g16/l303.exe)
 DipDrv:  MaxL=1.
 Leave Link  303 at Tue Nov 19 10:50:24 2024, MaxMem=   536870912 cpu:               0.3 elap:               0.0
 (Enter /home/szhao/Apps/g16/l401.exe)
 ExpMin= 4.38D-02 ExpMax= 4.56D+03 ExpMxC= 6.82D+02 IAcc=3 IRadAn=         7 AccDes= 0.00D+00
 Harris functional with IExCor= 1009 and IRadAn=       7 diagonalized for initial guess.
 HarFok:  IExCor= 1009 AccDes= 0.00D+00 IRadAn=         7 IDoV= 1 UseB2=F ITyADJ=14
 ICtDFT=  3500011 ScaDFX=  1.000000  1.000000  1.000000  1.000000
 FoFCou: FMM=F IPFlag=           0 FMFlag=      100000 FMFlg1=           0
         NFxFlg=           0 DoJE=T BraDBF=F KetDBF=T FulRan=T
         wScrn=  0.000000 ICntrl=       500 IOpCl=  0 I1Cent=   200000004 NGrid=           0
         NMat0=    1 NMatS0=      1 NMatT0=    0 NMatD0=    1 NMtDS0=    0 NMtDT0=    0
 Symmetry not used in FoFCou.
 Harris En= -78.0877549897476    
 JPrj=0 DoOrth=F DoCkMO=F.
 Initial guess <Sx>= 0.0000 <Sy>= 0.0000 <Sz>= 0.5000 <S**2>= 0.7500 S= 0.5000
 Leave Link  401 at Tue Nov 19 10:50:24 2024, MaxMem=   536870912 cpu:               2.7 elap:               0.3
 (Enter /home/szhao/Apps/g16/l502.exe)
 Keep R1 and R2 ints in memory in canonical form, NReq=12681614.
 FoFCou: FMM=F IPFlag=           0 FMFlag=           0 FMFlg1=           0
         NFxFlg=           0 DoJE=F BraDBF=F KetDBF=F FulRan=T
         wScrn=  0.000000 ICntrl=       600 IOpCl=  0 I1Cent=           0 NGrid=           0
         NMat0=    1 NMatS0=   2346 NMatT0=    0 NMatD0=    1 NMtDS0=    0 NMtDT0=    0
 Symmetry not used in FoFCou.
 Two-electron integral symmetry not used.
 UHF open shell SCF:
 Using DIIS extrapolation, IDIIS=  1040.
 NGot=   536870912 LenX=   531353794 LenY=   531348453
 Requested convergence on RMS density matrix=1.00D-08 within 128 cycles.
 Requested convergence on MAX density matrix=1.00D-06.
 Requested convergence on             energy=1.00D-06.
 No special actions if energy rises.

 Cycle   1  Pass 1  IDiag  1:
 E= -77.8906442950500    
 DIIS: error= 6.10D-02 at cycle   1 NSaved=   1.
 NSaved= 1 IEnMin= 1 EnMin= -77.8906442950500     IErMin= 1 ErrMin= 6.10D-02
 ErrMax= 6.10D-02  0.00D+00 EMaxC= 1.00D-01 BMatC= 4.72D-01 BMatP= 4.72D-01
 IDIUse=3 WtCom= 3.90D-01 WtEn= 6.10D-01
 Coeff-Com:  0.100D+01
 Coeff-En:   0.100D+01
 Coeff:      0.100D+01
 Gap=     0.596 Goal=   None    Shift=    0.000
 Gap=     0.116 Goal=   None    Shift=    0.000
 GapD=    0.116 DampG=1.000 DampE=0.500 DampFc=0.5000 IDamp=-1.
 Damping current iteration by 5.00D-01
 RMSDP=4.22D-03 MaxDP=9.88D-02              OVMax= 1.35D-01

 Cycle   2  Pass 1  IDiag  1:
 E= -77.9413203535177     Delta-E=       -0.050676058468 Rises=F Damp=T
 DIIS: error= 1.36D-02 at cycle   2 NSaved=   2.
 NSaved= 2 IEnMin= 2 EnMin= -77.9413203535177     IErMin= 2 ErrMin= 1.36D-02
 ErrMax= 1.36D-02  0.00D+00 EMaxC= 1.00D-01 BMatC= 3.17D-02 BMatP= 4.72D-01
 IDIUse=3 WtCom= 8.64D-01 WtEn= 1.36D-01
 Coeff-Com: -0.277D+00 0.128D+01
 Coeff-En:   0.000D+00 0.100D+01
 Coeff:     -0.239D+00 0.124D+01
 Gap=     0.552 Goal=   None    Shift=    0.000
 Gap=     0.168 Goal=   None    Shift=    0.000
 RMSDP=8.23D-04 MaxDP=1.28D-02 DE=-5.07D-02 OVMax= 5.75D-02

 Cycle   3  Pass 1  IDiag  1:
 E= -77.9832246727827     Delta-E=       -0.041904319265 Rises=F Damp=F
 DIIS: error= 2.26D-03 at cycle   3 NSaved=   3.
 NSaved= 3 IEnMin= 3 EnMin= -77.9832246727827     IErMin= 3 ErrMin= 2.26D-03
 ErrMax= 2.26D-03  0.00D+00 EMaxC= 1.00D-01 BMatC= 2.86D-04 BMatP= 3.17D-02
 IDIUse=3 WtCom= 9.77D-01 WtEn= 2.26D-02
 Coeff-Com: -0.204D-01 0.204D-01 0.100D+01
 Coeff-En:   0.000D+00 0.000D+00 0.100D+01
 Coeff:     -0.199D-01 0.200D-01 0.100D+01
 Gap=     0.509 Goal=   None    Shift=    0.000
 Gap=     0.168 Goal=   None    Shift=    0.000
 RMSDP=1.40D-04 MaxDP=2.37D-03 DE=-4.19D-02 OVMax= 4.91D-03

 Cycle   4  Pass 1  IDiag  1:
 E= -77.9833324910450     Delta-E=       -0.000107818262 Rises=F Damp=F
 DIIS: error= 3.58D-04 at cycle   4 NSaved=   4.
 NSaved= 4 IEnMin= 4 EnMin= -77.9833324910450     IErMin= 4 ErrMin= 3.58D-04
 ErrMax= 3.58D-04  0.00D+00 EMaxC= 1.00D-01 BMatC= 1.73D-05 BMatP= 2.86D-04
 IDIUse=3 WtCom= 9.96D-01 WtEn= 3.58D-03
 Coeff-Com:  0.125D-01-0.279D-01-0.350D+00 0.137D+01
 Coeff-En:   0.000D+00 0.000D+00 0.000D+00 0.100D+01
 Coeff:      0.125D-01-0.278D-01-0.349D+00 0.136D+01
 Gap=     0.509 Goal=   None    Shift=    0.000
 Gap=     0.169 Goal=   None    Shift=    0.000
 RMSDP=5.77D-05 MaxDP=9.51D-04 DE=-1.08D-04 OVMax= 1.61D-03

 Cycle   5  Pass 1  IDiag  1:
 E= -77.9833428328963     Delta-E=       -0.000010341851 Rises=F Damp=F
 DIIS: error= 6.00D-05 at cycle   5 NSaved=   5.
 NSaved= 5 IEnMin= 5 EnMin= -77.9833428328963     IErMin= 5 ErrMin= 6.00D-05
 ErrMax= 6.00D-05  0.00D+00 EMaxC= 1.00D-01 BMatC= 3.28D-07 BMatP= 1.73D-05
 IDIUse=1 WtCom= 1.00D+00 WtEn= 0.00D+00
 Coeff-Com: -0.153D-02 0.330D-02 0.327D-01-0.220D+00 0.119D+01
 Coeff:     -0.153D-02 0.330D-02 0.327D-01-0.220D+00 0.119D+01
 Gap=     0.509 Goal=   None    Shift=    0.000
 Gap=     0.169 Goal=   None    Shift=    0.000
 RMSDP=7.76D-06 MaxDP=1.12D-04 DE=-1.03D-05 OVMax= 2.97D-04

 Cycle   6  Pass 1  IDiag  1:
 E= -77.9833430534697     Delta-E=       -0.000000220573 Rises=F Damp=F
 DIIS: error= 9.14D-06 at cycle   6 NSaved=   6.
 NSaved= 6 IEnMin= 6 EnMin= -77.9833430534697     IErMin= 6 ErrMin= 9.14D-06
 ErrMax= 9.14D-06  0.00D+00 EMaxC= 1.00D-01 BMatC= 1.06D-08 BMatP= 3.28D-07
 IDIUse=1 WtCom= 1.00D+00 WtEn= 0.00D+00
 Coeff-Com: -0.415D-03 0.101D-02 0.117D-01-0.480D-01-0.193D-01 0.106D+01
 Coeff:     -0.415D-03 0.101D-02 0.117D-01-0.480D-01-0.193D-01 0.106D+01
 Gap=     0.509 Goal=   None    Shift=    0.000
 Gap=     0.169 Goal=   None    Shift=    0.000
 RMSDP=1.35D-06 MaxDP=1.79D-05 DE=-2.21D-07 OVMax= 4.93D-05

 Cycle   7  Pass 1  IDiag  1:
 E= -77.9833430593410     Delta-E=       -0.000000005871 Rises=F Damp=F
 DIIS: error= 2.56D-06 at cycle   7 NSaved=   7.
 NSaved= 7 IEnMin= 7 EnMin= -77.9833430593410     IErMin= 7 ErrMin= 2.56D-06
 ErrMax= 2.56D-06  0.00D+00 EMaxC= 1.00D-01 BMatC= 2.57D-10 BMatP= 1.06D-08
 IDIUse=1 WtCom= 1.00D+00 WtEn= 0.00D+00
 Coeff-Com:  0.497D-04-0.931D-04-0.107D-02 0.619D-02-0.291D-01-0.937D-02
 Coeff-Com:  0.103D+01
 Coeff:      0.497D-04-0.931D-04-0.107D-02 0.619D-02-0.291D-01-0.937D-02
 Coeff:      0.103D+01
 Gap=     0.509 Goal=   None    Shift=    0.000
 Gap=     0.169 Goal=   None    Shift=    0.000
 RMSDP=2.35D-07 MaxDP=4.42D-06 DE=-5.87D-09 OVMax= 2.30D-05

 Cycle   8  Pass 1  IDiag  1:
 E= -77.9833430596353     Delta-E=       -0.000000000294 Rises=F Damp=F
 DIIS: error= 1.71D-06 at cycle   8 NSaved=   8.
 NSaved= 8 IEnMin= 8 EnMin= -77.9833430596353     IErMin= 8 ErrMin= 1.71D-06
 ErrMax= 1.71D-06  0.00D+00 EMaxC= 1.00D-01 BMatC= 5.48D-11 BMatP= 2.57D-10
 IDIUse=1 WtCom= 1.00D+00 WtEn= 0.00D+00
 Coeff-Com: -0.153D-04 0.202D-04 0.229D-03-0.171D-02 0.150D-01-0.365D-01
 Coeff-Com: -0.401D+00 0.142D+01
 Coeff:     -0.153D-04 0.202D-04 0.229D-03-0.171D-02 0.150D-01-0.365D-01
 Coeff:     -0.401D+00 0.142D+01
 Gap=     0.509 Goal=   None    Shift=    0.000
 Gap=     0.169 Goal=   None    Shift=    0.000
 RMSDP=1.40D-07 MaxDP=1.31D-06 DE=-2.94D-10 OVMax= 2.01D-05

 Cycle   9  Pass 1  IDiag  1:
 E= -77.9833430597703     Delta-E=       -0.000000000135 Rises=F Damp=F
 DIIS: error= 9.54D-07 at cycle   9 NSaved=   9.
 NSaved= 9 IEnMin= 9 EnMin= -77.9833430597703     IErMin= 9 ErrMin= 9.54D-07
 ErrMax= 9.54D-07  0.00D+00 EMaxC= 1.00D-01 BMatC= 1.59D-11 BMatP= 5.48D-11
 IDIUse=1 WtCom= 1.00D+00 WtEn= 0.00D+00
 Coeff-Com:  0.602D-05-0.368D-05-0.218D-04 0.311D-03-0.588D-02 0.247D-01
 Coeff-Com:  0.173D+00-0.152D+01 0.233D+01
 Coeff:      0.602D-05-0.368D-05-0.218D-04 0.311D-03-0.588D-02 0.247D-01
 Coeff:      0.173D+00-0.152D+01 0.233D+01
 Gap=     0.509 Goal=   None    Shift=    0.000
 Gap=     0.169 Goal=   None    Shift=    0.000
 RMSDP=1.54D-07 MaxDP=1.51D-06 DE=-1.35D-10 OVMax= 2.32D-05

 Cycle  10  Pass 1  IDiag  1:
 E= -77.9833430598306     Delta-E=       -0.000000000060 Rises=F Damp=F
 DIIS: error= 8.27D-08 at cycle  10 NSaved=  10.
 NSaved=10 IEnMin=10 EnMin= -77.9833430598306     IErMin=10 ErrMin= 8.27D-08
 ErrMax= 8.27D-08  0.00D+00 EMaxC= 1.00D-01 BMatC= 2.07D-13 BMatP= 1.59D-11
 IDIUse=1 WtCom= 1.00D+00 WtEn= 0.00D+00
 Coeff-Com:  0.612D-06-0.144D-05-0.154D-04 0.871D-04-0.461D-03 0.108D-03
 Coeff-Com:  0.115D-01 0.105D-01-0.161D+00 0.114D+01
 Coeff:      0.612D-06-0.144D-05-0.154D-04 0.871D-04-0.461D-03 0.108D-03
 Coeff:      0.115D-01 0.105D-01-0.161D+00 0.114D+01
 Gap=     0.509 Goal=   None    Shift=    0.000
 Gap=     0.169 Goal=   None    Shift=    0.000
 RMSDP=1.72D-08 MaxDP=1.64D-07 DE=-6.03D-11 OVMax= 2.44D-06

 Cycle  11  Pass 1  IDiag  1:
 E= -77.9833430598312     Delta-E=       -0.000000000001 Rises=F Damp=F
 DIIS: error= 8.16D-09 at cycle  11 NSaved=  11.
 NSaved=11 IEnMin=11 EnMin= -77.9833430598312     IErMin=11 ErrMin= 8.16D-09
 ErrMax= 8.16D-09  0.00D+00 EMaxC= 1.00D-01 BMatC= 3.87D-15 BMatP= 2.07D-13
 IDIUse=1 WtCom= 1.00D+00 WtEn= 0.00D+00
 Coeff-Com: -0.688D-07-0.661D-07-0.102D-05 0.260D-05 0.620D-04-0.478D-03
 Coeff-Com: -0.207D-02 0.347D-01-0.572D-01 0.118D+00 0.907D+00
 Coeff:     -0.688D-07-0.661D-07-0.102D-05 0.260D-05 0.620D-04-0.478D-03
 Coeff:     -0.207D-02 0.347D-01-0.572D-01 0.118D+00 0.907D+00
 Gap=     0.509 Goal=   None    Shift=    0.000
 Gap=     0.169 Goal=   None    Shift=    0.000
 RMSDP=1.59D-09 MaxDP=1.55D-08 DE=-5.26D-13 OVMax= 2.21D-07

 SCF Done:  E(UM062X) =  -77.9833430598     A.U. after   11 cycles
            NFock= 11  Conv=0.16D-08     -V/T= 1.9851
 <Sx>= 0.0000 <Sy>= 0.0000 <Sz>= 0.5000 <S**2>= 0.7548 S= 0.5024
 <L.S>=  0.00000000000    
 KE= 7.916137156441D+01 PE=-2.532760833862D+02 EE= 5.795963616404D+01
 Annihilation of the first spin contaminant:
 S**2 before annihilation     0.7548,   after     0.7500
 Leave Link  502 at Tue Nov 19 10:50:31 2024, MaxMem=   536870912 cpu:              54.6 elap:               6.9
 (Enter /home/szhao/Apps/g16/l601.exe)
 Copying SCF densities to generalized density rwf, IOpCl= 1 IROHF=0.

 **********************************************************************

            Population analysis using the SCF density.

 **********************************************************************

 Alpha  occ. eigenvalues --  -10.82427 -10.81851  -1.27576  -0.98142  -0.97237
 Alpha  occ. eigenvalues --   -0.82097  -0.75650  -0.70250
 Alpha virt. eigenvalues --   -0.19342  -0.15601  -0.14601  -0.11918  -0.10560
 Alpha virt. eigenvalues --   -0.09895  -0.06923  -0.06090  -0.02976  -0.00329
 Alpha virt. eigenvalues --    0.00282   0.03752   0.13140   0.15468   0.18794
 Alpha virt. eigenvalues --    0.23922   0.26529   0.29553   0.36542   0.40764
 Alpha virt. eigenvalues --    0.42372   0.45990   0.52182   0.54193   0.64286
 Alpha virt. eigenvalues --    0.66792   0.81067   0.88681   0.98510   1.07603
 Alpha virt. eigenvalues --    1.09608   1.14618   1.42410   1.46397   1.47981
 Alpha virt. eigenvalues --    1.48144   1.48873   1.61997   1.65847   1.68274
 Alpha virt. eigenvalues --    1.92049   1.98948   2.11404   2.14921   2.15500
 Alpha virt. eigenvalues --    2.17970   2.41452   2.42716   2.50343   2.50545
 Alpha virt. eigenvalues --    2.52084   2.67958   2.71886   3.01316   3.39605
 Alpha virt. eigenvalues --    3.65711   3.70754   3.88089  23.47886  25.08914
  Beta  occ. eigenvalues --  -10.82365 -10.81773  -1.25473  -0.92548  -0.90619
  Beta  occ. eigenvalues --   -0.79425  -0.69718
  Beta virt. eigenvalues --   -0.52833  -0.18861  -0.15645  -0.14373  -0.11697
  Beta virt. eigenvalues --   -0.10440  -0.09500  -0.05978  -0.05849  -0.02596
  Beta virt. eigenvalues --    0.00015   0.01202   0.04427   0.13062   0.15780
  Beta virt. eigenvalues --    0.18874   0.25116   0.26905   0.29499   0.37015
  Beta virt. eigenvalues --    0.40459   0.42465   0.46059   0.52029   0.54545
  Beta virt. eigenvalues --    0.64508   0.67234   0.81416   0.89512   0.98796
  Beta virt. eigenvalues --    1.08322   1.09861   1.15206   1.42168   1.46342
  Beta virt. eigenvalues --    1.48656   1.49013   1.49255   1.61685   1.66661
  Beta virt. eigenvalues --    1.69844   1.92050   2.00968   2.10853   2.14570
  Beta virt. eigenvalues --    2.14846   2.18473   2.41776   2.42919   2.49255
  Beta virt. eigenvalues --    2.49327   2.51364   2.66940   2.71268   3.01374
  Beta virt. eigenvalues --    3.40138   3.65271   3.71130   3.88504  23.47750
  Beta virt. eigenvalues --   25.08764
          Condensed to atoms (all electrons):
               1          2          3          4          5          6
     1  C    4.664834   0.775500   0.343472   0.341463  -0.015213  -0.014863
     2  C    0.775500   4.664834  -0.015213  -0.014863   0.343472   0.341463
     3  H    0.343472  -0.015213   0.376118   0.000037   0.004787  -0.005716
     4  H    0.341463  -0.014863   0.000037   0.375613  -0.005716   0.004788
     5  H   -0.015213   0.343472   0.004787  -0.005716   0.376118   0.000037
     6  H   -0.014863   0.341463  -0.005716   0.004788   0.000037   0.375613
          Atomic-Atomic Spin Densities.
               1          2          3          4          5          6
     1  C    0.095368  -0.076876   0.075192   0.076785  -0.019576  -0.020320
     2  C   -0.076876   0.095368  -0.019576  -0.020320   0.075192   0.076785
     3  H    0.075192  -0.019576   0.148210  -0.013133   0.002449  -0.010660
     4  H    0.076785  -0.020320  -0.013133   0.151756  -0.010660   0.002518
     5  H   -0.019576   0.075192   0.002449  -0.010660   0.148210  -0.013133
     6  H   -0.020320   0.076785  -0.010660   0.002518  -0.013133   0.151756
 Mulliken charges and spin densities:
               1          2
     1  C   -0.095193   0.130573
     2  C   -0.095193   0.130573
     3  H    0.296516   0.182482
     4  H    0.298678   0.186945
     5  H    0.296516   0.182482
     6  H    0.298678   0.186945
 Sum of Mulliken charges =   1.00000   1.00000
 Mulliken charges and spin densities with hydrogens summed into heavy atoms:
               1          2
     1  C    0.500000   0.500000
     2  C    0.500000   0.500000
 Electronic spatial extent (au):  <R**2>=             57.8427
 Charge=              1.0000 electrons
 Dipole moment (field-independent basis, Debye):
    X=              0.0000    Y=             -0.0000    Z=             -0.0000  Tot=              0.0000
 Quadrupole moment (field-independent basis, Debye-Ang):
   XX=             -6.7709   YY=             -5.6816   ZZ=            -12.4580
   XY=             -0.0315   XZ=             -0.0000   YZ=              0.0000
 Traceless Quadrupole moment (field-independent basis, Debye-Ang):
   XX=              1.5326   YY=              2.6219   ZZ=             -4.1544
   XY=             -0.0315   XZ=             -0.0000   YZ=              0.0000
 Octapole moment (field-independent basis, Debye-Ang**2):
  XXX=              0.0000  YYY=             -0.0000  ZZZ=             -0.0000  XYY=              0.0000
  XXY=             -0.0000  XXZ=             -0.0000  XZZ=              0.0000  YZZ=              0.0000
  YYZ=              0.0000  XYZ=              0.0000
 Hexadecapole moment (field-independent basis, Debye-Ang**3):
 XXXX=            -36.5198 YYYY=            -12.6304 ZZZZ=            -11.9274 XXXY=             -0.0168
 XXXZ=             -0.0000 YYYX=             -0.0519 YYYZ=              0.0000 ZZZX=             -0.0000
 ZZZY=              0.0000 XXYY=             -3.8409 XXZZ=             -8.7937 YYZZ=             -5.3525
 XXYZ=              0.0000 YYXZ=             -0.0000 ZZXY=             -0.0008
 N-N= 3.817173259791D+01 E-N=-2.532760833649D+02  KE= 7.916137156441D+01
                          Isotropic Fermi Contact Couplings
        Atom                 a.u.       MegaHertz       Gauss      10(-4) cm-1
     1  C(13)             -0.04147     -46.62404     -16.63662     -15.55211
     2  C(13)             -0.04147     -46.62404     -16.63662     -15.55211
     3  H(1)               0.11697     522.82861     186.55825     174.39685
     4  H(1)               0.11930     533.25495     190.27863     177.87471
     5  H(1)               0.11697     522.82861     186.55825     174.39685
     6  H(1)               0.11930     533.25495     190.27863     177.87471
 --------------------------------------------------------
       Center         ----  Spin Dipole Couplings  ----
                      3XX-RR        3YY-RR        3ZZ-RR
 --------------------------------------------------------
     1   Atom       -0.198685      0.405383     -0.206697
     2   Atom       -0.198685      0.405383     -0.206697
     3   Atom       -0.007174      0.042277     -0.035103
     4   Atom       -0.008628      0.043774     -0.035147
     5   Atom       -0.007174      0.042277     -0.035103
     6   Atom       -0.008628      0.043774     -0.035147
 --------------------------------------------------------
                        XY            XZ            YZ
 --------------------------------------------------------
     1   Atom       -0.005567      0.000000     -0.000000
     2   Atom       -0.005567      0.000000      0.000000
     3   Atom        0.048586      0.000000      0.000000
     4   Atom       -0.048071     -0.000000      0.000000
     5   Atom        0.048586     -0.000000     -0.000000
     6   Atom       -0.048071      0.000000     -0.000000
 --------------------------------------------------------


 ---------------------------------------------------------------------------------
              Anisotropic Spin Dipole Couplings in Principal Axis System
 ---------------------------------------------------------------------------------

       Atom             a.u.   MegaHertz   Gauss  10(-4) cm-1        Axes

              Baa    -0.2067   -27.737    -9.897    -9.252  0.0000  0.0000  1.0000
     1 C(13)  Bbb    -0.1987   -26.669    -9.516    -8.896  1.0000  0.0092 -0.0000
              Bcc     0.4054    54.405    19.413    18.148 -0.0092  1.0000 -0.0000
 
              Baa    -0.2067   -27.737    -9.897    -9.252 -0.0000 -0.0000  1.0000
     2 C(13)  Bbb    -0.1987   -26.669    -9.516    -8.896  1.0000  0.0092  0.0000
              Bcc     0.4054    54.405    19.413    18.148 -0.0092  1.0000  0.0000
 
              Baa    -0.0370   -19.722    -7.037    -6.579  0.8525 -0.5227 -0.0000
     3 H(1)   Bbb    -0.0351   -18.729    -6.683    -6.247 -0.0000 -0.0000  1.0000
              Bcc     0.0721    38.452    13.721    12.826  0.5227  0.8525  0.0000
 
              Baa    -0.0372   -19.835    -7.077    -6.616  0.8598  0.5106 -0.0000
     4 H(1)   Bbb    -0.0351   -18.753    -6.691    -6.255  0.0000 -0.0000  1.0000
              Bcc     0.0723    38.587    13.769    12.871 -0.5106  0.8598  0.0000
 
              Baa    -0.0370   -19.722    -7.037    -6.579  0.8525 -0.5227 -0.0000
     5 H(1)   Bbb    -0.0351   -18.729    -6.683    -6.247  0.0000  0.0000  1.0000
              Bcc     0.0721    38.452    13.721    12.826  0.5227  0.8525 -0.0000
 
              Baa    -0.0372   -19.835    -7.077    -6.616  0.8598  0.5106 -0.0000
     6 H(1)   Bbb    -0.0351   -18.753    -6.691    -6.255 -0.0000  0.0000  1.0000
              Bcc     0.0723    38.587    13.769    12.871 -0.5106  0.8598 -0.0000
 

 ---------------------------------------------------------------------------------

 No NMR shielding tensors so no spin-rotation constants.
 Leave Link  601 at Tue Nov 19 10:50:31 2024, MaxMem=   536870912 cpu:               1.3 elap:               0.2
 (Enter /home/szhao/Apps/g16/l701.exe)
 ... and contract with generalized density number  0.
 Compute integral first derivatives.
 Leave Link  701 at Tue Nov 19 10:50:31 2024, MaxMem=   536870912 cpu:               0.7 elap:               0.1
 (Enter /home/szhao/Apps/g16/l702.exe)
 L702 exits ... SP integral derivatives will be done elsewhere.
 Leave Link  702 at Tue Nov 19 10:50:31 2024, MaxMem=   536870912 cpu:               0.2 elap:               0.0
 (Enter /home/szhao/Apps/g16/l703.exe)
 Integral derivatives from FoFJK, PRISM(SPDF).
 Compute integral first derivatives, UseDBF=F ICtDFT=           0.
 Calling FoFJK, ICntrl=      2127 FMM=F ISym2X=0 I1Cent= 0 IOpClX= 1 NMat=1 NMatS=1 NMatT=0.
 FoFJK:  IHMeth= 1 ICntrl=    2127 DoSepK=F KAlg= 0 I1Cent=           0 FoldK=F
 IRaf=         0 NMat=       1 IRICut=       1 DoRegI=T DoRafI=F ISym2E= 0 IDoP0=0 IntGTp=1.
 FoFCou: FMM=F IPFlag=           0 FMFlag=      100000 FMFlg1=         800
         NFxFlg=           0 DoJE=F BraDBF=F KetDBF=F FulRan=T
         wScrn=  0.000000 ICntrl=      2127 IOpCl=  1 I1Cent=           0 NGrid=           0
         NMat0=    1 NMatS0=      1 NMatT0=    0 NMatD0=    1 NMtDS0=    0 NMtDT0=    0
 Symmetry not used in FoFCou.
 Leave Link  703 at Tue Nov 19 10:50:32 2024, MaxMem=   536870912 cpu:               8.6 elap:               1.1
 (Enter /home/szhao/Apps/g16/l716.exe)
 Dipole        = 4.19508872D-12-4.08562073D-14-6.73259028D-15
 -------------------------------------------------------------------
 Center     Atomic                   Forces (Hartrees/Bohr)
 Number     Number              X              Y              Z
 -------------------------------------------------------------------
      1        6          -0.000000000   -0.000000000   -0.000000000
      2        6          -0.000000000   -0.000000000   -0.000000000
      3        1          -0.068167975   -0.058559873   -0.000000000
      4        1          -0.066388912    0.057499272    0.000000000
      5        1           0.068167975    0.058559873   -0.000000000
      6        1           0.066388912   -0.057499272    0.000000000
 -------------------------------------------------------------------
 Cartesian Forces:  Max     0.068167975 RMS     0.041885804
 Leave Link  716 at Tue Nov 19 10:50:32 2024, MaxMem=   536870912 cpu:               0.3 elap:               0.0
 (Enter /home/szhao/Apps/g16/l103.exe)

 GradGradGradGradGradGradGradGradGradGradGradGradGradGradGradGradGradGrad
 Berny optimization.
 FormGI is forming the generalized inverse of G from B-inverse, IUseBI=4.
 Internal  Forces:  Max     0.134556886 RMS     0.058822969
 Search for a local minimum.
 Step number   1 out of a maximum of   30
 All quantities printed in internal units (Hartrees-Bohrs-Radians)
 RMS Force = .48544D-01 SwitMx=.10000D-02 MixMth= 1
 Mixed Optimization -- RFO/linear search
 Second derivative matrix not updated -- first step.
 The second derivative matrix:
                          X1        Y1        Z1        X2        Y2
           X1           0.50000
           Y1           0.00000   0.50000
           Z1           0.00000   0.00000   0.50000
           X2           0.00000   0.00000   0.00000   0.50000
           Y2           0.00000   0.00000   0.00000   0.00000   0.50000
           Z2           0.00000   0.00000   0.00000   0.00000   0.00000
           R1           0.00000   0.00000   0.00000   0.00000   0.00000
           R2           0.00000   0.00000   0.00000   0.00000   0.00000
           R3           0.00000   0.00000   0.00000   0.00000   0.00000
           R4           0.00000   0.00000   0.00000   0.00000   0.00000
           A1           0.00000   0.00000   0.00000   0.00000   0.00000
           A2           0.00000   0.00000   0.00000   0.00000   0.00000
           A3           0.00000   0.00000   0.00000   0.00000   0.00000
           A4           0.00000   0.00000   0.00000   0.00000   0.00000
           A5           0.00000   0.00000   0.00000   0.00000   0.00000
           A6           0.00000   0.00000   0.00000   0.00000   0.00000
           D1           0.00000   0.00000   0.00000   0.00000   0.00000
           D2           0.00000   0.00000   0.00000   0.00000   0.00000
           D3           0.00000   0.00000   0.00000   0.00000   0.00000
           D4           0.00000   0.00000   0.00000   0.00000   0.00000
                          Z2        R1        R2        R3        R4
           Z2           0.50000
           R1           0.00000   0.43059
           R2           0.00000   0.00000   0.42620
           R3           0.00000   0.00000   0.00000   0.43059
           R4           0.00000   0.00000   0.00000   0.00000   0.42620
           A1           0.00000   0.00000   0.00000   0.00000   0.00000
           A2           0.00000   0.00000   0.00000   0.00000   0.00000
           A3           0.00000   0.00000   0.00000   0.00000   0.00000
           A4           0.00000   0.00000   0.00000   0.00000   0.00000
           A5           0.00000   0.00000   0.00000   0.00000   0.00000
           A6           0.00000   0.00000   0.00000   0.00000   0.00000
           D1           0.00000   0.00000   0.00000   0.00000   0.00000
           D2           0.00000   0.00000   0.00000   0.00000   0.00000
           D3           0.00000   0.00000   0.00000   0.00000   0.00000
           D4           0.00000   0.00000   0.00000   0.00000   0.00000
                          A1        A2        A3        A4        A5
           A1           0.16000
           A2           0.00000   0.16000
           A3           0.00000   0.00000   0.16000
           A4           0.00000   0.00000   0.00000   0.16000
           A5           0.00000   0.00000   0.00000   0.00000   0.16000
           A6           0.00000   0.00000   0.00000   0.00000   0.00000
           D1           0.00000   0.00000   0.00000   0.00000   0.00000
           D2           0.00000   0.00000   0.00000   0.00000   0.00000
           D3           0.00000   0.00000   0.00000   0.00000   0.00000
           D4           0.00000   0.00000   0.00000   0.00000   0.00000
                          A6        D1        D2        D3        D4
           A6           0.16000
           D1           0.00000   0.06021
           D2           0.00000   0.00000   0.06021
           D3           0.00000   0.00000   0.00000   0.06021
           D4           0.00000   0.00000   0.00000   0.00000   0.06021
 ITU=  0
     Eigenvalues ---    0.06021   0.06021   0.06021   0.16000   0.16000
     Eigenvalues ---    0.16000   0.16000   0.42620   0.42620   0.43059
     Eigenvalues ---    0.430591000.000001000.000001000.000001000.00000
     Eigenvalues --- 1000.000001000.000001000.000001000.000001000.00000
 RFO step:  Lambda=-7.98735047D-02 EMin= 6.02078334D-02
 Linear search not attempted -- first point.
 Maximum step size (   0.300) exceeded in Quadratic search.
    -- Step size scaled by   0.640
 Iteration  1 RMS(Cart)=  0.07166392 RMS(Int)=  0.00301335
 Iteration  2 RMS(Cart)=  0.00340754 RMS(Int)=  0.00000656
 Iteration  3 RMS(Cart)=  0.00000695 RMS(Int)=  0.00000000
 Iteration  4 RMS(Cart)=  0.00000000 RMS(Int)=  0.00000000
 ITry= 1 IFail=0 DXMaxC= 1.63D-01 DCOld= 1.00D+10 DXMaxT= 3.00D-01 DXLimC= 3.00D+00 Rises=F
 Variable       Old X    -DE/DX   Delta X   Delta X   Delta X     New X
                                 (Linear)    (Quad)   (Total)
    X1       -1.04195  -0.13456   0.00000   0.00000   0.00000  -1.04195
    Y1        0.00000   0.00032   0.00000   0.00000   0.00000   0.00000
    Z1        0.00000  -0.00000   0.00000   0.00000   0.00000   0.00000
    X2        1.04195   0.13456   0.00000   0.00000   0.00000   1.04195
    Y2        0.00000  -0.00032   0.00000   0.00000   0.00000   0.00000
    Z2        0.00000   0.00000   0.00000   0.00000   0.00000   0.00000
    R1        1.94296   0.08184   0.00000   0.10265   0.10265   2.04562
    R2        1.94841   0.07999   0.00000   0.10119   0.10119   2.04961
    R3        1.94296   0.08184   0.00000   0.10265   0.10265   2.04562
    R4        1.94841   0.07999   0.00000   0.10119   0.10119   2.04961
    A1        2.00608   0.02452   0.00000   0.06545   0.06545   2.07153
    A2        2.00204   0.02308   0.00000   0.06161   0.06161   2.06365
    A3        2.27507  -0.04760   0.00000  -0.12705  -0.12705   2.14801
    A4        2.00608   0.02452   0.00000   0.06545   0.06545   2.07153
    A5        2.00204   0.02308   0.00000   0.06161   0.06161   2.06365
    A6        2.27507  -0.04760   0.00000  -0.12705  -0.12705   2.14801
    D1        3.14159  -0.00000   0.00000  -0.00000   0.00000   3.14159
    D2        0.00000  -0.00000   0.00000  -0.00000   0.00000   0.00000
    D3        0.00000  -0.00000   0.00000  -0.00000   0.00000   0.00000
    D4        3.14159  -0.00000   0.00000  -0.00000   0.00000   3.14159
         Item               Value     Threshold  Converged?
 Maximum Force            0.081843     0.000450     NO 
 RMS     Force            0.048544     0.000300     NO 
 Maximum Displacement     0.162751     0.001800     NO 
 RMS     Displacement     0.072766     0.001200     NO 
 Predicted change in Energy=-3.836297D-02
 Lowest energy point so far.  Saving SCF results.
 GradGradGradGradGradGradGradGradGradGradGradGradGradGradGradGradGradGrad

 Leave Link  103 at Tue Nov 19 10:50:32 2024, MaxMem=   536870912 cpu:               0.1 elap:               0.0
 (Enter /home/szhao/Apps/g16/l202.exe)
                          Input orientation:                          
 ---------------------------------------------------------------------
 Center     Atomic      Atomic             Coordinates (Angstroms)
 Number     Number       Type             X           Y           Z
 ---------------------------------------------------------------------
      1          6           0       -0.551376    0.000000    0.000000
      2          6           0        0.551376    0.000000    0.000000
      3          1           0       -1.071044   -0.949600    0.000000
      4          1           0       -1.064543    0.955524   -0.000000
      5          1           0        1.071044    0.949600    0.000000
      6          1           0        1.064543   -0.955524   -0.000000
 ---------------------------------------------------------------------
                    Distance matrix (angstroms):
                    1          2          3          4          5
     1  C    0.000000
     2  C    1.102752   0.000000
     3  H    1.082495   1.879890   0.000000
     4  H    1.084604   1.877290   1.905135   0.000000
     5  H    1.879890   1.082495   2.862778   2.135595   0.000000
     6  H    1.877290   1.084604   2.135595   2.860963   1.905135
                    6
     6  H    0.000000
 Symmetry turned off by external request.
 Stoichiometry    C2H4(1+,2)
 Framework group  C2H[SGH(C2H4)]
 Deg. of freedom     5
 Full point group                 C2H     NOp   4
 Rotational constants (GHZ):         138.1597608          42.4944324          32.4986678
 Leave Link  202 at Tue Nov 19 10:50:32 2024, MaxMem=   536870912 cpu:               0.0 elap:               0.0
 (Enter /home/szhao/Apps/g16/l301.exe)
 Standard basis: 6-311+G(d,p) (5D, 7F)
 Ernie: Thresh=  0.10000D-02 Tol=  0.10000D-05 Strict=F.
    68 basis functions,   104 primitive gaussians,    70 cartesian basis functions
     8 alpha electrons        7 beta electrons
       nuclear repulsion energy        37.1777418350 Hartrees.
 IExCor= 4336 DFT=T Ex+Corr=M062X ExCW=0 ScaHFX=  0.540000
 ScaDFX=  1.000000  1.000000  1.000000  1.000000 ScalE2=  1.000000  1.000000
 IRadAn=      7 IRanWt=     -1 IRanGd=            0 ICorTp=0 IEmpDi=  4
 NAtoms=    6 NActive=    6 NUniq=    6 SFac= 1.00D+00 NAtFMM=   60 NAOKFM=F Big=F
 Integral buffers will be    131072 words long.
 Raffenetti 2 integral format.
 Two-electron integral symmetry is turned off.
 Leave Link  301 at Tue Nov 19 10:50:32 2024, MaxMem=   536870912 cpu:               0.3 elap:               0.0
 (Enter /home/szhao/Apps/g16/l302.exe)
 NPDir=0 NMtPBC=     1 NCelOv=     1 NCel=       1 NClECP=     1 NCelD=      1
         NCelK=      1 NCelE2=     1 NClLst=     1 CellRange=     0.0.
 One-electron integrals computed using PRISM.
 NBasis=    68 RedAO= T EigKep=  4.69D-05  NBF=    68
 NBsUse=    68 1.00D-06 EigRej= -1.00D+00 NBFU=    68
 Precomputing XC quadrature grid using
 IXCGrd= 4 IRadAn=           7 IRanWt=          -1 IRanGd=           0 AccXCQ= 0.00D+00.
 Generated NRdTot=       0 NPtTot=           0 NUsed=           0 NTot=          32
 NSgBfM=    70    70    70    70    70 MxSgAt=     6 MxSgA2=     6.
 Leave Link  302 at Tue Nov 19 10:50:33 2024, MaxMem=   536870912 cpu:               1.1 elap:               0.1
 (Enter /home/szhao/Apps/g16/l303.exe)
 DipDrv:  MaxL=1.
 Leave Link  303 at Tue Nov 19 10:50:33 2024, MaxMem=   536870912 cpu:               0.2 elap:               0.0
 (Enter /home/szhao/Apps/g16/l401.exe)
 Initial guess from the checkpoint file:  "opt.chk"
 B after Tr=     0.000000   -0.000000    0.000000
         Rot=    1.000000   -0.000000   -0.000000    0.000421 Ang=   0.05 deg.
 Guess basis will be translated and rotated to current coordinates.
 JPrj=2 DoOrth=T DoCkMO=T.
 Initial guess <Sx>= 0.0000 <Sy>= 0.0000 <Sz>= 0.5000 <S**2>= 0.7552 S= 0.5026
 Generating alternative initial guess.
 ExpMin= 4.38D-02 ExpMax= 4.56D+03 ExpMxC= 6.82D+02 IAcc=3 IRadAn=         5 AccDes= 0.00D+00
 Harris functional with IExCor= 1009 and IRadAn=       5 diagonalized for initial guess.
 HarFok:  IExCor= 1009 AccDes= 0.00D+00 IRadAn=         5 IDoV= 1 UseB2=F ITyADJ=14
 ICtDFT=  3500011 ScaDFX=  1.000000  1.000000  1.000000  1.000000
 FoFCou: FMM=F IPFlag=           0 FMFlag=      100000 FMFlg1=           0
         NFxFlg=           0 DoJE=T BraDBF=F KetDBF=T FulRan=T
         wScrn=  0.000000 ICntrl=       500 IOpCl=  0 I1Cent=   200000004 NGrid=           0
         NMat0=    1 NMatS0=      1 NMatT0=    0 NMatD0=    1 NMtDS0=    0 NMtDT0=    0
 Symmetry not used in FoFCou.
 Harris En= -78.1206775075099    
 Leave Link  401 at Tue Nov 19 10:50:33 2024, MaxMem=   536870912 cpu:               1.9 elap:               0.2
 (Enter /home/szhao/Apps/g16/l502.exe)
 Keep R1 and R2 ints in memory in canonical form, NReq=12681614.
 FoFCou: FMM=F IPFlag=           0 FMFlag=           0 FMFlg1=           0
         NFxFlg=           0 DoJE=F BraDBF=F KetDBF=F FulRan=T
         wScrn=  0.000000 ICntrl=       600 IOpCl=  0 I1Cent=           0 NGrid=           0
         NMat0=    1 NMatS0=   2346 NMatT0=    0 NMatD0=    1 NMtDS0=    0 NMtDT0=    0
 Symmetry not used in FoFCou.
 Two-electron integral symmetry not used.
 UHF open shell SCF:
 Using DIIS extrapolation, IDIIS=  1040.
 NGot=   536870912 LenX=   531353794 LenY=   531348453
 Requested convergence on RMS density matrix=1.00D-08 within 128 cycles.
 Requested convergence on MAX density matrix=1.00D-06.
 Requested convergence on             energy=1.00D-06.
 No special actions if energy rises.

 Cycle   1  Pass 1  IDiag  1:
 E= -78.0199522980568    
 DIIS: error= 9.93D-03 at cycle   1 NSaved=   1.
 NSaved= 1 IEnMin= 1 EnMin= -78.0199522980568     IErMin= 1 ErrMin= 9.93D-03
 ErrMax= 9.93D-03  0.00D+00 EMaxC= 1.00D-01 BMatC= 1.11D-02 BMatP= 1.11D-02
 IDIUse=3 WtCom= 9.01D-01 WtEn= 9.93D-02
 Coeff-Com:  0.100D+01
 Coeff-En:   0.100D+01
 Coeff:      0.100D+01
 Gap=     0.710 Goal=   None    Shift=    0.000
 Gap=     0.686 Goal=   None    Shift=    0.000
 GapD=    0.686 DampG=2.000 DampE=1.000 DampFc=2.0000 IDamp=-1.
 RMSDP=6.22D-04 MaxDP=8.56D-03              OVMax= 1.98D-02

 Cycle   2  Pass 1  IDiag  1:
 E= -78.0222574837450     Delta-E=       -0.002305185688 Rises=F Damp=F
 DIIS: error= 1.87D-03 at cycle   2 NSaved=   2.
 NSaved= 2 IEnMin= 2 EnMin= -78.0222574837450     IErMin= 2 ErrMin= 1.87D-03
 ErrMax= 1.87D-03  0.00D+00 EMaxC= 1.00D-01 BMatC= 4.16D-04 BMatP= 1.11D-02
 IDIUse=3 WtCom= 9.81D-01 WtEn= 1.87D-02
 Coeff-Com:  0.383D-01 0.962D+00
 Coeff-En:   0.000D+00 0.100D+01
 Coeff:      0.376D-01 0.962D+00
 Gap=     0.505 Goal=   None    Shift=    0.000
 Gap=     0.180 Goal=   None    Shift=    0.000
 RMSDP=1.58D-04 MaxDP=3.91D-03 DE=-2.31D-03 OVMax= 4.95D-03

 Cycle   3  Pass 1  IDiag  1:
 E= -78.0223312428100     Delta-E=       -0.000073759065 Rises=F Damp=F
 DIIS: error= 1.29D-03 at cycle   3 NSaved=   3.
 NSaved= 3 IEnMin= 3 EnMin= -78.0223312428100     IErMin= 3 ErrMin= 1.29D-03
 ErrMax= 1.29D-03  0.00D+00 EMaxC= 1.00D-01 BMatC= 1.38D-04 BMatP= 4.16D-04
 IDIUse=3 WtCom= 9.87D-01 WtEn= 1.29D-02
 Coeff-Com: -0.181D-01 0.355D+00 0.663D+00
 Coeff-En:   0.000D+00 0.584D-01 0.942D+00
 Coeff:     -0.179D-01 0.351D+00 0.667D+00
 Gap=     0.504 Goal=   None    Shift=    0.000
 Gap=     0.178 Goal=   None    Shift=    0.000
 RMSDP=5.47D-05 MaxDP=1.09D-03 DE=-7.38D-05 OVMax= 1.83D-03

 Cycle   4  Pass 1  IDiag  1:
 E= -78.0223640634253     Delta-E=       -0.000032820615 Rises=F Damp=F
 DIIS: error= 1.12D-04 at cycle   4 NSaved=   4.
 NSaved= 4 IEnMin= 4 EnMin= -78.0223640634253     IErMin= 4 ErrMin= 1.12D-04
 ErrMax= 1.12D-04  0.00D+00 EMaxC= 1.00D-01 BMatC= 7.79D-07 BMatP= 1.38D-04
 IDIUse=3 WtCom= 9.99D-01 WtEn= 1.12D-03
 Coeff-Com:  0.207D-03-0.498D-01-0.339D-01 0.108D+01
 Coeff-En:   0.000D+00 0.000D+00 0.000D+00 0.100D+01
 Coeff:      0.207D-03-0.497D-01-0.339D-01 0.108D+01
 Gap=     0.504 Goal=   None    Shift=    0.000
 Gap=     0.178 Goal=   None    Shift=    0.000
 RMSDP=8.04D-06 MaxDP=1.71D-04 DE=-3.28D-05 OVMax= 2.86D-04

 Cycle   5  Pass 1  IDiag  1:
 E= -78.0223644568158     Delta-E=       -0.000000393391 Rises=F Damp=F
 DIIS: error= 2.34D-05 at cycle   5 NSaved=   5.
 NSaved= 5 IEnMin= 5 EnMin= -78.0223644568158     IErMin= 5 ErrMin= 2.34D-05
 ErrMax= 2.34D-05  0.00D+00 EMaxC= 1.00D-01 BMatC= 4.41D-08 BMatP= 7.79D-07
 IDIUse=1 WtCom= 1.00D+00 WtEn= 0.00D+00
 Coeff-Com:  0.425D-03-0.229D-02-0.149D-01-0.184D+00 0.120D+01
 Coeff:      0.425D-03-0.229D-02-0.149D-01-0.184D+00 0.120D+01
 Gap=     0.504 Goal=   None    Shift=    0.000
 Gap=     0.178 Goal=   None    Shift=    0.000
 RMSDP=2.28D-06 MaxDP=4.45D-05 DE=-3.93D-07 OVMax= 9.68D-05

 Cycle   6  Pass 1  IDiag  1:
 E= -78.0223644868777     Delta-E=       -0.000000030062 Rises=F Damp=F
 DIIS: error= 5.10D-06 at cycle   6 NSaved=   6.
 NSaved= 6 IEnMin= 6 EnMin= -78.0223644868777     IErMin= 6 ErrMin= 5.10D-06
 ErrMax= 5.10D-06  0.00D+00 EMaxC= 1.00D-01 BMatC= 2.92D-09 BMatP= 4.41D-08
 IDIUse=1 WtCom= 1.00D+00 WtEn= 0.00D+00
 Coeff-Com: -0.307D-04 0.461D-02 0.418D-02-0.789D-01-0.549D-01 0.113D+01
 Coeff:     -0.307D-04 0.461D-02 0.418D-02-0.789D-01-0.549D-01 0.113D+01
 Gap=     0.504 Goal=   None    Shift=    0.000
 Gap=     0.178 Goal=   None    Shift=    0.000
 RMSDP=7.19D-07 MaxDP=1.10D-05 DE=-3.01D-08 OVMax= 4.27D-05

 Cycle   7  Pass 1  IDiag  1:
 E= -78.0223644890061     Delta-E=       -0.000000002128 Rises=F Damp=F
 DIIS: error= 2.10D-06 at cycle   7 NSaved=   7.
 NSaved= 7 IEnMin= 7 EnMin= -78.0223644890061     IErMin= 7 ErrMin= 2.10D-06
 ErrMax= 2.10D-06  0.00D+00 EMaxC= 1.00D-01 BMatC= 1.08D-10 BMatP= 2.92D-09
 IDIUse=1 WtCom= 1.00D+00 WtEn= 0.00D+00
 Coeff-Com: -0.612D-05-0.685D-03-0.209D-03 0.176D-01-0.164D-01-0.226D+00
 Coeff-Com:  0.123D+01
 Coeff:     -0.612D-05-0.685D-03-0.209D-03 0.176D-01-0.164D-01-0.226D+00
 Coeff:      0.123D+01
 Gap=     0.504 Goal=   None    Shift=    0.000
 Gap=     0.178 Goal=   None    Shift=    0.000
 RMSDP=1.72D-07 MaxDP=1.78D-06 DE=-2.13D-09 OVMax= 2.06D-05

 Cycle   8  Pass 1  IDiag  1:
 E= -78.0223644891944     Delta-E=       -0.000000000188 Rises=F Damp=F
 DIIS: error= 1.14D-06 at cycle   8 NSaved=   8.
 NSaved= 8 IEnMin= 8 EnMin= -78.0223644891944     IErMin= 8 ErrMin= 1.14D-06
 ErrMax= 1.14D-06  0.00D+00 EMaxC= 1.00D-01 BMatC= 2.49D-11 BMatP= 1.08D-10
 IDIUse=1 WtCom= 1.00D+00 WtEn= 0.00D+00
 Coeff-Com:  0.850D-05 0.304D-03-0.167D-03-0.111D-01 0.227D-01 0.121D+00
 Coeff-Com: -0.115D+01 0.201D+01
 Coeff:      0.850D-05 0.304D-03-0.167D-03-0.111D-01 0.227D-01 0.121D+00
 Coeff:     -0.115D+01 0.201D+01
 Gap=     0.504 Goal=   None    Shift=    0.000
 Gap=     0.178 Goal=   None    Shift=    0.000
 RMSDP=1.32D-07 MaxDP=1.19D-06 DE=-1.88D-10 OVMax= 1.85D-05

 Cycle   9  Pass 1  IDiag  1:
 E= -78.0223644892626     Delta-E=       -0.000000000068 Rises=F Damp=F
 DIIS: error= 2.58D-07 at cycle   9 NSaved=   9.
 NSaved= 9 IEnMin= 9 EnMin= -78.0223644892626     IErMin= 9 ErrMin= 2.58D-07
 ErrMax= 2.58D-07  0.00D+00 EMaxC= 1.00D-01 BMatC= 1.39D-12 BMatP= 2.49D-11
 IDIUse=1 WtCom= 1.00D+00 WtEn= 0.00D+00
 Coeff-Com: -0.217D-05 0.585D-05 0.101D-03 0.876D-03-0.471D-02-0.419D-02
 Coeff-Com:  0.175D+00-0.587D+00 0.142D+01
 Coeff:     -0.217D-05 0.585D-05 0.101D-03 0.876D-03-0.471D-02-0.419D-02
 Coeff:      0.175D+00-0.587D+00 0.142D+01
 Gap=     0.504 Goal=   None    Shift=    0.000
 Gap=     0.178 Goal=   None    Shift=    0.000
 RMSDP=3.66D-08 MaxDP=3.34D-07 DE=-6.82D-11 OVMax= 5.08D-06

 Cycle  10  Pass 1  IDiag  1:
 E= -78.0223644892663     Delta-E=       -0.000000000004 Rises=F Damp=F
 DIIS: error= 1.52D-08 at cycle  10 NSaved=  10.
 NSaved=10 IEnMin=10 EnMin= -78.0223644892663     IErMin=10 ErrMin= 1.52D-08
 ErrMax= 1.52D-08  0.00D+00 EMaxC= 1.00D-01 BMatC= 1.13D-14 BMatP= 1.39D-12
 IDIUse=1 WtCom= 1.00D+00 WtEn= 0.00D+00
 Coeff-Com: -0.133D-06-0.290D-05 0.149D-06 0.119D-03-0.206D-03-0.164D-02
 Coeff-Com:  0.123D-01-0.284D-01-0.243D-01 0.104D+01
 Coeff:     -0.133D-06-0.290D-05 0.149D-06 0.119D-03-0.206D-03-0.164D-02
 Coeff:      0.123D-01-0.284D-01-0.243D-01 0.104D+01
 Gap=     0.504 Goal=   None    Shift=    0.000
 Gap=     0.178 Goal=   None    Shift=    0.000
 RMSDP=2.82D-09 MaxDP=2.43D-08 DE=-3.68D-12 OVMax= 3.57D-07

 SCF Done:  E(UM062X) =  -78.0223644893     A.U. after   10 cycles
            NFock= 10  Conv=0.28D-08     -V/T= 1.9896
 <Sx>= 0.0000 <Sy>= 0.0000 <Sz>= 0.5000 <S**2>= 0.7556 S= 0.5028
 <L.S>=  0.00000000000    
 KE= 7.884174764452D+01 PE=-2.512697096969D+02 EE= 5.722785572818D+01
 Annihilation of the first spin contaminant:
 S**2 before annihilation     0.7556,   after     0.7500
 Leave Link  502 at Tue Nov 19 10:50:39 2024, MaxMem=   536870912 cpu:              45.8 elap:               5.8
 (Enter /home/szhao/Apps/g16/l701.exe)
 ... and contract with generalized density number  0.
 Compute integral first derivatives.
 Leave Link  701 at Tue Nov 19 10:50:39 2024, MaxMem=   536870912 cpu:               0.7 elap:               0.1
 (Enter /home/szhao/Apps/g16/l702.exe)
 L702 exits ... SP integral derivatives will be done elsewhere.
 Leave Link  702 at Tue Nov 19 10:50:39 2024, MaxMem=   536870912 cpu:               0.3 elap:               0.0
 (Enter /home/szhao/Apps/g16/l703.exe)
 Integral derivatives from FoFJK, PRISM(SPDF).
 Compute integral first derivatives, UseDBF=F ICtDFT=           0.
 Calling FoFJK, ICntrl=      2127 FMM=F ISym2X=0 I1Cent= 0 IOpClX= 1 NMat=1 NMatS=1 NMatT=0.
 FoFJK:  IHMeth= 1 ICntrl=    2127 DoSepK=F KAlg= 0 I1Cent=           0 FoldK=F
 IRaf=         0 NMat=       1 IRICut=       1 DoRegI=T DoRafI=F ISym2E= 0 IDoP0=0 IntGTp=1.
 FoFCou: FMM=F IPFlag=           0 FMFlag=      100000 FMFlg1=         800
         NFxFlg=           0 DoJE=F BraDBF=F KetDBF=F FulRan=T
         wScrn=  0.000000 ICntrl=      2127 IOpCl=  1 I1Cent=           0 NGrid=           0
         NMat0=    1 NMatS0=      1 NMatT0=    0 NMatD0=    1 NMtDS0=    0 NMtDT0=    0
 Symmetry not used in FoFCou.
 Leave Link  703 at Tue Nov 19 10:50:40 2024, MaxMem=   536870912 cpu:               8.7 elap:               1.1
 (Enter /home/szhao/Apps/g16/l716.exe)
 Dipole        = 1.76142212D-10-1.31494815D-12 1.82317348D-13
 -------------------------------------------------------------------
 Center     Atomic                   Forces (Hartrees/Bohr)
 Number     Number              X              Y              Z
 -------------------------------------------------------------------
      1        6          -0.000000000   -0.000000000   -0.000000000
      2        6          -0.000000000   -0.000000000   -0.000000000
      3        1          -0.040088917   -0.017690514    0.000000000
      4        1          -0.039271406    0.017861200   -0.000000000
      5        1           0.040088917    0.017690514    0.000000000
      6        1           0.039271406   -0.017861200   -0.000000000
 -------------------------------------------------------------------
 Cartesian Forces:  Max     0.040088917 RMS     0.020497537
 Leave Link  716 at Tue Nov 19 10:50:40 2024, MaxMem=   536870912 cpu:               0.3 elap:               0.0
 (Enter /home/szhao/Apps/g16/l103.exe)

 GradGradGradGradGradGradGradGradGradGradGradGradGradGradGradGradGradGrad
 Berny optimization.
 Using GEDIIS/GDIIS optimizer.
 FormGI is forming the generalized inverse of G from B-inverse, IUseBI=4.
 Internal  Forces:  Max     0.079360324 RMS     0.032612208
 Search for a local minimum.
 Step number   2 out of a maximum of   30
 All quantities printed in internal units (Hartrees-Bohrs-Radians)
 RMS Force = .24889D-01 SwitMx=.10000D-02 MixMth= 1
 Mixed Optimization -- RFO/linear search
 Update second derivatives using D2CorX and points    1    2
 DE= -3.90D-02 DEPred=-3.84D-02 R= 1.02D+00
 TightC=F SS=  1.41D+00  RLast= 3.00D-01 DXNew= 5.0454D-01 9.0000D-01
 Trust test= 1.02D+00 RLast= 3.00D-01 DXMaxT set to 5.05D-01
 The second derivative matrix:
                          X1        Y1        Z1        X2        Y2
           X1           0.63069
           Y1           0.00186   0.50003
           Z1           0.00000   0.00000   0.50000
           X2          -0.13069  -0.00186  -0.00000   0.63069
           Y2          -0.00186  -0.00003  -0.00000   0.00186   0.50003
           Z2          -0.00000  -0.00000  -0.00000   0.00000   0.00000
           R1          -0.11147  -0.00159  -0.00000   0.11147   0.00159
           R2          -0.10813  -0.00154  -0.00000   0.10813   0.00154
           R3          -0.11147  -0.00159  -0.00000   0.11147   0.00159
           R4          -0.10813  -0.00154  -0.00000   0.10813   0.00154
           A1          -0.01422  -0.00020  -0.00000   0.01422   0.00020
           A2          -0.01312  -0.00019  -0.00000   0.01312   0.00019
           A3           0.02734   0.00039   0.00000  -0.02734  -0.00039
           A4          -0.01422  -0.00020  -0.00000   0.01422   0.00020
           A5          -0.01312  -0.00019  -0.00000   0.01312   0.00019
           A6           0.02734   0.00039   0.00000  -0.02734  -0.00039
           D1           0.00000   0.00000   0.00000  -0.00000  -0.00000
           D2           0.00000   0.00000   0.00000  -0.00000  -0.00000
           D3           0.00000   0.00000   0.00000  -0.00000  -0.00000
           D4           0.00000   0.00000   0.00000  -0.00000  -0.00000
                          Z2        R1        R2        R3        R4
           Z2           0.50000
           R1           0.00000   0.44921
           R2           0.00000   0.01763   0.44288
           R3           0.00000   0.01862   0.01763   0.44921
           R4           0.00000   0.01763   0.01668   0.01763   0.44288
           A1           0.00000  -0.00598  -0.00591  -0.00598  -0.00591
           A2           0.00000  -0.00586  -0.00578  -0.00586  -0.00578
           A3          -0.00000   0.01184   0.01169   0.01184   0.01169
           A4           0.00000  -0.00598  -0.00591  -0.00598  -0.00591
           A5           0.00000  -0.00586  -0.00578  -0.00586  -0.00578
           A6          -0.00000   0.01184   0.01169   0.01184   0.01169
           D1          -0.00000  -0.00000  -0.00000  -0.00000  -0.00000
           D2          -0.00000  -0.00000  -0.00000  -0.00000  -0.00000
           D3          -0.00000  -0.00000  -0.00000  -0.00000  -0.00000
           D4          -0.00000  -0.00000  -0.00000  -0.00000  -0.00000
                          A1        A2        A3        A4        A5
           A1           0.15726
           A2          -0.00261   0.15752
           A3           0.00535   0.00510   0.14955
           A4          -0.00274  -0.00261   0.00535   0.15726
           A5          -0.00261  -0.00248   0.00510  -0.00261   0.15752
           A6           0.00535   0.00510  -0.01045   0.00535   0.00510
           D1          -0.00000  -0.00000   0.00000  -0.00000  -0.00000
           D2          -0.00000  -0.00000   0.00000  -0.00000  -0.00000
           D3          -0.00000  -0.00000   0.00000  -0.00000  -0.00000
           D4          -0.00000  -0.00000   0.00000  -0.00000  -0.00000
                          A6        D1        D2        D3        D4
           A6           0.14955
           D1           0.00000   0.06021
           D2           0.00000   0.00000   0.06021
           D3           0.00000   0.00000   0.00000   0.06021
           D4           0.00000   0.00000   0.00000   0.00000   0.06021
 ITU=  1  0
 Use linear search instead of GDIIS.
 Linear search step of   0.506 exceeds DXMaxT=   0.505 but not scaled.
 Quartic linear search produced a step of  1.68668.
 Iteration  1 RMS(Cart)=  0.12127988 RMS(Int)=  0.01098724
 Iteration  2 RMS(Cart)=  0.01367255 RMS(Int)=  0.00009510
 Iteration  3 RMS(Cart)=  0.00009984 RMS(Int)=  0.00000000
 Iteration  4 RMS(Cart)=  0.00000000 RMS(Int)=  0.00000000
 ITry= 1 IFail=0 DXMaxC= 2.91D-01 DCOld= 1.00D+10 DXMaxT= 5.05D-01 DXLimC= 3.00D+00 Rises=F
 Variable       Old X    -DE/DX   Delta X   Delta X   Delta X     New X
                                 (Linear)    (Quad)   (Total)
    X1       -1.04195  -0.07936   0.00000   0.00000   0.00000  -1.04195
    Y1        0.00000   0.00111   0.00000   0.00000   0.00000   0.00000
    Z1        0.00000   0.00000   0.00000   0.00000   0.00000   0.00000
    X2        1.04195   0.07936   0.00000   0.00000   0.00000   1.04195
    Y2        0.00000  -0.00111   0.00000   0.00000   0.00000   0.00000
    Z2        0.00000  -0.00000   0.00000   0.00000   0.00000   0.00000
    R1        2.04562   0.03476   0.17314   0.00000   0.17314   2.21876
    R2        2.04961   0.03432   0.17068   0.00000   0.17068   2.22029
    R3        2.04562   0.03476   0.17314   0.00000   0.17314   2.21876
    R4        2.04961   0.03432   0.17068   0.00000   0.17068   2.22029
    A1        2.07153   0.01851   0.11039   0.00000   0.11039   2.18192
    A2        2.06365   0.01754   0.10391   0.00000   0.10391   2.16755
    A3        2.14801  -0.03605  -0.21430   0.00000  -0.21430   1.93371
    A4        2.07153   0.01851   0.11039   0.00000   0.11039   2.18192
    A5        2.06365   0.01754   0.10391   0.00000   0.10391   2.16755
    A6        2.14801  -0.03605  -0.21430   0.00000  -0.21430   1.93371
    D1        3.14159   0.00000   0.00000   0.00000   0.00000   3.14159
    D2        0.00000   0.00000   0.00000   0.00000   0.00000   0.00000
    D3        0.00000   0.00000   0.00000   0.00000   0.00000   0.00000
    D4        3.14159   0.00000   0.00000   0.00000   0.00000   3.14159
         Item               Value     Threshold  Converged?
 Maximum Force            0.036052     0.000450     NO 
 RMS     Force            0.024889     0.000300     NO 
 Maximum Displacement     0.291063     0.001800     NO 
 RMS     Displacement     0.127850     0.001200     NO 
 Predicted change in Energy=-1.377689D-02
 Lowest energy point so far.  Saving SCF results.
 GradGradGradGradGradGradGradGradGradGradGradGradGradGradGradGradGradGrad

 Leave Link  103 at Tue Nov 19 10:50:40 2024, MaxMem=   536870912 cpu:               0.0 elap:               0.0
 (Enter /home/szhao/Apps/g16/l202.exe)
                          Input orientation:                          
 ---------------------------------------------------------------------
 Center     Atomic      Atomic             Coordinates (Angstroms)
 Number     Number       Type             X           Y           Z
 ---------------------------------------------------------------------
      1          6           0       -0.551376    0.000000    0.000000
      2          6           0        0.551376    0.000000    0.000000
      3          1           0       -1.225068   -0.961610    0.000000
      4          1           0       -1.211642    0.971854   -0.000000
      5          1           0        1.225068    0.961610   -0.000000
      6          1           0        1.211642   -0.971854   -0.000000
 ---------------------------------------------------------------------
                    Distance matrix (angstroms):
                    1          2          3          4          5
     1  C    0.000000
     2  C    1.102752   0.000000
     3  H    1.174119   2.020012   0.000000
     4  H    1.174926   2.013139   1.933511   0.000000
     5  H    2.020012   1.174119   3.114794   2.436731   0.000000
     6  H    2.013139   1.174926   2.436731   3.106493   1.933511
                    6
     6  H    0.000000
 Symmetry turned off by external request.
 Stoichiometry    C2H4(1+,2)
 Framework group  C2H[SGH(C2H4)]
 Deg. of freedom     5
 Full point group                 C2H     NOp   4
 Rotational constants (GHZ):         134.1367356          38.0540347          29.6441207
 Leave Link  202 at Tue Nov 19 10:50:40 2024, MaxMem=   536870912 cpu:               0.0 elap:               0.0
 (Enter /home/szhao/Apps/g16/l301.exe)
 Standard basis: 6-311+G(d,p) (5D, 7F)
 Ernie: Thresh=  0.10000D-02 Tol=  0.10000D-05 Strict=F.
    68 basis functions,   104 primitive gaussians,    70 cartesian basis functions
     8 alpha electrons        7 beta electrons
       nuclear repulsion energy        35.7083314007 Hartrees.
 IExCor= 4336 DFT=T Ex+Corr=M062X ExCW=0 ScaHFX=  0.540000
 ScaDFX=  1.000000  1.000000  1.000000  1.000000 ScalE2=  1.000000  1.000000
 IRadAn=      7 IRanWt=     -1 IRanGd=            0 ICorTp=0 IEmpDi=  4
 NAtoms=    6 NActive=    6 NUniq=    6 SFac= 1.00D+00 NAtFMM=   60 NAOKFM=F Big=F
 Integral buffers will be    131072 words long.
 Raffenetti 2 integral format.
 Two-electron integral symmetry is turned off.
 Leave Link  301 at Tue Nov 19 10:50:40 2024, MaxMem=   536870912 cpu:               0.3 elap:               0.0
 (Enter /home/szhao/Apps/g16/l302.exe)
 NPDir=0 NMtPBC=     1 NCelOv=     1 NCel=       1 NClECP=     1 NCelD=      1
         NCelK=      1 NCelE2=     1 NClLst=     1 CellRange=     0.0.
 One-electron integrals computed using PRISM.
 NBasis=    68 RedAO= T EigKep=  5.17D-05  NBF=    68
 NBsUse=    68 1.00D-06 EigRej= -1.00D+00 NBFU=    68
 Precomputing XC quadrature grid using
 IXCGrd= 4 IRadAn=           7 IRanWt=          -1 IRanGd=           0 AccXCQ= 0.00D+00.
 Generated NRdTot=       0 NPtTot=           0 NUsed=           0 NTot=          32
 NSgBfM=    70    70    70    70    70 MxSgAt=     6 MxSgA2=     6.
 Leave Link  302 at Tue Nov 19 10:50:40 2024, MaxMem=   536870912 cpu:               1.0 elap:               0.1
 (Enter /home/szhao/Apps/g16/l303.exe)
 DipDrv:  MaxL=1.
 Leave Link  303 at Tue Nov 19 10:50:40 2024, MaxMem=   536870912 cpu:               0.3 elap:               0.0
 (Enter /home/szhao/Apps/g16/l401.exe)
 Initial guess from the checkpoint file:  "opt.chk"
 B after Tr=     0.000000   -0.000000    0.000000
         Rot=    1.000000    0.000000   -0.000000    0.000816 Ang=   0.09 deg.
 Guess basis will be translated and rotated to current coordinates.
 JPrj=2 DoOrth=T DoCkMO=T.
 Initial guess <Sx>= 0.0000 <Sy>= 0.0000 <Sz>= 0.5000 <S**2>= 0.7566 S= 0.5033
 Generating alternative initial guess.
 ExpMin= 4.38D-02 ExpMax= 4.56D+03 ExpMxC= 6.82D+02 IAcc=3 IRadAn=         5 AccDes= 0.00D+00
 Harris functional with IExCor= 1009 and IRadAn=       5 diagonalized for initial guess.
 HarFok:  IExCor= 1009 AccDes= 0.00D+00 IRadAn=         5 IDoV= 1 UseB2=F ITyADJ=14
 ICtDFT=  3500011 ScaDFX=  1.000000  1.000000  1.000000  1.000000
 FoFCou: FMM=F IPFlag=           0 FMFlag=      100000 FMFlg1=           0
         NFxFlg=           0 DoJE=T BraDBF=F KetDBF=T FulRan=T
         wScrn=  0.000000 ICntrl=       500 IOpCl=  0 I1Cent=   200000004 NGrid=           0
         NMat0=    1 NMatS0=      1 NMatT0=    0 NMatD0=    1 NMtDS0=    0 NMtDT0=    0
 Symmetry not used in FoFCou.
 Harris En= -78.1362542103029    
 Leave Link  401 at Tue Nov 19 10:50:41 2024, MaxMem=   536870912 cpu:               1.9 elap:               0.2
 (Enter /home/szhao/Apps/g16/l502.exe)
 Keep R1 and R2 ints in memory in canonical form, NReq=12681614.
 FoFCou: FMM=F IPFlag=           0 FMFlag=           0 FMFlg1=           0
         NFxFlg=           0 DoJE=F BraDBF=F KetDBF=F FulRan=T
         wScrn=  0.000000 ICntrl=       600 IOpCl=  0 I1Cent=           0 NGrid=           0
         NMat0=    1 NMatS0=   2346 NMatT0=    0 NMatD0=    1 NMtDS0=    0 NMtDT0=    0
 Symmetry not used in FoFCou.
 Two-electron integral symmetry not used.
 UHF open shell SCF:
 Using DIIS extrapolation, IDIIS=  1040.
 NGot=   536870912 LenX=   531353794 LenY=   531348453
 Requested convergence on RMS density matrix=1.00D-08 within 128 cycles.
 Requested convergence on MAX density matrix=1.00D-06.
 Requested convergence on             energy=1.00D-06.
 No special actions if energy rises.

 Cycle   1  Pass 1  IDiag  1:
 E= -78.0377102098969    
 DIIS: error= 1.52D-02 at cycle   1 NSaved=   1.
 NSaved= 1 IEnMin= 1 EnMin= -78.0377102098969     IErMin= 1 ErrMin= 1.52D-02
 ErrMax= 1.52D-02  0.00D+00 EMaxC= 1.00D-01 BMatC= 2.43D-02 BMatP= 2.43D-02
 IDIUse=3 WtCom= 8.48D-01 WtEn= 1.52D-01
 Coeff-Com:  0.100D+01
 Coeff-En:   0.100D+01
 Coeff:      0.100D+01
 Recover alternate guess density for next cycle.
 RMSDP=2.43D-03 MaxDP=5.10D-02              OVMax= 0.00D+00

 Cycle   2  Pass 1  IDiag  1:
 E= -77.9516064832420     Delta-E=        0.086103726655 Rises=F Damp=F
 Switch densities from cycles 1 and 2 for lowest energy.
 DIIS: error= 6.11D-02 at cycle   2 NSaved=   2.
 NSaved= 2 IEnMin= 1 EnMin= -78.0377102098969     IErMin= 1 ErrMin= 1.52D-02
 ErrMax= 6.11D-02  0.00D+00 EMaxC= 1.00D+00 BMatC= 4.40D-01 BMatP= 2.43D-02
 IDIUse=1 WtCom= 1.00D+00 WtEn= 0.00D+00
 Coeff-Com:  0.100D+01-0.257D-02
 Coeff:      0.100D+01-0.257D-02
 Gap=     0.514 Goal=   None    Shift=    0.000
 Gap=     0.195 Goal=   None    Shift=    0.000
 RMSDP=1.26D-03 MaxDP=1.58D-02 DE= 8.61D-02 OVMax= 1.27D-01

 Cycle   3  Pass 1  IDiag  1:
 E= -78.0432128198673     Delta-E=       -0.091606336625 Rises=F Damp=F
 DIIS: error= 3.36D-03 at cycle   3 NSaved=   3.
 NSaved= 3 IEnMin= 3 EnMin= -78.0432128198673     IErMin= 3 ErrMin= 3.36D-03
 ErrMax= 3.36D-03  0.00D+00 EMaxC= 1.00D+00 BMatC= 1.10D-03 BMatP= 2.43D-02
 IDIUse=1 WtCom= 1.00D+00 WtEn= 0.00D+00
 Coeff-Com: -0.286D-01 0.431D-01 0.986D+00
 Coeff:     -0.286D-01 0.431D-01 0.986D+00
 Gap=     0.498 Goal=   None    Shift=    0.000
 Gap=     0.197 Goal=   None    Shift=    0.000
 RMSDP=2.22D-04 MaxDP=4.75D-03 DE=-9.16D-02 OVMax= 7.18D-03

 Cycle   4  Pass 1  IDiag  1:
 E= -78.0435035422057     Delta-E=       -0.000290722338 Rises=F Damp=F
 DIIS: error= 8.51D-04 at cycle   4 NSaved=   4.
 NSaved= 4 IEnMin= 4 EnMin= -78.0435035422057     IErMin= 4 ErrMin= 8.51D-04
 ErrMax= 8.51D-04  0.00D+00 EMaxC= 1.00D+00 BMatC= 3.14D-05 BMatP= 1.10D-03
 IDIUse=1 WtCom= 1.00D+00 WtEn= 0.00D+00
 Coeff-Com: -0.692D-02-0.310D-02 0.621D-01 0.948D+00
 Coeff:     -0.692D-02-0.310D-02 0.621D-01 0.948D+00
 Gap=     0.497 Goal=   None    Shift=    0.000
 Gap=     0.197 Goal=   None    Shift=    0.000
 RMSDP=3.50D-05 MaxDP=6.18D-04 DE=-2.91D-04 OVMax= 1.63D-03

 Cycle   5  Pass 1  IDiag  1:
 E= -78.0435149761113     Delta-E=       -0.000011433906 Rises=F Damp=F
 DIIS: error= 1.49D-04 at cycle   5 NSaved=   5.
 NSaved= 5 IEnMin= 5 EnMin= -78.0435149761113     IErMin= 5 ErrMin= 1.49D-04
 ErrMax= 1.49D-04  0.00D+00 EMaxC= 1.00D+00 BMatC= 1.45D-06 BMatP= 3.14D-05
 IDIUse=1 WtCom= 1.00D+00 WtEn= 0.00D+00
 Coeff-Com:  0.212D-02-0.825D-03-0.515D-01-0.180D+00 0.123D+01
 Coeff:      0.212D-02-0.825D-03-0.515D-01-0.180D+00 0.123D+01
 Gap=     0.497 Goal=   None    Shift=    0.000
 Gap=     0.197 Goal=   None    Shift=    0.000
 RMSDP=1.31D-05 MaxDP=2.68D-04 DE=-1.14D-05 OVMax= 5.82D-04

 Cycle   6  Pass 1  IDiag  1:
 E= -78.0435160639649     Delta-E=       -0.000001087854 Rises=F Damp=F
 DIIS: error= 2.88D-05 at cycle   6 NSaved=   6.
 NSaved= 6 IEnMin= 6 EnMin= -78.0435160639649     IErMin= 6 ErrMin= 2.88D-05
 ErrMax= 2.88D-05  0.00D+00 EMaxC= 1.00D+00 BMatC= 8.91D-08 BMatP= 1.45D-06
 IDIUse=1 WtCom= 1.00D+00 WtEn= 0.00D+00
 Coeff-Com:  0.218D-04 0.378D-03 0.906D-02-0.195D-01-0.295D+00 0.130D+01
 Coeff:      0.218D-04 0.378D-03 0.906D-02-0.195D-01-0.295D+00 0.130D+01
 Gap=     0.497 Goal=   None    Shift=    0.000
 Gap=     0.197 Goal=   None    Shift=    0.000
 RMSDP=4.39D-06 MaxDP=6.05D-05 DE=-1.09D-06 OVMax= 1.56D-04

 Cycle   7  Pass 1  IDiag  1:
 E= -78.0435161353534     Delta-E=       -0.000000071389 Rises=F Damp=F
 DIIS: error= 3.97D-06 at cycle   7 NSaved=   7.
 NSaved= 7 IEnMin= 7 EnMin= -78.0435161353534     IErMin= 7 ErrMin= 3.97D-06
 ErrMax= 3.97D-06  0.00D+00 EMaxC= 1.00D+00 BMatC= 1.44D-09 BMatP= 8.91D-08
 IDIUse=1 WtCom= 1.00D+00 WtEn= 0.00D+00
 Coeff-Com: -0.272D-04-0.228D-04 0.103D-02 0.463D-02-0.195D-01-0.578D-01
 Coeff-Com:  0.107D+01
 Coeff:     -0.272D-04-0.228D-04 0.103D-02 0.463D-02-0.195D-01-0.578D-01
 Coeff:      0.107D+01
 Gap=     0.497 Goal=   None    Shift=    0.000
 Gap=     0.197 Goal=   None    Shift=    0.000
 RMSDP=4.80D-07 MaxDP=7.48D-06 DE=-7.14D-08 OVMax= 1.77D-05

 Cycle   8  Pass 1  IDiag  1:
 E= -78.0435161361536     Delta-E=       -0.000000000800 Rises=F Damp=F
 DIIS: error= 6.45D-07 at cycle   8 NSaved=   8.
 NSaved= 8 IEnMin= 8 EnMin= -78.0435161361536     IErMin= 8 ErrMin= 6.45D-07
 ErrMax= 6.45D-07  0.00D+00 EMaxC= 1.00D+00 BMatC= 1.94D-11 BMatP= 1.44D-09
 IDIUse=1 WtCom= 1.00D+00 WtEn= 0.00D+00
 Coeff-Com:  0.176D-05-0.168D-05-0.254D-03-0.156D-04 0.791D-02-0.231D-01
 Coeff-Com: -0.742D-01 0.109D+01
 Coeff:      0.176D-05-0.168D-05-0.254D-03-0.156D-04 0.791D-02-0.231D-01
 Coeff:     -0.742D-01 0.109D+01
 Gap=     0.497 Goal=   None    Shift=    0.000
 Gap=     0.197 Goal=   None    Shift=    0.000
 RMSDP=5.42D-08 MaxDP=7.00D-07 DE=-8.00D-10 OVMax= 2.21D-06

 Cycle   9  Pass 1  IDiag  1:
 E= -78.0435161361630     Delta-E=       -0.000000000009 Rises=F Damp=F
 DIIS: error= 7.70D-08 at cycle   9 NSaved=   9.
 NSaved= 9 IEnMin= 9 EnMin= -78.0435161361630     IErMin= 9 ErrMin= 7.70D-08
 ErrMax= 7.70D-08  0.00D+00 EMaxC= 1.00D+00 BMatC= 2.29D-13 BMatP= 1.94D-11
 IDIUse=1 WtCom= 1.00D+00 WtEn= 0.00D+00
 Coeff-Com:  0.711D-07 0.350D-06 0.247D-04-0.567D-04-0.904D-03 0.426D-02
 Coeff-Com: -0.461D-02-0.132D+00 0.113D+01
 Coeff:      0.711D-07 0.350D-06 0.247D-04-0.567D-04-0.904D-03 0.426D-02
 Coeff:     -0.461D-02-0.132D+00 0.113D+01
 Gap=     0.497 Goal=   None    Shift=    0.000
 Gap=     0.197 Goal=   None    Shift=    0.000
 RMSDP=7.72D-09 MaxDP=1.04D-07 DE=-9.44D-12 OVMax= 3.99D-07

 SCF Done:  E(UM062X) =  -78.0435161362     A.U. after    9 cycles
            NFock=  9  Conv=0.77D-08     -V/T= 1.9955
 <Sx>= 0.0000 <Sy>= 0.0000 <Sz>= 0.5000 <S**2>= 0.7578 S= 0.5039
 <L.S>=  0.00000000000    
 KE= 7.839440845334D+01 PE=-2.482620796319D+02 EE= 5.611582364168D+01
 Annihilation of the first spin contaminant:
 S**2 before annihilation     0.7578,   after     0.7500
 Leave Link  502 at Tue Nov 19 10:50:46 2024, MaxMem=   536870912 cpu:              44.0 elap:               5.6
 (Enter /home/szhao/Apps/g16/l701.exe)
 ... and contract with generalized density number  0.
 Compute integral first derivatives.
 Leave Link  701 at Tue Nov 19 10:50:46 2024, MaxMem=   536870912 cpu:               0.7 elap:               0.1
 (Enter /home/szhao/Apps/g16/l702.exe)
 L702 exits ... SP integral derivatives will be done elsewhere.
 Leave Link  702 at Tue Nov 19 10:50:46 2024, MaxMem=   536870912 cpu:               0.3 elap:               0.0
 (Enter /home/szhao/Apps/g16/l703.exe)
 Integral derivatives from FoFJK, PRISM(SPDF).
 Compute integral first derivatives, UseDBF=F ICtDFT=           0.
 Calling FoFJK, ICntrl=      2127 FMM=F ISym2X=0 I1Cent= 0 IOpClX= 1 NMat=1 NMatS=1 NMatT=0.
 FoFJK:  IHMeth= 1 ICntrl=    2127 DoSepK=F KAlg= 0 I1Cent=           0 FoldK=F
 IRaf=         0 NMat=       1 IRICut=       1 DoRegI=T DoRafI=F ISym2E= 0 IDoP0=0 IntGTp=1.
 FoFCou: FMM=F IPFlag=           0 FMFlag=      100000 FMFlg1=         800
         NFxFlg=           0 DoJE=F BraDBF=F KetDBF=F FulRan=T
         wScrn=  0.000000 ICntrl=      2127 IOpCl=  1 I1Cent=           0 NGrid=           0
         NMat0=    1 NMatS0=      1 NMatT0=    0 NMatD0=    1 NMtDS0=    0 NMtDT0=    0
 Symmetry not used in FoFCou.
 Leave Link  703 at Tue Nov 19 10:50:47 2024, MaxMem=   536870912 cpu:               8.2 elap:               1.0
 (Enter /home/szhao/Apps/g16/l716.exe)
 Dipole        = 3.90379462D-09-2.17756924D-11 1.79062799D-13
 -------------------------------------------------------------------
 Center     Atomic                   Forces (Hartrees/Bohr)
 Number     Number              X              Y              Z
 -------------------------------------------------------------------
      1        6          -0.000000000   -0.000000000   -0.000000000
      2        6          -0.000000000   -0.000000000   -0.000000000
      3        1           0.001053047    0.022733631    0.000000000
      4        1           0.000323290   -0.022027953   -0.000000000
      5        1          -0.001053047   -0.022733631    0.000000000
      6        1          -0.000323290    0.022027953   -0.000000000
 -------------------------------------------------------------------
 Cartesian Forces:  Max     0.022733631 RMS     0.010558104
 Leave Link  716 at Tue Nov 19 10:50:47 2024, MaxMem=   536870912 cpu:               0.3 elap:               0.0
 (Enter /home/szhao/Apps/g16/l103.exe)

 GradGradGradGradGradGradGradGradGradGradGradGradGradGradGradGradGradGrad
 Berny optimization.
 Using GEDIIS/GDIIS optimizer.
 FormGI is forming the generalized inverse of G from B-inverse, IUseBI=4.
 Internal  Forces:  Max     0.019223194 RMS     0.010933139
 Search for a local minimum.
 Step number   3 out of a maximum of   30
 All quantities printed in internal units (Hartrees-Bohrs-Radians)
 RMS Force = .13053D-01 SwitMx=.10000D-02 MixMth= 1
 Mixed Optimization -- RFO/linear search
 Update second derivatives using D2CorX and points    2    3
 The second derivative matrix:
                          X1        Y1        Z1        X2        Y2
           X1           0.63490
           Y1          -0.00045   0.50000
           Z1          -0.00000   0.00000   0.50000
           X2          -0.13490   0.00045   0.00000   0.63490
           Y2           0.00045  -0.00000  -0.00000  -0.00045   0.50000
           Z2           0.00000  -0.00000  -0.00000  -0.00000   0.00000
           R1          -0.09021   0.00030   0.00000   0.09021  -0.00030
           R2          -0.08809   0.00029   0.00000   0.08809  -0.00029
           R3          -0.09021   0.00030   0.00000   0.09021  -0.00030
           R4          -0.08809   0.00029   0.00000   0.08809  -0.00029
           A1          -0.01580   0.00005   0.00000   0.01580  -0.00005
           A2          -0.01440   0.00005   0.00000   0.01440  -0.00005
           A3           0.03021  -0.00010  -0.00000  -0.03021   0.00010
           A4          -0.01580   0.00005   0.00000   0.01580  -0.00005
           A5          -0.01440   0.00005   0.00000   0.01440  -0.00005
           A6           0.03021  -0.00010  -0.00000  -0.03021   0.00010
           D1           0.00000  -0.00000  -0.00000  -0.00000   0.00000
           D2          -0.00000   0.00000   0.00000   0.00000  -0.00000
           D3           0.00000  -0.00000  -0.00000  -0.00000   0.00000
           D4          -0.00000   0.00000   0.00000   0.00000  -0.00000
                          Z2        R1        R2        R3        R4
           Z2           0.50000
           R1          -0.00000   0.41446
           R2          -0.00000  -0.01570   0.41093
           R3          -0.00000  -0.01614  -0.01570   0.41446
           R4          -0.00000  -0.01570  -0.01527  -0.01570   0.41093
           A1          -0.00000  -0.00755  -0.00735  -0.00755  -0.00735
           A2          -0.00000  -0.00742  -0.00723  -0.00742  -0.00723
           A3           0.00000   0.01496   0.01458   0.01496   0.01458
           A4          -0.00000  -0.00755  -0.00735  -0.00755  -0.00735
           A5          -0.00000  -0.00742  -0.00723  -0.00742  -0.00723
           A6           0.00000   0.01496   0.01458   0.01496   0.01458
[...]
           D1           0.00000  -0.00000   0.00000  -0.00000   0.00000
           D2           0.00000  -0.00000   0.00000  -0.00000   0.00000
           D3           0.00000  -0.00000   0.00000  -0.00000   0.00000
           D4           0.00000  -0.00000   0.00000  -0.00000   0.00000
                          Z2        R1        R2        R3        R4
           Z2           0.50000
           R1           0.00000   0.39118
           R2           0.00000  -0.03543   0.39439
           R3           0.00000  -0.03941  -0.03543   0.39118
           R4           0.00000  -0.03543  -0.03181  -0.03543   0.39439
           A1           0.00000   0.00196   0.00221   0.00196   0.00221
           A2           0.00000  -0.00117  -0.00069  -0.00117  -0.00069
           A3          -0.00000  -0.00078  -0.00152  -0.00078  -0.00152
           A4           0.00000   0.00196   0.00221   0.00196   0.00221
           A5           0.00000  -0.00117  -0.00069  -0.00117  -0.00069
           A6          -0.00000  -0.00078  -0.00152  -0.00078  -0.00152
           D1          -0.00000  -0.00000  -0.00000  -0.00000  -0.00000
           D2          -0.00000  -0.00000  -0.00000  -0.00000  -0.00000
           D3          -0.00000  -0.00000  -0.00000  -0.00000  -0.00000
           D4          -0.00000  -0.00000  -0.00000  -0.00000  -0.00000
                          A1        A2        A3        A4        A5
           A1           0.15376
           A2          -0.00677   0.15259
           A3           0.01301   0.01418   0.13281
           A4          -0.00624  -0.00677   0.01301   0.15376
           A5          -0.00677  -0.00741   0.01418  -0.00677   0.15259
           A6           0.01301   0.01418  -0.02719   0.01301   0.01418
           D1          -0.00000  -0.00000   0.00000  -0.00000  -0.00000
           D2          -0.00000  -0.00000   0.00000  -0.00000  -0.00000
           D3          -0.00000  -0.00000   0.00000  -0.00000  -0.00000
           D4          -0.00000  -0.00000   0.00000  -0.00000  -0.00000
                          A6        D1        D2        D3        D4
           A6           0.13281
           D1           0.00000   0.06021
           D2           0.00000   0.00000   0.06021
           D3           0.00000   0.00000   0.00000   0.06021
           D4           0.00000   0.00000   0.00000   0.00000   0.06021
 ITU=  1  1  1  0  1  0
     Eigenvalues ---    0.06021   0.06021   0.06021   0.07831   0.15965
     Eigenvalues ---    0.16000   0.16000   0.28647   0.42620   0.42825
     Eigenvalues ---    0.430591000.000001000.000001000.000001000.00000
     Eigenvalues --- 1000.000001000.000001000.000001000.000001000.00000
 En-DIIS/RFO-DIIS/Sim-DIIS IScMMF=       -3 using points:     6    5
 RFO step:  Lambda=-1.32208798D-07.
 NNeg= 0 NGDIIS= 2 SimSw=  2.50D-01 Rises=F DC= -1.41D-05 SmlDif=  1.00D-05
 NRisDI= 0 DoIntr=F SqrtH=F CThrHd= 10.0 CDAdj=  3.0
 RMS Error=  0.2292736008D-03 NUsed= 2 OKEnD=T EnDIS=F
 InvSVX:  RCond= 3.40D-05 Info=           0 Equed=N FErr=  1.16D-15 BErr=  8.86D-17
 DidBck=F Rises=F RFO-DIIS coefs:    1.07291   -0.07291
 Iteration  1 RMS(Cart)=  0.00033291 RMS(Int)=  0.00000008
 Iteration  2 RMS(Cart)=  0.00000008 RMS(Int)=  0.00000000
 ITry= 1 IFail=0 DXMaxC= 8.37D-04 DCOld= 1.00D+10 DXMaxT= 6.90D-01 DXLimC= 3.00D+00 Rises=F
 Variable       Old X    -DE/DX   Delta X   Delta X   Delta X     New X
                                 (Linear)    (Quad)   (Total)
    X1       -1.04195  -0.00011   0.00000   0.00000   0.00000  -1.04195
    Y1        0.00000  -0.00013   0.00000   0.00000   0.00000   0.00000
    Z1        0.00000   0.00000   0.00000   0.00000   0.00000   0.00000
    X2        1.04195   0.00011   0.00000   0.00000   0.00000   1.04195
    Y2        0.00000   0.00013   0.00000   0.00000   0.00000   0.00000
    Z2        0.00000  -0.00000   0.00000   0.00000   0.00000   0.00000
    R1        2.14097   0.00008   0.00031  -0.00006   0.00025   2.14122
    R2        2.14532   0.00002   0.00029  -0.00019   0.00011   2.14542
    R3        2.14097   0.00008   0.00031  -0.00006   0.00025   2.14122
    R4        2.14532   0.00002   0.00029  -0.00019   0.00011   2.14542
    A1        2.30147  -0.00002   0.00016  -0.00016   0.00000   2.30147
    A2        2.28580   0.00005   0.00018   0.00029   0.00047   2.28627
    A3        1.69592  -0.00004  -0.00035  -0.00013  -0.00048   1.69544
    A4        2.30147  -0.00002   0.00016  -0.00016   0.00000   2.30147
    A5        2.28580   0.00005   0.00018   0.00029   0.00047   2.28627
    A6        1.69592  -0.00004  -0.00035  -0.00013  -0.00048   1.69544
    D1        3.14159   0.00000   0.00000   0.00000   0.00000   3.14159
    D2        0.00000   0.00000   0.00000   0.00000   0.00000   0.00000
    D3        0.00000   0.00000   0.00000   0.00000  -0.00000   0.00000
    D4        3.14159   0.00000   0.00000   0.00000   0.00000   3.14159
         Item               Value     Threshold  Converged?
 Maximum Force            0.000080     0.000450     YES
 RMS     Force            0.000041     0.000300     YES
 Maximum Displacement     0.000837     0.001800     YES
 RMS     Displacement     0.000333     0.001200     YES
 Predicted change in Energy=-6.607494D-08
 Optimization completed.
    -- Stationary point found.
                           ----------------------------
                           !   Optimized Parameters   !
                           ! (Angstroms and Degrees)  !
 --------------------------                            --------------------------
 ! Name  Definition              Value          Derivative Info.                !
 --------------------------------------------------------------------------------
 ! X1    R(1,-1)                -0.5514         -DE/DX =   -0.0001              !
 ! Y1    R(1,-2)                 0.0            -DE/DX =   -0.0001              !
 ! Z1    R(1,-3)                 0.0            -DE/DX =    0.0                 !
 ! X2    R(2,-1)                 0.5514         -DE/DX =    0.0001              !
 ! Y2    R(2,-2)                 0.0            -DE/DX =    0.0001              !
 ! Z2    R(2,-3)                 0.0            -DE/DX =    0.0                 !
 ! R1    R(1,3)                  1.133          -DE/DX =    0.0001              !
 ! R2    R(1,4)                  1.1353         -DE/DX =    0.0                 !
 ! R3    R(2,5)                  1.133          -DE/DX =    0.0001              !
 ! R4    R(2,6)                  1.1353         -DE/DX =    0.0                 !
 ! A1    A(2,1,3)              131.8643         -DE/DX =    0.0                 !
 ! A2    A(2,1,4)              130.9667         -DE/DX =    0.0001              !
 ! A3    A(3,1,4)               97.169          -DE/DX =    0.0                 !
 ! A4    A(1,2,5)              131.8643         -DE/DX =    0.0                 !
 ! A5    A(1,2,6)              130.9667         -DE/DX =    0.0001              !
 ! A6    A(5,2,6)               97.169          -DE/DX =    0.0                 !
 ! D1    D(3,1,2,5)            180.0            -DE/DX =    0.0                 !
 ! D2    D(3,1,2,6)              0.0            -DE/DX =    0.0                 !
 ! D3    D(4,1,2,5)              0.0            -DE/DX =    0.0                 !
 ! D4    D(4,1,2,6)            180.0            -DE/DX =    0.0                 !
 --------------------------------------------------------------------------------
 Lowest energy point so far.  Saving SCF results.
 Largest change from initial coordinates is atom    3       0.323 Angstoms.
 GradGradGradGradGradGradGradGradGradGradGradGradGradGradGradGradGradGrad

 Leave Link  103 at Tue Nov 19 10:51:08 2024, MaxMem=   536870912 cpu:               0.0 elap:               0.0
 (Enter /home/szhao/Apps/g16/l202.exe)
                          Input orientation:                          
 ---------------------------------------------------------------------
 Center     Atomic      Atomic             Coordinates (Angstroms)
 Number     Number       Type             X           Y           Z
 ---------------------------------------------------------------------
      1          6           0       -0.551376    0.000000    0.000000
      2          6           0        0.551376    0.000000    0.000000
      3          1           0       -1.307473   -0.843742    0.000000
      4          1           0       -1.295671    0.857218   -0.000000
      5          1           0        1.307473    0.843742    0.000000
      6          1           0        1.295671   -0.857218   -0.000000
 ---------------------------------------------------------------------
                    Distance matrix (angstroms):
                    1          2          3          4          5
     1  C    0.000000
     2  C    1.102752   0.000000
     3  H    1.132954   2.041377   0.000000
     4  H    1.135253   2.036272   1.701001   0.000000
     5  H    2.041377   1.132954   3.112161   2.603179   0.000000
     6  H    2.036272   1.135253   2.603179   3.107144   1.701001
                    6
     6  H    0.000000
 Symmetry turned off by external request.
 Stoichiometry    C2H4(1+,2)
 Framework group  CS[SG(C2H4)]
 Deg. of freedom     9
 Full point group                 CS      NOp   2
 Rotational constants (GHZ):         173.3083230          35.7767368          29.6549465
 Leave Link  202 at Tue Nov 19 10:51:08 2024, MaxMem=   536870912 cpu:               0.0 elap:               0.0
 (Enter /home/szhao/Apps/g16/l601.exe)
 Copying SCF densities to generalized density rwf, IOpCl= 1 IROHF=0.

 **********************************************************************

            Population analysis using the SCF density.

 **********************************************************************

 Alpha  occ. eigenvalues --  -10.82767 -10.82201  -1.21995  -0.97533  -0.86137
 Alpha  occ. eigenvalues --   -0.85384  -0.68187  -0.67722
 Alpha virt. eigenvalues --   -0.18949  -0.15842  -0.15106  -0.13804  -0.10218
 Alpha virt. eigenvalues --   -0.08680  -0.07413  -0.06897  -0.03184  -0.02974
 Alpha virt. eigenvalues --   -0.00291   0.02189   0.12085   0.16365   0.20652
 Alpha virt. eigenvalues --    0.21389   0.26569   0.30518   0.33646   0.33917
 Alpha virt. eigenvalues --    0.42346   0.45775   0.48862   0.51846   0.54370
 Alpha virt. eigenvalues --    0.74462   0.86171   0.88896   0.91314   1.05706
 Alpha virt. eigenvalues --    1.24157   1.30557   1.37401   1.37572   1.38965
 Alpha virt. eigenvalues --    1.39529   1.40712   1.61970   1.71992   1.78586
 Alpha virt. eigenvalues --    1.80123   1.87007   2.05269   2.08674   2.09102
 Alpha virt. eigenvalues --    2.24486   2.30301   2.34638   2.40061   2.41455
 Alpha virt. eigenvalues --    2.52462   2.67514   2.69313   3.01546   3.09738
 Alpha virt. eigenvalues --    3.53442   3.54189   3.55847  23.39949  25.05620
  Beta  occ. eigenvalues --  -10.82759 -10.82178  -1.20721  -0.92753  -0.83166
  Beta  occ. eigenvalues --   -0.79779  -0.67805
  Beta virt. eigenvalues --   -0.46955  -0.18592  -0.15022  -0.14919  -0.13603
  Beta virt. eigenvalues --   -0.10069  -0.08581  -0.05360  -0.05355  -0.02711
  Beta virt. eigenvalues --   -0.02568   0.00082   0.02910   0.12470   0.16368
  Beta virt. eigenvalues --    0.20374   0.21643   0.27275   0.30531   0.33219
  Beta virt. eigenvalues --    0.34275   0.42398   0.46101   0.48654   0.51361
  Beta virt. eigenvalues --    0.53982   0.74886   0.86007   0.89202   0.92041
  Beta virt. eigenvalues --    1.05887   1.25514   1.30353   1.37192   1.37955
  Beta virt. eigenvalues --    1.38399   1.39178   1.40557   1.61722   1.73858
  Beta virt. eigenvalues --    1.78423   1.79813   1.86843   2.07203   2.08751
  Beta virt. eigenvalues --    2.10942   2.26620   2.29529   2.33984   2.39504
  Beta virt. eigenvalues --    2.40358   2.51997   2.66755   2.68996   3.02584
  Beta virt. eigenvalues --    3.09400   3.52638   3.53580   3.55760  23.39899
  Beta virt. eigenvalues --   25.05617
          Condensed to atoms (all electrons):
               1          2          3          4          5          6
     1  C    4.673887   0.855586   0.313242   0.312751   0.002884   0.001346
     2  C    0.855586   4.673887   0.002884   0.001346   0.313242   0.312751
     3  H    0.313242   0.002884   0.362695  -0.008030   0.001945  -0.002420
     4  H    0.312751   0.001346  -0.008030   0.364274  -0.002420   0.002065
     5  H    0.002884   0.313242   0.001945  -0.002420   0.362695  -0.008030
     6  H    0.001346   0.312751  -0.002420   0.002065  -0.008030   0.364274
          Atomic-Atomic Spin Densities.
               1          2          3          4          5          6
     1  C    0.129602  -0.122868   0.074736   0.075982  -0.017309  -0.018135
     2  C   -0.122868   0.129602  -0.017309  -0.018135   0.074736   0.075982
     3  H    0.074736  -0.017309   0.150372  -0.019067   0.001469  -0.004024
     4  H    0.075982  -0.018135  -0.019067   0.155477  -0.004024   0.001582
     5  H   -0.017309   0.074736   0.001469  -0.004024   0.150372  -0.019067
     6  H   -0.018135   0.075982  -0.004024   0.001582  -0.019067   0.155477
 Mulliken charges and spin densities:
               1          2
     1  C   -0.159697   0.122008
     2  C   -0.159697   0.122008
     3  H    0.329683   0.186177
     4  H    0.330014   0.191815
     5  H    0.329683   0.186177
     6  H    0.330014   0.191815
 Sum of Mulliken charges =   1.00000   1.00000
 Mulliken charges and spin densities with hydrogens summed into heavy atoms:
               1          2
     1  C    0.500000   0.500000
     2  C    0.500000   0.500000
 Electronic spatial extent (au):  <R**2>=             64.3340
 Charge=              1.0000 electrons
 Dipole moment (field-independent basis, Debye):
    X=             -0.0000    Y=              0.0000    Z=             -0.0000  Tot=              0.0000
 Quadrupole moment (field-independent basis, Debye-Ang):
   XX=             -2.2289   YY=             -7.4341   ZZ=            -12.8986
   XY=             -0.0338   XZ=              0.0000   YZ=             -0.0000
 Traceless Quadrupole moment (field-independent basis, Debye-Ang):
   XX=              5.2916   YY=              0.0864   ZZ=             -5.3781
   XY=             -0.0338   XZ=              0.0000   YZ=             -0.0000
 Octapole moment (field-independent basis, Debye-Ang**2):
  XXX=             -0.0000  YYY=             -0.0000  ZZZ=              0.0000  XYY=              0.0000
  XXY=              0.0000  XXZ=             -0.0000  XZZ=             -0.0000  YZZ=             -0.0000
  YYZ=             -0.0000  XYZ=              0.0000
 Hexadecapole moment (field-independent basis, Debye-Ang**3):
 XXXX=            -31.8612 YYYY=            -15.6227 ZZZZ=            -12.6643 XXXY=              0.1080
 XXXZ=              0.0000 YYYX=             -0.1081 YYYZ=             -0.0000 ZZZX=             -0.0000
 ZZZY=              0.0000 XXYY=             -2.1382 XXZZ=            -10.7405 YYZZ=             -5.5521
 XXYZ=             -0.0000 YYXZ=              0.0000 ZZXY=              0.0079
 N-N= 3.607214014444D+01 E-N=-2.490140081774D+02  KE= 7.854102955377D+01
                          Isotropic Fermi Contact Couplings
        Atom                 a.u.       MegaHertz       Gauss      10(-4) cm-1
     1  C(13)             -0.04719     -53.04580     -18.92806     -17.69417
     2  C(13)             -0.04719     -53.04581     -18.92806     -17.69418
     3  H(1)               0.10501     469.36263     167.48026     156.56252
     4  H(1)               0.10786     482.13961     172.03940     160.82446
     5  H(1)               0.10501     469.36263     167.48026     156.56252
     6  H(1)               0.10786     482.13961     172.03940     160.82446
 --------------------------------------------------------
       Center         ----  Spin Dipole Couplings  ----
                      3XX-RR        3YY-RR        3ZZ-RR
 --------------------------------------------------------
     1   Atom       -0.133874      0.276139     -0.142265
     2   Atom       -0.133874      0.276139     -0.142265
     3   Atom        0.027149     -0.002480     -0.024669
     4   Atom        0.025356     -0.000781     -0.024575
     5   Atom        0.027149     -0.002480     -0.024669
     6   Atom        0.025356     -0.000781     -0.024575
 --------------------------------------------------------
                        XY            XZ            YZ
 --------------------------------------------------------
     1   Atom       -0.002493     -0.000000      0.000000
     2   Atom       -0.002493      0.000000     -0.000000
     3   Atom        0.036483     -0.000000     -0.000000
     4   Atom       -0.037409      0.000000     -0.000000
     5   Atom        0.036483      0.000000      0.000000
     6   Atom       -0.037409     -0.000000      0.000000
 --------------------------------------------------------


 ---------------------------------------------------------------------------------
              Anisotropic Spin Dipole Couplings in Principal Axis System
 ---------------------------------------------------------------------------------

       Atom             a.u.   MegaHertz   Gauss  10(-4) cm-1        Axes

              Baa    -0.1423   -19.091    -6.812    -6.368  0.0000 -0.0000  1.0000
     1 C(13)  Bbb    -0.1339   -17.967    -6.411    -5.993  1.0000  0.0061 -0.0000
              Bcc     0.2762    37.057    13.223    12.361 -0.0061  1.0000  0.0000
 
              Baa    -0.1423   -19.091    -6.812    -6.368 -0.0000  0.0000  1.0000
     2 C(13)  Bbb    -0.1339   -17.967    -6.411    -5.993  1.0000  0.0061  0.0000
              Bcc     0.2762    37.057    13.223    12.361 -0.0061  1.0000 -0.0000
 
              Baa    -0.0270   -14.428    -5.148    -4.813 -0.5585  0.8295  0.0000
     3 H(1)   Bbb    -0.0247   -13.162    -4.697    -4.390  0.0000  0.0000  1.0000
              Bcc     0.0517    27.590     9.845     9.203  0.8295  0.5585 -0.0000
 
              Baa    -0.0273   -14.586    -5.205    -4.866  0.5789  0.8154 -0.0000
     4 H(1)   Bbb    -0.0246   -13.112    -4.679    -4.374 -0.0000  0.0000  1.0000
              Bcc     0.0519    27.698     9.883     9.239  0.8154 -0.5789  0.0000
 
              Baa    -0.0270   -14.428    -5.148    -4.813 -0.5585  0.8295 -0.0000
     5 H(1)   Bbb    -0.0247   -13.162    -4.697    -4.390 -0.0000 -0.0000  1.0000
              Bcc     0.0517    27.590     9.845     9.203  0.8295  0.5585  0.0000
 
              Baa    -0.0273   -14.586    -5.205    -4.866  0.5789  0.8154 -0.0000
     6 H(1)   Bbb    -0.0246   -13.112    -4.679    -4.374  0.0000 -0.0000  1.0000
              Bcc     0.0519    27.698     9.883     9.239  0.8154 -0.5789 -0.0000
 

 ---------------------------------------------------------------------------------

 No NMR shielding tensors so no spin-rotation constants.
 Leave Link  601 at Tue Nov 19 10:51:08 2024, MaxMem=   536870912 cpu:               1.4 elap:               0.2
 (Enter /home/szhao/Apps/g16/l9999.exe)
 1\1\GINC-NODE01\FOpt\UM062X\6-311+G(d,p)\C2H4(1+,2)\SZHAO\19-Nov-2024\
 0\\#p opt UM062X/6-311+G** nosymm int=superfine\\Title Card Required\\
 1,2\C,-0.55137576,0.,0.\C,0.55137576,0.,0.\H,-1.3074733729,-0.84374194
 97,0.0000000012\H,-1.2956708236,0.8572184307,-0.0000000014\H,1.3074733
 741,0.843741987,0.0000000013\H,1.2956708252,-0.8572184669,-0.000000001
 3\\Version=ES64L-G16RevA.03\HF=-78.053097\S2=0.757344\S2-1=0.\S2A=0.75
 0029\RMSD=7.070e-09\RMSF=3.133e-05\Dipole=-0.0000001,0.,0.\Quadrupole=
 3.9342062,0.0642668,-3.998473,-0.0251332,0.,0.\PG=CS [SG(C2H4)]\\@


 THE PROBLEM WITH THE LADDER OF SUCCESS IS YOU CAN'T
 CLIMB IT WHILE YOU'RE TWIDDLING YOUR THUMBS.
 Job cpu time:       0 days  0 hours  5 minutes 49.7 seconds.
 Elapsed time:       0 days  0 hours  0 minutes 44.4 seconds.
 File lengths (MBytes):  RWF=     10 Int=      0 D2E=      0 Chk=      2 Scr=      1
 Normal termination of Gaussian 16 at Tue Nov 19 10:51:08 2024.
