 Entering Gaussian System, Link 0=g16
 Initial command:
 /home/szhao/Apps/g16/l1.exe "/home/szhao/tmp/Gau-96688.inp" -scrdir="/home/szhao/tmp/"
 Default is to use a total of  16 processors:
                               16 via shared-memory
                                1 via Linda
 Entering Link 1 = /home/szhao/Apps/g16/l1.exe PID=     96690.
  
 Copyright (c) 1988,1990,1992,1993,1995,1998,2003,2009,2016,
            Gaussian, Inc.  All Rights Reserved.
  
 This is part of the Gaussian(R) 16 program.  It is based on
 the Gaussian(R) 09 system (copyright 2009, Gaussian, Inc.),
 the Gaussian(R) 03 system (copyright 2003, Gaussian, Inc.),
 the Gaussian(R) 98 system (copyright 1998, Gaussian, Inc.),
 the Gaussian(R) 94 system (copyright 1995, Gaussian, Inc.),
 the Gaussian 92(TM) system (copyright 1992, Gaussian, Inc.),
 the Gaussian 90(TM) system (copyright 1990, Gaussian, Inc.),
 the Gaussian 88(TM) system (copyright 1988, Gaussian, Inc.),
 the Gaussian 86(TM) system (copyright 1986, Carnegie Mellon
 University), and the Gaussian 82(TM) system (copyright 1983,
 Carnegie Mellon University). Gaussian is a federally registered
 trademark of Gaussian, Inc.
  
 This software contains proprietary and confidential information,
 including trade secrets, belonging to Gaussian, Inc.
  
 This software is provided under written license and may be
 used, copied, transmitted, or stored only in accord with that
 written license.
  
 The following legend is applicable only to US Government
 contracts under FAR:
  
                    RESTRICTED RIGHTS LEGEND
  
 Use, reproduction and disclosure by the US Government is
 subject to restrictions as set forth in subparagraphs (a)
 and (c) of the Commercial Computer Software - Restricted
 Rights clause in FAR 52.227-19.
  
 Gaussian, Inc.
 340 Quinnipiac St., Bldg. 40, Wallingford CT 06492
  
  
 ---------------------------------------------------------------
 Warning -- This program may not be used in any manner that
 competes with the business of Gaussian, Inc. or will provide
 assistance to any competitor of Gaussian, Inc.  The licensee
 of this program is prohibited from giving any competitor of
 Gaussian, Inc. access to this program.  By using this program,
 the user acknowledges that Gaussian, Inc. is engaged in the
 business of creating and licensing software in the field of
 computational chemistry and represents and warrants to the
 licensee that it is not a competitor of Gaussian, Inc. and that
 it will not use this program in any manner prohibited above.
 ---------------------------------------------------------------
  

 Cite this work as:
 Gaussian 16, Revision A.03,
 M. J. Frisch, G. W. Trucks, H. B. Schlegel, G. E. Scuseria, 
 M. A. Robb, J. R. Cheeseman, G. Scalmani, V. Barone, 
 G. A. Petersson, H. Nakatsuji, X. Li, M. Caricato, A. V. Marenich, 
 J. Bloino, B. G. Janesko, R. Gomperts, B. Mennucci, H. P. Hratchian, 
 J. V. Ortiz, A. F. Izmaylov, J. L. Sonnenberg, D. Williams-Young, 
 F. Ding, F. Lipparini, F. Egidi, J. Goings, B. Peng, A. Petrone, 
 T. Henderson, D. Ranasinghe, V. G. Zakrzewski, J. Gao, N. Rega, 
 G. Zheng, W. Liang, M. Hada, M. Ehara, K. Toyota, R. Fukuda, 
 J. Hasegawa, M. Ishida, T. Nakajima, Y. Honda, O. Kitao, H. Nakai, 
 T. Vreven, K. Throssell, J. A. Montgomery, Jr., J. E. Peralta, 
 F. Ogliaro, M. J. Bearpark, J. J. Heyd, E. N. Brothers, K. N. Kudin, 
 V. N. Staroverov, T. A. Keith, R. Kobayashi, J. Normand, 
 K. Raghavachari, A. P. Rendell, J. C. Burant, S. S. Iyengar, 
 J. Tomasi, M. Cossi, J. M. Millam, M. Klene, C. Adamo, R. Cammi, 
 J. W. Ochterski, R. L. Martin, K. Morokuma, O. Farkas, 
 J. B. Foresman, and D. J. Fox, Gaussian, Inc., Wallingford CT, 2016.
 
 ******************************************
 Gaussian 16:  ES64L-G16RevA.03 25-Dec-2016
                19-Nov-2024 
 ******************************************
 %chk=opt.chk
 %mem=8GB
 %nprocshared=24
 Will use up to   24 processors via shared memory.
 ---------------------------------------
 #p UM062X/6-311+G** force int=superfine
 ---------------------------------------
 1/10=7,30=1,38=1/1,3;
 2/12=2,17=6,18=5,40=1/2;
 3/5=4,6=6,7=111,11=2,25=1,30=1,71=1,74=-55,75=-7,116=2/1,2,3;
 4//1;
 5/5=2,38=5/2;
 6/7=2,8=2,9=2,10=2,28=1/1;
 7/29=1/1,2,3,16;
 1/10=7,30=1/3;
 99//99;
 Leave Link    1 at Tue Nov 19 12:53:28 2024, MaxMem=  1073741824 cpu:               2.9 elap:               0.2
 (Enter /home/szhao/Apps/g16/l101.exe)
 -------------------
 Title Card Required
 -------------------
 Symbolic Z-matrix:
 Charge =  0 Multiplicity = 1
 C                    -1.09951   0.        0. 
 C                     1.09962   0.        0. 
 H                     1.3541   -0.91146   0.52742 
 H                    -1.35398  -0.91249  -0.52564 
 H                     1.3541    0.91249   0.52563 
 H                     1.35411  -0.00103  -1.05305 
 H                    -1.35399   0.91146  -0.52742 
 H                    -1.354     0.00103   1.05305 
 
 ITRead=  0  0  0  0  0  0  0  0
 MicOpt= -1 -1 -1 -1 -1 -1 -1 -1
 NAtoms=      8 NQM=        8 NQMF=       0 NMMI=      0 NMMIF=      0
                NMic=       0 NMicF=      0.
                    Isotopes and Nuclear Properties:
 (Nuclear quadrupole moments (NQMom) in fm**2, nuclear magnetic moments (NMagM)
  in nuclear magnetons)

  Atom         1           2           3           4           5           6           7           8
 IAtWgt=          12          12           1           1           1           1           1           1
 AtmWgt=  12.0000000  12.0000000   1.0078250   1.0078250   1.0078250   1.0078250   1.0078250   1.0078250
 NucSpn=           0           0           1           1           1           1           1           1
 AtZEff=  -0.0000000  -0.0000000  -0.0000000  -0.0000000  -0.0000000  -0.0000000  -0.0000000  -0.0000000
 NQMom=    0.0000000   0.0000000   0.0000000   0.0000000   0.0000000   0.0000000   0.0000000   0.0000000
 NMagM=    0.0000000   0.0000000   2.7928460   2.7928460   2.7928460   2.7928460   2.7928460   2.7928460
 AtZNuc=   6.0000000   6.0000000   1.0000000   1.0000000   1.0000000   1.0000000   1.0000000   1.0000000
 Leave Link  101 at Tue Nov 19 12:53:29 2024, MaxMem=  1073741824 cpu:               4.2 elap:               0.2
 (Enter /home/szhao/Apps/g16/l103.exe)

 GradGradGradGradGradGradGradGradGradGradGradGradGradGradGradGradGradGrad
 Berny optimization.
 Initialization pass.
 Trust Radius=3.00D-01 FncErr=1.00D-07 GrdErr=1.00D-07 EigMax=2.50D+02 EigMin=1.00D-04
 Number of steps in this run=      2 maximum allowed number of steps=      2.
 GradGradGradGradGradGradGradGradGradGradGradGradGradGradGradGradGradGrad

 Leave Link  103 at Tue Nov 19 12:53:29 2024, MaxMem=  1073741824 cpu:               1.3 elap:               0.1
 (Enter /home/szhao/Apps/g16/l202.exe)
                          Input orientation:                          
 ---------------------------------------------------------------------
 Center     Atomic      Atomic             Coordinates (Angstroms)
 Number     Number       Type             X           Y           Z
 ---------------------------------------------------------------------
      1          6           0       -1.099508    0.000000    0.000000
      2          6           0        1.099620    0.000000    0.000000
      3          1           0        1.354098   -0.911457    0.527416
      4          1           0       -1.353980   -0.912487   -0.525636
      5          1           0        1.354095    0.912487    0.525634
      6          1           0        1.354107   -0.001027   -1.053050
      7          1           0       -1.353985    0.911457   -0.527416
      8          1           0       -1.353997    0.001026    1.053049
 ---------------------------------------------------------------------
                    Distance matrix (angstroms):
                    1          2          3          4          5
     1  C    0.000000
     2  C    2.199128   0.000000
     3  H    2.670038   1.083365   0.000000
     4  H    1.083366   2.670033   2.905616   0.000000
     5  H    2.670036   1.083366   1.823945   3.430651   0.000000
     6  H    2.670045   1.083365   1.823940   2.905626   1.823938
     7  H    1.083365   2.670037   3.430656   1.823945   2.905617
     8  H    1.083364   2.670047   2.905631   1.823939   2.905631
                    6          7          8
     6  H    0.000000
     7  H    2.905629   0.000000
     8  H    3.430668   1.823939   0.000000
 This structure is nearly, but not quite of a higher symmetry.
 Consider Symm=Loose if the higher symmetry is desired.
 Stoichiometry    C2H6
 Framework group  C1[X(C2H6)]
 Deg. of freedom    18
 Full point group                 C1      NOp   1
 Largest Abelian subgroup         C1      NOp   1
 Largest concise Abelian subgroup C1      NOp   1
                         Standard orientation:                         
 ---------------------------------------------------------------------
 Center     Atomic      Atomic             Coordinates (Angstroms)
 Number     Number       Type             X           Y           Z
 ---------------------------------------------------------------------
      1          6           0        0.004691   -0.071576   -1.097222
      2          6           0       -0.004692    0.071576    1.097222
      3          1           0       -0.472607   -0.853908    1.410615
      4          1           0        0.589814   -0.962374   -1.291625
      5          1           0       -0.589812    0.962374    1.291628
      6          1           0        1.045087    0.155960    1.351236
      7          1           0        0.472607    0.853908   -1.410614
      8          1           0       -1.045086   -0.155961   -1.351238
 ---------------------------------------------------------------------
 Rotational constants (GHZ):          75.3668783          11.6295519          11.6295441
 Leave Link  202 at Tue Nov 19 12:53:29 2024, MaxMem=  1073741824 cpu:               0.7 elap:               0.0
 (Enter /home/szhao/Apps/g16/l301.exe)
 Standard basis: 6-311+G(d,p) (5D, 7F)
 Ernie: Thresh=  0.10000D-02 Tol=  0.10000D-05 Strict=F.
 There are    82 symmetry adapted cartesian basis functions of A   symmetry.
 There are    80 symmetry adapted basis functions of A   symmetry.
    80 basis functions,   120 primitive gaussians,    82 cartesian basis functions
     9 alpha electrons        9 beta electrons
       nuclear repulsion energy        36.6782635552 Hartrees.
 IExCor= 4336 DFT=T Ex+Corr=M062X ExCW=0 ScaHFX=  0.540000
 ScaDFX=  1.000000  1.000000  1.000000  1.000000 ScalE2=  1.000000  1.000000
 IRadAn=      7 IRanWt=     -1 IRanGd=            0 ICorTp=0 IEmpDi=  4
 NAtoms=    8 NActive=    8 NUniq=    8 SFac= 1.00D+00 NAtFMM=   60 NAOKFM=F Big=F
 Integral buffers will be    131072 words long.
 Raffenetti 2 integral format.
 Two-electron integral symmetry is turned on.
 Leave Link  301 at Tue Nov 19 12:53:29 2024, MaxMem=  1073741824 cpu:               1.6 elap:               0.1
 (Enter /home/szhao/Apps/g16/l302.exe)
 NPDir=0 NMtPBC=     1 NCelOv=     1 NCel=       1 NClECP=     1 NCelD=      1
         NCelK=      1 NCelE2=     1 NClLst=     1 CellRange=     0.0.
 One-electron integrals computed using PRISM.
 One-electron integral symmetry used in STVInt
 NBasis=    80 RedAO= T EigKep=  9.79D-04  NBF=    80
 NBsUse=    80 1.00D-06 EigRej= -1.00D+00 NBFU=    80
 Precomputing XC quadrature grid using
 IXCGrd= 4 IRadAn=           7 IRanWt=          -1 IRanGd=           0 AccXCQ= 0.00D+00.
 Generated NRdTot=       0 NPtTot=           0 NUsed=           0 NTot=          32
 NSgBfM=    82    82    82    82    82 MxSgAt=     8 MxSgA2=     8.
 Leave Link  302 at Tue Nov 19 12:53:30 2024, MaxMem=  1073741824 cpu:              14.6 elap:               0.9
 (Enter /home/szhao/Apps/g16/l303.exe)
 DipDrv:  MaxL=1.
 Leave Link  303 at Tue Nov 19 12:53:30 2024, MaxMem=  1073741824 cpu:               1.9 elap:               0.1
 (Enter /home/szhao/Apps/g16/l401.exe)
 ExpMin= 4.38D-02 ExpMax= 4.56D+03 ExpMxC= 6.82D+02 IAcc=3 IRadAn=         7 AccDes= 0.00D+00
 Harris functional with IExCor= 1009 and IRadAn=       7 diagonalized for initial guess.
 HarFok:  IExCor= 1009 AccDes= 0.00D+00 IRadAn=         7 IDoV= 1 UseB2=F ITyADJ=14
 ICtDFT=  3500011 ScaDFX=  1.000000  1.000000  1.000000  1.000000
 FoFCou: FMM=F IPFlag=           0 FMFlag=      100000 FMFlg1=           0
         NFxFlg=           0 DoJE=T BraDBF=F KetDBF=T FulRan=T
         wScrn=  0.000000 ICntrl=       500 IOpCl=  0 I1Cent=   200000004 NGrid=           0
         NMat0=    1 NMatS0=      1 NMatT0=    0 NMatD0=    1 NMtDS0=    0 NMtDT0=    0
 Petite list used in FoFCou.
 Harris En= -79.7337784193321    
 JPrj=0 DoOrth=F DoCkMO=F.
 Initial guess <Sx>= 0.0000 <Sy>= 0.0000 <Sz>= 0.0000 <S**2>=-0.0000 S=-0.0000
 Leave Link  401 at Tue Nov 19 12:53:32 2024, MaxMem=  1073741824 cpu:              19.3 elap:               1.1
 (Enter /home/szhao/Apps/g16/l502.exe)
 Keep R1 and R2 ints in memory in canonical form, NReq=32326988.
 FoFCou: FMM=F IPFlag=           0 FMFlag=           0 FMFlg1=           0
         NFxFlg=           0 DoJE=F BraDBF=F KetDBF=F FulRan=T
         wScrn=  0.000000 ICntrl=       600 IOpCl=  0 I1Cent=           0 NGrid=           0
         NMat0=    1 NMatS0=   3240 NMatT0=    0 NMatD0=    1 NMtDS0=    0 NMtDT0=    0
 Symmetry not used in FoFCou.
 Two-electron integral symmetry not used.
 UHF open shell SCF:
 Using DIIS extrapolation, IDIIS=  1040.
 NGot=  1073741824 LenX=  1063224556 LenY=  1063217391
 Requested convergence on RMS density matrix=1.00D-08 within 128 cycles.
 Requested convergence on MAX density matrix=1.00D-06.
 Requested convergence on             energy=1.00D-06.
 No special actions if energy rises.

 Cycle   1  Pass 1  IDiag  1:
 E= -79.6219943065548    
 DIIS: error= 4.64D-02 at cycle   1 NSaved=   1.
 NSaved= 1 IEnMin= 1 EnMin= -79.6219943065548     IErMin= 1 ErrMin= 4.64D-02
 ErrMax= 4.64D-02  0.00D+00 EMaxC= 1.00D-01 BMatC= 3.78D-01 BMatP= 3.78D-01
 IDIUse=3 WtCom= 5.36D-01 WtEn= 4.64D-01
 Coeff-Com:  0.100D+01
 Coeff-En:   0.100D+01
 Coeff:      0.100D+01
 Gap=     0.359 Goal=   None    Shift=    0.000
 Gap=     0.359 Goal=   None    Shift=    0.000
 GapD=    0.359 DampG=1.000 DampE=0.500 DampFc=0.5000 IDamp=-1.
 Damping current iteration by 5.00D-01
 RMSDP=3.97D-03 MaxDP=9.38D-02              OVMax= 1.47D-01

 Cycle   2  Pass 1  IDiag  1:
 E= -79.6715541303619     Delta-E=       -0.049559823807 Rises=F Damp=T
 DIIS: error= 1.01D-02 at cycle   2 NSaved=   2.
 NSaved= 2 IEnMin= 2 EnMin= -79.6715541303619     IErMin= 2 ErrMin= 1.01D-02
 ErrMax= 1.01D-02  0.00D+00 EMaxC= 1.00D-01 BMatC= 1.87D-02 BMatP= 3.78D-01
 IDIUse=3 WtCom= 8.99D-01 WtEn= 1.01D-01
 Coeff-Com: -0.145D+00 0.115D+01
 Coeff-En:   0.000D+00 0.100D+01
 Coeff:     -0.130D+00 0.113D+01
 Gap=     0.335 Goal=   None    Shift=    0.000
 Gap=     0.335 Goal=   None    Shift=    0.000
 RMSDP=8.07D-04 MaxDP=9.26D-03 DE=-4.96D-02 OVMax= 6.98D-02

 Cycle   3  Pass 1  IDiag  1:
 E= -79.7147033624570     Delta-E=       -0.043149232095 Rises=F Damp=F
 DIIS: error= 1.78D-03 at cycle   3 NSaved=   3.
 NSaved= 3 IEnMin= 3 EnMin= -79.7147033624570     IErMin= 3 ErrMin= 1.78D-03
 ErrMax= 1.78D-03  0.00D+00 EMaxC= 1.00D-01 BMatC= 4.66D-04 BMatP= 1.87D-02
 IDIUse=3 WtCom= 9.82D-01 WtEn= 1.78D-02
 Coeff-Com: -0.290D-01 0.121D+00 0.908D+00
 Coeff-En:   0.000D+00 0.000D+00 0.100D+01
 Coeff:     -0.285D-01 0.119D+00 0.909D+00
 Gap=     0.319 Goal=   None    Shift=    0.000
 Gap=     0.319 Goal=   None    Shift=    0.000
 RMSDP=1.20D-04 MaxDP=1.59D-03 DE=-4.31D-02 OVMax= 4.35D-03

 Cycle   4  Pass 1  IDiag  1:
 E= -79.7148158606481     Delta-E=       -0.000112498191 Rises=F Damp=F
 DIIS: error= 6.26D-04 at cycle   4 NSaved=   4.
 NSaved= 4 IEnMin= 4 EnMin= -79.7148158606481     IErMin= 4 ErrMin= 6.26D-04
 ErrMax= 6.26D-04  0.00D+00 EMaxC= 1.00D-01 BMatC= 3.35D-05 BMatP= 4.66D-04
 IDIUse=3 WtCom= 9.94D-01 WtEn= 6.26D-03
 Coeff-Com: -0.194D-02 0.533D-02 0.220D+00 0.776D+00
 Coeff-En:   0.000D+00 0.000D+00 0.000D+00 0.100D+01
 Coeff:     -0.193D-02 0.529D-02 0.219D+00 0.778D+00
 Gap=     0.319 Goal=   None    Shift=    0.000
 Gap=     0.319 Goal=   None    Shift=    0.000
 RMSDP=2.77D-05 MaxDP=4.36D-04 DE=-1.12D-04 OVMax= 1.19D-03

 Cycle   5  Pass 1  IDiag  1:
 E= -79.7148239781516     Delta-E=       -0.000008117504 Rises=F Damp=F
 DIIS: error= 3.08D-05 at cycle   5 NSaved=   5.
 NSaved= 5 IEnMin= 5 EnMin= -79.7148239781516     IErMin= 5 ErrMin= 3.08D-05
 ErrMax= 3.08D-05  0.00D+00 EMaxC= 1.00D-01 BMatC= 1.20D-07 BMatP= 3.35D-05
 IDIUse=1 WtCom= 1.00D+00 WtEn= 0.00D+00
 Coeff-Com:  0.918D-03-0.224D-02-0.201D-01-0.350D-01 0.106D+01
 Coeff:      0.918D-03-0.224D-02-0.201D-01-0.350D-01 0.106D+01
 Gap=     0.319 Goal=   None    Shift=    0.000
 Gap=     0.319 Goal=   None    Shift=    0.000
 RMSDP=3.79D-06 MaxDP=4.64D-05 DE=-8.12D-06 OVMax= 1.24D-04

 Cycle   6  Pass 1  IDiag  1:
 E= -79.7148240257239     Delta-E=       -0.000000047572 Rises=F Damp=F
 DIIS: error= 2.35D-06 at cycle   6 NSaved=   6.
 NSaved= 6 IEnMin= 6 EnMin= -79.7148240257239     IErMin= 6 ErrMin= 2.35D-06
 ErrMax= 2.35D-06  0.00D+00 EMaxC= 1.00D-01 BMatC= 9.52D-10 BMatP= 1.20D-07
 IDIUse=1 WtCom= 1.00D+00 WtEn= 0.00D+00
 Coeff-Com: -0.132D-03 0.275D-03 0.935D-03-0.441D-03-0.161D+00 0.116D+01
 Coeff:     -0.132D-03 0.275D-03 0.935D-03-0.441D-03-0.161D+00 0.116D+01
 Gap=     0.319 Goal=   None    Shift=    0.000
 Gap=     0.319 Goal=   None    Shift=    0.000
 RMSDP=6.83D-07 MaxDP=8.53D-06 DE=-4.76D-08 OVMax= 2.76D-05

 Cycle   7  Pass 1  IDiag  1:
 E= -79.7148240266547     Delta-E=       -0.000000000931 Rises=F Damp=F
 DIIS: error= 3.77D-07 at cycle   7 NSaved=   7.
 NSaved= 7 IEnMin= 7 EnMin= -79.7148240266547     IErMin= 7 ErrMin= 3.77D-07
 ErrMax= 3.77D-07  0.00D+00 EMaxC= 1.00D-01 BMatC= 1.35D-11 BMatP= 9.52D-10
 IDIUse=1 WtCom= 1.00D+00 WtEn= 0.00D+00
 Coeff-Com:  0.122D-04-0.207D-04 0.191D-04 0.670D-03 0.177D-01-0.198D+00
 Coeff-Com:  0.118D+01
 Coeff:      0.122D-04-0.207D-04 0.191D-04 0.670D-03 0.177D-01-0.198D+00
 Coeff:      0.118D+01
 Gap=     0.319 Goal=   None    Shift=    0.000
 Gap=     0.319 Goal=   None    Shift=    0.000
 RMSDP=7.49D-08 MaxDP=8.34D-07 DE=-9.31D-10 OVMax= 3.90D-06

 Cycle   8  Pass 1  IDiag  1:
 E= -79.7148240266675     Delta-E=       -0.000000000013 Rises=F Damp=F
 DIIS: error= 5.54D-08 at cycle   8 NSaved=   8.
 NSaved= 8 IEnMin= 8 EnMin= -79.7148240266675     IErMin= 8 ErrMin= 5.54D-08
 ErrMax= 5.54D-08  0.00D+00 EMaxC= 1.00D-01 BMatC= 2.78D-13 BMatP= 1.35D-11
 IDIUse=1 WtCom= 1.00D+00 WtEn= 0.00D+00
 Coeff-Com:  0.964D-06-0.210D-05-0.757D-05 0.214D-04 0.684D-04-0.837D-03
 Coeff-Com: -0.574D-01 0.106D+01
 Coeff:      0.964D-06-0.210D-05-0.757D-05 0.214D-04 0.684D-04-0.837D-03
 Coeff:     -0.574D-01 0.106D+01
 Gap=     0.319 Goal=   None    Shift=    0.000
 Gap=     0.319 Goal=   None    Shift=    0.000
 RMSDP=8.40D-09 MaxDP=1.09D-07 DE=-1.28D-11 OVMax= 4.77D-07

 SCF Done:  E(UM062X) =  -79.7148240267     A.U. after    8 cycles
            NFock=  8  Conv=0.84D-08     -V/T= 2.0089
 <Sx>= 0.0000 <Sy>= 0.0000 <Sz>= 0.0000 <S**2>=-0.0000 S=-0.0000
 <L.S>=  0.00000000000    
 KE= 7.901493615697D+01 PE=-2.571115291066D+02 EE= 6.170350536772D+01
 Annihilation of the first spin contaminant:
 S**2 before annihilation    -0.0000,   after     0.0000
 Leave Link  502 at Tue Nov 19 12:53:38 2024, MaxMem=  1073741824 cpu:             121.9 elap:               6.7
 (Enter /home/szhao/Apps/g16/l601.exe)
 Copying SCF densities to generalized density rwf, IOpCl= 1 IROHF=0.

 **********************************************************************

            Population analysis using the SCF density.

 **********************************************************************

 Orbital symmetries:
 Alpha Orbitals:
       Occupied  (A) (A) (A) (A) (A) (A) (A) (A) (A)
       Virtual   (A) (A) (A) (A) (A) (A) (A) (A) (A) (A) (A) (A)
                 (A) (A) (A) (A) (A) (A) (A) (A) (A) (A) (A) (A)
                 (A) (A) (A) (A) (A) (A) (A) (A) (A) (A) (A) (A)
                 (A) (A) (A) (A) (A) (A) (A) (A) (A) (A) (A) (A)
                 (A) (A) (A) (A) (A) (A) (A) (A) (A) (A) (A) (A)
                 (A) (A) (A) (A) (A) (A) (A) (A) (A) (A) (A)
 Beta  Orbitals:
       Occupied  (A) (A) (A) (A) (A) (A) (A) (A) (A)
       Virtual   (A) (A) (A) (A) (A) (A) (A) (A) (A) (A) (A) (A)
                 (A) (A) (A) (A) (A) (A) (A) (A) (A) (A) (A) (A)
                 (A) (A) (A) (A) (A) (A) (A) (A) (A) (A) (A) (A)
                 (A) (A) (A) (A) (A) (A) (A) (A) (A) (A) (A) (A)
                 (A) (A) (A) (A) (A) (A) (A) (A) (A) (A) (A) (A)
                 (A) (A) (A) (A) (A) (A) (A) (A) (A) (A) (A)
 The electronic state is 1-A.
 Alpha  occ. eigenvalues --  -10.55121 -10.55114  -0.78170  -0.73313  -0.48276
 Alpha  occ. eigenvalues --   -0.48276  -0.45297  -0.45297  -0.30866
 Alpha virt. eigenvalues --    0.01073   0.02416   0.05600   0.05600   0.08384
 Alpha virt. eigenvalues --    0.08384   0.08610   0.09758   0.13317   0.18170
 Alpha virt. eigenvalues --    0.18170   0.22102   0.22102   0.24352   0.26628
 Alpha virt. eigenvalues --    0.40801   0.40801   0.49179   0.49179   0.49638
 Alpha virt. eigenvalues --    0.52075   0.64623   0.64623   0.69162   0.69162
 Alpha virt. eigenvalues --    0.70882   0.77702   0.87687   0.95583   1.06160
 Alpha virt. eigenvalues --    1.06160   1.18804   1.18804   1.35261   1.47983
 Alpha virt. eigenvalues --    1.48055   1.55645   1.55645   1.58845   1.58846
 Alpha virt. eigenvalues --    1.73863   1.76058   1.76058   1.83226   1.83226
 Alpha virt. eigenvalues --    1.89775   1.95438   2.12549   2.12549   2.22396
 Alpha virt. eigenvalues --    2.22397   2.40660   2.48496   2.48496   2.54851
 Alpha virt. eigenvalues --    2.55736   2.55736   2.63359   2.63359   2.63819
 Alpha virt. eigenvalues --    2.63819   2.73851   2.88949   2.91685   3.11329
 Alpha virt. eigenvalues --    3.74559   3.74559   3.80304   3.80304  23.99199
 Alpha virt. eigenvalues --   23.99776
  Beta  occ. eigenvalues --  -10.55121 -10.55114  -0.78170  -0.73313  -0.48276
  Beta  occ. eigenvalues --   -0.48276  -0.45297  -0.45297  -0.30866
  Beta virt. eigenvalues --    0.01073   0.02416   0.05600   0.05600   0.08384
  Beta virt. eigenvalues --    0.08384   0.08610   0.09758   0.13317   0.18170
  Beta virt. eigenvalues --    0.18170   0.22102   0.22102   0.24352   0.26628
  Beta virt. eigenvalues --    0.40801   0.40801   0.49179   0.49179   0.49638
  Beta virt. eigenvalues --    0.52075   0.64623   0.64623   0.69162   0.69162
  Beta virt. eigenvalues --    0.70882   0.77702   0.87687   0.95583   1.06160
  Beta virt. eigenvalues --    1.06160   1.18804   1.18804   1.35261   1.47983
  Beta virt. eigenvalues --    1.48055   1.55645   1.55645   1.58845   1.58846
  Beta virt. eigenvalues --    1.73863   1.76058   1.76058   1.83226   1.83226
  Beta virt. eigenvalues --    1.89775   1.95438   2.12549   2.12549   2.22396
  Beta virt. eigenvalues --    2.22397   2.40660   2.48496   2.48496   2.54851
  Beta virt. eigenvalues --    2.55736   2.55736   2.63359   2.63359   2.63819
  Beta virt. eigenvalues --    2.63819   2.73851   2.88949   2.91685   3.11329
  Beta virt. eigenvalues --    3.74559   3.74559   3.80304   3.80304  23.99199
  Beta virt. eigenvalues --   23.99776
          Condensed to atoms (all electrons):
               1          2          3          4          5          6
     1  C    5.135478   0.235280  -0.020326   0.397976  -0.020326  -0.020326
     2  C    0.235280   5.135478   0.397976  -0.020327   0.397976   0.397976
     3  H   -0.020326   0.397976   0.506886  -0.000749  -0.026275  -0.026276
     4  H    0.397976  -0.020327  -0.000749   0.506886   0.001611  -0.000749
     5  H   -0.020326   0.397976  -0.026275   0.001611   0.506886  -0.026276
     6  H   -0.020326   0.397976  -0.026276  -0.000749  -0.026276   0.506887
     7  H    0.397976  -0.020326   0.001611  -0.026275  -0.000749  -0.000749
     8  H    0.397976  -0.020326  -0.000749  -0.026276  -0.000749   0.001610
               7          8
     1  C    0.397976   0.397976
     2  C   -0.020326  -0.020326
     3  H    0.001611  -0.000749
     4  H   -0.026275  -0.026276
     5  H   -0.000749  -0.000749
     6  H   -0.000749   0.001610
     7  H    0.506886  -0.026276
     8  H   -0.026276   0.506887
          Atomic-Atomic Spin Densities.
               1          2          3          4          5          6
     1  C    0.000000   0.000000  -0.000000  -0.000000   0.000000   0.000000
     2  C    0.000000  -0.000000   0.000000  -0.000000  -0.000000  -0.000000
     3  H   -0.000000   0.000000  -0.000000   0.000000   0.000000   0.000000
     4  H   -0.000000  -0.000000   0.000000   0.000000   0.000000  -0.000000
     5  H    0.000000  -0.000000   0.000000   0.000000   0.000000   0.000000
     6  H    0.000000  -0.000000   0.000000  -0.000000   0.000000  -0.000000
     7  H   -0.000000   0.000000  -0.000000   0.000000  -0.000000  -0.000000
     8  H    0.000000  -0.000000   0.000000  -0.000000   0.000000   0.000000
               7          8
     1  C   -0.000000   0.000000
     2  C    0.000000  -0.000000
     3  H   -0.000000   0.000000
     4  H    0.000000  -0.000000
     5  H   -0.000000   0.000000
     6  H   -0.000000   0.000000
     7  H    0.000000  -0.000000
     8  H   -0.000000  -0.000000
 Mulliken charges and spin densities:
               1          2
     1  C   -0.503707   0.000000
     2  C   -0.503708  -0.000000
     3  H    0.167903   0.000000
     4  H    0.167903   0.000000
     5  H    0.167903   0.000000
     6  H    0.167902  -0.000000
     7  H    0.167903   0.000000
     8  H    0.167902  -0.000000
 Sum of Mulliken charges =  -0.00000  -0.00000
 Mulliken charges and spin densities with hydrogens summed into heavy atoms:
               1          2
     1  C    0.000000   0.000000
     2  C   -0.000000  -0.000000
 Electronic spatial extent (au):  <R**2>=            148.4888
 Charge=             -0.0000 electrons
 Dipole moment (field-independent basis, Debye):
    X=              0.0000    Y=             -0.0000    Z=             -0.0000  Tot=              0.0000
 Quadrupole moment (field-independent basis, Debye-Ang):
   XX=            -14.8415   YY=            -14.8444   ZZ=            -15.5530
   XY=              0.0002   XZ=              0.0031   YZ=             -0.0464
 Traceless Quadrupole moment (field-independent basis, Debye-Ang):
   XX=              0.2382   YY=              0.2352   ZZ=             -0.4734
   XY=              0.0002   XZ=              0.0031   YZ=             -0.0464
 Octapole moment (field-independent basis, Debye-Ang**2):
  XXX=              0.0000  YYY=              0.0000  ZZZ=             -0.0000  XYY=              0.0000
  XXY=             -0.0000  XXZ=             -0.0000  XZZ=             -0.0000  YZZ=              0.0000
  YYZ=              0.0000  XYZ=             -0.0000
 Hexadecapole moment (field-independent basis, Debye-Ang**3):
 XXXX=            -30.1676 YYYY=            -30.7033 ZZZZ=           -159.2997 XXXY=              0.1621
 XXXZ=              2.5755 YYYX=             -0.4400 YYYZ=             -3.9707 ZZZX=              0.2919
 ZZZY=             -4.9170 XXYY=            -10.0388 XXZZ=            -28.0250 YYZZ=            -28.1130
 XXYZ=             -0.7153 YYXZ=             -2.2378 ZZXY=              0.3189
 N-N= 3.667826355524D+01 E-N=-2.571115300520D+02  KE= 7.901493615697D+01
                          Isotropic Fermi Contact Couplings
        Atom                 a.u.       MegaHertz       Gauss      10(-4) cm-1
     1  C(13)             -0.00000      -0.00000      -0.00000      -0.00000
     2  C(13)             -0.00000      -0.00000      -0.00000      -0.00000
     3  H(1)              -0.00000      -0.00000      -0.00000      -0.00000
     4  H(1)              -0.00000      -0.00000      -0.00000      -0.00000
     5  H(1)              -0.00000      -0.00000      -0.00000      -0.00000
     6  H(1)              -0.00000      -0.00000      -0.00000      -0.00000
     7  H(1)              -0.00000      -0.00000      -0.00000      -0.00000
     8  H(1)               0.00000       0.00000       0.00000       0.00000
 --------------------------------------------------------
       Center         ----  Spin Dipole Couplings  ----
                      3XX-RR        3YY-RR        3ZZ-RR
 --------------------------------------------------------
     1   Atom        0.000000      0.000000      0.000000
     2   Atom        0.000000      0.000000      0.000000
     3   Atom        0.000000      0.000000      0.000000
     4   Atom        0.000000      0.000000      0.000000
     5   Atom        0.000000      0.000000      0.000000
     6   Atom        0.000000      0.000000      0.000000
     7   Atom        0.000000      0.000000      0.000000
     8   Atom        0.000000      0.000000      0.000000
 --------------------------------------------------------
                        XY            XZ            YZ
 --------------------------------------------------------
     1   Atom        0.000000      0.000000      0.000000
     2   Atom        0.000000      0.000000      0.000000
     3   Atom        0.000000      0.000000      0.000000
     4   Atom        0.000000      0.000000      0.000000
     5   Atom        0.000000      0.000000      0.000000
     6   Atom        0.000000      0.000000      0.000000
     7   Atom        0.000000      0.000000      0.000000
     8   Atom        0.000000      0.000000      0.000000
 --------------------------------------------------------


 ---------------------------------------------------------------------------------
              Anisotropic Spin Dipole Couplings in Principal Axis System
 ---------------------------------------------------------------------------------

       Atom             a.u.   MegaHertz   Gauss  10(-4) cm-1        Axes

              Baa     0.0000     0.000     0.000     0.000  1.0000  0.0000  0.0000
     1 C(13)  Bbb     0.0000     0.000     0.000     0.000 -0.0000  1.0000  0.0000
              Bcc     0.0000     0.000     0.000     0.000  0.0000  0.0000  1.0000
 
              Baa     0.0000     0.000     0.000     0.000  1.0000  0.0000  0.0000
     2 C(13)  Bbb     0.0000     0.000     0.000     0.000 -0.0000  1.0000  0.0000
              Bcc     0.0000     0.000     0.000     0.000  0.0000  0.0000  1.0000
 
              Baa     0.0000     0.000     0.000     0.000  1.0000  0.0000  0.0000
     3 H(1)   Bbb     0.0000     0.000     0.000     0.000 -0.0000  1.0000  0.0000
              Bcc     0.0000     0.000     0.000     0.000  0.0000  0.0000  1.0000
 
              Baa     0.0000     0.000     0.000     0.000  1.0000  0.0000  0.0000
     4 H(1)   Bbb     0.0000     0.000     0.000     0.000 -0.0000  1.0000  0.0000
              Bcc     0.0000     0.000     0.000     0.000  0.0000  0.0000  1.0000
 
              Baa     0.0000     0.000     0.000     0.000  1.0000  0.0000  0.0000
     5 H(1)   Bbb     0.0000     0.000     0.000     0.000 -0.0000  1.0000  0.0000
              Bcc     0.0000     0.000     0.000     0.000  0.0000  0.0000  1.0000
 
              Baa     0.0000     0.000     0.000     0.000  1.0000  0.0000  0.0000
     6 H(1)   Bbb     0.0000     0.000     0.000     0.000 -0.0000  1.0000  0.0000
              Bcc     0.0000     0.000     0.000     0.000  0.0000  0.0000  1.0000
 
              Baa     0.0000     0.000     0.000     0.000  1.0000  0.0000  0.0000
     7 H(1)   Bbb     0.0000     0.000     0.000     0.000 -0.0000  1.0000  0.0000
              Bcc     0.0000     0.000     0.000     0.000  0.0000  0.0000  1.0000
 
              Baa     0.0000     0.000     0.000     0.000  1.0000  0.0000  0.0000
     8 H(1)   Bbb     0.0000     0.000     0.000     0.000 -0.0000  1.0000  0.0000
              Bcc     0.0000     0.000     0.000     0.000  0.0000  0.0000  1.0000
 

 ---------------------------------------------------------------------------------

 No NMR shielding tensors so no spin-rotation constants.
 Leave Link  601 at Tue Nov 19 12:53:39 2024, MaxMem=  1073741824 cpu:               5.0 elap:               0.2
 (Enter /home/szhao/Apps/g16/l701.exe)
 ... and contract with generalized density number  0.
 Compute integral first derivatives.
 Leave Link  701 at Tue Nov 19 12:53:40 2024, MaxMem=  1073741824 cpu:               9.9 elap:               0.6
 (Enter /home/szhao/Apps/g16/l702.exe)
 L702 exits ... SP integral derivatives will be done elsewhere.
 Leave Link  702 at Tue Nov 19 12:53:40 2024, MaxMem=  1073741824 cpu:               1.0 elap:               0.1
 (Enter /home/szhao/Apps/g16/l703.exe)
 Integral derivatives from FoFJK, PRISM(SPDF).
 Compute integral first derivatives, UseDBF=F ICtDFT=           0.
 Calling FoFJK, ICntrl=      2127 FMM=F ISym2X=0 I1Cent= 0 IOpClX= 1 NMat=1 NMatS=1 NMatT=0.
 FoFJK:  IHMeth= 1 ICntrl=    2127 DoSepK=F KAlg= 0 I1Cent=           0 FoldK=F
 IRaf=         0 NMat=       1 IRICut=       1 DoRegI=T DoRafI=F ISym2E= 0 IDoP0=0 IntGTp=1.
 FoFCou: FMM=F IPFlag=           0 FMFlag=      100000 FMFlg1=         800
         NFxFlg=           0 DoJE=F BraDBF=F KetDBF=F FulRan=T
         wScrn=  0.000000 ICntrl=      2127 IOpCl=  1 I1Cent=           0 NGrid=           0
         NMat0=    1 NMatS0=      1 NMatT0=    0 NMatD0=    1 NMtDS0=    0 NMtDT0=    0
 Symmetry not used in FoFCou.
 Leave Link  703 at Tue Nov 19 12:53:41 2024, MaxMem=  1073741824 cpu:              28.0 elap:               1.5
 (Enter /home/szhao/Apps/g16/l716.exe)
 Dipole        = 4.46870277D-07-1.07795582D-07-5.39457038D-07
 ***** Axes restored to original set *****
 -------------------------------------------------------------------
 Center     Atomic                   Forces (Hartrees/Bohr)
 Number     Number              X              Y              Z
 -------------------------------------------------------------------
      1        6           0.075542105   -0.000002788   -0.000001543
      2        6          -0.075541942    0.000002530    0.000001141
      3        1          -0.000001438    0.000000106   -0.000001390
      4        1           0.000001376    0.000002256   -0.000000538
      5        1          -0.000001436   -0.000002078    0.000000693
      6        1          -0.000000914   -0.000000345    0.000000194
      7        1           0.000001371    0.000000010    0.000001332
      8        1           0.000000878    0.000000310    0.000000112
 -------------------------------------------------------------------
 Cartesian Forces:  Max     0.075542105 RMS     0.021807104
 Z-matrix is all fixed cartesians, so copy forces.
 Force constants in Cartesian coordinates: 
                1             2             3             4             5 
      1  0.138510D+00
      2 -0.159047D-05  0.635978D+00
      3 -0.516197D-05  0.000000D+00  0.635976D+00
      4  0.000000D+00  0.000000D+00  0.000000D+00  0.138510D+00
      5  0.000000D+00  0.000000D+00  0.000000D+00  0.000000D+00  0.635977D+00
      6  0.000000D+00  0.000000D+00  0.000000D+00 -0.372496D-05  0.000000D+00
      7  0.000000D+00  0.000000D+00  0.000000D+00 -0.461697D-01  0.886824D-01
      8  0.000000D+00  0.000000D+00  0.000000D+00  0.647859D-01 -0.271368D+00
      9  0.000000D+00  0.000000D+00  0.000000D+00 -0.374882D-01  0.103308D+00
     10 -0.461686D-01 -0.887808D-01 -0.511417D-01  0.000000D+00  0.000000D+00
     11 -0.648575D-01 -0.271772D+00 -0.103075D+00  0.000000D+00  0.000000D+00
     12 -0.373607D-01 -0.103075D+00 -0.152213D+00  0.000000D+00  0.000000D+00
     13  0.000000D+00  0.000000D+00  0.000000D+00 -0.461691D-01 -0.887816D-01
     14  0.000000D+00  0.000000D+00  0.000000D+00 -0.648582D-01 -0.271772D+00
     15  0.000000D+00  0.000000D+00  0.000000D+00 -0.373612D-01 -0.103075D+00
     16  0.000000D+00  0.000000D+00  0.000000D+00 -0.461711D-01  0.100122D-03
     17  0.000000D+00  0.000000D+00  0.000000D+00  0.731741D-04 -0.928371D-01
     18  0.000000D+00  0.000000D+00  0.000000D+00  0.748531D-01 -0.232367D-03
     19 -0.461696D-01  0.886823D-01 -0.513156D-01  0.000000D+00  0.000000D+00
     20  0.647859D-01 -0.271369D+00  0.103308D+00  0.000000D+00  0.000000D+00
     21 -0.374879D-01  0.103308D+00 -0.152616D+00  0.000000D+00  0.000000D+00
     22 -0.461715D-01  0.100095D-03  0.102462D+00  0.000000D+00  0.000000D+00
     23  0.731727D-04 -0.928373D-01 -0.232028D-03  0.000000D+00  0.000000D+00
     24  0.748538D-01 -0.232124D-03 -0.331147D+00  0.000000D+00  0.000000D+00
                6             7             8             9            10 
      6  0.635975D+00
      7 -0.513159D-01  0.318966D-01
      8  0.103308D+00 -0.677713D-01  0.268886D+00
      9 -0.152616D+00  0.392157D-01 -0.117687D+00  0.133605D+00
     10  0.000000D+00  0.000000D+00  0.000000D+00  0.000000D+00  0.318956D-01
     11  0.000000D+00  0.000000D+00  0.000000D+00  0.000000D+00  0.678461D-01
     12  0.000000D+00  0.000000D+00  0.000000D+00  0.000000D+00  0.390823D-01
     13 -0.511422D-01  0.713647D-02  0.798000D-02  0.103473D-01  0.000000D+00
     14 -0.103075D+00 -0.795971D-02 -0.112114D-01 -0.155346D-01  0.000000D+00
     15 -0.152213D+00  0.103629D-01  0.155994D-01  0.219581D-01  0.000000D+00
     16  0.102462D+00  0.713663D-02 -0.499460D-02 -0.120749D-01  0.000000D+00
     17 -0.232278D-03 -0.129513D-01  0.136936D-01  0.299136D-01  0.000000D+00
     18 -0.331147D+00  0.173732D-02 -0.122038D-02 -0.294726D-02  0.000000D+00
     19  0.000000D+00  0.000000D+00  0.000000D+00  0.000000D+00  0.713640D-02
     20  0.000000D+00  0.000000D+00  0.000000D+00  0.000000D+00  0.797996D-02
     21  0.000000D+00  0.000000D+00  0.000000D+00  0.000000D+00  0.103473D-01
     22  0.000000D+00  0.000000D+00  0.000000D+00  0.000000D+00  0.713655D-02
     23  0.000000D+00  0.000000D+00  0.000000D+00  0.000000D+00  0.129547D-01
     24  0.000000D+00  0.000000D+00  0.000000D+00  0.000000D+00  0.171206D-02
               11            12            13            14            15 
     11  0.269346D+00
     12  0.117422D+00  0.133146D+00
     13  0.000000D+00  0.000000D+00  0.318961D-01
     14  0.000000D+00  0.000000D+00  0.678470D-01  0.269346D+00
     15  0.000000D+00  0.000000D+00  0.390828D-01  0.117421D+00  0.133146D+00
     16  0.000000D+00  0.000000D+00  0.713654D-02  0.497096D-02 -0.120845D-01
     17  0.000000D+00  0.000000D+00  0.129546D-01  0.136375D-01 -0.299460D-01
     18  0.000000D+00  0.000000D+00  0.171203D-02  0.118801D-02 -0.289121D-02
     19 -0.795964D-02  0.103628D-01  0.000000D+00  0.000000D+00  0.000000D+00
     20 -0.112114D-01  0.155994D-01  0.000000D+00  0.000000D+00  0.000000D+00
     21 -0.155346D-01  0.219582D-01  0.000000D+00  0.000000D+00  0.000000D+00
     22  0.497096D-02 -0.120844D-01  0.000000D+00  0.000000D+00  0.000000D+00
     23  0.136376D-01 -0.299460D-01  0.000000D+00  0.000000D+00  0.000000D+00
     24  0.118804D-02 -0.289124D-02  0.000000D+00  0.000000D+00  0.000000D+00
               16            17            18            19            20 
     16  0.318979D-01
     17 -0.764839D-04  0.655060D-01
     18 -0.783024D-01  0.264735D-03  0.336985D+00
     19  0.000000D+00  0.000000D+00  0.000000D+00  0.318965D-01
     20  0.000000D+00  0.000000D+00  0.000000D+00 -0.677712D-01  0.268887D+00
     21  0.000000D+00  0.000000D+00  0.000000D+00  0.392155D-01 -0.117687D+00
     22  0.000000D+00  0.000000D+00  0.000000D+00  0.713668D-02 -0.499459D-02
     23  0.000000D+00  0.000000D+00  0.000000D+00 -0.129514D-01  0.136935D-01
     24  0.000000D+00  0.000000D+00  0.000000D+00  0.173733D-02 -0.122038D-02
               21            22            23            24 
     21  0.133605D+00
     22 -0.120749D-01  0.318983D-01
     23  0.299136D-01 -0.764652D-04  0.655061D-01
     24 -0.294726D-02 -0.783032D-01  0.264464D-03  0.336985D+00
 Leave Link  716 at Tue Nov 19 12:53:42 2024, MaxMem=  1073741824 cpu:               2.0 elap:               0.2
 (Enter /home/szhao/Apps/g16/l103.exe)

 GradGradGradGradGradGradGradGradGradGradGradGradGradGradGradGradGradGrad
 Berny optimization.
 Search for a local minimum.
 Step number   1 out of a maximum of    2
 All quantities printed in internal units (Hartrees-Bohrs-Radians)
 Second derivative matrix not updated -- first step.
 ITU=  0
     Eigenvalues ---   -0.00000  -0.00000  -0.00000   0.00000   0.00000
     Eigenvalues ---    0.00000   0.08050   0.09310   0.13984   0.13984
     Eigenvalues ---    0.14067   0.14067   0.40966   0.42940   0.80726
     Eigenvalues ---    0.80726   0.84285   0.84285
 Eigenvalue     1 is  -8.88D-16 should be greater than     0.000000 Eigenvector:
                          X5        Y6        Z7        Z5        Z3
   1                    0.59219   0.29338  -0.25303   0.24289  -0.23611
                          X4        Z4        Y8        Y7        Y4
   1                   -0.22777   0.22596   0.22003  -0.19502  -0.19456
 Eigenvalue     2 is  -3.33D-16 should be greater than     0.000000 Eigenvector:
                          X4        X7        Y1        Y8        X5
   1                    0.65915  -0.52232   0.19622   0.18174  -0.16613
                          Y3        Y5        X8        Z3        Z4
   1                   -0.16180  -0.16155  -0.15501  -0.14903   0.13759
 Eigenvalue     3 is  -2.22D-16 should be greater than     0.000000 Eigenvector:
                          X5        X7        Y8        X3        Y6
   1                    0.56035  -0.32583  -0.30455  -0.29422  -0.28285
                          X4        Z4        Z5        Z3        Z7
   1                    0.25539  -0.22906  -0.22305   0.20765   0.20164
 Eigenvalue     4 is   0.00D+00 Eigenvector:
                          X3        X6        X4        X2        X1
   1                    0.55576   0.38989  -0.36361   0.31254  -0.31254
                          X8        X7        Y7        Y4        Y2
   1                   -0.30162  -0.27239   0.07723   0.07710  -0.07690
 Eigenvalue     5 is   2.95D-14 Eigenvector:
                          X8        X7        X4        Z1        X6
   1                    0.74033  -0.51227  -0.23133  -0.20977  -0.16031
                          Z2        X3        Z5        Z6        Z3
   1                    0.13259   0.11278   0.09414   0.09358   0.09301
 Eigenvalue     6 is   3.69D-14 Eigenvector:
                          X6        X3        X5        X8        Z2
   1                    0.74656  -0.52875  -0.21462   0.19392  -0.16696
                          X7        Z4        Z8        Z7        X4
   1                   -0.13652   0.08929   0.08894   0.08859  -0.06059
 Quadratic step=5.342D+02 exceeds max=3.000D-01 adjusted using Lamda=-2.720D-01.
 Angle between NR and scaled steps=  49.04 degrees.
 Angle between quadratic step and forces=  15.60 degrees.
 Linear search not attempted -- first point.
 B after Tr=     0.000000   -0.000000   -0.000000
         Rot=    1.000000    0.000000   -0.000000   -0.000000 Ang=  -0.00 deg.
 Variable       Old X    -DE/DX   Delta X   Delta X   Delta X     New X
                                 (Linear)    (Quad)   (Total)
    X1       -2.07777   0.07554   0.00000   0.20433   0.20433  -1.87344
    Y1        0.00000  -0.00000   0.00000  -0.00000  -0.00000  -0.00000
    Z1        0.00000  -0.00000   0.00000  -0.00000  -0.00000  -0.00000
    X2        2.07798  -0.07554   0.00000  -0.20433  -0.20433   1.87365
    Y2        0.00000   0.00000   0.00000   0.00000   0.00000   0.00000
    Z2       -0.00000   0.00000   0.00000  -0.00000  -0.00000  -0.00000
    X3        2.55887  -0.00000   0.00000  -0.02444  -0.02444   2.53444
    Y3       -1.72240   0.00000   0.00000   0.01911   0.01911  -1.70329
    Z3        0.99667  -0.00000   0.00000  -0.01106  -0.01106   0.98561
    X4       -2.55865   0.00000   0.00000   0.02444   0.02444  -2.53421
    Y4       -1.72435   0.00000   0.00000   0.01914   0.01913  -1.70522
    Z4       -0.99331  -0.00000   0.00000   0.01102   0.01102  -0.98229
    X5        2.55887  -0.00000   0.00000  -0.02444  -0.02444   2.53443
    Y5        1.72435  -0.00000   0.00000  -0.01914  -0.01913   1.70522
    Z5        0.99330   0.00000   0.00000  -0.01102  -0.01102   0.98228
    X6        2.55889  -0.00000   0.00000  -0.02444  -0.02444   2.53445
    Y6       -0.00194  -0.00000   0.00000   0.00002   0.00002  -0.00192
    Z6       -1.98998   0.00000   0.00000   0.02208   0.02208  -1.96789
    X7       -2.55866   0.00000   0.00000   0.02444   0.02444  -2.53422
    Y7        1.72240   0.00000   0.00000  -0.01911  -0.01911   1.70329
    Z7       -0.99667   0.00000   0.00000   0.01106   0.01106  -0.98561
    X8       -2.55868   0.00000   0.00000   0.02444   0.02444  -2.53425
    Y8        0.00194   0.00000   0.00000  -0.00002  -0.00002   0.00192
    Z8        1.98997   0.00000   0.00000  -0.02208  -0.02208   1.96789
         Item               Value     Threshold  Converged?
 Maximum Force            0.075542     0.000450     NO 
 RMS     Force            0.021807     0.000300     NO 
 Maximum Displacement     0.204330     0.001800     NO 
 RMS     Displacement     0.061241     0.001200     NO 
 Predicted change in Energy=-2.767872D-02
 GradGradGradGradGradGradGradGradGradGradGradGradGradGradGradGradGradGrad

 Leave Link  103 at Tue Nov 19 12:53:42 2024, MaxMem=  1073741824 cpu:               2.9 elap:               0.2
 (Enter /home/szhao/Apps/g16/l9999.exe)
 1\1\GINC-NODE02\Force\UM062X\6-311+G(d,p)\C2H6\SZHAO\19-Nov-2024\0\\#p
  UM062X/6-311+G** force int=superfine\\Title Card Required\\0,1\C,-1.0
 99508,0.,0.\C,1.09962,0.,0.\H,1.354098,-0.911457,0.527416\H,-1.35398,-
 0.912487,-0.525636\H,1.354095,0.912487,0.525634\H,1.354107,-0.001027,-
 1.05305\H,-1.353985,0.911457,-0.527416\H,-1.353997,0.001026,1.053049\\
 Version=ES64L-G16RevA.03\State=1-A\HF=-79.714824\S2=0.\S2-1=0.\S2A=0.\
 RMSD=8.403e-09\RMSF=2.181e-02\Dipole=-0.0000005,-0.0000001,-0.0000004\
 Quadrupole=-0.35419,0.1771128,0.1770771,-0.0000067,-0.000027,-0.000002
 8\PG=C01 [X(C2H6)]\\@


 BLACK HOLES SUCK.
 Job cpu time:       0 days  0 hours  3 minutes 40.4 seconds.
 Elapsed time:       0 days  0 hours  0 minutes 12.5 seconds.
 File lengths (MBytes):  RWF=     22 Int=      0 D2E=      0 Chk=      2 Scr=      2
 Normal termination of Gaussian 16 at Tue Nov 19 12:53:42 2024.
