 Entering Gaussian System, Link 0=g16
 Initial command:
 /home/szhao/Apps/g16/l1.exe "/home/szhao/tmp/Gau-372.inp" -scrdir="/home/szhao/tmp/"
 Default is to use a total of  16 processors:
                               16 via shared-memory
                                1 via Linda
 Entering Link 1 = /home/szhao/Apps/g16/l1.exe PID=       377.
  
 Copyright (c) 1988,1990,1992,1993,1995,1998,2003,2009,2016,
            Gaussian, Inc.  All Rights Reserved.
  
 This is part of the Gaussian(R) 16 program.  It is based on
 the Gaussian(R) 09 system (copyright 2009, Gaussian, Inc.),
 the Gaussian(R) 03 system (copyright 2003, Gaussian, Inc.),
 the Gaussian(R) 98 system (copyright 1998, Gaussian, Inc.),
 the Gaussian(R) 94 system (copyright 1995, Gaussian, Inc.),
 the Gaussian 92(TM) system (copyright 1992, Gaussian, Inc.),
 the Gaussian 90(TM) system (copyright 1990, Gaussian, Inc.),
 the Gaussian 88(TM) system (copyright 1988, Gaussian, Inc.),
 the Gaussian 86(TM) system (copyright 1986, Carnegie Mellon
 University), and the Gaussian 82(TM) system (copyright 1983,
 Carnegie Mellon University). Gaussian is a federally registered
 trademark of Gaussian, Inc.
  
 This software contains proprietary and confidential information,
 including trade secrets, belonging to Gaussian, Inc.
  
 This software is provided under written license and may be
 used, copied, transmitted, or stored only in accord with that
 written license.
  
 The following legend is applicable only to US Government
 contracts under FAR:
  
                    RESTRICTED RIGHTS LEGEND
  
 Use, reproduction and disclosure by the US Government is
 subject to restrictions as set forth in subparagraphs (a)
 and (c) of the Commercial Computer Software - Restricted
 Rights clause in FAR 52.227-19.
  
 Gaussian, Inc.
 340 Quinnipiac St., Bldg. 40, Wallingford CT 06492
  
  
 ---------------------------------------------------------------
 Warning -- This program may not be used in any manner that
 competes with the business of Gaussian, Inc. or will provide
 assistance to any competitor of Gaussian, Inc.  The licensee
 of this program is prohibited from giving any competitor of
 Gaussian, Inc. access to this program.  By using this program,
 the user acknowledges that Gaussian, Inc. is engaged in the
 business of creating and licensing software in the field of
 computational chemistry and represents and warrants to the
 licensee that it is not a competitor of Gaussian, Inc. and that
 it will not use this program in any manner prohibited above.
 ---------------------------------------------------------------
  

 Cite this work as:
 Gaussian 16, Revision A.03,
 M. J. Frisch, G. W. Trucks, H. B. Schlegel, G. E. Scuseria, 
 M. A. Robb, J. R. Cheeseman, G. Scalmani, V. Barone, 
 G. A. Petersson, H. Nakatsuji, X. Li, M. Caricato, A. V. Marenich, 
 J. Bloino, B. G. Janesko, R. Gomperts, B. Mennucci, H. P. Hratchian, 
 J. V. Ortiz, A. F. Izmaylov, J. L. Sonnenberg, D. Williams-Young, 
 F. Ding, F. Lipparini, F. Egidi, J. Goings, B. Peng, A. Petrone, 
 T. Henderson, D. Ranasinghe, V. G. Zakrzewski, J. Gao, N. Rega, 
 G. Zheng, W. Liang, M. Hada, M. Ehara, K. Toyota, R. Fukuda, 
 J. Hasegawa, M. Ishida, T. Nakajima, Y. Honda, O. Kitao, H. Nakai, 
 T. Vreven, K. Throssell, J. A. Montgomery, Jr., J. E. Peralta, 
 F. Ogliaro, M. J. Bearpark, J. J. Heyd, E. N. Brothers, K. N. Kudin, 
 V. N. Staroverov, T. A. Keith, R. Kobayashi, J. Normand, 
 K. Raghavachari, A. P. Rendell, J. C. Burant, S. S. Iyengar, 
 J. Tomasi, M. Cossi, J. M. Millam, M. Klene, C. Adamo, R. Cammi, 
 J. W. Ochterski, R. L. Martin, K. Morokuma, O. Farkas, 
 J. B. Foresman, and D. J. Fox, Gaussian, Inc., Wallingford CT, 2016.
 
 ******************************************
 Gaussian 16:  ES64L-G16RevA.03 25-Dec-2016
                21-Apr-2025 
 ******************************************
 %chk=opt.chk
 %mem=4GB
 %nprocshared=8
 Will use up to    8 processors via shared memory.
 --------------------------------------------
 #p opt UM062X/6-311+G** nosymm int=superfine
 --------------------------------------------
 1/18=20,19=15,26=5,38=1/1,3;
 2/9=110,12=2,15=1,17=6,18=5,40=1/2;
 3/5=4,6=6,7=111,11=2,25=1,30=1,71=1,74=-55,75=-7,116=2/1,2,3;
 4//1;
 5/5=2,38=5/2;
 6/7=2,8=2,9=2,10=2,28=1/1;
 7/30=1/1,2,3,16;
 1/18=20,19=15,26=5/3(2);
 2/9=110,15=1/2;
 99//99;
 2/9=110,15=1/2;
 3/5=4,6=6,7=111,11=2,25=1,30=1,71=1,74=-55,75=-7,116=2/1,2,3;
 4/5=5,16=3,69=1/1;
 5/5=2,38=5/2;
 7/30=1/1,2,3,16;
 1/18=20,19=15,26=5/3(-5);
 2/9=110,15=1/2;
 6/7=2,8=2,9=2,10=2,19=2,28=1/1;
 99/9=1/99;
 Leave Link    1 at Mon Apr 21 20:30:25 2025, MaxMem=   536870912 cpu:               1.0 elap:               0.1
 (Enter /home/szhao/Apps/g16/l101.exe)
 -------------------
 Title Card Required
 -------------------
 Symbolic Z-matrix:
 Charge =  0 Multiplicity = 1
 Si                   -1   -1.63752   0.        0. 
 Si                   -1    1.63752   0.        0. 
 H                    0    -2.41841  -1.24877   0. 
 H                    0     2.41841   1.24877  -0.00078 
 H                    0    -2.41842   1.24878   0.00014 
 H                    0     2.41842  -1.24878   0.00093 
 
 Add virtual bond connecting atoms Si2        and Si1        Dist= 6.19D+00.
 ITRead=  2  2  0  0  0  0
 MicOpt= -2 -2 -1 -1 -1 -1
 NAtoms=      6 NQM=        4 NQMF=       2 NMMI=      0 NMMIF=      0
                NMic=       0 NMicF=      0.
                    Isotopes and Nuclear Properties:
 (Nuclear quadrupole moments (NQMom) in fm**2, nuclear magnetic moments (NMagM)
  in nuclear magnetons)

  Atom         1           2           3           4           5           6
 IAtWgt=          28          28           1           1           1           1
 AtmWgt=  27.9769284  27.9769284   1.0078250   1.0078250   1.0078250   1.0078250
 NucSpn=           0           0           1           1           1           1
 AtZEff=  -0.0000000  -0.0000000  -0.0000000  -0.0000000  -0.0000000  -0.0000000
 NQMom=    0.0000000   0.0000000   0.0000000   0.0000000   0.0000000   0.0000000
 NMagM=    0.0000000   0.0000000   2.7928460   2.7928460   2.7928460   2.7928460
 AtZNuc=  14.0000000  14.0000000   1.0000000   1.0000000   1.0000000   1.0000000
 Leave Link  101 at Mon Apr 21 20:30:26 2025, MaxMem=   536870912 cpu:               2.5 elap:               0.4
 (Enter /home/szhao/Apps/g16/l103.exe)

 GradGradGradGradGradGradGradGradGradGradGradGradGradGradGradGradGradGrad
 Berny optimization.
 Initialization pass.
                           ----------------------------
                           !    Initial Parameters    !
                           ! (Angstroms and Degrees)  !
 --------------------------                            --------------------------
 ! Name  Definition              Value          Derivative Info.                !
 --------------------------------------------------------------------------------
 ! X1    R(1,-1)                -1.6375         Frozen                          !
 ! Y1    R(1,-2)                 0.0            Frozen                          !
 ! Z1    R(1,-3)                 0.0            Frozen                          !
 ! X2    R(2,-1)                 1.6375         Frozen                          !
 ! Y2    R(2,-2)                 0.0            Frozen                          !
 ! Z2    R(2,-3)                 0.0            Frozen                          !
 ! R1    R(1,3)                  1.4728         estimate D2E/DX2                !
 ! R2    R(1,5)                  1.4728         estimate D2E/DX2                !
 ! R3    R(2,4)                  1.4728         estimate D2E/DX2                !
 ! R4    R(2,6)                  1.4728         estimate D2E/DX2                !
 ! A1    A(2,1,3)              122.019          estimate D2E/DX2                !
 ! A2    A(2,1,5)              122.0192         estimate D2E/DX2                !
 ! A3    A(3,1,5)              115.9618         estimate D2E/DX2                !
 ! A4    A(1,2,4)              122.019          estimate D2E/DX2                !
 ! A5    A(1,2,6)              122.0192         estimate D2E/DX2                !
 ! A6    A(4,2,6)              115.9617         estimate D2E/DX2                !
 ! D1    D(3,1,2,4)            179.9641         estimate D2E/DX2                !
 ! D2    D(3,1,2,6)             -0.0424         estimate D2E/DX2                !
 ! D3    D(5,1,2,4)             -0.0424         estimate D2E/DX2                !
 ! D4    D(5,1,2,6)            179.951          estimate D2E/DX2                !
 --------------------------------------------------------------------------------
 Trust Radius=3.00D-01 FncErr=1.00D-07 GrdErr=1.00D-07 EigMax=2.50D+02 EigMin=1.00D-04
 Number of steps in this run=     30 maximum allowed number of steps=    100.
 GradGradGradGradGradGradGradGradGradGradGradGradGradGradGradGradGradGrad

 Leave Link  103 at Mon Apr 21 20:30:26 2025, MaxMem=   536870912 cpu:               0.2 elap:               0.1
 (Enter /home/szhao/Apps/g16/l202.exe)
                          Input orientation:                          
 ---------------------------------------------------------------------
 Center     Atomic      Atomic             Coordinates (Angstroms)
 Number     Number       Type             X           Y           Z
 ---------------------------------------------------------------------
      1         14           0       -1.637518    0.000000    0.000000
      2         14           0        1.637518    0.000000    0.000000
      3          1           0       -2.418412   -1.248769    0.000000
      4          1           0        2.418412    1.248768   -0.000783
      5          1           0       -2.418423    1.248777    0.000142
      6          1           0        2.418423   -1.248776    0.000925
 ---------------------------------------------------------------------
                    Distance matrix (angstroms):
                    1          2          3          4          5
     1  Si   0.000000
     2  Si   3.275036   0.000000
     3  H    1.472827   4.243818   0.000000
     4  H    4.243818   1.472827   5.443580   0.000000
     5  H    1.472839   4.243831   2.497546   4.836835   0.000000
     6  H    4.243831   1.472839   4.836835   2.497545   5.443606
                    6
     6  H    0.000000
 Symmetry turned off by external request.
 Stoichiometry    H4Si2
 Framework group  C2[X(H4Si2)]
 Deg. of freedom     7
 Full point group                 C2      NOp   2
 Rotational constants (GHZ):          80.3906046           2.9108951           2.8091765
 Leave Link  202 at Mon Apr 21 20:30:26 2025, MaxMem=   536870912 cpu:               0.2 elap:               0.1
 (Enter /home/szhao/Apps/g16/l301.exe)
 Standard basis: 6-311+G(d,p) (5D, 7F)
 Ernie: Thresh=  0.10000D-02 Tol=  0.10000D-05 Strict=F.
    84 basis functions,   132 primitive gaussians,    86 cartesian basis functions
    16 alpha electrons       16 beta electrons
       nuclear repulsion energy        59.6096746888 Hartrees.
 IExCor= 4336 DFT=T Ex+Corr=M062X ExCW=0 ScaHFX=  0.540000
 ScaDFX=  1.000000  1.000000  1.000000  1.000000 ScalE2=  1.000000  1.000000
 IRadAn=      7 IRanWt=     -1 IRanGd=            0 ICorTp=0 IEmpDi=  4
 NAtoms=    6 NActive=    6 NUniq=    6 SFac= 1.00D+00 NAtFMM=   60 NAOKFM=F Big=F
 Integral buffers will be    131072 words long.
 Raffenetti 2 integral format.
 Two-electron integral symmetry is turned off.
 Leave Link  301 at Mon Apr 21 20:30:27 2025, MaxMem=   536870912 cpu:               0.7 elap:               0.2
 (Enter /home/szhao/Apps/g16/l302.exe)
 NPDir=0 NMtPBC=     1 NCelOv=     1 NCel=       1 NClECP=     1 NCelD=      1
         NCelK=      1 NCelE2=     1 NClLst=     1 CellRange=     0.0.
 One-electron integrals computed using PRISM.
 NBasis=    84 RedAO= T EigKep=  6.21D-03  NBF=    84
 NBsUse=    84 1.00D-06 EigRej= -1.00D+00 NBFU=    84
 Precomputing XC quadrature grid using
 IXCGrd= 4 IRadAn=           7 IRanWt=          -1 IRanGd=           0 AccXCQ= 0.00D+00.
 Generated NRdTot=       0 NPtTot=           0 NUsed=           0 NTot=          32
 NSgBfM=    80    80    80    80    80 MxSgAt=     6 MxSgA2=     6.
 Leave Link  302 at Mon Apr 21 20:30:27 2025, MaxMem=   536870912 cpu:               1.8 elap:               0.3
 (Enter /home/szhao/Apps/g16/l303.exe)
 DipDrv:  MaxL=1.
 Leave Link  303 at Mon Apr 21 20:30:27 2025, MaxMem=   536870912 cpu:               0.6 elap:               0.1
 (Enter /home/szhao/Apps/g16/l401.exe)
 ExpMin= 3.31D-02 ExpMax= 6.94D+04 ExpMxC= 2.33D+03 IAcc=3 IRadAn=         7 AccDes= 0.00D+00
 Harris functional with IExCor= 1009 and IRadAn=       7 diagonalized for initial guess.
 HarFok:  IExCor= 1009 AccDes= 0.00D+00 IRadAn=         7 IDoV= 1 UseB2=F ITyADJ=14
 ICtDFT=  3500011 ScaDFX=  1.000000  1.000000  1.000000  1.000000
 FoFCou: FMM=F IPFlag=           0 FMFlag=      100000 FMFlg1=           0
         NFxFlg=           0 DoJE=T BraDBF=F KetDBF=T FulRan=T
         wScrn=  0.000000 ICntrl=       500 IOpCl=  0 I1Cent=   200000004 NGrid=           0
         NMat0=    1 NMatS0=      1 NMatT0=    0 NMatD0=    1 NMtDS0=    0 NMtDT0=    0
 Symmetry not used in FoFCou.
 Harris En= -580.828211718907    
 JPrj=0 DoOrth=F DoCkMO=F.
 Initial guess <Sx>= 0.0000 <Sy>= 0.0000 <Sz>= 0.0000 <S**2>=-0.0000 S=-0.0000
 Leave Link  401 at Mon Apr 21 20:30:28 2025, MaxMem=   536870912 cpu:               3.2 elap:               0.4
 (Enter /home/szhao/Apps/g16/l502.exe)
 Keep R1 and R2 ints in memory in canonical form, NReq=20057634.
 FoFCou: FMM=F IPFlag=           0 FMFlag=           0 FMFlg1=           0
         NFxFlg=           0 DoJE=F BraDBF=F KetDBF=F FulRan=T
         wScrn=  0.000000 ICntrl=       600 IOpCl=  0 I1Cent=           0 NGrid=           0
         NMat0=    1 NMatS0=   3570 NMatT0=    0 NMatD0=    1 NMtDS0=    0 NMtDT0=    0
 Symmetry not used in FoFCou.
 Two-electron integral symmetry not used.
 UHF open shell SCF:
 Using DIIS extrapolation, IDIIS=  1040.
 NGot=   536870912 LenX=   524106186 LenY=   524098349
 Requested convergence on RMS density matrix=1.00D-08 within 128 cycles.
 Requested convergence on MAX density matrix=1.00D-06.
 Requested convergence on             energy=1.00D-06.
 No special actions if energy rises.

 Cycle   1  Pass 1  IDiag  1:
 E= -581.101688513545    
 DIIS: error= 2.86D-02 at cycle   1 NSaved=   1.
 NSaved= 1 IEnMin= 1 EnMin= -581.101688513545     IErMin= 1 ErrMin= 2.86D-02
 ErrMax= 2.86D-02  0.00D+00 EMaxC= 1.00D-01 BMatC= 1.80D-01 BMatP= 1.80D-01
 IDIUse=3 WtCom= 7.14D-01 WtEn= 2.86D-01
 Coeff-Com:  0.100D+01
 Coeff-En:   0.100D+01
 Coeff:      0.100D+01
 Gap=     0.102 Goal=   None    Shift=    0.000
 Gap=     0.102 Goal=   None    Shift=    0.000
 GapD=    0.102 DampG=1.000 DampE=0.500 DampFc=0.5000 IDamp=-1.
 Damping current iteration by 5.00D-01
 RMSDP=1.89D-03 MaxDP=3.47D-02              OVMax= 5.18D-02

 Cycle   2  Pass 1  IDiag  1:
 E= -581.112537843226     Delta-E=       -0.010849329681 Rises=F Damp=T
 DIIS: error= 1.45D-02 at cycle   2 NSaved=   2.
 NSaved= 2 IEnMin= 2 EnMin= -581.112537843226     IErMin= 2 ErrMin= 1.45D-02
 ErrMax= 1.45D-02  0.00D+00 EMaxC= 1.00D-01 BMatC= 3.47D-02 BMatP= 1.80D-01
 IDIUse=3 WtCom= 8.55D-01 WtEn= 1.45D-01
 Coeff-Com: -0.636D+00 0.164D+01
 Coeff-En:   0.000D+00 0.100D+01
 Coeff:     -0.544D+00 0.154D+01
 Gap=     0.105 Goal=   None    Shift=    0.000
 Gap=     0.105 Goal=   None    Shift=    0.000
 RMSDP=6.63D-04 MaxDP=8.84D-03 DE=-1.08D-02 OVMax= 2.33D-02

 Cycle   3  Pass 1  IDiag  1:
 E= -581.122085598637     Delta-E=       -0.009547755412 Rises=F Damp=F
 DIIS: error= 9.56D-04 at cycle   3 NSaved=   3.
 NSaved= 3 IEnMin= 3 EnMin= -581.122085598637     IErMin= 3 ErrMin= 9.56D-04
 ErrMax= 9.56D-04  0.00D+00 EMaxC= 1.00D-01 BMatC= 4.33D-04 BMatP= 3.47D-02
 IDIUse=3 WtCom= 9.90D-01 WtEn= 9.56D-03
 Coeff-Com: -0.128D+00 0.245D+00 0.883D+00
 Coeff-En:   0.000D+00 0.000D+00 0.100D+01
 Coeff:     -0.127D+00 0.243D+00 0.884D+00
 Gap=     0.103 Goal=   None    Shift=    0.000
 Gap=     0.103 Goal=   None    Shift=    0.000
 RMSDP=1.24D-04 MaxDP=3.66D-03 DE=-9.55D-03 OVMax= 3.56D-03

 Cycle   4  Pass 1  IDiag  1:
 E= -581.122165076736     Delta-E=       -0.000079478098 Rises=F Damp=F
 DIIS: error= 1.21D-04 at cycle   4 NSaved=   4.
 NSaved= 4 IEnMin= 4 EnMin= -581.122165076736     IErMin= 4 ErrMin= 1.21D-04
 ErrMax= 1.21D-04  0.00D+00 EMaxC= 1.00D-01 BMatC= 2.61D-06 BMatP= 4.33D-04
 IDIUse=3 WtCom= 9.99D-01 WtEn= 1.21D-03
 Coeff-Com: -0.839D-02 0.141D-01 0.970D-01 0.897D+00
 Coeff-En:   0.000D+00 0.000D+00 0.000D+00 0.100D+01
 Coeff:     -0.838D-02 0.140D-01 0.969D-01 0.897D+00
 Gap=     0.103 Goal=   None    Shift=    0.000
 Gap=     0.103 Goal=   None    Shift=    0.000
 RMSDP=1.72D-05 MaxDP=5.36D-04 DE=-7.95D-05 OVMax= 9.11D-04

 Cycle   5  Pass 1  IDiag  1:
 E= -581.122166369862     Delta-E=       -0.000001293126 Rises=F Damp=F
 DIIS: error= 2.26D-05 at cycle   5 NSaved=   5.
 NSaved= 5 IEnMin= 5 EnMin= -581.122166369862     IErMin= 5 ErrMin= 2.26D-05
 ErrMax= 2.26D-05  0.00D+00 EMaxC= 1.00D-01 BMatC= 1.96D-07 BMatP= 2.61D-06
 IDIUse=1 WtCom= 1.00D+00 WtEn= 0.00D+00
 Coeff-Com:  0.177D-02-0.334D-02-0.240D-01 0.634D-01 0.962D+00
 Coeff:      0.177D-02-0.334D-02-0.240D-01 0.634D-01 0.962D+00
 Gap=     0.103 Goal=   None    Shift=    0.000
 Gap=     0.103 Goal=   None    Shift=    0.000
 RMSDP=4.89D-06 MaxDP=1.09D-04 DE=-1.29D-06 OVMax= 1.62D-04

 Cycle   6  Pass 1  IDiag  1:
 E= -581.122166436099     Delta-E=       -0.000000066237 Rises=F Damp=F
 DIIS: error= 1.59D-05 at cycle   6 NSaved=   6.
 NSaved= 6 IEnMin= 6 EnMin= -581.122166436099     IErMin= 6 ErrMin= 1.59D-05
 ErrMax= 1.59D-05  0.00D+00 EMaxC= 1.00D-01 BMatC= 2.74D-08 BMatP= 1.96D-07
 IDIUse=1 WtCom= 1.00D+00 WtEn= 0.00D+00
 Coeff-Com:  0.110D-02-0.204D-02-0.131D-01-0.503D-02 0.318D+00 0.701D+00
 Coeff:      0.110D-02-0.204D-02-0.131D-01-0.503D-02 0.318D+00 0.701D+00
 Gap=     0.103 Goal=   None    Shift=    0.000
 Gap=     0.103 Goal=   None    Shift=    0.000
 RMSDP=3.02D-06 MaxDP=8.47D-05 DE=-6.62D-08 OVMax= 2.66D-04

 Cycle   7  Pass 1  IDiag  1:
 E= -581.122166401124     Delta-E=        0.000000034975 Rises=F Damp=F
 DIIS: error= 3.24D-05 at cycle   7 NSaved=   7.
 NSaved= 7 IEnMin= 6 EnMin= -581.122166436099     IErMin= 6 ErrMin= 1.59D-05
 ErrMax= 3.24D-05  0.00D+00 EMaxC= 1.00D-01 BMatC= 9.20D-08 BMatP= 2.74D-08
 IDIUse=1 WtCom= 1.00D+00 WtEn= 0.00D+00
 Coeff-Com:  0.574D-03-0.105D-02-0.572D-02-0.227D-01 0.235D-01 0.670D+00
 Coeff-Com:  0.335D+00
 Coeff:      0.574D-03-0.105D-02-0.572D-02-0.227D-01 0.235D-01 0.670D+00
 Coeff:      0.335D+00
 Gap=     0.103 Goal=   None    Shift=    0.000
 Gap=     0.103 Goal=   None    Shift=    0.000
 RMSDP=2.05D-06 MaxDP=5.70D-05 DE= 3.50D-08 OVMax= 1.84D-04

 Cycle   8  Pass 1  IDiag  1:
 E= -581.122166451350     Delta-E=       -0.000000050227 Rises=F Damp=F
 DIIS: error= 1.13D-06 at cycle   8 NSaved=   8.
 NSaved= 8 IEnMin= 8 EnMin= -581.122166451350     IErMin= 8 ErrMin= 1.13D-06
 ErrMax= 1.13D-06  0.00D+00 EMaxC= 1.00D-01 BMatC= 2.36D-10 BMatP= 2.74D-08
 IDIUse=1 WtCom= 1.00D+00 WtEn= 0.00D+00
 Coeff-Com:  0.692D-04-0.125D-03-0.301D-03-0.469D-02-0.101D-01 0.989D-01
 Coeff-Com:  0.791D-01 0.837D+00
 Coeff:      0.692D-04-0.125D-03-0.301D-03-0.469D-02-0.101D-01 0.989D-01
 Coeff:      0.791D-01 0.837D+00
 Gap=     0.103 Goal=   None    Shift=    0.000
 Gap=     0.103 Goal=   None    Shift=    0.000
 RMSDP=1.41D-07 MaxDP=3.07D-06 DE=-5.02D-08 OVMax= 7.87D-06

 Cycle   9  Pass 1  IDiag  1:
 E= -581.122166451472     Delta-E=       -0.000000000122 Rises=F Damp=F
 DIIS: error= 5.03D-08 at cycle   9 NSaved=   9.
 NSaved= 9 IEnMin= 9 EnMin= -581.122166451472     IErMin= 9 ErrMin= 5.03D-08
 ErrMax= 5.03D-08  0.00D+00 EMaxC= 1.00D-01 BMatC= 8.27D-13 BMatP= 2.36D-10
 IDIUse=1 WtCom= 1.00D+00 WtEn= 0.00D+00
 Coeff-Com: -0.105D-04 0.189D-04 0.809D-04 0.798D-03 0.834D-03-0.213D-01
 Coeff-Com: -0.136D-01-0.817D-01 0.111D+01
 Coeff:     -0.105D-04 0.189D-04 0.809D-04 0.798D-03 0.834D-03-0.213D-01
 Coeff:     -0.136D-01-0.817D-01 0.111D+01
 Gap=     0.103 Goal=   None    Shift=    0.000
 Gap=     0.103 Goal=   None    Shift=    0.000
 RMSDP=2.78D-08 MaxDP=4.33D-07 DE=-1.22D-10 OVMax= 8.44D-07

 Cycle  10  Pass 1  IDiag  1:
 E= -581.122166451473     Delta-E=       -0.000000000001 Rises=F Damp=F
 DIIS: error= 8.70D-09 at cycle  10 NSaved=  10.
 NSaved=10 IEnMin=10 EnMin= -581.122166451473     IErMin=10 ErrMin= 8.70D-09
 ErrMax= 8.70D-09  0.00D+00 EMaxC= 1.00D-01 BMatC= 9.71D-15 BMatP= 8.27D-13
 IDIUse=1 WtCom= 1.00D+00 WtEn= 0.00D+00
 Coeff-Com:  0.463D-06-0.789D-06-0.867D-05-0.231D-04 0.693D-04 0.101D-02
 Coeff-Com:  0.295D-03-0.599D-02-0.978D-01 0.110D+01
 Coeff:      0.463D-06-0.789D-06-0.867D-05-0.231D-04 0.693D-04 0.101D-02
 Coeff:      0.295D-03-0.599D-02-0.978D-01 0.110D+01
 Gap=     0.103 Goal=   None    Shift=    0.000
 Gap=     0.103 Goal=   None    Shift=    0.000
 RMSDP=3.00D-09 MaxDP=5.72D-08 DE=-1.36D-12 OVMax= 8.69D-08

 SCF Done:  E(UM062X) =  -581.122166451     A.U. after   10 cycles
            NFock= 10  Conv=0.30D-08     -V/T= 2.0022
 <Sx>= 0.0000 <Sy>= 0.0000 <Sz>= 0.0000 <S**2>=-0.0000 S=-0.0000
 <L.S>=  0.00000000000    
 KE= 5.798183738460D+02 PE=-1.502166515815D+03 EE= 2.816163008286D+02
 Annihilation of the first spin contaminant:
 S**2 before annihilation    -0.0000,   after     0.0000
 Leave Link  502 at Mon Apr 21 20:30:36 2025, MaxMem=   536870912 cpu:              60.4 elap:               7.9
 (Enter /home/szhao/Apps/g16/l601.exe)
 Copying SCF densities to generalized density rwf, IOpCl= 1 IROHF=0.

 **********************************************************************

            Population analysis using the SCF density.

 **********************************************************************

 Alpha  occ. eigenvalues --  -67.04831 -67.04831  -5.59286  -5.59285  -3.90462
 Alpha  occ. eigenvalues --   -3.90461  -3.90358  -3.90356  -3.90232  -3.90232
 Alpha  occ. eigenvalues --   -0.60499  -0.58925  -0.43831  -0.43464  -0.31418
 Alpha  occ. eigenvalues --   -0.20440
 Alpha virt. eigenvalues --   -0.10150  -0.09554   0.02134   0.02592   0.02970
 Alpha virt. eigenvalues --    0.04952   0.05340   0.05425   0.05521   0.06859
 Alpha virt. eigenvalues --    0.07509   0.07821   0.11121   0.15299   0.26482
 Alpha virt. eigenvalues --    0.27208   0.29193   0.29985   0.31155   0.31705
 Alpha virt. eigenvalues --    0.37465   0.41896   0.42490   0.42678   0.45394
 Alpha virt. eigenvalues --    0.48394   0.57964   0.58042   0.58183   0.59576
 Alpha virt. eigenvalues --    0.62099   0.71761   0.79288   0.79432   0.88077
 Alpha virt. eigenvalues --    0.88752   1.14400   1.20921   1.21519   1.23074
 Alpha virt. eigenvalues --    1.24122   1.31543   1.36270   1.40353   1.46899
 Alpha virt. eigenvalues --    1.46954   1.46991   1.46996   1.58669   1.60022
 Alpha virt. eigenvalues --    1.90428   1.90775   2.09000   2.10240   2.58162
 Alpha virt. eigenvalues --    2.58544   2.61704   2.62689   5.50573   5.55487
 Alpha virt. eigenvalues --   11.41713  11.43724  11.44987  11.53843  11.56724
 Alpha virt. eigenvalues --   11.58229 141.06908 141.13347
  Beta  occ. eigenvalues --  -67.04831 -67.04831  -5.59286  -5.59285  -3.90462
  Beta  occ. eigenvalues --   -3.90461  -3.90358  -3.90356  -3.90232  -3.90232
  Beta  occ. eigenvalues --   -0.60499  -0.58925  -0.43831  -0.43464  -0.31418
  Beta  occ. eigenvalues --   -0.20440
  Beta virt. eigenvalues --   -0.10150  -0.09554   0.02134   0.02592   0.02970
  Beta virt. eigenvalues --    0.04952   0.05340   0.05425   0.05521   0.06859
  Beta virt. eigenvalues --    0.07509   0.07821   0.11121   0.15299   0.26482
  Beta virt. eigenvalues --    0.27208   0.29193   0.29985   0.31155   0.31705
  Beta virt. eigenvalues --    0.37465   0.41896   0.42490   0.42678   0.45394
  Beta virt. eigenvalues --    0.48394   0.57964   0.58042   0.58183   0.59576
  Beta virt. eigenvalues --    0.62099   0.71761   0.79288   0.79432   0.88077
  Beta virt. eigenvalues --    0.88752   1.14400   1.20921   1.21519   1.23074
  Beta virt. eigenvalues --    1.24122   1.31543   1.36270   1.40353   1.46899
  Beta virt. eigenvalues --    1.46954   1.46991   1.46996   1.58669   1.60022
  Beta virt. eigenvalues --    1.90428   1.90775   2.09000   2.10240   2.58162
  Beta virt. eigenvalues --    2.58544   2.61704   2.62689   5.50573   5.55487
  Beta virt. eigenvalues --   11.41713  11.43724  11.44987  11.53843  11.56724
  Beta virt. eigenvalues --   11.58229 141.06908 141.13347
          Condensed to atoms (all electrons):
               1          2          3          4          5          6
     1  Si  12.864274   0.379404   0.339527  -0.009516   0.339527  -0.009515
     2  Si   0.379404  12.864273  -0.009516   0.339527  -0.009515   0.339527
     3  H    0.339527  -0.009516   0.741187   0.000093  -0.023405   0.000262
     4  H   -0.009516   0.339527   0.000093   0.741187   0.000262  -0.023405
     5  H    0.339527  -0.009515  -0.023405   0.000262   0.741187   0.000093
     6  H   -0.009515   0.339527   0.000262  -0.023405   0.000093   0.741187
          Atomic-Atomic Spin Densities.
               1          2          3          4          5          6
     1  Si  -0.000000   0.000000  -0.000000   0.000000  -0.000000  -0.000000
     2  Si   0.000000  -0.000000   0.000000  -0.000000   0.000000   0.000000
     3  H   -0.000000   0.000000   0.000000   0.000000  -0.000000  -0.000000
     4  H    0.000000  -0.000000   0.000000  -0.000000  -0.000000  -0.000000
     5  H   -0.000000   0.000000  -0.000000  -0.000000   0.000000   0.000000
     6  H   -0.000000   0.000000  -0.000000  -0.000000   0.000000  -0.000000
 Mulliken charges and spin densities:
               1          2
     1  Si   0.096299  -0.000000
     2  Si   0.096299   0.000000
     3  H   -0.048150   0.000000
     4  H   -0.048150  -0.000000
     5  H   -0.048150  -0.000000
     6  H   -0.048150  -0.000000
 Sum of Mulliken charges =  -0.00000  -0.00000
 Mulliken charges and spin densities with hydrogens summed into heavy atoms:
               1          2
     1  Si   0.000000  -0.000000
     2  Si  -0.000000  -0.000000
 Electronic spatial extent (au):  <R**2>=            441.8818
 Charge=              0.0000 electrons
 Dipole moment (field-independent basis, Debye):
    X=             -0.0000    Y=              0.0000    Z=             -0.0000  Tot=              0.0000
 Quadrupole moment (field-independent basis, Debye-Ang):
   XX=            -25.9456   YY=            -29.9911   ZZ=            -35.4480
   XY=              0.0000   XZ=             -0.0000   YZ=             -0.0017
 Traceless Quadrupole moment (field-independent basis, Debye-Ang):
   XX=              4.5160   YY=              0.4705   ZZ=             -4.9864
   XY=              0.0000   XZ=             -0.0000   YZ=             -0.0017
 Octapole moment (field-independent basis, Debye-Ang**2):
  XXX=              0.0000  YYY=              0.0000  ZZZ=             -0.0006  XYY=             -0.0000
  XXY=              0.0000  XXZ=              0.0007  XZZ=              0.0000  YZZ=              0.0000
  YYZ=             -0.0002  XYZ=             -0.0023
 Hexadecapole moment (field-independent basis, Debye-Ang**3):
 XXXX=           -570.2482 YYYY=            -84.9086 ZZZZ=            -85.9163 XXXY=              0.0003
 XXXZ=              0.0000 YYYX=              0.0003 YYYZ=             -0.0010 ZZZX=             -0.0000
 ZZZY=              0.0007 XXYY=           -110.3030 XXZZ=           -120.7101 YYZZ=            -29.3397
 XXYZ=             -0.0033 YYXZ=              0.0000 ZZXY=              0.0001
 N-N= 5.960967468883D+01 E-N=-1.502166515646D+03  KE= 5.798183738460D+02
                          Isotropic Fermi Contact Couplings
        Atom                 a.u.       MegaHertz       Gauss      10(-4) cm-1
     1  Si(29)            -0.00000       0.00000       0.00000       0.00000
     2  Si(29)             0.00000      -0.00000      -0.00000      -0.00000
     3  H(1)              -0.00000      -0.00000      -0.00000      -0.00000
     4  H(1)              -0.00000      -0.00000      -0.00000      -0.00000
     5  H(1)              -0.00000      -0.00000      -0.00000      -0.00000
     6  H(1)              -0.00000      -0.00000      -0.00000      -0.00000
 --------------------------------------------------------
       Center         ----  Spin Dipole Couplings  ----
                      3XX-RR        3YY-RR        3ZZ-RR
 --------------------------------------------------------
     1   Atom        0.000000      0.000000      0.000000
     2   Atom        0.000000      0.000000      0.000000
     3   Atom        0.000000      0.000000      0.000000
     4   Atom        0.000000      0.000000      0.000000
     5   Atom        0.000000      0.000000      0.000000
     6   Atom        0.000000      0.000000      0.000000
 --------------------------------------------------------
                        XY            XZ            YZ
 --------------------------------------------------------
     1   Atom        0.000000      0.000000      0.000000
     2   Atom        0.000000      0.000000      0.000000
     3   Atom        0.000000      0.000000      0.000000
     4   Atom        0.000000      0.000000      0.000000
     5   Atom        0.000000      0.000000      0.000000
     6   Atom        0.000000      0.000000      0.000000
 --------------------------------------------------------


 ---------------------------------------------------------------------------------
              Anisotropic Spin Dipole Couplings in Principal Axis System
 ---------------------------------------------------------------------------------

       Atom             a.u.   MegaHertz   Gauss  10(-4) cm-1        Axes

              Baa     0.0000    -0.000    -0.000    -0.000  1.0000  0.0000  0.0000
     1 Si(29) Bbb     0.0000    -0.000    -0.000    -0.000 -0.0000  1.0000  0.0000
              Bcc     0.0000    -0.000    -0.000    -0.000  0.0000  0.0000  1.0000
 
              Baa     0.0000    -0.000    -0.000    -0.000  1.0000  0.0000  0.0000
     2 Si(29) Bbb     0.0000    -0.000    -0.000    -0.000 -0.0000  1.0000  0.0000
              Bcc     0.0000    -0.000    -0.000    -0.000  0.0000  0.0000  1.0000
 
              Baa     0.0000     0.000     0.000     0.000  1.0000  0.0000  0.0000
     3 H(1)   Bbb     0.0000     0.000     0.000     0.000 -0.0000  1.0000  0.0000
              Bcc     0.0000     0.000     0.000     0.000  0.0000  0.0000  1.0000
 
              Baa     0.0000     0.000     0.000     0.000  1.0000  0.0000  0.0000
     4 H(1)   Bbb     0.0000     0.000     0.000     0.000 -0.0000  1.0000  0.0000
              Bcc     0.0000     0.000     0.000     0.000  0.0000  0.0000  1.0000
 
              Baa     0.0000     0.000     0.000     0.000  1.0000  0.0000  0.0000
     5 H(1)   Bbb     0.0000     0.000     0.000     0.000 -0.0000  1.0000  0.0000
              Bcc     0.0000     0.000     0.000     0.000  0.0000  0.0000  1.0000
 
              Baa     0.0000     0.000     0.000     0.000  1.0000  0.0000  0.0000
     6 H(1)   Bbb     0.0000     0.000     0.000     0.000 -0.0000  1.0000  0.0000
              Bcc     0.0000     0.000     0.000     0.000  0.0000  0.0000  1.0000
 

 ---------------------------------------------------------------------------------

 No NMR shielding tensors so no spin-rotation constants.
 Leave Link  601 at Mon Apr 21 20:30:37 2025, MaxMem=   536870912 cpu:               1.3 elap:               0.2
 (Enter /home/szhao/Apps/g16/l701.exe)
 ... and contract with generalized density number  0.
 Compute integral first derivatives.
 Leave Link  701 at Mon Apr 21 20:30:37 2025, MaxMem=   536870912 cpu:               1.0 elap:               0.2
 (Enter /home/szhao/Apps/g16/l702.exe)
 L702 exits ... SP integral derivatives will be done elsewhere.
 Leave Link  702 at Mon Apr 21 20:30:37 2025, MaxMem=   536870912 cpu:               0.4 elap:               0.1
 (Enter /home/szhao/Apps/g16/l703.exe)
 Integral derivatives from FoFJK, PRISM(SPDF).
 Compute integral first derivatives, UseDBF=F ICtDFT=           0.
 Calling FoFJK, ICntrl=      2127 FMM=F ISym2X=0 I1Cent= 0 IOpClX= 1 NMat=1 NMatS=1 NMatT=0.
 FoFJK:  IHMeth= 1 ICntrl=    2127 DoSepK=F KAlg= 0 I1Cent=           0 FoldK=F
 IRaf=         0 NMat=       1 IRICut=       1 DoRegI=T DoRafI=F ISym2E= 0 IDoP0=0 IntGTp=1.
 FoFCou: FMM=F IPFlag=           0 FMFlag=      100000 FMFlg1=         800
         NFxFlg=           0 DoJE=F BraDBF=F KetDBF=F FulRan=T
         wScrn=  0.000000 ICntrl=      2127 IOpCl=  1 I1Cent=           0 NGrid=           0
         NMat0=    1 NMatS0=      1 NMatT0=    0 NMatD0=    1 NMtDS0=    0 NMtDT0=    0
 Symmetry not used in FoFCou.
 Leave Link  703 at Mon Apr 21 20:30:38 2025, MaxMem=   536870912 cpu:               8.2 elap:               1.1
 (Enter /home/szhao/Apps/g16/l716.exe)
 Dipole        =-2.92167570D-08 2.33121185D-08-2.60914177D-06
 -------------------------------------------------------------------
 Center     Atomic                   Forces (Hartrees/Bohr)
 Number     Number              X              Y              Z
 -------------------------------------------------------------------
      1       14          -0.000000000   -0.000000000   -0.000000000
      2       14          -0.000000000   -0.000000000   -0.000000000
      3        1           0.003320948   -0.002521484    0.000002959
      4        1          -0.003320842    0.002521703    0.000001072
      5        1           0.003323299    0.002517776   -0.000004119
      6        1          -0.003323212   -0.002517968   -0.000002235
 -------------------------------------------------------------------
 Cartesian Forces:  Max     0.003323299 RMS     0.001965550
 Leave Link  716 at Mon Apr 21 20:30:39 2025, MaxMem=   536870912 cpu:               0.6 elap:               0.2
 (Enter /home/szhao/Apps/g16/l103.exe)

 GradGradGradGradGradGradGradGradGradGradGradGradGradGradGradGradGradGrad
 Berny optimization.
 FormGI is forming the generalized inverse of G from B-inverse, IUseBI=4.
 Internal  Forces:  Max     0.007705285 RMS     0.003653528
 Search for a local minimum.
 Step number   1 out of a maximum of   30
 All quantities printed in internal units (Hartrees-Bohrs-Radians)
 RMS Force = .35725D-02 SwitMx=.10000D-02 MixMth= 1
 Mixed Optimization -- RFO/linear search
 Second derivative matrix not updated -- first step.
 The second derivative matrix:
                          X1        Y1        Z1        X2        Y2
           X1           0.50000
           Y1           0.00000   0.50000
           Z1           0.00000   0.00000   0.50000
           X2           0.00000   0.00000   0.00000   0.50000
           Y2           0.00000   0.00000   0.00000   0.00000   0.50000
           Z2           0.00000   0.00000   0.00000   0.00000   0.00000
           R1           0.00000   0.00000   0.00000   0.00000   0.00000
           R2           0.00000   0.00000   0.00000   0.00000   0.00000
           R3           0.00000   0.00000   0.00000   0.00000   0.00000
           R4           0.00000   0.00000   0.00000   0.00000   0.00000
           A1           0.00000   0.00000   0.00000   0.00000   0.00000
           A2           0.00000   0.00000   0.00000   0.00000   0.00000
           A3           0.00000   0.00000   0.00000   0.00000   0.00000
           A4           0.00000   0.00000   0.00000   0.00000   0.00000
           A5           0.00000   0.00000   0.00000   0.00000   0.00000
           A6           0.00000   0.00000   0.00000   0.00000   0.00000
           D1           0.00000   0.00000   0.00000   0.00000   0.00000
           D2           0.00000   0.00000   0.00000   0.00000   0.00000
           D3           0.00000   0.00000   0.00000   0.00000   0.00000
           D4           0.00000   0.00000   0.00000   0.00000   0.00000
                          Z2        R1        R2        R3        R4
           Z2           0.50000
           R1           0.00000   0.18116
           R2           0.00000   0.00000   0.18115
           R3           0.00000   0.00000   0.00000   0.18116
           R4           0.00000   0.00000   0.00000   0.00000   0.18115
           A1           0.00000   0.00000   0.00000   0.00000   0.00000
           A2           0.00000   0.00000   0.00000   0.00000   0.00000
           A3           0.00000   0.00000   0.00000   0.00000   0.00000
           A4           0.00000   0.00000   0.00000   0.00000   0.00000
           A5           0.00000   0.00000   0.00000   0.00000   0.00000
           A6           0.00000   0.00000   0.00000   0.00000   0.00000
           D1           0.00000   0.00000   0.00000   0.00000   0.00000
           D2           0.00000   0.00000   0.00000   0.00000   0.00000
           D3           0.00000   0.00000   0.00000   0.00000   0.00000
           D4           0.00000   0.00000   0.00000   0.00000   0.00000
                          A1        A2        A3        A4        A5
           A1           0.16000
           A2           0.00000   0.16000
           A3           0.00000   0.00000   0.16000
           A4           0.00000   0.00000   0.00000   0.16000
           A5           0.00000   0.00000   0.00000   0.00000   0.16000
           A6           0.00000   0.00000   0.00000   0.00000   0.00000
           D1           0.00000   0.00000   0.00000   0.00000   0.00000
           D2           0.00000   0.00000   0.00000   0.00000   0.00000
           D3           0.00000   0.00000   0.00000   0.00000   0.00000
           D4           0.00000   0.00000   0.00000   0.00000   0.00000
                          A6        D1        D2        D3        D4
           A6           0.16000
           D1           0.00000   0.00230
           D2           0.00000   0.00000   0.00230
           D3           0.00000   0.00000   0.00000   0.00230
           D4           0.00000   0.00000   0.00000   0.00000   0.00230
 ITU=  0
     Eigenvalues ---    0.00230   0.00230   0.00230   0.16000   0.16000
     Eigenvalues ---    0.16000   0.16000   0.18115   0.18115   0.18116
     Eigenvalues ---    0.181161000.000001000.000001000.000001000.00000
     Eigenvalues --- 1000.000001000.000001000.000001000.000001000.00000
 RFO step:  Lambda=-1.10865528D-03 EMin= 2.30000000D-03
 Linear search not attempted -- first point.
 Iteration  1 RMS(Cart)=  0.02977519 RMS(Int)=  0.00035606
 Iteration  2 RMS(Cart)=  0.00035742 RMS(Int)=  0.00000001
 Iteration  3 RMS(Cart)=  0.00000001 RMS(Int)=  0.00000001
 ITry= 1 IFail=0 DXMaxC= 5.58D-02 DCOld= 1.00D+10 DXMaxT= 3.00D-01 DXLimC= 3.00D+00 Rises=F
 Variable       Old X    -DE/DX   Delta X   Delta X   Delta X     New X
                                 (Linear)    (Quad)   (Total)
    X1       -3.09446   0.00664   0.00000   0.00000   0.00000  -3.09446
    Y1        0.00000  -0.00000   0.00000   0.00000   0.00000   0.00000
    Z1        0.00000  -0.00000   0.00000   0.00000   0.00000   0.00000
    X2        3.09446  -0.00664   0.00000   0.00000   0.00000   3.09446
    Y2        0.00000   0.00000   0.00000   0.00000   0.00000   0.00000
    Z2        0.00000  -0.00000   0.00000   0.00000   0.00000   0.00000
    R1        2.78324   0.00038   0.00000   0.00207   0.00207   2.78531
    R2        2.78326   0.00037   0.00000   0.00205   0.00205   2.78531
    R3        2.78324   0.00038   0.00000   0.00207   0.00207   2.78531
    R4        2.78326   0.00037   0.00000   0.00205   0.00205   2.78531
    A1        2.12963  -0.00385   0.00000  -0.02391  -0.02391   2.10572
    A2        2.12964  -0.00385   0.00000  -0.02391  -0.02391   2.10572
    A3        2.02391   0.00771   0.00000   0.04783   0.04783   2.07174
    A4        2.12963  -0.00385   0.00000  -0.02391  -0.02391   2.10572
    A5        2.12964  -0.00385   0.00000  -0.02391  -0.02391   2.10572
    A6        2.02391   0.00771   0.00000   0.04783   0.04783   2.07174
    D1        3.14097   0.00000   0.00000   0.00093   0.00093  -3.14129
    D2       -0.00074   0.00000   0.00000   0.00122   0.00122   0.00048
    D3       -0.00074   0.00000   0.00000   0.00122   0.00122   0.00048
    D4        3.14074   0.00001   0.00000   0.00152   0.00152  -3.14093
         Item               Value     Threshold  Converged?
 Maximum Force            0.007705     0.000450     NO 
 RMS     Force            0.003572     0.000300     NO 
 Maximum Displacement     0.055807     0.001800     NO 
 RMS     Displacement     0.029797     0.001200     NO 
 Predicted change in Energy=-5.581441D-04
 Lowest energy point so far.  Saving SCF results.
 GradGradGradGradGradGradGradGradGradGradGradGradGradGradGradGradGradGrad

 Leave Link  103 at Mon Apr 21 20:30:39 2025, MaxMem=   536870912 cpu:               1.5 elap:               0.3
 (Enter /home/szhao/Apps/g16/l202.exe)
                          Input orientation:                          
 ---------------------------------------------------------------------
 Center     Atomic      Atomic             Coordinates (Angstroms)
 Number     Number       Type             X           Y           Z
 ---------------------------------------------------------------------
      1         14           0       -1.637518    0.000000    0.000000
      2         14           0        1.637518    0.000000    0.000000
      3          1           0       -2.388888   -1.268026    0.000595
      4          1           0        2.388889    1.268026   -0.000215
      5          1           0       -2.388891    1.268023   -0.000825
      6          1           0        2.388891   -1.268023   -0.000015
 ---------------------------------------------------------------------
                    Distance matrix (angstroms):
                    1          2          3          4          5
     1  Si   0.000000
     2  Si   3.275036   0.000000
     3  H    1.473922   4.221355   0.000000
     4  H    4.221355   1.473922   5.409132   0.000000
     5  H    1.473921   4.221357   2.536049   4.777780   0.000000
     6  H    4.221357   1.473921   4.777780   2.536049   5.409135
                    6
     6  H    0.000000
 Symmetry turned off by external request.
 Stoichiometry    H4Si2
 Framework group  C1[X(H4Si2)]
 Deg. of freedom    12
 Full point group                 C1      NOp   1
 Rotational constants (GHZ):          77.9680724           2.9205211           2.8150743
 Leave Link  202 at Mon Apr 21 20:30:39 2025, MaxMem=   536870912 cpu:               0.1 elap:               0.0
 (Enter /home/szhao/Apps/g16/l301.exe)
 Standard basis: 6-311+G(d,p) (5D, 7F)
 Ernie: Thresh=  0.10000D-02 Tol=  0.10000D-05 Strict=F.
    84 basis functions,   132 primitive gaussians,    86 cartesian basis functions
    16 alpha electrons       16 beta electrons
       nuclear repulsion energy        59.6294864943 Hartrees.
 IExCor= 4336 DFT=T Ex+Corr=M062X ExCW=0 ScaHFX=  0.540000
 ScaDFX=  1.000000  1.000000  1.000000  1.000000 ScalE2=  1.000000  1.000000
 IRadAn=      7 IRanWt=     -1 IRanGd=            0 ICorTp=0 IEmpDi=  4
 NAtoms=    6 NActive=    6 NUniq=    6 SFac= 1.00D+00 NAtFMM=   60 NAOKFM=F Big=F
 Integral buffers will be    131072 words long.
 Raffenetti 2 integral format.
 Two-electron integral symmetry is turned off.
 Leave Link  301 at Mon Apr 21 20:30:39 2025, MaxMem=   536870912 cpu:               0.6 elap:               0.1
 (Enter /home/szhao/Apps/g16/l302.exe)
 NPDir=0 NMtPBC=     1 NCelOv=     1 NCel=       1 NClECP=     1 NCelD=      1
         NCelK=      1 NCelE2=     1 NClLst=     1 CellRange=     0.0.
 One-electron integrals computed using PRISM.
 NBasis=    84 RedAO= T EigKep=  6.19D-03  NBF=    84
 NBsUse=    84 1.00D-06 EigRej= -1.00D+00 NBFU=    84
 Precomputing XC quadrature grid using
 IXCGrd= 4 IRadAn=           7 IRanWt=          -1 IRanGd=           0 AccXCQ= 0.00D+00.
 Generated NRdTot=       0 NPtTot=           0 NUsed=           0 NTot=          32
 NSgBfM=    80    80    80    80    80 MxSgAt=     6 MxSgA2=     6.
 Leave Link  302 at Mon Apr 21 20:30:40 2025, MaxMem=   536870912 cpu:               1.6 elap:               0.2
 (Enter /home/szhao/Apps/g16/l303.exe)
 DipDrv:  MaxL=1.
 Leave Link  303 at Mon Apr 21 20:30:40 2025, MaxMem=   536870912 cpu:               0.5 elap:               0.1
 (Enter /home/szhao/Apps/g16/l401.exe)
 Initial guess from the checkpoint file:  "opt.chk"
 B after Tr=     0.000000   -0.000000   -0.000044
         Rot=    1.000000    0.000003   -0.000000   -0.000000 Ang=   0.00 deg.
 Guess basis will be translated and rotated to current coordinates.
 JPrj=2 DoOrth=T DoCkMO=T.
 Initial guess <Sx>= 0.0000 <Sy>= 0.0000 <Sz>= 0.0000 <S**2>= 0.0000 S= 0.0000
 Generating alternative initial guess.
 ExpMin= 3.31D-02 ExpMax= 6.94D+04 ExpMxC= 2.33D+03 IAcc=3 IRadAn=         5 AccDes= 0.00D+00
 Harris functional with IExCor= 1009 and IRadAn=       5 diagonalized for initial guess.
 HarFok:  IExCor= 1009 AccDes= 0.00D+00 IRadAn=         5 IDoV= 1 UseB2=F ITyADJ=14
 ICtDFT=  3500011 ScaDFX=  1.000000  1.000000  1.000000  1.000000
 FoFCou: FMM=F IPFlag=           0 FMFlag=      100000 FMFlg1=           0
         NFxFlg=           0 DoJE=T BraDBF=F KetDBF=T FulRan=T
         wScrn=  0.000000 ICntrl=       500 IOpCl=  0 I1Cent=   200000004 NGrid=           0
         NMat0=    1 NMatS0=      1 NMatT0=    0 NMatD0=    1 NMtDS0=    0 NMtDT0=    0
 Symmetry not used in FoFCou.
 Harris En= -580.827376960041    
 Leave Link  401 at Mon Apr 21 20:30:40 2025, MaxMem=   536870912 cpu:               3.0 elap:               0.4
 (Enter /home/szhao/Apps/g16/l502.exe)
 Keep R1 and R2 ints in memory in canonical form, NReq=20057634.
 FoFCou: FMM=F IPFlag=           0 FMFlag=           0 FMFlg1=           0
         NFxFlg=           0 DoJE=F BraDBF=F KetDBF=F FulRan=T
         wScrn=  0.000000 ICntrl=       600 IOpCl=  0 I1Cent=           0 NGrid=           0
         NMat0=    1 NMatS0=   3570 NMatT0=    0 NMatD0=    1 NMtDS0=    0 NMtDT0=    0
 Symmetry not used in FoFCou.
 Two-electron integral symmetry not used.
 UHF open shell SCF:
 Using DIIS extrapolation, IDIIS=  1040.
 NGot=   536870912 LenX=   524106186 LenY=   524098349
 Requested convergence on RMS density matrix=1.00D-08 within 128 cycles.
 Requested convergence on MAX density matrix=1.00D-06.
 Requested convergence on             energy=1.00D-06.
 No special actions if energy rises.

 Cycle   1  Pass 1  IDiag  1:
 E= -581.122936248880    
 DIIS: error= 9.02D-04 at cycle   1 NSaved=   1.
 NSaved= 1 IEnMin= 1 EnMin= -581.122936248880     IErMin= 1 ErrMin= 9.02D-04
 ErrMax= 9.02D-04  0.00D+00 EMaxC= 1.00D-01 BMatC= 1.60D-04 BMatP= 1.60D-04
 IDIUse=3 WtCom= 9.91D-01 WtEn= 9.02D-03
 Coeff-Com:  0.100D+01
 Coeff-En:   0.100D+01
 Coeff:      0.100D+01
 Gap=     0.371 Goal=   None    Shift=    0.000
 Gap=     0.371 Goal=   None    Shift=    0.000
 RMSDP=7.25D-05 MaxDP=6.61D-04              OVMax= 3.24D-03

 Cycle   2  Pass 1  IDiag  1:
 E= -581.122992794187     Delta-E=       -0.000056545308 Rises=F Damp=F
 DIIS: error= 1.12D-04 at cycle   2 NSaved=   2.
 NSaved= 2 IEnMin= 2 EnMin= -581.122992794187     IErMin= 2 ErrMin= 1.12D-04
 ErrMax= 1.12D-04  0.00D+00 EMaxC= 1.00D-01 BMatC= 2.62D-06 BMatP= 1.60D-04
 IDIUse=3 WtCom= 9.99D-01 WtEn= 1.12D-03
 Coeff-Com: -0.758D-01 0.108D+01
 Coeff-En:   0.000D+00 0.100D+01
 Coeff:     -0.758D-01 0.108D+01
 Gap=     0.107 Goal=   None    Shift=    0.000
 Gap=     0.107 Goal=   None    Shift=    0.000
 RMSDP=1.79D-05 MaxDP=2.46D-04 DE=-5.65D-05 OVMax= 6.57D-04

 Cycle   3  Pass 1  IDiag  1:
 E= -581.122994048795     Delta-E=       -0.000001254608 Rises=F Damp=F
 DIIS: error= 2.54D-05 at cycle   3 NSaved=   3.
 NSaved= 3 IEnMin= 3 EnMin= -581.122994048795     IErMin= 3 ErrMin= 2.54D-05
 ErrMax= 2.54D-05  0.00D+00 EMaxC= 1.00D-01 BMatC= 1.20D-07 BMatP= 2.62D-06
 IDIUse=1 WtCom= 1.00D+00 WtEn= 0.00D+00
 Coeff-Com: -0.153D-01 0.130D+00 0.886D+00
 Coeff:     -0.153D-01 0.130D+00 0.886D+00
 Gap=     0.107 Goal=   None    Shift=    0.000
 Gap=     0.107 Goal=   None    Shift=    0.000
 RMSDP=2.73D-06 MaxDP=3.77D-05 DE=-1.25D-06 OVMax= 1.41D-04

 Cycle   4  Pass 1  IDiag  1:
 E= -581.122994101738     Delta-E=       -0.000000052943 Rises=F Damp=F
 DIIS: error= 6.02D-06 at cycle   4 NSaved=   4.
 NSaved= 4 IEnMin= 4 EnMin= -581.122994101738     IErMin= 4 ErrMin= 6.02D-06
 ErrMax= 6.02D-06  0.00D+00 EMaxC= 1.00D-01 BMatC= 6.91D-09 BMatP= 1.20D-07
 IDIUse=1 WtCom= 1.00D+00 WtEn= 0.00D+00
 Coeff-Com:  0.282D-02-0.507D-01 0.591D-01 0.989D+00
 Coeff:      0.282D-02-0.507D-01 0.591D-01 0.989D+00
 Gap=     0.107 Goal=   None    Shift=    0.000
 Gap=     0.107 Goal=   None    Shift=    0.000
 RMSDP=1.06D-06 MaxDP=1.38D-05 DE=-5.29D-08 OVMax= 3.81D-05

 Cycle   5  Pass 1  IDiag  1:
 E= -581.122994105109     Delta-E=       -0.000000003371 Rises=F Damp=F
 DIIS: error= 9.11D-07 at cycle   5 NSaved=   5.
 NSaved= 5 IEnMin= 5 EnMin= -581.122994105109     IErMin= 5 ErrMin= 9.11D-07
 ErrMax= 9.11D-07  0.00D+00 EMaxC= 1.00D-01 BMatC= 3.35D-10 BMatP= 6.91D-09
 IDIUse=1 WtCom= 1.00D+00 WtEn= 0.00D+00
 Coeff-Com:  0.104D-02-0.163D-01 0.354D-02 0.278D+00 0.734D+00
 Coeff:      0.104D-02-0.163D-01 0.354D-02 0.278D+00 0.734D+00
 Gap=     0.107 Goal=   None    Shift=    0.000
 Gap=     0.107 Goal=   None    Shift=    0.000
 RMSDP=1.70D-07 MaxDP=5.78D-06 DE=-3.37D-09 OVMax= 9.04D-06

 Cycle   6  Pass 1  IDiag  1:
 E= -581.122994105157     Delta-E=       -0.000000000048 Rises=F Damp=F
 DIIS: error= 1.09D-06 at cycle   6 NSaved=   6.
 NSaved= 6 IEnMin= 6 EnMin= -581.122994105157     IErMin= 5 ErrMin= 9.11D-07
 ErrMax= 1.09D-06  0.00D+00 EMaxC= 1.00D-01 BMatC= 1.14D-10 BMatP= 3.35D-10
 IDIUse=1 WtCom= 1.00D+00 WtEn= 0.00D+00
 Coeff-Com:  0.394D-03-0.577D-02-0.230D-02 0.911D-01 0.362D+00 0.554D+00
 Coeff:      0.394D-03-0.577D-02-0.230D-02 0.911D-01 0.362D+00 0.554D+00
 Gap=     0.107 Goal=   None    Shift=    0.000
 Gap=     0.107 Goal=   None    Shift=    0.000
 RMSDP=1.58D-07 MaxDP=4.30D-06 DE=-4.77D-11 OVMax= 1.42D-05

 Cycle   7  Pass 1  IDiag  1:
 E= -581.122994105111     Delta-E=        0.000000000046 Rises=F Damp=F
 DIIS: error= 1.49D-06 at cycle   7 NSaved=   7.
 NSaved= 7 IEnMin= 6 EnMin= -581.122994105157     IErMin= 5 ErrMin= 9.11D-07
 ErrMax= 1.49D-06  0.00D+00 EMaxC= 1.00D-01 BMatC= 1.95D-10 BMatP= 1.14D-10
 IDIUse=1 WtCom= 1.00D+00 WtEn= 0.00D+00
 Coeff-Com:  0.158D-04 0.169D-03-0.357D-02-0.904D-02 0.774D-01 0.550D+00
 Coeff-Com:  0.385D+00
 Coeff:      0.158D-04 0.169D-03-0.357D-02-0.904D-02 0.774D-01 0.550D+00
 Coeff:      0.385D+00
 Gap=     0.107 Goal=   None    Shift=    0.000
 Gap=     0.107 Goal=   None    Shift=    0.000
 RMSDP=9.28D-08 MaxDP=2.56D-06 DE= 4.64D-11 OVMax= 8.34D-06

 Cycle   8  Pass 1  IDiag  1:
 E= -581.122994105217     Delta-E=       -0.000000000106 Rises=F Damp=F
 DIIS: error= 3.23D-08 at cycle   8 NSaved=   8.
 NSaved= 8 IEnMin= 8 EnMin= -581.122994105217     IErMin= 8 ErrMin= 3.23D-08
 ErrMax= 3.23D-08  0.00D+00 EMaxC= 1.00D-01 BMatC= 2.12D-13 BMatP= 1.14D-10
 IDIUse=1 WtCom= 1.00D+00 WtEn= 0.00D+00
 Coeff-Com: -0.261D-04 0.444D-03-0.360D-03-0.782D-02-0.543D-02 0.110D-01
 Coeff-Com:  0.303D-01 0.972D+00
 Coeff:     -0.261D-04 0.444D-03-0.360D-03-0.782D-02-0.543D-02 0.110D-01
 Coeff:      0.303D-01 0.972D+00
 Gap=     0.107 Goal=   None    Shift=    0.000
 Gap=     0.107 Goal=   None    Shift=    0.000
 RMSDP=6.32D-09 MaxDP=1.18D-07 DE=-1.06D-10 OVMax= 3.11D-07

 SCF Done:  E(UM062X) =  -581.122994105     A.U. after    8 cycles
            NFock=  8  Conv=0.63D-08     -V/T= 2.0023
 <Sx>= 0.0000 <Sy>= 0.0000 <Sz>= 0.0000 <S**2>=-0.0000 S=-0.0000
 <L.S>=  0.00000000000    
 KE= 5.798132303763D+02 PE=-1.502220270082D+03 EE= 2.816545591066D+02
 Annihilation of the first spin contaminant:
 S**2 before annihilation    -0.0000,   after     0.0000
 Leave Link  502 at Mon Apr 21 20:30:48 2025, MaxMem=   536870912 cpu:              54.8 elap:               7.2
 (Enter /home/szhao/Apps/g16/l701.exe)
 ... and contract with generalized density number  0.
 Compute integral first derivatives.
 Leave Link  701 at Mon Apr 21 20:30:48 2025, MaxMem=   536870912 cpu:               1.1 elap:               0.2
 (Enter /home/szhao/Apps/g16/l702.exe)
 L702 exits ... SP integral derivatives will be done elsewhere.
 Leave Link  702 at Mon Apr 21 20:30:48 2025, MaxMem=   536870912 cpu:               0.5 elap:               0.1
 (Enter /home/szhao/Apps/g16/l703.exe)
 Integral derivatives from FoFJK, PRISM(SPDF).
 Compute integral first derivatives, UseDBF=F ICtDFT=           0.
 Calling FoFJK, ICntrl=      2127 FMM=F ISym2X=0 I1Cent= 0 IOpClX= 1 NMat=1 NMatS=1 NMatT=0.
 FoFJK:  IHMeth= 1 ICntrl=    2127 DoSepK=F KAlg= 0 I1Cent=           0 FoldK=F
 IRaf=         0 NMat=       1 IRICut=       1 DoRegI=T DoRafI=F ISym2E= 0 IDoP0=0 IntGTp=1.
 FoFCou: FMM=F IPFlag=           0 FMFlag=      100000 FMFlg1=         800
         NFxFlg=           0 DoJE=F BraDBF=F KetDBF=F FulRan=T
         wScrn=  0.000000 ICntrl=      2127 IOpCl=  1 I1Cent=           0 NGrid=           0
         NMat0=    1 NMatS0=      1 NMatT0=    0 NMatD0=    1 NMtDS0=    0 NMtDT0=    0
 Symmetry not used in FoFCou.
 Leave Link  703 at Mon Apr 21 20:30:50 2025, MaxMem=   536870912 cpu:               9.8 elap:               1.3
 (Enter /home/szhao/Apps/g16/l716.exe)
 Dipole        =-1.51715742D-08 8.61909655D-10-2.31240760D-06
 -------------------------------------------------------------------
 Center     Atomic                   Forces (Hartrees/Bohr)
 Number     Number              X              Y              Z
 -------------------------------------------------------------------
      1       14          -0.000000000   -0.000000000   -0.000000000
      2       14          -0.000000000   -0.000000000   -0.000000000
      3        1           0.001951954   -0.000775845   -0.000000719
      4        1          -0.001951965    0.000775825   -0.000001749
      5        1           0.001951789    0.000776210    0.000002266
      6        1          -0.001951798   -0.000776190    0.000003261
 -------------------------------------------------------------------
 Cartesian Forces:  Max     0.001951965 RMS     0.000990177
 Leave Link  716 at Mon Apr 21 20:30:50 2025, MaxMem=   536870912 cpu:               0.5 elap:               0.1
 (Enter /home/szhao/Apps/g16/l103.exe)

 GradGradGradGradGradGradGradGradGradGradGradGradGradGradGradGradGradGrad
 Berny optimization.
 Using GEDIIS/GDIIS optimizer.
 FormGI is forming the generalized inverse of G from B-inverse, IUseBI=4.
 Internal  Forces:  Max     0.003903763 RMS     0.001942115
 Search for a local minimum.
 Step number   2 out of a maximum of   30
 All quantities printed in internal units (Hartrees-Bohrs-Radians)
 RMS Force = .17920D-02 SwitMx=.10000D-02 MixMth= 1
 Mixed Optimization -- RFO/linear search
 Update second derivatives using D2CorX and points    1    2
 DE= -8.28D-04 DEPred=-5.58D-04 R= 1.48D+00
 TightC=F SS=  1.41D+00  RLast= 8.30D-02 DXNew= 5.0454D-01 2.4893D-01
 Trust test= 1.48D+00 RLast= 8.30D-02 DXMaxT set to 3.00D-01
 The second derivative matrix:
                          X1        Y1        Z1        X2        Y2
           X1           0.51345
           Y1          -0.00002   0.50000
           Z1          -0.00001   0.00000   0.50000
           X2          -0.01344   0.00002   0.00001   0.51344
           Y2           0.00002  -0.00000  -0.00000  -0.00002   0.50000
           Z2          -0.00001   0.00000   0.00000   0.00001  -0.00000
           R1           0.00346  -0.00001  -0.00000  -0.00346   0.00001
           R2           0.00343  -0.00001  -0.00000  -0.00343   0.00001
           R3           0.00346  -0.00001  -0.00000  -0.00346   0.00001
           R4           0.00344  -0.00001  -0.00000  -0.00343   0.00001
           A1          -0.00945   0.00001   0.00001   0.00945  -0.00001
           A2          -0.00945   0.00001   0.00001   0.00945  -0.00001
           A3           0.01890  -0.00003  -0.00002  -0.01890   0.00003
           A4          -0.00945   0.00001   0.00001   0.00945  -0.00001
           A5          -0.00945   0.00001   0.00001   0.00945  -0.00001
           A6           0.01890  -0.00003  -0.00002  -0.01890   0.00003
           D1           0.00002  -0.00000  -0.00000  -0.00002   0.00000
           D2           0.00003  -0.00000  -0.00000  -0.00003   0.00000
           D3           0.00003  -0.00000  -0.00000  -0.00003   0.00000
           D4           0.00005  -0.00000  -0.00000  -0.00005   0.00000
                          Z2        R1        R2        R3        R4
           Z2           0.50000
           R1          -0.00000   0.18192
           R2          -0.00000   0.00076   0.18190
           R3          -0.00000   0.00076   0.00076   0.18192
           R4          -0.00000   0.00076   0.00075   0.00076   0.18190
           A1           0.00001  -0.00113  -0.00113  -0.00113  -0.00113
           A2           0.00001  -0.00113  -0.00113  -0.00113  -0.00113
           A3          -0.00002   0.00226   0.00225   0.00226   0.00225
           A4           0.00001  -0.00113  -0.00113  -0.00113  -0.00113
           A5           0.00001  -0.00113  -0.00113  -0.00113  -0.00113
           A6          -0.00002   0.00226   0.00225   0.00226   0.00225
           D1          -0.00000   0.00000   0.00000   0.00000   0.00000
           D2          -0.00000   0.00001   0.00001   0.00001   0.00001
           D3          -0.00000   0.00001   0.00001   0.00001   0.00001
           D4          -0.00000   0.00001   0.00001   0.00001   0.00001
                          A1        A2        A3        A4        A5
           A1           0.15335
           A2          -0.00665   0.15335
           A3           0.01331   0.01331   0.13339
           A4          -0.00665  -0.00665   0.01331   0.15335
           A5          -0.00665  -0.00665   0.01331  -0.00665   0.15335
           A6           0.01331   0.01331  -0.02661   0.01331   0.01331
           D1          -0.00001  -0.00001   0.00002  -0.00001  -0.00001
           D2          -0.00001  -0.00001   0.00003  -0.00001  -0.00001
           D3          -0.00001  -0.00001   0.00003  -0.00001  -0.00001
           D4          -0.00002  -0.00002   0.00004  -0.00002  -0.00002
                          A6        D1        D2        D3        D4
           A6           0.13339
           D1           0.00002   0.00230
           D2           0.00003   0.00000   0.00230
           D3           0.00003   0.00000   0.00000   0.00230
           D4           0.00004   0.00000   0.00000   0.00000   0.00230
 ITU=  1  0
 Use linear search instead of GDIIS.
     Eigenvalues ---    0.00230   0.00230   0.00230   0.07958   0.16000
     Eigenvalues ---    0.16000   0.16000   0.18115   0.18115   0.18116
     Eigenvalues ---    0.184761000.000001000.000001000.000001000.00000
     Eigenvalues --- 1000.000001000.000001000.000001000.000001000.00000
 RFO step:  Lambda=-2.39986136D-05 EMin= 2.30000053D-03
 Quartic linear search produced a step of  1.02232.
 Iteration  1 RMS(Cart)=  0.03137002 RMS(Int)=  0.00039507
 Iteration  2 RMS(Cart)=  0.00039603 RMS(Int)=  0.00000008
 Iteration  3 RMS(Cart)=  0.00000001 RMS(Int)=  0.00000008
 ITry= 1 IFail=0 DXMaxC= 6.24D-02 DCOld= 1.00D+10 DXMaxT= 3.00D-01 DXLimC= 3.00D+00 Rises=F
 Variable       Old X    -DE/DX   Delta X   Delta X   Delta X     New X
                                 (Linear)    (Quad)   (Total)
    X1       -3.09446   0.00390   0.00000   0.00000   0.00000  -3.09446
    Y1        0.00000   0.00000   0.00000   0.00000   0.00000   0.00000
    Z1        0.00000   0.00000   0.00000   0.00000   0.00000   0.00000
    X2        3.09446  -0.00390   0.00000   0.00000   0.00000   3.09446
    Y2        0.00000  -0.00000   0.00000   0.00000   0.00000   0.00000
    Z2        0.00000   0.00000   0.00000   0.00000   0.00000   0.00000
    R1        2.78531  -0.00033   0.00212  -0.00571  -0.00359   2.78172
    R2        2.78531  -0.00033   0.00209  -0.00568  -0.00359   2.78172
    R3        2.78531  -0.00033   0.00212  -0.00571  -0.00359   2.78172
    R4        2.78531  -0.00033   0.00209  -0.00568  -0.00359   2.78172
    A1        2.10572  -0.00193  -0.02445  -0.00069  -0.02514   2.08058
    A2        2.10572  -0.00193  -0.02445  -0.00070  -0.02514   2.08058
    A3        2.07174   0.00385   0.04889   0.00139   0.05028   2.12202
    A4        2.10572  -0.00193  -0.02445  -0.00069  -0.02514   2.08058
    A5        2.10572  -0.00193  -0.02445  -0.00070  -0.02514   2.08058
    A6        2.07174   0.00385   0.04889   0.00139   0.05028   2.12202
    D1       -3.14129  -0.00000   0.00095  -0.00121  -0.00026  -3.14155
    D2        0.00048  -0.00000   0.00125  -0.00246  -0.00121  -0.00073
    D3        0.00048  -0.00000   0.00125  -0.00250  -0.00125  -0.00077
    D4       -3.14093  -0.00000   0.00155  -0.00376  -0.00221   3.14005
         Item               Value     Threshold  Converged?
 Maximum Force            0.003853     0.000450     NO 
 RMS     Force            0.001792     0.000300     NO 
 Maximum Displacement     0.062441     0.001800     NO 
 RMS     Displacement     0.031349     0.001200     NO 
 Predicted change in Energy=-2.820112D-04
 Lowest energy point so far.  Saving SCF results.
 GradGradGradGradGradGradGradGradGradGradGradGradGradGradGradGradGradGrad

 Leave Link  103 at Mon Apr 21 20:30:50 2025, MaxMem=   536870912 cpu:               0.7 elap:               0.2
 (Enter /home/szhao/Apps/g16/l202.exe)
                          Input orientation:                          
 ---------------------------------------------------------------------
 Center     Atomic      Atomic             Coordinates (Angstroms)
 Number     Number       Type             X           Y           Z
 ---------------------------------------------------------------------
      1         14           0       -1.637518    0.000000    0.000000
      2         14           0        1.637518    0.000000    0.000000
      3          1           0       -2.355847   -1.284855    0.000456
      4          1           0        2.355847    1.284855   -0.000403
      5          1           0       -2.355849    1.284855    0.000588
      6          1           0        2.355849   -1.284854    0.001397
 ---------------------------------------------------------------------
                    Distance matrix (angstroms):
                    1          2          3          4          5
     1  Si   0.000000
     2  Si   3.275036   0.000000
     3  H    1.472022   4.194975   0.000000
     4  H    4.194976   1.472022   5.366887   0.000000
     5  H    1.472023   4.194977   2.569710   4.711697   0.000000
     6  H    4.194977   1.472023   4.711697   2.569710   5.366890
                    6
     6  H    0.000000
 Symmetry turned off by external request.
 Stoichiometry    H4Si2
 Framework group  C1[X(H4Si2)]
 Deg. of freedom    12
 Full point group                 C1      NOp   1
 Rotational constants (GHZ):          75.9387964           2.9312267           2.8222869
 Leave Link  202 at Mon Apr 21 20:30:51 2025, MaxMem=   536870912 cpu:               0.3 elap:               0.1
 (Enter /home/szhao/Apps/g16/l301.exe)
 Standard basis: 6-311+G(d,p) (5D, 7F)
 Ernie: Thresh=  0.10000D-02 Tol=  0.10000D-05 Strict=F.
    84 basis functions,   132 primitive gaussians,    86 cartesian basis functions
    16 alpha electrons       16 beta electrons
       nuclear repulsion energy        59.6987506024 Hartrees.
 IExCor= 4336 DFT=T Ex+Corr=M062X ExCW=0 ScaHFX=  0.540000
 ScaDFX=  1.000000  1.000000  1.000000  1.000000 ScalE2=  1.000000  1.000000
 IRadAn=      7 IRanWt=     -1 IRanGd=            0 ICorTp=0 IEmpDi=  4
 NAtoms=    6 NActive=    6 NUniq=    6 SFac= 1.00D+00 NAtFMM=   60 NAOKFM=F Big=F
 Integral buffers will be    131072 words long.
 Raffenetti 2 integral format.
 Two-electron integral symmetry is turned off.
 Leave Link  301 at Mon Apr 21 20:30:51 2025, MaxMem=   536870912 cpu:               0.6 elap:               0.1
 (Enter /home/szhao/Apps/g16/l302.exe)
 NPDir=0 NMtPBC=     1 NCelOv=     1 NCel=       1 NClECP=     1 NCelD=      1
         NCelK=      1 NCelE2=     1 NClLst=     1 CellRange=     0.0.
 One-electron integrals computed using PRISM.
 NBasis=    84 RedAO= T EigKep=  6.16D-03  NBF=    84
 NBsUse=    84 1.00D-06 EigRej= -1.00D+00 NBFU=    84
 Precomputing XC quadrature grid using
 IXCGrd= 4 IRadAn=           7 IRanWt=          -1 IRanGd=           0 AccXCQ= 0.00D+00.
 Generated NRdTot=       0 NPtTot=           0 NUsed=           0 NTot=          32
 NSgBfM=    80    80    80    80    80 MxSgAt=     6 MxSgA2=     6.
 Leave Link  302 at Mon Apr 21 20:30:51 2025, MaxMem=   536870912 cpu:               1.4 elap:               0.2
 (Enter /home/szhao/Apps/g16/l303.exe)
 DipDrv:  MaxL=1.
 Leave Link  303 at Mon Apr 21 20:30:52 2025, MaxMem=   536870912 cpu:               0.6 elap:               0.1
 (Enter /home/szhao/Apps/g16/l401.exe)
 Initial guess from the checkpoint file:  "opt.chk"
 B after Tr=    -0.000000    0.000000    0.000148
         Rot=    1.000000    0.000003   -0.000001    0.000000 Ang=   0.00 deg.
 Guess basis will be translated and rotated to current coordinates.
 JPrj=2 DoOrth=T DoCkMO=T.
 Initial guess <Sx>= 0.0000 <Sy>= 0.0000 <Sz>= 0.0000 <S**2>=-0.0000 S=-0.0000
 Generating alternative initial guess.
 ExpMin= 3.31D-02 ExpMax= 6.94D+04 ExpMxC= 2.33D+03 IAcc=3 IRadAn=         5 AccDes= 0.00D+00
 Harris functional with IExCor= 1009 and IRadAn=       5 diagonalized for initial guess.
 HarFok:  IExCor= 1009 AccDes= 0.00D+00 IRadAn=         5 IDoV= 1 UseB2=F ITyADJ=14
 ICtDFT=  3500011 ScaDFX=  1.000000  1.000000  1.000000  1.000000
 FoFCou: FMM=F IPFlag=           0 FMFlag=      100000 FMFlg1=           0
         NFxFlg=           0 DoJE=T BraDBF=F KetDBF=T FulRan=T
         wScrn=  0.000000 ICntrl=       500 IOpCl=  0 I1Cent=   200000004 NGrid=           0
         NMat0=    1 NMatS0=      1 NMatT0=    0 NMatD0=    1 NMtDS0=    0 NMtDT0=    0
 Symmetry not used in FoFCou.
 Harris En= -580.826900958116    
 Leave Link  401 at Mon Apr 21 20:30:52 2025, MaxMem=   536870912 cpu:               3.1 elap:               0.4
 (Enter /home/szhao/Apps/g16/l502.exe)
 Keep R1 and R2 ints in memory in canonical form, NReq=20057634.
 FoFCou: FMM=F IPFlag=           0 FMFlag=           0 FMFlg1=           0
         NFxFlg=           0 DoJE=F BraDBF=F KetDBF=F FulRan=T
         wScrn=  0.000000 ICntrl=       600 IOpCl=  0 I1Cent=           0 NGrid=           0
         NMat0=    1 NMatS0=   3570 NMatT0=    0 NMatD0=    1 NMtDS0=    0 NMtDT0=    0
 Symmetry not used in FoFCou.
 Two-electron integral symmetry not used.
 UHF open shell SCF:
 Using DIIS extrapolation, IDIIS=  1040.
 NGot=   536870912 LenX=   524106186 LenY=   524098349
 Requested convergence on RMS density matrix=1.00D-08 within 128 cycles.
 Requested convergence on MAX density matrix=1.00D-06.
 Requested convergence on             energy=1.00D-06.
 No special actions if energy rises.

 Cycle   1  Pass 1  IDiag  1:
 E= -581.123215459330    
 DIIS: error= 9.16D-04 at cycle   1 NSaved=   1.
 NSaved= 1 IEnMin= 1 EnMin= -581.123215459330     IErMin= 1 ErrMin= 9.16D-04
 ErrMax= 9.16D-04  0.00D+00 EMaxC= 1.00D-01 BMatC= 1.85D-04 BMatP= 1.85D-04
 IDIUse=3 WtCom= 9.91D-01 WtEn= 9.16D-03
 Coeff-Com:  0.100D+01
 Coeff-En:   0.100D+01
 Coeff:      0.100D+01
 Gap=     0.369 Goal=   None    Shift=    0.000
 Gap=     0.369 Goal=   None    Shift=    0.000
 RMSDP=7.98D-05 MaxDP=7.31D-04              OVMax= 3.43D-03

 Cycle   2  Pass 1  IDiag  1:
 E= -581.123281848998     Delta-E=       -0.000066389667 Rises=F Damp=F
 DIIS: error= 1.25D-04 at cycle   2 NSaved=   2.
 NSaved= 2 IEnMin= 2 EnMin= -581.123281848998     IErMin= 2 ErrMin= 1.25D-04
 ErrMax= 1.25D-04  0.00D+00 EMaxC= 1.00D-01 BMatC= 2.69D-06 BMatP= 1.85D-04
 IDIUse=3 WtCom= 9.99D-01 WtEn= 1.25D-03
 Coeff-Com: -0.823D-01 0.108D+01
 Coeff-En:   0.000D+00 0.100D+01
 Coeff:     -0.822D-01 0.108D+01
 Gap=     0.108 Goal=   None    Shift=    0.000
 Gap=     0.108 Goal=   None    Shift=    0.000
 RMSDP=2.01D-05 MaxDP=3.00D-04 DE=-6.64D-05 OVMax= 7.47D-04

 Cycle   3  Pass 1  IDiag  1:
 E= -581.123283306140     Delta-E=       -0.000001457143 Rises=F Damp=F
 DIIS: error= 1.61D-05 at cycle   3 NSaved=   3.
 NSaved= 3 IEnMin= 3 EnMin= -581.123283306140     IErMin= 3 ErrMin= 1.61D-05
 ErrMax= 1.61D-05  0.00D+00 EMaxC= 1.00D-01 BMatC= 8.38D-08 BMatP= 2.69D-06
 IDIUse=1 WtCom= 1.00D+00 WtEn= 0.00D+00
 Coeff-Com: -0.884D-02 0.504D-01 0.958D+00
 Coeff:     -0.884D-02 0.504D-01 0.958D+00
 Gap=     0.108 Goal=   None    Shift=    0.000
 Gap=     0.108 Goal=   None    Shift=    0.000
 RMSDP=2.98D-06 MaxDP=4.85D-05 DE=-1.46D-06 OVMax= 9.66D-05

 Cycle   4  Pass 1  IDiag  1:
 E= -581.123283341987     Delta-E=       -0.000000035846 Rises=F Damp=F
 DIIS: error= 5.19D-06 at cycle   4 NSaved=   4.
 NSaved= 4 IEnMin= 4 EnMin= -581.123283341987     IErMin= 4 ErrMin= 5.19D-06
 ErrMax= 5.19D-06  0.00D+00 EMaxC= 1.00D-01 BMatC= 6.83D-09 BMatP= 8.38D-08
 IDIUse=1 WtCom= 1.00D+00 WtEn= 0.00D+00
 Coeff-Com:  0.279D-02-0.497D-01 0.128D+00 0.919D+00
 Coeff:      0.279D-02-0.497D-01 0.128D+00 0.919D+00
 Gap=     0.108 Goal=   None    Shift=    0.000
 Gap=     0.108 Goal=   None    Shift=    0.000
 RMSDP=1.10D-06 MaxDP=2.21D-05 DE=-3.58D-08 OVMax= 3.09D-05

 Cycle   5  Pass 1  IDiag  1:
 E= -581.123283344260     Delta-E=       -0.000000002273 Rises=F Damp=F
 DIIS: error= 3.42D-07 at cycle   5 NSaved=   5.
 NSaved= 5 IEnMin= 5 EnMin= -581.123283344260     IErMin= 5 ErrMin= 3.42D-07
 ErrMax= 3.42D-07  0.00D+00 EMaxC= 1.00D-01 BMatC= 4.30D-11 BMatP= 6.83D-09
 IDIUse=1 WtCom= 1.00D+00 WtEn= 0.00D+00
 Coeff-Com:  0.195D-03-0.190D-02-0.117D-01 0.119D-01 0.100D+01
 Coeff:      0.195D-03-0.190D-02-0.117D-01 0.119D-01 0.100D+01
 Gap=     0.108 Goal=   None    Shift=    0.000
 Gap=     0.108 Goal=   None    Shift=    0.000
 RMSDP=1.66D-07 MaxDP=3.26D-06 DE=-2.27D-09 OVMax= 3.73D-06

 Cycle   6  Pass 1  IDiag  1:
 E= -581.123283344291     Delta-E=       -0.000000000031 Rises=F Damp=F
 DIIS: error= 1.03D-07 at cycle   6 NSaved=   6.
 NSaved= 6 IEnMin= 6 EnMin= -581.123283344291     IErMin= 6 ErrMin= 1.03D-07
 ErrMax= 1.03D-07  0.00D+00 EMaxC= 1.00D-01 BMatC= 3.13D-12 BMatP= 4.30D-11
 IDIUse=1 WtCom= 1.00D+00 WtEn= 0.00D+00
 Coeff-Com: -0.376D-04 0.807D-03-0.424D-02-0.116D-01 0.861D-01 0.929D+00
 Coeff:     -0.376D-04 0.807D-03-0.424D-02-0.116D-01 0.861D-01 0.929D+00
 Gap=     0.108 Goal=   None    Shift=    0.000
 Gap=     0.108 Goal=   None    Shift=    0.000
 RMSDP=4.36D-08 MaxDP=8.64D-07 DE=-3.12D-11 OVMax= 3.11D-06

 Cycle   7  Pass 1  IDiag  1:
 E= -581.123283344292     Delta-E=       -0.000000000000 Rises=F Damp=F
 DIIS: error= 3.13D-07 at cycle   7 NSaved=   7.
 NSaved= 7 IEnMin= 7 EnMin= -581.123283344292     IErMin= 6 ErrMin= 1.03D-07
 ErrMax= 3.13D-07  0.00D+00 EMaxC= 1.00D-01 BMatC= 9.04D-12 BMatP= 3.13D-12
 IDIUse=1 WtCom= 1.00D+00 WtEn= 0.00D+00
 Coeff-Com: -0.414D-04 0.761D-03-0.263D-02-0.105D-01 0.113D-01 0.696D+00
 Coeff-Com:  0.305D+00
 Coeff:     -0.414D-04 0.761D-03-0.263D-02-0.105D-01 0.113D-01 0.696D+00
 Coeff:      0.305D+00
 Gap=     0.108 Goal=   None    Shift=    0.000
 Gap=     0.108 Goal=   None    Shift=    0.000
 RMSDP=2.52D-08 MaxDP=6.52D-07 DE=-4.55D-13 OVMax= 2.25D-06

 Cycle   8  Pass 1  IDiag  1:
 E= -581.123283344296     Delta-E=       -0.000000000005 Rises=F Damp=F
 DIIS: error= 8.23D-08 at cycle   8 NSaved=   8.
 NSaved= 8 IEnMin= 8 EnMin= -581.123283344296     IErMin= 8 ErrMin= 8.23D-08
 ErrMax= 8.23D-08  0.00D+00 EMaxC= 1.00D-01 BMatC= 9.35D-13 BMatP= 3.13D-12
 IDIUse=1 WtCom= 1.00D+00 WtEn= 0.00D+00
 Coeff-Com: -0.163D-04 0.256D-03-0.133D-03-0.426D-02-0.254D-01 0.823D-01
 Coeff-Com:  0.217D+00 0.731D+00
 Coeff:     -0.163D-04 0.256D-03-0.133D-03-0.426D-02-0.254D-01 0.823D-01
 Coeff:      0.217D+00 0.731D+00
 Gap=     0.108 Goal=   None    Shift=    0.000
 Gap=     0.108 Goal=   None    Shift=    0.000
 RMSDP=1.75D-08 MaxDP=2.39D-07 DE=-4.55D-12 OVMax= 1.39D-06

 Cycle   9  Pass 1  IDiag  1:
 E= -581.123283344298     Delta-E=       -0.000000000002 Rises=F Damp=F
 DIIS: error= 4.03D-08 at cycle   9 NSaved=   9.
 NSaved= 9 IEnMin= 9 EnMin= -581.123283344298     IErMin= 9 ErrMin= 4.03D-08
 ErrMax= 4.03D-08  0.00D+00 EMaxC= 1.00D-01 BMatC= 1.65D-13 BMatP= 9.35D-13
 IDIUse=1 WtCom= 1.00D+00 WtEn= 0.00D+00
 Coeff-Com:  0.160D-04-0.308D-03 0.975D-03 0.471D-02-0.686D-02-0.208D+00
 Coeff-Com: -0.119D+00-0.103D+00 0.143D+01
 Coeff:      0.160D-04-0.308D-03 0.975D-03 0.471D-02-0.686D-02-0.208D+00
 Coeff:     -0.119D+00-0.103D+00 0.143D+01
 Gap=     0.108 Goal=   None    Shift=    0.000
 Gap=     0.108 Goal=   None    Shift=    0.000
 RMSDP=2.42D-08 MaxDP=3.13D-07 DE=-1.59D-12 OVMax= 1.99D-06

 Cycle  10  Pass 1  IDiag  1:
 E= -581.123283344299     Delta-E=       -0.000000000001 Rises=F Damp=F
 DIIS: error= 2.39D-08 at cycle  10 NSaved=  10.
 NSaved=10 IEnMin=10 EnMin= -581.123283344299     IErMin=10 ErrMin= 2.39D-08
 ErrMax= 2.39D-08  0.00D+00 EMaxC= 1.00D-01 BMatC= 5.47D-14 BMatP= 1.65D-13
 IDIUse=1 WtCom= 1.00D+00 WtEn= 0.00D+00
 Coeff-Com: -0.200D-05 0.814D-04-0.647D-03-0.998D-03 0.211D-01 0.738D-01
 Coeff-Com: -0.290D-01-0.269D+00-0.999D+00 0.220D+01
 Coeff:     -0.200D-05 0.814D-04-0.647D-03-0.998D-03 0.211D-01 0.738D-01
 Coeff:     -0.290D-01-0.269D+00-0.999D+00 0.220D+01
 Gap=     0.108 Goal=   None    Shift=    0.000
 Gap=     0.108 Goal=   None    Shift=    0.000
 RMSDP=3.03D-08 MaxDP=3.33D-07 DE=-1.14D-12 OVMax= 2.52D-06

 Cycle  11  Pass 1  IDiag  1:
 E= -581.123283344299     Delta-E=        0.000000000000 Rises=F Damp=F
 DIIS: error= 3.17D-09 at cycle  11 NSaved=  11.
 NSaved=11 IEnMin=10 EnMin= -581.123283344299     IErMin=11 ErrMin= 3.17D-09
 ErrMax= 3.17D-09  0.00D+00 EMaxC= 1.00D-01 BMatC= 1.42D-15 BMatP= 5.47D-14
 IDIUse=1 WtCom= 1.00D+00 WtEn= 0.00D+00
 Coeff-Com: -0.116D-05 0.169D-04 0.558D-05-0.350D-03-0.207D-02 0.118D-01
 Coeff-Com:  0.136D-01 0.355D-01-0.280D-01-0.237D+00 0.121D+01
 Coeff:     -0.116D-05 0.169D-04 0.558D-05-0.350D-03-0.207D-02 0.118D-01
 Coeff:      0.136D-01 0.355D-01-0.280D-01-0.237D+00 0.121D+01
 Gap=     0.108 Goal=   None    Shift=    0.000
 Gap=     0.108 Goal=   None    Shift=    0.000
 RMSDP=4.52D-09 MaxDP=6.40D-08 DE= 0.00D+00 OVMax= 3.70D-07

 SCF Done:  E(UM062X) =  -581.123283344     A.U. after   11 cycles
            NFock= 11  Conv=0.45D-08     -V/T= 2.0022
 <Sx>= 0.0000 <Sy>= 0.0000 <Sz>= 0.0000 <S**2>=-0.0000 S=-0.0000
 <L.S>=  0.00000000000    
 KE= 5.798196698190D+02 PE=-1.502385889624D+03 EE= 2.817441858587D+02
 Annihilation of the first spin contaminant:
 S**2 before annihilation    -0.0000,   after     0.0000
 Leave Link  502 at Mon Apr 21 20:31:02 2025, MaxMem=   536870912 cpu:              74.8 elap:               9.9
 (Enter /home/szhao/Apps/g16/l701.exe)
 ... and contract with generalized density number  0.
 Compute integral first derivatives.
 Leave Link  701 at Mon Apr 21 20:31:03 2025, MaxMem=   536870912 cpu:               1.1 elap:               0.2
 (Enter /home/szhao/Apps/g16/l702.exe)
 L702 exits ... SP integral derivatives will be done elsewhere.
 Leave Link  702 at Mon Apr 21 20:31:03 2025, MaxMem=   536870912 cpu:               0.4 elap:               0.1
 (Enter /home/szhao/Apps/g16/l703.exe)
 Integral derivatives from FoFJK, PRISM(SPDF).
 Compute integral first derivatives, UseDBF=F ICtDFT=           0.
 Calling FoFJK, ICntrl=      2127 FMM=F ISym2X=0 I1Cent= 0 IOpClX= 1 NMat=1 NMatS=1 NMatT=0.
 FoFJK:  IHMeth= 1 ICntrl=    2127 DoSepK=F KAlg= 0 I1Cent=           0 FoldK=F
 IRaf=         0 NMat=       1 IRICut=       1 DoRegI=T DoRafI=F ISym2E= 0 IDoP0=0 IntGTp=1.
 FoFCou: FMM=F IPFlag=           0 FMFlag=      100000 FMFlg1=         800
         NFxFlg=           0 DoJE=F BraDBF=F KetDBF=F FulRan=T
         wScrn=  0.000000 ICntrl=      2127 IOpCl=  1 I1Cent=           0 NGrid=           0
         NMat0=    1 NMatS0=      1 NMatT0=    0 NMatD0=    1 NMtDS0=    0 NMtDT0=    0
 Symmetry not used in FoFCou.
 Leave Link  703 at Mon Apr 21 20:31:04 2025, MaxMem=   536870912 cpu:               9.4 elap:               1.2
 (Enter /home/szhao/Apps/g16/l716.exe)
 Dipole        = 7.64782468D-08 1.03112359D-08 4.30562808D-05
 -------------------------------------------------------------------
 Center     Atomic                   Forces (Hartrees/Bohr)
 Number     Number              X              Y              Z
 -------------------------------------------------------------------
      1       14          -0.000000000   -0.000000000   -0.000000000
      2       14          -0.000000000   -0.000000000   -0.000000000
      3        1          -0.000057424   -0.000079392    0.000002836
      4        1           0.000057432    0.000079407   -0.000000651
      5        1          -0.000057262    0.000079138   -0.000004433
      6        1           0.000057270   -0.000079151   -0.000006767
 -------------------------------------------------------------------
 Cartesian Forces:  Max     0.000079407 RMS     0.000046167
 Leave Link  716 at Mon Apr 21 20:31:05 2025, MaxMem=   536870912 cpu:               0.5 elap:               0.1
 (Enter /home/szhao/Apps/g16/l103.exe)

 GradGradGradGradGradGradGradGradGradGradGradGradGradGradGradGradGradGrad
 Berny optimization.
 Using GEDIIS/GDIIS optimizer.
 FormGI is forming the generalized inverse of G from B-inverse, IUseBI=4.
 Internal  Forces:  Max     0.000114702 RMS     0.000057291
 Search for a local minimum.
 Step number   3 out of a maximum of   30
 All quantities printed in internal units (Hartrees-Bohrs-Radians)
 RMS Force = .52956D-04 SwitMx=.10000D-02 MixMth= 2
 Mixed Optimization -- En-DIIS/RFO-DIIS
 Update second derivatives using D2CorX and points    1    2    3
 DE= -2.89D-04 DEPred=-2.82D-04 R= 1.03D+00
 TightC=F SS=  1.41D+00  RLast= 8.74D-02 DXNew= 5.0454D-01 2.6231D-01
 Trust test= 1.03D+00 RLast= 8.74D-02 DXMaxT set to 3.00D-01
 The second derivative matrix:
                          X1        Y1        Z1        X2        Y2
           X1           0.52801
           Y1           0.00000   0.50000
           Z1           0.00001   0.00000   0.50000
           X2          -0.02801  -0.00000  -0.00001   0.52801
           Y2          -0.00000  -0.00000  -0.00000   0.00000   0.50000
           Z2           0.00007   0.00000   0.00000  -0.00007  -0.00000
           R1           0.00261  -0.00001  -0.00000  -0.00261   0.00001
           R2           0.00259  -0.00001  -0.00000  -0.00259   0.00001
           R3           0.00262  -0.00001  -0.00000  -0.00262   0.00001
           R4           0.00259  -0.00001  -0.00000  -0.00259   0.00001
           A1          -0.01344  -0.00000  -0.00001   0.01344   0.00000
           A2          -0.01344  -0.00000  -0.00001   0.01344   0.00000
           A3           0.02688   0.00000   0.00001  -0.02689  -0.00000
           A4          -0.01344  -0.00000  -0.00001   0.01344   0.00000
           A5          -0.01344  -0.00000  -0.00001   0.01344   0.00000
           A6           0.02689   0.00000   0.00001  -0.02689  -0.00000
           D1           0.00002  -0.00000  -0.00000  -0.00002   0.00000
           D2          -0.00004  -0.00000  -0.00000   0.00004   0.00000
           D3           0.00001  -0.00000  -0.00000  -0.00001   0.00000
           D4          -0.00005  -0.00000  -0.00000   0.00005   0.00000
                          Z2        R1        R2        R3        R4
           Z2           0.50000
           R1          -0.00001   0.18196
           R2          -0.00001   0.00080   0.18195
           R3          -0.00001   0.00080   0.00080   0.18196
           R4          -0.00001   0.00080   0.00080   0.00080   0.18195
           A1          -0.00003  -0.00079  -0.00079  -0.00079  -0.00079
           A2          -0.00003  -0.00079  -0.00079  -0.00079  -0.00079
           A3           0.00007   0.00157   0.00157   0.00157   0.00157
           A4          -0.00003  -0.00079  -0.00079  -0.00079  -0.00079
           A5          -0.00003  -0.00079  -0.00079  -0.00079  -0.00079
           A6           0.00007   0.00157   0.00157   0.00157   0.00157
           D1           0.00000   0.00000   0.00000   0.00000   0.00000
[...]
           A3           0.01396  -0.00228  -0.00210  -0.00271  -0.00282
           A4          -0.00386  -0.00244  -0.00168  -0.00101  -0.00169
           A5          -0.00376  -0.00255  -0.00187  -0.00079  -0.00141
           A6           0.02228   0.00044   0.00003   0.00139   0.00178
           D1           0.00418  -0.00088  -0.00070  -0.00122  -0.00137
           D2          -0.02848  -0.00515  -0.00502  -0.00480  -0.00488
           D3           0.02791   0.00472   0.00431   0.00406   0.00440
           D4          -0.00475   0.00045  -0.00000   0.00047   0.00089
                          A1        A2        A3        A4        A5
           A1           0.13816
           A2          -0.02063   0.14026
           A3          -0.00455  -0.00551   0.09208
           A4          -0.01816  -0.01796  -0.00417   0.14405
           A5          -0.01987  -0.01922  -0.00307  -0.01657   0.14228
           A6          -0.01436  -0.01357  -0.06334  -0.01092  -0.01178
           D1           0.00254   0.00212  -0.00167   0.00097   0.00142
           D2           0.00327   0.00285  -0.01233   0.00373   0.00413
           D3          -0.00288  -0.00246   0.01323  -0.00374  -0.00401
           D4          -0.00215  -0.00173   0.00257  -0.00097  -0.00129
                          A6        D1        D2        D3        D4
           A6           0.08765
           D1           0.00040   0.00250
           D2          -0.01193  -0.00182   0.02449
           D3           0.01311   0.00163  -0.02137   0.02297
           D4           0.00077  -0.00039   0.00263  -0.00233   0.00299
 ITU=  1  1  1  1  0  0  0  0  1  1  0
     Eigenvalues ---    0.00240   0.05064   0.05770   0.09122   0.15708
     Eigenvalues ---    0.15974   0.16000   0.16798   0.18094   0.18115
     Eigenvalues ---    0.182381000.000001000.000001000.000001000.00000
     Eigenvalues --- 1000.000001000.000001000.000001000.000001000.00000
 En-DIIS/RFO-DIIS/Sim-DIIS IScMMF=       -3 using points:    11   10    9
 RFO step:  Lambda=-5.89839365D-08.
 NNeg= 0 NGDIIS= 3 SimSw=  2.50D-01 Rises=F DC= -1.10D-06 SmlDif=  1.00D-05
 NRisDI= 0 DoIntr=F SqrtH=F CThrHd= 10.0 CDAdj=  3.0
 RMS Error=  0.3315855997D-03 NUsed= 3 OKEnD=F EnDIS=F
 InvSVX:  RCond= 4.63D-05 Info=           0 Equed=N FErr=  1.64D-15 BErr=  8.24D-17
 DidBck=F Rises=F RFO-DIIS coefs:    0.88145    0.10019    0.01836
 Iteration  1 RMS(Cart)=  0.00048735 RMS(Int)=  0.00000042
 Iteration  2 RMS(Cart)=  0.00000012 RMS(Int)=  0.00000040
 ITry= 1 IFail=0 DXMaxC= 1.23D-03 DCOld= 1.00D+10 DXMaxT= 8.49D-01 DXLimC= 3.00D+00 Rises=F
 Variable       Old X    -DE/DX   Delta X   Delta X   Delta X     New X
                                 (Linear)    (Quad)   (Total)
    X1       -3.09446  -0.00001   0.00000   0.00000   0.00000  -3.09446
    Y1        0.00000   0.00000   0.00000   0.00000   0.00000   0.00000
    Z1        0.00000   0.00002   0.00000   0.00000   0.00000   0.00000
    X2        3.09446   0.00003   0.00000   0.00000   0.00000   3.09446
    Y2        0.00000   0.00000   0.00000   0.00000   0.00000   0.00000
    Z2        0.00000  -0.00001   0.00000   0.00000   0.00000   0.00000
    R1        2.84678   0.00002   0.00007   0.00007   0.00014   2.84692
    R2        2.84674   0.00003   0.00008   0.00010   0.00018   2.84691
    R3        2.84548   0.00004   0.00006   0.00016   0.00021   2.84569
    R4        2.84553   0.00003   0.00004   0.00013   0.00017   2.84570
    A1        1.90680  -0.00002   0.00027  -0.00030  -0.00002   1.90678
    A2        1.90601  -0.00001   0.00024  -0.00021   0.00003   1.90605
    A3        1.67694   0.00002  -0.00002   0.00018   0.00016   1.67710
    A4        1.94707   0.00002   0.00019   0.00006   0.00025   1.94733
    A5        1.94809   0.00001   0.00022  -0.00006   0.00016   1.94825
    A6        1.67930   0.00001   0.00010   0.00015   0.00025   1.67954
    D1       -3.11913   0.00001  -0.00055   0.00008  -0.00047  -3.11960
    D2        1.30758  -0.00002  -0.00089  -0.00009  -0.00098   1.30660
    D3       -1.30544   0.00002  -0.00035   0.00006  -0.00028  -1.30573
    D4        3.12126  -0.00001  -0.00068  -0.00011  -0.00080   3.12046
         Item               Value     Threshold  Converged?
 Maximum Force            0.000040     0.000450     YES
 RMS     Force            0.000022     0.000300     YES
 Maximum Displacement     0.001235     0.001800     YES
 RMS     Displacement     0.000487     0.001200     YES
 Predicted change in Energy=-2.948635D-08
 Optimization completed.
    -- Stationary point found.
                           ----------------------------
                           !   Optimized Parameters   !
                           ! (Angstroms and Degrees)  !
 --------------------------                            --------------------------
 ! Name  Definition              Value          Derivative Info.                !
 --------------------------------------------------------------------------------
 ! X1    R(1,-1)                -1.6375         -DE/DX =    0.0                 !
 ! Y1    R(1,-2)                 0.0            -DE/DX =    0.0                 !
 ! Z1    R(1,-3)                 0.0            -DE/DX =    0.0                 !
 ! X2    R(2,-1)                 1.6375         -DE/DX =    0.0                 !
 ! Y2    R(2,-2)                 0.0            -DE/DX =    0.0                 !
 ! Z2    R(2,-3)                 0.0            -DE/DX =    0.0                 !
 ! R1    R(1,3)                  1.5064         -DE/DX =    0.0                 !
 ! R2    R(1,5)                  1.5064         -DE/DX =    0.0                 !
 ! R3    R(2,4)                  1.5058         -DE/DX =    0.0                 !
 ! R4    R(2,6)                  1.5058         -DE/DX =    0.0                 !
 ! A1    A(2,1,3)              109.2519         -DE/DX =    0.0                 !
 ! A2    A(2,1,5)              109.2066         -DE/DX =    0.0                 !
 ! A3    A(3,1,5)               96.0817         -DE/DX =    0.0                 !
 ! A4    A(1,2,4)              111.5592         -DE/DX =    0.0                 !
 ! A5    A(1,2,6)              111.6174         -DE/DX =    0.0                 !
 ! A6    A(4,2,6)               96.2166         -DE/DX =    0.0                 !
 ! D1    D(3,1,2,4)           -178.7128         -DE/DX =    0.0                 !
 ! D2    D(3,1,2,6)             74.9187         -DE/DX =    0.0                 !
 ! D3    D(5,1,2,4)            -74.7965         -DE/DX =    0.0                 !
 ! D4    D(5,1,2,6)            178.835          -DE/DX =    0.0                 !
 --------------------------------------------------------------------------------
 Lowest energy point so far.  Saving SCF results.
 Largest change from initial coordinates is atom    3       0.879 Angstoms.
 GradGradGradGradGradGradGradGradGradGradGradGradGradGradGradGradGradGrad

 Leave Link  103 at Mon Apr 21 20:33:04 2025, MaxMem=   536870912 cpu:               1.4 elap:               0.3
 (Enter /home/szhao/Apps/g16/l202.exe)
                          Input orientation:                          
 ---------------------------------------------------------------------
 Center     Atomic      Atomic             Coordinates (Angstroms)
 Number     Number       Type             X           Y           Z
 ---------------------------------------------------------------------
      1         14           0       -1.637518    0.000000    0.000000
      2         14           0        1.637518    0.000000    0.000000
      3          1           0       -2.134226   -1.119423    0.877247
      4          1           0        2.190829    1.121401   -0.838829
      5          1           0       -2.133096    1.121017    0.875812
      6          1           0        2.192262   -1.120424   -0.839230
 ---------------------------------------------------------------------
                    Distance matrix (angstroms):
                    1          2          3          4          5
     1  Si   0.000000
     2  Si   3.275036   0.000000
     3  H    1.506449   4.030971   0.000000
     4  H    4.076447   1.505765   5.164525   0.000000
     5  H    1.506427   4.030044   2.240440   4.651486   0.000000
     6  H    4.077606   1.505788   4.654545   2.241825   5.164702
                    6
     6  H    0.000000
 Symmetry turned off by external request.
 Stoichiometry    H4Si2
 Framework group  C1[X(H4Si2)]
 Deg. of freedom    12
 Full point group                 C1      NOp   1
 Rotational constants (GHZ):          65.6907640           2.9405963           2.8995875
 Leave Link  202 at Mon Apr 21 20:33:04 2025, MaxMem=   536870912 cpu:               0.3 elap:               0.1
 (Enter /home/szhao/Apps/g16/l601.exe)
 Copying SCF densities to generalized density rwf, IOpCl= 1 IROHF=0.

 **********************************************************************

            Population analysis using the SCF density.

 **********************************************************************

 Alpha  occ. eigenvalues --  -67.02664 -67.02343  -5.57304  -5.56984  -3.88582
 Alpha  occ. eigenvalues --   -3.88256  -3.88069  -3.87954  -3.87749  -3.87636
 Alpha  occ. eigenvalues --   -0.58994  -0.57345  -0.39796  -0.39170  -0.31657
 Alpha  occ. eigenvalues --   -0.26616
 Alpha virt. eigenvalues --   -0.10373  -0.03822   0.02210   0.02647   0.03761
 Alpha virt. eigenvalues --    0.04814   0.05517   0.05642   0.05816   0.06336
 Alpha virt. eigenvalues --    0.08442   0.08566   0.12451   0.15976   0.27625
 Alpha virt. eigenvalues --    0.28261   0.29875   0.30992   0.31329   0.33206
 Alpha virt. eigenvalues --    0.36654   0.38302   0.40491   0.47474   0.49202
 Alpha virt. eigenvalues --    0.50079   0.59375   0.59521   0.59563   0.61436
 Alpha virt. eigenvalues --    0.61941   0.70618   0.76696   0.79046   0.88957
 Alpha virt. eigenvalues --    0.89521   1.15565   1.20161   1.20384   1.22523
 Alpha virt. eigenvalues --    1.23132   1.30800   1.41502   1.42382   1.44337
 Alpha virt. eigenvalues --    1.44697   1.51782   1.53904   1.59903   1.60771
 Alpha virt. eigenvalues --    1.92684   1.93555   2.04107   2.04196   2.56425
 Alpha virt. eigenvalues --    2.56671   2.67079   2.69666   5.55155   5.58836
 Alpha virt. eigenvalues --   11.42204  11.47345  11.51744  11.53253  11.54520
 Alpha virt. eigenvalues --   11.54532 141.11287 141.16517
  Beta  occ. eigenvalues --  -67.02664 -67.02343  -5.57304  -5.56984  -3.88582
  Beta  occ. eigenvalues --   -3.88256  -3.88069  -3.87954  -3.87749  -3.87636
  Beta  occ. eigenvalues --   -0.58994  -0.57345  -0.39796  -0.39170  -0.31657
  Beta  occ. eigenvalues --   -0.26616
  Beta virt. eigenvalues --   -0.10373  -0.03822   0.02210   0.02647   0.03761
  Beta virt. eigenvalues --    0.04814   0.05517   0.05642   0.05816   0.06336
  Beta virt. eigenvalues --    0.08442   0.08566   0.12451   0.15976   0.27625
  Beta virt. eigenvalues --    0.28261   0.29875   0.30992   0.31329   0.33206
  Beta virt. eigenvalues --    0.36654   0.38302   0.40491   0.47474   0.49202
  Beta virt. eigenvalues --    0.50079   0.59375   0.59521   0.59563   0.61436
  Beta virt. eigenvalues --    0.61941   0.70618   0.76696   0.79046   0.88957
  Beta virt. eigenvalues --    0.89521   1.15565   1.20161   1.20384   1.22523
  Beta virt. eigenvalues --    1.23132   1.30800   1.41502   1.42382   1.44337
  Beta virt. eigenvalues --    1.44697   1.51782   1.53904   1.59903   1.60771
  Beta virt. eigenvalues --    1.92684   1.93555   2.04107   2.04196   2.56425
  Beta virt. eigenvalues --    2.56671   2.67079   2.69666   5.55155   5.58836
  Beta virt. eigenvalues --   11.42204  11.47345  11.51744  11.53253  11.54520
  Beta virt. eigenvalues --   11.54532 141.11287 141.16517
          Condensed to atoms (all electrons):
               1          2          3          4          5          6
     1  Si  13.070641   0.121948   0.282328  -0.001767   0.282298  -0.001756
     2  Si   0.121948  13.064121  -0.002264   0.281152  -0.002271   0.281183
     3  H    0.282328  -0.002264   0.871789   0.000134  -0.026096   0.000099
     4  H   -0.001767   0.281152   0.000134   0.870932   0.000100  -0.025320
     5  H    0.282298  -0.002271  -0.026096   0.000100   0.871843   0.000134
     6  H   -0.001756   0.281183   0.000099  -0.025320   0.000134   0.870872
          Atomic-Atomic Spin Densities.
               1          2          3          4          5          6
     1  Si   0.000000   0.000000  -0.000000  -0.000000  -0.000000  -0.000000
     2  Si   0.000000  -0.000000   0.000000   0.000000   0.000000   0.000000
     3  H   -0.000000   0.000000   0.000000   0.000000   0.000000   0.000000
     4  H   -0.000000   0.000000   0.000000  -0.000000   0.000000  -0.000000
     5  H   -0.000000   0.000000   0.000000   0.000000   0.000000   0.000000
     6  H   -0.000000   0.000000   0.000000  -0.000000   0.000000  -0.000000
 Mulliken charges and spin densities:
               1          2
     1  Si   0.246308   0.000000
     2  Si   0.256131  -0.000000
     3  H   -0.125989   0.000000
     4  H   -0.125230  -0.000000
     5  H   -0.126007   0.000000
     6  H   -0.125212  -0.000000
 Sum of Mulliken charges =  -0.00000  -0.00000
 Mulliken charges and spin densities with hydrogens summed into heavy atoms:
               1          2
     1  Si  -0.005689   0.000000
     2  Si   0.005689  -0.000000
 Electronic spatial extent (au):  <R**2>=            430.5969
 Charge=              0.0000 electrons
 Dipole moment (field-independent basis, Debye):
    X=              0.1285    Y=              0.0001    Z=              0.0120  Tot=              0.1291
 Quadrupole moment (field-independent basis, Debye-Ang):
   XX=            -25.1603   YY=            -31.8496   ZZ=            -33.3884
   XY=              0.0007   XZ=              2.8740   YZ=             -0.0001
 Traceless Quadrupole moment (field-independent basis, Debye-Ang):
   XX=              4.9724   YY=             -1.7168   ZZ=             -3.2556
   XY=              0.0007   XZ=              2.8740   YZ=             -0.0001
 Octapole moment (field-independent basis, Debye-Ang**2):
  XXX=             -0.8548  YYY=             -0.0115  ZZZ=             -0.2853  XYY=             -0.0185
  XXY=              0.0017  XXZ=              0.6669  XZZ=              0.6117  YZZ=             -0.0009
  YYZ=             -0.1345  XYZ=              0.0040
 Hexadecapole moment (field-independent basis, Debye-Ang**3):
 XXXX=           -506.0167 YYYY=            -86.0253 ZZZZ=            -84.5536 XXXY=              0.0142
 XXXZ=             56.7435 YYYX=              0.0077 YYYZ=              0.0005 ZZZX=             24.4432
 ZZZY=              0.0015 XXYY=           -117.3772 XXZZ=           -118.2073 YYZZ=            -29.1288
 XXYZ=              0.0005 YYXZ=             12.3897 ZZXY=             -0.0003
 N-N= 5.956041484853D+01 E-N=-1.503105977180D+03  KE= 5.801900976560D+02
                          Isotropic Fermi Contact Couplings
        Atom                 a.u.       MegaHertz       Gauss      10(-4) cm-1
     1  Si(29)             0.00000      -0.00001      -0.00000      -0.00000
     2  Si(29)            -0.00000       0.00001       0.00000       0.00000
     3  H(1)               0.00000       0.00000       0.00000       0.00000
     4  H(1)              -0.00000      -0.00000      -0.00000      -0.00000
     5  H(1)               0.00000       0.00000       0.00000       0.00000
     6  H(1)              -0.00000      -0.00000      -0.00000      -0.00000
 --------------------------------------------------------
       Center         ----  Spin Dipole Couplings  ----
                      3XX-RR        3YY-RR        3ZZ-RR
 --------------------------------------------------------
     1   Atom       -0.000000     -0.000000      0.000000
     2   Atom        0.000000      0.000000     -0.000000
     3   Atom       -0.000000      0.000000      0.000000
     4   Atom        0.000000     -0.000000     -0.000000
     5   Atom       -0.000000      0.000000      0.000000
     6   Atom        0.000000     -0.000000     -0.000000
 --------------------------------------------------------
                        XY            XZ            YZ
 --------------------------------------------------------
     1   Atom        0.000000      0.000000      0.000000
     2   Atom        0.000000     -0.000000     -0.000000
     3   Atom        0.000000      0.000000     -0.000000
     4   Atom       -0.000000     -0.000000      0.000000
     5   Atom       -0.000000      0.000000      0.000000
     6   Atom        0.000000     -0.000000     -0.000000
 --------------------------------------------------------


 ---------------------------------------------------------------------------------
              Anisotropic Spin Dipole Couplings in Principal Axis System
 ---------------------------------------------------------------------------------

       Atom             a.u.   MegaHertz   Gauss  10(-4) cm-1        Axes

              Baa    -0.0000     0.000     0.000     0.000  0.9571 -0.0006 -0.2898
     1 Si(29) Bbb    -0.0000     0.000     0.000     0.000  0.0004  1.0000 -0.0006
              Bcc     0.0000    -0.000    -0.000    -0.000  0.2898  0.0005  0.9571
 
              Baa    -0.0000     0.000     0.000     0.000  0.2243 -0.0000  0.9745
     2 Si(29) Bbb     0.0000    -0.000    -0.000    -0.000 -0.0006  1.0000  0.0002
              Bcc     0.0000    -0.000    -0.000    -0.000  0.9745  0.0006 -0.2243
 
              Baa    -0.0000    -0.000    -0.000    -0.000  0.9095 -0.3276 -0.2558
     3 H(1)   Bbb     0.0000     0.000     0.000     0.000  0.3808  0.9035  0.1968
              Bcc     0.0000     0.000     0.000     0.000  0.1667 -0.2765  0.9465
 
              Baa    -0.0000    -0.000    -0.000    -0.000  0.1114 -0.2608  0.9590
     4 H(1)   Bbb    -0.0000    -0.000    -0.000    -0.000  0.3636  0.9087  0.2049
              Bcc     0.0000     0.000     0.000     0.000  0.9249 -0.3258 -0.1960
 
              Baa    -0.0000    -0.000    -0.000    -0.000  0.9098  0.3264 -0.2563
     5 H(1)   Bbb     0.0000     0.000     0.000     0.000 -0.3799  0.9036 -0.1980
              Bcc     0.0000     0.000     0.000     0.000  0.1670  0.2775  0.9461
 
              Baa    -0.0000    -0.000    -0.000    -0.000  0.1110  0.2606  0.9591
     6 H(1)   Bbb    -0.0000    -0.000    -0.000    -0.000 -0.3647  0.9084 -0.2046
              Bcc     0.0000     0.000     0.000     0.000  0.9245  0.3271 -0.1959
 

 ---------------------------------------------------------------------------------

 No NMR shielding tensors so no spin-rotation constants.
 Leave Link  601 at Mon Apr 21 20:33:05 2025, MaxMem=   536870912 cpu:               1.9 elap:               0.3
 (Enter /home/szhao/Apps/g16/l9999.exe)
 1\1\GINC-NODE05\FOpt\UM062X\6-311+G(d,p)\H4Si2\SZHAO\21-Apr-2025\0\\#p
  opt UM062X/6-311+G** nosymm int=superfine\\Title Card Required\\0,1\S
 i,-1.637518,0.,0.\Si,1.637518,0.,0.\H,-2.134226294,-1.1194226872,0.877
 2472028\H,2.1908292919,1.1214009946,-0.8388288325\H,-2.1330956111,1.12
 10168287,0.8758124855\H,2.1922616406,-1.1204238127,-0.8392299875\\Vers
 ion=ES64L-G16RevA.03\HF=-581.1977227\S2=0.\S2-1=0.\S2A=0.\RMSD=9.028e-
 09\RMSF=1.672e-05\Dipole=0.0505548,0.0000573,0.0047289\Quadrupole=3.69
 68855,-1.2764121,-2.4204734,0.0005011,2.1367151,-0.0000633\PG=C01 [X(H
 4Si2)]\\@


 THE MORE PROGRESS PHYSICAL SCIENCES MAKE, THE MORE THEY TEND TO ENTER
 THE DOMAIN OF MATHEMATICS, WHICH IS A KIND OF CENTRE TO WHICH THEY ALL
 CONVERGE.  WE MAY EVEN JUDGE THE DEGREE OF PERFECTION TO WHICH A 
 SCIENCE HAS ARRIVED BY THE FACILITY WITH WHICH IT MAY BE SUBMITTED
 TO CALCULATION.

                               -- ADOLPHE QUETELET, 1796-1874
 Job cpu time:       0 days  0 hours 17 minutes 19.2 seconds.
 Elapsed time:       0 days  0 hours  2 minutes 22.1 seconds.
 File lengths (MBytes):  RWF=     22 Int=      0 D2E=      0 Chk=      2 Scr=      2
 Normal termination of Gaussian 16 at Mon Apr 21 20:33:05 2025.
