Title Card Required                                                     
FOpt      UM062X                                                      6-311+G(d,p)        
Number of atoms                            I                6
Info1-9                                    I   N=           9
          15          15           0           0           0         110
           2          18        -502
Full Title                                 C   N=           2
Title Card Required     
Route                                      C   N=           4
#p opt UM062X/6-311+G** nosymm int=superfine    
Charge                                     I                0
Multiplicity                               I                1
Number of electrons                        I               16
Number of alpha electrons                  I                8
Number of beta electrons                   I                8
Number of basis functions                  I               68
Number of independent functions            I               68
Number of point charges in /Mol/           I                0
Number of translation vectors              I                0
Atomic numbers                             I   N=           6
           6           6           1           1           1           1
Nuclear charges                            R   N=           6
  6.00000000E+00  6.00000000E+00  1.00000000E+00  1.00000000E+00  1.00000000E+00
  1.00000000E+00
Current cartesian coordinates              R   N=          18
 -3.84671705E+00  0.00000000E+00  0.00000000E+00  3.84671705E+00  0.00000000E+00
  0.00000000E+00 -5.18012138E+00 -1.62246108E+00  2.78282824E-09 -5.18006209E+00
  1.62251226E+00  3.01529614E-09  5.18012138E+00  1.62246108E+00 -3.02956974E-09
  5.18006209E+00 -1.62251226E+00 -2.79776708E-09
Number of symbols in /Mol/                 I                0
Force Field                                I                0
Atom Types                                 C   N=           6
                                                            
            
Int Atom Types                             I   N=           6
           0           0           0           0           0           0
MM charges                                 R   N=           6
  0.00000000E+00  0.00000000E+00  0.00000000E+00  0.00000000E+00  0.00000000E+00
  0.00000000E+00
Integer atomic weights                     I   N=           6
          12          12           1           1           1           1
Real atomic weights                        R   N=           6
  1.20000000E+01  1.20000000E+01  1.00782504E+00  1.00782504E+00  1.00782504E+00
  1.00782504E+00
Atom fragment info                         I   N=           6
           0           0           0           0           0           0
Atom residue num                           I   N=           6
           0           0           0           0           0           0
Nuclear spins                              I   N=           6
           0           0           1           1           1           1
Nuclear ZEff                               R   N=           6
 -3.60000000E+00 -3.60000000E+00 -1.00000000E+00 -1.00000000E+00 -1.00000000E+00
 -1.00000000E+00
Nuclear ZNuc                               R   N=           6
  6.00000000E+00  6.00000000E+00  1.00000000E+00  1.00000000E+00  1.00000000E+00
  1.00000000E+00
Nuclear QMom                               R   N=           6
  0.00000000E+00  0.00000000E+00  0.00000000E+00  0.00000000E+00  0.00000000E+00
  0.00000000E+00
Nuclear GFac                               R   N=           6
  0.00000000E+00  0.00000000E+00  2.79284600E+00  2.79284600E+00  2.79284600E+00
  2.79284600E+00
MicOpt                                     I   N=           6
          -2          -2          -1          -1          -1          -1
Number of residues                         I                0
Number of secondary structures             I                0
Redundant internal dimensions              I   N=           4
          20          10           6           4
Redundant internal coordinate indices      I   N=          80
           1          -1           0           0           1          -2
           0           0           1          -3           0           0
           2          -1           0           0           2          -2
           0           0           2          -3           0           0
           1           3           0           0           1           4
           0           0           2           5           0           0
           2           6           0           0           2           1
           3           0           2           1           4           0
           3           1           4           0           1           2
           5           0           1           2           6           0
           5           2           6           0           3           1
           2           5           3           1           2           6
           4           1           2           5           4           1
           2           6
Redundant internal coordinates             R   N=          20
 -3.84671705E+00  0.00000000E+00  0.00000000E+00  3.84671705E+00  0.00000000E+00
  0.00000000E+00  2.10008263E+00  2.10008453E+00  2.10008263E+00  2.10008453E+00
  2.25871353E+00  2.25867625E+00  1.76579552E+00  2.25871353E+00  2.25867625E+00
  1.76579552E+00  3.14159265E+00  0.00000000E+00 -0.00000000E+00  3.14159265E+00
ZRed-IntVec                                I   N=          20
          -1          -1          -1          -1          -1          -1
           0           0           0           0           0           0
           0           0           0           0           0           0
           0           0
ZRed-FPVec                                 R   N=          20
  0.00000000E+00  0.00000000E+00  0.00000000E+00  0.00000000E+00  0.00000000E+00
  0.00000000E+00  0.00000000E+00  0.00000000E+00  0.00000000E+00  0.00000000E+00
  0.00000000E+00  0.00000000E+00  0.00000000E+00  0.00000000E+00  0.00000000E+00
  0.00000000E+00  0.00000000E+00  0.00000000E+00  0.00000000E+00  0.00000000E+00
ZRed-Constraint1                           R   N=          20
 -3.84671705E+00  0.00000000E+00  0.00000000E+00  3.84671705E+00  0.00000000E+00
  0.00000000E+00  2.03694512E+00  2.03669844E+00  2.03694512E+00  2.03669844E+00
  2.00316847E+00  2.00313852E+00  2.27687832E+00  2.00316847E+00  2.00313852E+00
  2.27687832E+00  3.14159265E+00  0.00000000E+00  0.00000000E+00  3.14159265E+00
ZRed-Constraint2                           R   N=          20
 -3.84671705E+00  0.00000000E+00  0.00000000E+00  3.84671705E+00  0.00000000E+00
  0.00000000E+00  0.00000000E+00  0.00000000E+00  0.00000000E+00  0.00000000E+00
  0.00000000E+00  0.00000000E+00  0.00000000E+00  0.00000000E+00  0.00000000E+00
  0.00000000E+00  0.00000000E+00  0.00000000E+00  0.00000000E+00  0.00000000E+00
Number of contracted shells                I               28
Number of primitive shells                 I               50
Pure/Cartesian d shells                    I                0
Pure/Cartesian f shells                    I                0
Highest angular momentum                   I                2
Largest degree of contraction              I                6
Shell types                                I   N=          28
           0          -1          -1          -1          -1          -2
           0          -1          -1          -1          -1          -2
           0           0           0           1           0           0
           0           1           0           0           0           1
           0           0           0           1
Number of primitives per shell             I   N=          28
           6           3           1           1           1           1
           6           3           1           1           1           1
           3           1           1           1           3           1
           1           1           3           1           1           1
           3           1           1           1
Shell to atom map                          I   N=          28
           1           1           1           1           1           1
           2           2           2           2           2           2
           3           3           3           3           4           4
           4           4           5           5           5           5
           6           6           6           6
Primitive exponents                        R   N=          50
  4.56324000E+03  6.82024000E+02  1.54973000E+02  4.44553000E+01  1.30290000E+01
  1.82773000E+00  2.09642000E+01  4.80331000E+00  1.45933000E+00  4.83456000E-01
  1.45585000E-01  4.38000000E-02  6.26000000E-01  4.56324000E+03  6.82024000E+02
  1.54973000E+02  4.44553000E+01  1.30290000E+01  1.82773000E+00  2.09642000E+01
  4.80331000E+00  1.45933000E+00  4.83456000E-01  1.45585000E-01  4.38000000E-02
  6.26000000E-01  3.38650000E+01  5.09479000E+00  1.15879000E+00  3.25840000E-01
  1.02741000E-01  7.50000000E-01  3.38650000E+01  5.09479000E+00  1.15879000E+00
  3.25840000E-01  1.02741000E-01  7.50000000E-01  3.38650000E+01  5.09479000E+00
  1.15879000E+00  3.25840000E-01  1.02741000E-01  7.50000000E-01  3.38650000E+01
  5.09479000E+00  1.15879000E+00  3.25840000E-01  1.02741000E-01  7.50000000E-01
Contraction coefficients                   R   N=          50
  1.96665025E-03  1.52306019E-02  7.61269097E-02  2.60801033E-01  6.16462078E-01
  2.21006028E-01  1.14660081E-01  9.19999648E-01 -3.03068213E-03  1.00000000E+00
  1.00000000E+00  1.00000000E+00  1.00000000E+00  1.96665025E-03  1.52306019E-02
  7.61269097E-02  2.60801033E-01  6.16462078E-01  2.21006028E-01  1.14660081E-01
  9.19999648E-01 -3.03068213E-03  1.00000000E+00  1.00000000E+00  1.00000000E+00
  1.00000000E+00  2.54938145E-02  1.90373109E-01  8.52161486E-01  1.00000000E+00
  1.00000000E+00  1.00000000E+00  2.54938145E-02  1.90373109E-01  8.52161486E-01
  1.00000000E+00  1.00000000E+00  1.00000000E+00  2.54938145E-02  1.90373109E-01
  8.52161486E-01  1.00000000E+00  1.00000000E+00  1.00000000E+00  2.54938145E-02
  1.90373109E-01  8.52161486E-01  1.00000000E+00  1.00000000E+00  1.00000000E+00
P(S=P) Contraction coefficients            R   N=          50
  0.00000000E+00  0.00000000E+00  0.00000000E+00  0.00000000E+00  0.00000000E+00
  0.00000000E+00  4.02486927E-02  2.37593957E-01  8.15853851E-01  1.00000000E+00
  1.00000000E+00  1.00000000E+00  0.00000000E+00  0.00000000E+00  0.00000000E+00
  0.00000000E+00  0.00000000E+00  0.00000000E+00  0.00000000E+00  4.02486927E-02
  2.37593957E-01  8.15853851E-01  1.00000000E+00  1.00000000E+00  1.00000000E+00
  0.00000000E+00  0.00000000E+00  0.00000000E+00  0.00000000E+00  0.00000000E+00
  0.00000000E+00  0.00000000E+00  0.00000000E+00  0.00000000E+00  0.00000000E+00
  0.00000000E+00  0.00000000E+00  0.00000000E+00  0.00000000E+00  0.00000000E+00
  0.00000000E+00  0.00000000E+00  0.00000000E+00  0.00000000E+00  0.00000000E+00
  0.00000000E+00  0.00000000E+00  0.00000000E+00  0.00000000E+00  0.00000000E+00
Coordinates of each shell                  R   N=          84
 -3.84671705E+00  0.00000000E+00  0.00000000E+00 -3.84671705E+00  0.00000000E+00
  0.00000000E+00 -3.84671705E+00  0.00000000E+00  0.00000000E+00 -3.84671705E+00
  0.00000000E+00  0.00000000E+00 -3.84671705E+00  0.00000000E+00  0.00000000E+00
 -3.84671705E+00  0.00000000E+00  0.00000000E+00  3.84671705E+00  0.00000000E+00
  0.00000000E+00  3.84671705E+00  0.00000000E+00  0.00000000E+00  3.84671705E+00
  0.00000000E+00  0.00000000E+00  3.84671705E+00  0.00000000E+00  0.00000000E+00
  3.84671705E+00  0.00000000E+00  0.00000000E+00  3.84671705E+00  0.00000000E+00
  0.00000000E+00 -5.18012138E+00 -1.62246108E+00  2.78282824E-09 -5.18012138E+00
 -1.62246108E+00  2.78282824E-09 -5.18012138E+00 -1.62246108E+00  2.78282824E-09
 -5.18012138E+00 -1.62246108E+00  2.78282824E-09 -5.18006209E+00  1.62251226E+00
  3.01529614E-09 -5.18006209E+00  1.62251226E+00  3.01529614E-09 -5.18006209E+00
  1.62251226E+00  3.01529614E-09 -5.18006209E+00  1.62251226E+00  3.01529614E-09
  5.18012138E+00  1.62246108E+00 -3.02956974E-09  5.18012138E+00  1.62246108E+00
 -3.02956974E-09  5.18012138E+00  1.62246108E+00 -3.02956974E-09  5.18012138E+00
  1.62246108E+00 -3.02956974E-09  5.18006209E+00 -1.62251226E+00 -2.79776708E-09
  5.18006209E+00 -1.62251226E+00 -2.79776708E-09  5.18006209E+00 -1.62251226E+00
 -2.79776708E-09  5.18006209E+00 -1.62251226E+00 -2.79776708E-09
Num ILSW                                   I              100
ILSW                                       I   N=         100
           1           0           0           1           2           0
           0           0           0           0        4336          -1
           7           0           0           0           2           0
           0           0           0           0           1           0
           1           1           0           0           0           0
           0           0      100000           0          -1           0
           0           0           0           0           0           0
           0           0           0           1           0           0
           0 -2000000000           1           0           0           0
           0           0           4          52           0           0
           0           0          55           0           0           0
           0           0           0           6           0           1
           0           0           0           0           0           0
           0           0           0           0           0           0
           0           0           0           0           0           0
           0           0           0           0           0           0
           0           0           0           0
Num RLSW                                   I               52
RLSW                                       R   N=          52
  1.00000000E+00  1.00000000E+00  1.00000000E+00  1.00000000E+00  5.40000000E-01
  0.00000000E+00  0.00000000E+00  1.00000000E+00  0.00000000E+00  0.00000000E+00
  0.00000000E+00  0.00000000E+00  1.00000000E+00  0.00000000E+00  0.00000000E+00
  0.00000000E+00  0.00000000E+00  1.00000000E+00  0.00000000E+00  0.00000000E+00
  0.00000000E+00  0.00000000E+00  1.00000000E+00  0.00000000E+00  0.00000000E+00
  0.00000000E+00  0.00000000E+00  1.00000000E+00  0.00000000E+00  0.00000000E+00
  0.00000000E+00  0.00000000E+00  1.00000000E+00  0.00000000E+00  0.00000000E+00
  0.00000000E+00  0.00000000E+00  0.00000000E+00  1.00000000E+00  1.00000000E+00
  0.00000000E+00  1.00000000E+00  0.00000000E+00  0.00000000E+00  0.00000000E+00
  0.00000000E+00  0.00000000E+00  0.00000000E+00  0.00000000E+00  0.00000000E+00
  0.00000000E+00  0.00000000E+00
MxBond                                     I                3
NBond                                      I   N=           6
           3           3           1           1           1           1
IBond                                      I   N=          18
           2           3           4           1           5           6
           1           0           0           1           0           0
           2           0           0           2           0           0
RBond                                      R   N=          18
  1.00000000E-01  1.00000000E+00  1.00000000E+00  1.00000000E-01  1.00000000E+00
  1.00000000E+00  1.00000000E+00  0.00000000E+00  0.00000000E+00  1.00000000E+00
  0.00000000E+00  0.00000000E+00  1.00000000E+00  0.00000000E+00  0.00000000E+00
  1.00000000E+00  0.00000000E+00  0.00000000E+00
Virial Ratio                               R      2.003359563040347E+00
SCF Energy                                 R     -7.823349670455001E+01
Total Energy                               R     -7.823349670455001E+01
S**2                                       R     -1.953992523340276E-14
S**2 after annihilation                    R     -8.704148513061158E-14
RMS Force                                  R      1.300612101788169E-05
RMS Density                                R      1.539973150274677E-09
Job Status                                 I                1
Nuclear derivative order                   I                1
External E-field                           R   N=          35
  0.00000000E+00  0.00000000E+00  0.00000000E+00  0.00000000E+00  0.00000000E+00
  0.00000000E+00  0.00000000E+00  0.00000000E+00  0.00000000E+00  0.00000000E+00
  0.00000000E+00  0.00000000E+00  0.00000000E+00  0.00000000E+00  0.00000000E+00
  0.00000000E+00  0.00000000E+00  0.00000000E+00  0.00000000E+00  0.00000000E+00
  0.00000000E+00  0.00000000E+00  0.00000000E+00  0.00000000E+00  0.00000000E+00
  0.00000000E+00  0.00000000E+00  0.00000000E+00  0.00000000E+00  0.00000000E+00
  0.00000000E+00  0.00000000E+00  0.00000000E+00  0.00000000E+00  0.00000000E+00
IOpCl                                      I                1
IROHF                                      I                0
Alpha Orbital Energies                     R   N=          68
 -1.05951908E+01 -1.05951901E+01 -7.45112216E-01 -7.44767419E-01 -4.62304721E-01
 -4.61975322E-01 -3.07215235E-01 -2.92211058E-01 -7.25690153E-02 -6.84662473E-02
  2.51554491E-02  3.14519685E-02  6.57772743E-02  8.61588240E-02  8.65147944E-02
  1.03870176E-01  1.22259443E-01  1.54750985E-01  1.75225305E-01  1.99436913E-01
  2.07372643E-01  2.16450248E-01  4.55027727E-01  4.66663109E-01  4.79553691E-01
  5.09466283E-01  5.95120647E-01  6.07265529E-01  6.23082751E-01  6.31166833E-01
  6.60674724E-01  6.89598942E-01  7.60455424E-01  7.65329949E-01  1.09251077E+00
  1.11686614E+00  1.11686631E+00  1.12696397E+00  1.20301309E+00  1.20442051E+00
  1.56277640E+00  1.56973023E+00  1.58316945E+00  1.58350863E+00  1.63509338E+00
  1.65360577E+00  1.87341127E+00  1.87341160E+00  1.89167429E+00  1.89243919E+00
  2.13890067E+00  2.15037820E+00  2.36921698E+00  2.37646184E+00  2.46579598E+00
  2.49997866E+00  2.50997985E+00  2.51661310E+00  2.55347612E+00  2.57697116E+00
  2.75913704E+00  2.77121090E+00  3.07839423E+00  3.13565752E+00  3.59078284E+00
  3.59338179E+00  2.37804969E+01  2.37807383E+01
Beta Orbital Energies                      R   N=          68
 -1.05951908E+01 -1.05951901E+01 -7.45112216E-01 -7.44767419E-01 -4.62304721E-01
 -4.61975322E-01 -3.07215235E-01 -2.92211058E-01 -7.25690153E-02 -6.84662473E-02
  2.51554491E-02  3.14519685E-02  6.57772743E-02  8.61588240E-02  8.65147944E-02
  1.03870176E-01  1.22259443E-01  1.54750985E-01  1.75225305E-01  1.99436913E-01
  2.07372643E-01  2.16450248E-01  4.55027727E-01  4.66663109E-01  4.79553691E-01
  5.09466283E-01  5.95120647E-01  6.07265529E-01  6.23082751E-01  6.31166833E-01
  6.60674724E-01  6.89598942E-01  7.60455424E-01  7.65329949E-01  1.09251077E+00
  1.11686614E+00  1.11686631E+00  1.12696397E+00  1.20301309E+00  1.20442051E+00
  1.56277640E+00  1.56973023E+00  1.58316945E+00  1.58350863E+00  1.63509338E+00
  1.65360577E+00  1.87341127E+00  1.87341160E+00  1.89167429E+00  1.89243919E+00
  2.13890067E+00  2.15037820E+00  2.36921698E+00  2.37646184E+00  2.46579598E+00
  2.49997866E+00  2.50997985E+00  2.51661310E+00  2.55347612E+00  2.57697116E+00
  2.75913704E+00  2.77121090E+00  3.07839423E+00  3.13565752E+00  3.59078284E+00
  3.59338179E+00  2.37804969E+01  2.37807383E+01
Alpha MO coefficients                      R   N=        4624
  3.98864448E-01  3.28263704E-01 -1.58549933E-03  2.95804534E-08  3.68425502E-12
  7.75107675E-03 -1.07215724E-03  1.13957874E-08  2.29000206E-12 -2.90798314E-03
 -1.47230273E-04  5.84192313E-09  1.16661876E-13  1.02668862E-04  9.72829174E-04
 -7.28816001E-09 -1.07984362E-12 -6.89424505E-04 -2.04530804E-12  1.22012548E-13
 -2.24679292E-04  1.30181911E-08 -3.98864474E-01 -3.28263726E-01 -1.58549944E-03
  2.95804551E-08  3.69345205E-12 -7.75107726E-03 -1.07215731E-03  1.13957872E-08
  2.30646165E-12  2.90798333E-03 -1.47230280E-04  5.84192008E-09  1.15044007E-13
 -1.02668825E-04  9.72829220E-04 -7.28816331E-09 -1.08666363E-12  6.89424549E-04
  2.05636521E-12  1.21199949E-13  2.24679307E-04 -1.30181914E-08  2.47733201E-04
 -1.87552025E-03  1.55677881E-03 -7.77811713E-04 -9.80027581E-04  1.62566963E-12
  2.47734721E-04 -1.87550475E-03  1.55675630E-03 -7.77769779E-04  9.80050372E-04
  1.75347324E-12 -2.47733218E-04  1.87552037E-03 -1.55677892E-03 -7.77811764E-04
 -9.80027646E-04  1.76111741E-12 -2.47734737E-04  1.87550488E-03 -1.55675641E-03
 -7.77769829E-04  9.80050437E-04  1.63340324E-12  3.98864858E-01  3.28264156E-01
 -1.57057329E-03  2.97373918E-08  3.69934805E-12  7.75603618E-03 -1.11524593E-03
  1.02684240E-08  2.25158224E-12 -2.92984570E-03 -1.04725709E-04  2.99478896E-09
  1.68057556E-13 -5.71495748E-04  6.90407984E-04 -3.82261977E-09 -1.72971753E-12
 -6.75920241E-04 -2.05255320E-12  1.20952271E-13 -2.32827130E-04  1.40336892E-08
  3.98864832E-01  3.28264134E-01  1.57057318E-03 -2.97373888E-08 -3.70821591E-12
  7.75603567E-03  1.11524586E-03 -1.02684205E-08 -2.26744417E-12 -2.92984551E-03
  1.04725699E-04 -2.99478689E-09 -1.66409516E-13 -5.71495755E-04 -6.90407921E-04
  3.82262137E-09  1.73521716E-12 -6.75920196E-04 -2.06305950E-12 -1.20627070E-13
 -2.32827115E-04  1.40336892E-08  2.45782956E-04 -1.87774118E-03  1.69286215E-03
 -7.72215257E-04 -9.84562780E-04  1.64866282E-12  2.45783047E-04 -1.87771620E-03
  1.69282757E-03 -7.72172413E-04  9.84584679E-04  1.77758150E-12  2.45782940E-04
 -1.87774106E-03  1.69286204E-03  7.72215206E-04  9.84562716E-04 -1.78556709E-12
  2.45783031E-04 -1.87771607E-03  1.69282746E-03  7.72172362E-04 -9.84584615E-04
 -1.65701169E-12 -7.38955282E-02 -1.18909692E-01 -4.82910653E-02  7.84572805E-07
  1.04286992E-10  3.24418938E-01 -7.26527265E-02  1.21260789E-06  1.57540687E-10
  2.22027775E-01 -3.18913210E-02  5.19285137E-07  6.38484621E-11  5.09010145E-03
 -2.93830206E-03  7.12266700E-08  1.06855806E-11 -5.19673380E-03 -2.04527783E-11
  5.48746016E-13  1.47272943E-04  1.59257619E-08 -7.38955282E-02 -1.18909692E-01
  4.82910653E-02 -7.84572765E-07 -1.04776913E-10  3.24418938E-01  7.26527265E-02
 -1.21260783E-06 -1.58239121E-10  2.22027775E-01  3.18913210E-02 -5.19285123E-07
 -6.41681193E-11  5.09010145E-03  2.93830206E-03 -7.12266667E-08 -1.07004299E-11
 -5.19673380E-03 -2.05603062E-11 -5.46241531E-13  1.47272943E-04  1.59257549E-08
  8.07172487E-02  9.79196458E-02  6.18921814E-03  6.64770778E-03  1.16879341E-02
 -1.36610632E-11  8.07170307E-02  9.79194340E-02  6.18918387E-03  6.64725323E-03
 -1.16881707E-02 -1.52713007E-11  8.07172487E-02  9.79196458E-02  6.18921814E-03
 -6.64770778E-03 -1.16879341E-02  1.53434533E-11  8.07170307E-02  9.79194340E-02
  6.18918387E-03 -6.64725323E-03  1.16881707E-02  1.37381425E-11 -7.38911410E-02
 -1.18901979E-01 -4.86036582E-02  7.81641254E-07  1.04559060E-10  3.24102006E-01
 -7.32455179E-02  1.23569888E-06  1.57520248E-10  2.25270564E-01 -3.29612149E-02
  4.18546590E-07  6.81780984E-11 -3.81748549E-03 -8.43295240E-03 -3.83525033E-08
  8.75991586E-13 -5.28925853E-03 -2.12133854E-11  5.70703811E-13  2.59866803E-05
  2.21973945E-08  7.38911410E-02  1.18901979E-01 -4.86036582E-02  7.81641214E-07
  1.05048394E-10 -3.24102006E-01 -7.32455179E-02  1.23569883E-06  1.58226976E-10
 -2.25270564E-01 -3.29612149E-02  4.18546573E-07  6.84812581E-11  3.81748549E-03
 -8.43295240E-03 -3.83525028E-08  9.26039232E-13  5.28925853E-03  2.13263143E-11
  5.68679893E-13 -2.59866803E-05 -2.21973894E-08  8.09360304E-02  9.71625673E-02
  6.99991249E-03  6.67353303E-03  1.15122403E-02 -1.35046172E-11  8.09358090E-02
  9.71623431E-02  7.00029715E-03  6.67309367E-03 -1.15124770E-02 -1.50900700E-11
 -8.09360304E-02 -9.71625673E-02 -6.99991249E-03  6.67353303E-03  1.15122403E-02
 -1.51621253E-11 -8.09358090E-02 -9.71623431E-02 -7.00029714E-03  6.67309367E-03
 -1.15124770E-02 -1.35812145E-11 -3.96637877E-08 -6.71434262E-08  2.67434026E-06
  1.45646351E-01  1.02881297E-11  2.20410913E-07  3.96042058E-06  2.17428849E-01
  1.52863640E-11  2.00558236E-07  2.03214871E-06  1.17396464E-01  7.97346523E-12
  1.16236091E-07  2.73401833E-08 -1.63295179E-03 -4.14132287E-13  1.20150071E-08
 -2.14441106E-12  7.07852338E-11 -1.20700169E-06 -3.27218774E-02  3.96637868E-08
  6.71434255E-08  2.67434014E-06  1.45646351E-01 -1.02588851E-11 -2.20410907E-07
  3.96042039E-06  2.17428849E-01 -1.52429767E-11 -2.00558238E-07  2.03214861E-06
  1.17396464E-01 -7.95015302E-12 -1.16236097E-07  2.73401850E-08 -1.63295179E-03
  4.13455242E-13 -1.20150070E-08 -2.14166251E-12 -7.10946386E-11  1.20700164E-06
  3.27218774E-02 -1.03687878E-01 -1.60168670E-01 -8.50556118E-02 -8.15221084E-03
 -3.04007951E-03  1.78094238E-11  1.03687995E-01  1.60168925E-01  8.50555911E-02
  8.15209845E-03 -3.04042888E-03 -1.81551756E-11  1.03687878E-01  1.60168670E-01
  8.50556118E-02 -8.15221084E-03 -3.04007951E-03  1.82379679E-11 -1.03687995E-01
 -1.60168925E-01 -8.50555911E-02  8.15209845E-03 -3.04042888E-03 -1.78932110E-11
 -5.13447884E-08 -8.55976105E-08  2.76193291E-06  1.45785875E-01  1.03160444E-11
  2.39090880E-07  4.11419846E-06  2.17388629E-01  1.53153623E-11  5.59799532E-07
  2.04926089E-06  1.16742521E-01  7.98901455E-12  1.00885458E-07 -7.56210173E-08
 -2.31235639E-04 -2.13255042E-13  6.11983458E-09 -2.12618913E-12  7.04111198E-11
 -1.20189599E-06 -3.26913068E-02 -5.13447869E-08 -8.55976098E-08 -2.76193279E-06
 -1.45785875E-01  1.02871675E-11  2.39090873E-07 -4.11419829E-06 -2.17388629E-01
  1.52731565E-11  5.59799535E-07 -2.04926078E-06 -1.16742521E-01  7.96496243E-12
  1.00885470E-07  7.56210151E-08  2.31235639E-04 -2.11010138E-13  6.11983489E-09
  2.12302087E-12  7.07184877E-11 -1.20189594E-06 -3.26913068E-02 -1.03709478E-01
 -1.61401918E-01 -8.33835792E-02 -8.24641651E-03 -3.08037560E-03  1.79917053E-11
  1.03709535E-01  1.61401965E-01  8.33833089E-02  8.24630215E-03 -3.08069887E-03
 -1.83471248E-11 -1.03709478E-01 -1.61401918E-01 -8.33835792E-02  8.24641651E-03
  3.08037560E-03 -1.84304956E-11  1.03709535E-01  1.61401965E-01  8.33833089E-02
 -8.24630215E-03  3.08069887E-03  1.80760347E-11 -3.83817733E-02 -6.37404124E-02
  1.58655194E-01 -3.01758379E-06 -3.42805237E-10  1.85046899E-01  2.30099740E-01
 -4.31835853E-06 -4.94753870E-10  2.96368356E-01  1.98965246E-01 -4.12664366E-06
 -4.32573179E-10  3.45883137E-02  3.36273982E-02 -1.41598453E-06 -1.10440884E-10
  1.70958546E-02  1.00776497E-10 -7.13280720E-13 -1.65708420E-02  6.23462682E-07
 -3.83817733E-02 -6.37404124E-02 -1.58655194E-01  3.01758365E-06  3.44220670E-10
  1.85046899E-01 -2.30099740E-01  4.31835833E-06  4.96784591E-10  2.96368356E-01
 -1.98965246E-01  4.12664347E-06  4.34292048E-10  3.45883137E-02 -3.36273982E-02
  1.41598450E-06  1.10643824E-10  1.70958546E-02  1.01175418E-10  7.07556670E-13
 -1.65708420E-02  6.23462652E-07 -4.83750852E-02 -9.28071703E-02 -6.32502981E-02
  7.17836893E-03 -1.02032282E-02 -1.56047816E-11 -4.83751628E-02 -9.28075154E-02
 -6.32487651E-02  7.17874672E-03  1.02029678E-02 -1.42389890E-11 -4.83750852E-02
 -9.28071703E-02 -6.32502981E-02 -7.17836893E-03  1.02032282E-02  1.42918982E-11
 -4.83751628E-02 -9.28075154E-02 -6.32487651E-02 -7.17874672E-03 -1.02029678E-02
  1.56542110E-11 -4.14608156E-02 -6.90605573E-02  1.63862815E-01 -2.93593997E-06
 -3.77030981E-10  2.05726435E-01  2.38861736E-01 -4.40010265E-06 -5.44883633E-10
  2.92408945E-01  2.03339372E-01 -3.87969904E-06 -5.15690089E-10  9.83136032E-02
  8.19638129E-02 -3.36270309E-07 -8.53363486E-11  1.95477525E-02  1.09350126E-10
 -8.88718273E-13 -1.84423674E-02  6.33507151E-07  4.14608156E-02  6.90605573E-02
  1.63862815E-01 -2.93593984E-06 -3.78566235E-10 -2.05726435E-01  2.38861736E-01
 -4.40010245E-06 -5.47137014E-10 -2.92408945E-01  2.03339372E-01 -3.87969886E-06
 -5.17561777E-10 -9.83136032E-02  8.19638129E-02 -3.36270279E-07 -8.58060026E-11
 -1.95477525E-02 -1.09788993E-10 -8.82328637E-13  1.84423674E-02 -6.33507121E-07
 -4.95160221E-02 -9.06008208E-02 -7.14184575E-02  8.37655629E-03 -9.53999280E-03
 -1.91119869E-11 -4.95158867E-02 -9.05999014E-02 -7.14200286E-02  8.37694832E-03
  9.53966122E-03 -1.78396723E-11  4.95160221E-02  9.06008208E-02  7.14184575E-02
  8.37655629E-03 -9.53999280E-03 -1.79108587E-11  4.95158867E-02  9.05999014E-02
  7.14200286E-02  8.37694832E-03  9.53966122E-03 -1.91790829E-11 -1.82575069E-11
 -3.16613762E-11  3.83003714E-10 -1.12708494E-11  1.58955966E-01  1.23952997E-10
  6.13776473E-10 -1.89049955E-11  2.51269017E-01 -3.07809587E-11  6.62300102E-10
 -2.49053324E-11  2.96014315E-01  2.68914615E-10  8.07600157E-10 -2.57437174E-11
  1.75760885E-01  7.65716533E-11 -1.70919051E-02  3.03652118E-07 -4.60755029E-11
  2.25538306E-12  1.81777674E-11  3.15302817E-11  3.84472737E-10  1.12251419E-11
  1.58955966E-01 -1.23600853E-10  6.16151087E-10  1.88256859E-11  2.51269017E-01
  3.16975001E-11  6.65091436E-10  2.48116040E-11  2.96014315E-01 -2.68415326E-10
  8.09335434E-10  2.56820329E-11  1.75760885E-01 -7.68180000E-11  1.70919051E-02
 -3.03652104E-07  4.62312290E-11  2.24455948E-12 -1.13354006E-11 -1.26220997E-11
  6.18576300E-12  4.25910020E-11  4.92523068E-13  1.60411084E-02 -1.06315957E-11
 -1.31238983E-11  3.33052854E-11  4.36927673E-11 -3.89680165E-12  1.60410989E-02
  1.05262199E-11  1.29571418E-11 -3.37067523E-11  4.38505258E-11  3.89948955E-12
  1.60411084E-02  1.12270845E-11  1.24368293E-11 -6.60548350E-12  4.27525600E-11
 -5.09131118E-13  1.60410989E-02  4.02430715E-12  6.70922997E-12  3.39132788E-10
 -1.13317748E-11  1.62998080E-01 -1.87809773E-11  5.48979320E-10 -1.98290192E-11
  2.59617691E-01 -2.85187505E-11  6.22981022E-10 -2.49608506E-11  2.96288758E-01
 -1.29519937E-10  3.62875445E-10 -1.65395741E-11  2.13127658E-01  6.35106244E-11
 -1.86572547E-02  3.10702576E-07 -3.55079229E-11  2.47398455E-12  4.01665983E-12
  6.69097830E-12 -3.40822639E-10 -1.12874280E-11 -1.62998080E-01 -1.85833170E-11
 -5.51721586E-10 -1.97548226E-11 -2.59617691E-01 -2.93454028E-11 -6.25996214E-10