 Entering Gaussian System, Link 0=g16
 Initial command:
 /home/szhao/Apps/g16/l1.exe "/home/szhao/tmp/Gau-85505.inp" -scrdir="/home/szhao/tmp/"
 Default is to use a total of  16 processors:
                               16 via shared-memory
                                1 via Linda
 Entering Link 1 = /home/szhao/Apps/g16/l1.exe PID=     85510.
  
 Copyright (c) 1988,1990,1992,1993,1995,1998,2003,2009,2016,
            Gaussian, Inc.  All Rights Reserved.
  
 This is part of the Gaussian(R) 16 program.  It is based on
 the Gaussian(R) 09 system (copyright 2009, Gaussian, Inc.),
 the Gaussian(R) 03 system (copyright 2003, Gaussian, Inc.),
 the Gaussian(R) 98 system (copyright 1998, Gaussian, Inc.),
 the Gaussian(R) 94 system (copyright 1995, Gaussian, Inc.),
 the Gaussian 92(TM) system (copyright 1992, Gaussian, Inc.),
 the Gaussian 90(TM) system (copyright 1990, Gaussian, Inc.),
 the Gaussian 88(TM) system (copyright 1988, Gaussian, Inc.),
 the Gaussian 86(TM) system (copyright 1986, Carnegie Mellon
 University), and the Gaussian 82(TM) system (copyright 1983,
 Carnegie Mellon University). Gaussian is a federally registered
 trademark of Gaussian, Inc.
  
 This software contains proprietary and confidential information,
 including trade secrets, belonging to Gaussian, Inc.
  
 This software is provided under written license and may be
 used, copied, transmitted, or stored only in accord with that
 written license.
  
 The following legend is applicable only to US Government
 contracts under FAR:
  
                    RESTRICTED RIGHTS LEGEND
  
 Use, reproduction and disclosure by the US Government is
 subject to restrictions as set forth in subparagraphs (a)
 and (c) of the Commercial Computer Software - Restricted
 Rights clause in FAR 52.227-19.
  
 Gaussian, Inc.
 340 Quinnipiac St., Bldg. 40, Wallingford CT 06492
  
  
 ---------------------------------------------------------------
 Warning -- This program may not be used in any manner that
 competes with the business of Gaussian, Inc. or will provide
 assistance to any competitor of Gaussian, Inc.  The licensee
 of this program is prohibited from giving any competitor of
 Gaussian, Inc. access to this program.  By using this program,
 the user acknowledges that Gaussian, Inc. is engaged in the
 business of creating and licensing software in the field of
 computational chemistry and represents and warrants to the
 licensee that it is not a competitor of Gaussian, Inc. and that
 it will not use this program in any manner prohibited above.
 ---------------------------------------------------------------
  

 Cite this work as:
 Gaussian 16, Revision A.03,
 M. J. Frisch, G. W. Trucks, H. B. Schlegel, G. E. Scuseria, 
 M. A. Robb, J. R. Cheeseman, G. Scalmani, V. Barone, 
 G. A. Petersson, H. Nakatsuji, X. Li, M. Caricato, A. V. Marenich, 
 J. Bloino, B. G. Janesko, R. Gomperts, B. Mennucci, H. P. Hratchian, 
 J. V. Ortiz, A. F. Izmaylov, J. L. Sonnenberg, D. Williams-Young, 
 F. Ding, F. Lipparini, F. Egidi, J. Goings, B. Peng, A. Petrone, 
 T. Henderson, D. Ranasinghe, V. G. Zakrzewski, J. Gao, N. Rega, 
 G. Zheng, W. Liang, M. Hada, M. Ehara, K. Toyota, R. Fukuda, 
 J. Hasegawa, M. Ishida, T. Nakajima, Y. Honda, O. Kitao, H. Nakai, 
 T. Vreven, K. Throssell, J. A. Montgomery, Jr., J. E. Peralta, 
 F. Ogliaro, M. J. Bearpark, J. J. Heyd, E. N. Brothers, K. N. Kudin, 
 V. N. Staroverov, T. A. Keith, R. Kobayashi, J. Normand, 
 K. Raghavachari, A. P. Rendell, J. C. Burant, S. S. Iyengar, 
 J. Tomasi, M. Cossi, J. M. Millam, M. Klene, C. Adamo, R. Cammi, 
 J. W. Ochterski, R. L. Martin, K. Morokuma, O. Farkas, 
 J. B. Foresman, and D. J. Fox, Gaussian, Inc., Wallingford CT, 2016.
 
 ******************************************
 Gaussian 16:  ES64L-G16RevA.03 25-Dec-2016
                21-Apr-2025 
 ******************************************
 %chk=opt.chk
 %mem=4GB
 %nprocshared=8
 Will use up to    8 processors via shared memory.
 --------------------------------------------
 #p opt UM062X/6-311+G** nosymm int=superfine
 --------------------------------------------
 1/18=20,19=15,26=5,38=1/1,3;
 2/9=110,12=2,15=1,17=6,18=5,40=1/2;
 3/5=4,6=6,7=111,11=2,25=1,30=1,71=1,74=-55,75=-7,116=2/1,2,3;
 4//1;
 5/5=2,38=5/2;
 6/7=2,8=2,9=2,10=2,28=1/1;
 7/30=1/1,2,3,16;
 1/18=20,19=15,26=5/3(2);
 2/9=110,15=1/2;
 99//99;
 2/9=110,15=1/2;
 3/5=4,6=6,7=111,11=2,25=1,30=1,71=1,74=-55,75=-7,116=2/1,2,3;
 4/5=5,16=3,69=1/1;
 5/5=2,38=5/2;
 7/30=1/1,2,3,16;
 1/18=20,19=15,26=5/3(-5);
 2/9=110,15=1/2;
 6/7=2,8=2,9=2,10=2,19=2,28=1/1;
 99/9=1/99;
 Leave Link    1 at Mon Apr 21 17:54:16 2025, MaxMem=   536870912 cpu:               0.7 elap:               0.1
 (Enter /home/szhao/Apps/g16/l101.exe)
 -------------------
 Title Card Required
 -------------------
 Symbolic Z-matrix:
 Charge =  1 Multiplicity = 2
 B                    -1   -1.85273   0.        0. 
 N                    -1    1.85273   0.        0. 
 H                    0    -3.02069  -0.00026   0. 
 H                    0     2.87125   0.        0. 
 
 Add virtual bond connecting atoms N2         and B1         Dist= 7.00D+00.
 ITRead=  2  2  0  0
 MicOpt= -2 -2 -1 -1
 NAtoms=      4 NQM=        2 NQMF=       2 NMMI=      0 NMMIF=      0
                NMic=       0 NMicF=      0.
                    Isotopes and Nuclear Properties:
 (Nuclear quadrupole moments (NQMom) in fm**2, nuclear magnetic moments (NMagM)
  in nuclear magnetons)

  Atom         1           2           3           4
 IAtWgt=          11          14           1           1
 AtmWgt=  11.0093053  14.0030740   1.0078250   1.0078250
 NucSpn=           3           2           1           1
 AtZEff=  -0.0000000  -0.0000000  -0.0000000  -0.0000000
 NQMom=    4.0590000   2.0440000   0.0000000   0.0000000
 NMagM=    2.6886370   0.4037610   2.7928460   2.7928460
 AtZNuc=   5.0000000   7.0000000   1.0000000   1.0000000
 Leave Link  101 at Mon Apr 21 17:54:17 2025, MaxMem=   536870912 cpu:               4.4 elap:               0.6
 (Enter /home/szhao/Apps/g16/l103.exe)

 GradGradGradGradGradGradGradGradGradGradGradGradGradGradGradGradGradGrad
 Berny optimization.
 Initialization pass.
                           ----------------------------
                           !    Initial Parameters    !
                           ! (Angstroms and Degrees)  !
 --------------------------                            --------------------------
 ! Name  Definition              Value          Derivative Info.                !
 --------------------------------------------------------------------------------
 ! X1    R(1,-1)                -1.8527         Frozen                          !
 ! Y1    R(1,-2)                 0.0            Frozen                          !
 ! Z1    R(1,-3)                 0.0            Frozen                          !
 ! X2    R(2,-1)                 1.8527         Frozen                          !
 ! Y2    R(2,-2)                 0.0            Frozen                          !
 ! Z2    R(2,-3)                 0.0            Frozen                          !
 ! R1    R(1,3)                  1.168          estimate D2E/DX2                !
 ! R2    R(2,4)                  1.0185         estimate D2E/DX2                !
 ! A1    L(2,1,3,-3,-1)        179.9872         estimate D2E/DX2                !
 ! A2    L(1,2,4,-3,-1)        179.9999         estimate D2E/DX2                !
 ! A3    L(2,1,3,-2,-2)        180.0            estimate D2E/DX2                !
 ! A4    L(1,2,4,-2,-2)        180.0            estimate D2E/DX2                !
 --------------------------------------------------------------------------------
 Trust Radius=3.00D-01 FncErr=1.00D-07 GrdErr=1.00D-07 EigMax=2.50D+02 EigMin=1.00D-04
 Number of steps in this run=     22 maximum allowed number of steps=    100.
 GradGradGradGradGradGradGradGradGradGradGradGradGradGradGradGradGradGrad

 Leave Link  103 at Mon Apr 21 17:54:17 2025, MaxMem=   536870912 cpu:               0.3 elap:               0.1
 (Enter /home/szhao/Apps/g16/l202.exe)
                          Input orientation:                          
 ---------------------------------------------------------------------
 Center     Atomic      Atomic             Coordinates (Angstroms)
 Number     Number       Type             X           Y           Z
 ---------------------------------------------------------------------
      1          5           0       -1.852734    0.000000    0.000000
      2          7           0        1.852734    0.000000    0.000000
      3          1           0       -3.020689   -0.000261    0.000000
      4          1           0        2.871250    0.000002    0.000000
 ---------------------------------------------------------------------
                    Distance matrix (angstroms):
                    1          2          3          4
     1  B    0.000000
     2  N    3.705468   0.000000
     3  H    1.167955   4.873424   0.000000
     4  H    4.723984   1.018516   5.891940   0.000000
 Symmetry turned off by external request.
 Stoichiometry    BH2N(1+,2)
 Framework group  C*V[C*(HNBH)]
 Deg. of freedom     3
 Full point group                 C*V     NOp   4
 Rotational constants (GHZ):           0.0000000           4.9408741           4.9408741
 Leave Link  202 at Mon Apr 21 17:54:17 2025, MaxMem=   536870912 cpu:               0.1 elap:               0.0
 (Enter /home/szhao/Apps/g16/l301.exe)
 Standard basis: 6-311+G(d,p) (5D, 7F)
 Ernie: Thresh=  0.10000D-02 Tol=  0.10000D-05 Strict=F.
    56 basis functions,    88 primitive gaussians,    58 cartesian basis functions
     7 alpha electrons        6 beta electrons
       nuclear repulsion energy        12.3106431322 Hartrees.
 IExCor= 4336 DFT=T Ex+Corr=M062X ExCW=0 ScaHFX=  0.540000
 ScaDFX=  1.000000  1.000000  1.000000  1.000000 ScalE2=  1.000000  1.000000
 IRadAn=      7 IRanWt=     -1 IRanGd=            0 ICorTp=0 IEmpDi=  4
 NAtoms=    4 NActive=    4 NUniq=    4 SFac= 1.00D+00 NAtFMM=   60 NAOKFM=F Big=F
 Integral buffers will be    131072 words long.
 Raffenetti 2 integral format.
 Two-electron integral symmetry is turned off.
 Leave Link  301 at Mon Apr 21 17:54:17 2025, MaxMem=   536870912 cpu:               0.8 elap:               0.2
 (Enter /home/szhao/Apps/g16/l302.exe)
 NPDir=0 NMtPBC=     1 NCelOv=     1 NCel=       1 NClECP=     1 NCelD=      1
         NCelK=      1 NCelE2=     1 NClLst=     1 CellRange=     0.0.
 One-electron integrals computed using PRISM.
 NBasis=    56 RedAO= T EigKep=  8.62D-03  NBF=    56
 NBsUse=    56 1.00D-06 EigRej= -1.00D+00 NBFU=    56
 Precomputing XC quadrature grid using
 IXCGrd= 4 IRadAn=           7 IRanWt=          -1 IRanGd=           0 AccXCQ= 0.00D+00.
 Generated NRdTot=       0 NPtTot=           0 NUsed=           0 NTot=          32
 NSgBfM=    58    58    58    58    58 MxSgAt=     4 MxSgA2=     4.
 Leave Link  302 at Mon Apr 21 17:54:18 2025, MaxMem=   536870912 cpu:               2.3 elap:               0.4
 (Enter /home/szhao/Apps/g16/l303.exe)
 DipDrv:  MaxL=1.
 Leave Link  303 at Mon Apr 21 17:54:18 2025, MaxMem=   536870912 cpu:               0.6 elap:               0.2
 (Enter /home/szhao/Apps/g16/l401.exe)
 ExpMin= 3.15D-02 ExpMax= 6.29D+03 ExpMxC= 9.49D+02 IAcc=3 IRadAn=         7 AccDes= 0.00D+00
 Harris functional with IExCor= 1009 and IRadAn=       7 diagonalized for initial guess.
 HarFok:  IExCor= 1009 AccDes= 0.00D+00 IRadAn=         7 IDoV= 1 UseB2=F ITyADJ=14
 ICtDFT=  3500011 ScaDFX=  1.000000  1.000000  1.000000  1.000000
 FoFCou: FMM=F IPFlag=           0 FMFlag=      100000 FMFlg1=           0
         NFxFlg=           0 DoJE=T BraDBF=F KetDBF=T FulRan=T
         wScrn=  0.000000 ICntrl=       500 IOpCl=  0 I1Cent=   200000004 NGrid=           0
         NMat0=    1 NMatS0=      1 NMatT0=    0 NMatD0=    1 NMtDS0=    0 NMtDT0=    0
 Symmetry not used in FoFCou.
 Harris En= -80.1319412335559    
 JPrj=0 DoOrth=F DoCkMO=F.
 Initial guess <Sx>= 0.0000 <Sy>= 0.0000 <Sz>= 0.5000 <S**2>= 0.7500 S= 0.5000
 Leave Link  401 at Mon Apr 21 17:54:19 2025, MaxMem=   536870912 cpu:               2.9 elap:               0.5
 (Enter /home/szhao/Apps/g16/l502.exe)
 Keep R1 and R2 ints in memory in canonical form, NReq=9624198.
 FoFCou: FMM=F IPFlag=           0 FMFlag=           0 FMFlg1=           0
         NFxFlg=           0 DoJE=F BraDBF=F KetDBF=F FulRan=T
         wScrn=  0.000000 ICntrl=       600 IOpCl=  0 I1Cent=           0 NGrid=           0
         NMat0=    1 NMatS0=   1596 NMatT0=    0 NMatD0=    1 NMtDS0=    0 NMtDT0=    0
 Symmetry not used in FoFCou.
 Two-electron integral symmetry not used.
 UHF open shell SCF:
 Using DIIS extrapolation, IDIIS=  1040.
 NGot=   536870912 LenX=   534314338 LenY=   534310533
 Requested convergence on RMS density matrix=1.00D-08 within 128 cycles.
 Requested convergence on MAX density matrix=1.00D-06.
 Requested convergence on             energy=1.00D-06.
 No special actions if energy rises.

 Cycle   1  Pass 1  IDiag  1:
 E= -79.5014902211352    
 DIIS: error= 4.08D-02 at cycle   1 NSaved=   1.
 NSaved= 1 IEnMin= 1 EnMin= -79.5014902211352     IErMin= 1 ErrMin= 4.08D-02
 ErrMax= 4.08D-02  0.00D+00 EMaxC= 1.00D-01 BMatC= 5.26D-01 BMatP= 5.26D-01
 IDIUse=3 WtCom= 5.92D-01 WtEn= 4.08D-01
 Coeff-Com:  0.100D+01
 Coeff-En:   0.100D+01
 Coeff:      0.100D+01
 Gap=    -0.621 Goal=   None    Shift=    0.000
 Gap=     0.269 Goal=   None    Shift=    0.000
 GapD=   -0.621 DampG=0.250 DampE=0.500 DampFc=0.2500 IDamp=-1.
 Damping current iteration by 2.50D-01
 RMSDP=2.46D-02 MaxDP=5.06D-01              OVMax= 1.00D+00

 Cycle   2  Pass 1  IDiag  1:
 E= -79.4807878984543     Delta-E=        0.020702322681 Rises=F Damp=T
 DIIS: error= 2.12D-02 at cycle   2 NSaved=   2.
 NSaved= 2 IEnMin= 1 EnMin= -79.5014902211352     IErMin= 2 ErrMin= 2.12D-02
 ErrMax= 2.12D-02  0.00D+00 EMaxC= 1.00D-01 BMatC= 1.00D-01 BMatP= 5.26D-01
 IDIUse=3 WtCom= 7.88D-01 WtEn= 2.12D-01
 Coeff-Com:  0.225D+00 0.775D+00
 Coeff-En:   0.513D+00 0.487D+00
 Coeff:      0.286D+00 0.714D+00
 Gap=     0.842 Goal=   None    Shift=    0.000
 Gap=    -0.651 Goal=   None    Shift=    0.000
 RMSDP=9.23D-03 MaxDP=1.73D-01 DE= 2.07D-02 OVMax= 1.00D+00

 Cycle   3  Pass 1  IDiag  1:
 E= -80.1431923455522     Delta-E=       -0.662404447098 Rises=F Damp=F
 DIIS: error= 1.12D-02 at cycle   3 NSaved=   3.
 NSaved= 3 IEnMin= 3 EnMin= -80.1431923455522     IErMin= 3 ErrMin= 1.12D-02
 ErrMax= 1.12D-02  0.00D+00 EMaxC= 1.00D-01 BMatC= 2.77D-02 BMatP= 1.00D-01
 IDIUse=3 WtCom= 8.88D-01 WtEn= 1.12D-01
 Coeff-Com:  0.810D-01 0.263D+00 0.656D+00
 Coeff-En:   0.000D+00 0.000D+00 0.100D+01
 Coeff:      0.720D-01 0.234D+00 0.694D+00
 Gap=     0.097 Goal=   None    Shift=    0.000
 Gap=     0.337 Goal=   None    Shift=    0.000
 RMSDP=1.86D-03 MaxDP=7.25D-02 DE=-6.62D-01 OVMax= 5.20D-02

 Cycle   4  Pass 1  IDiag  1:
 E= -80.1538020330906     Delta-E=       -0.010609687538 Rises=F Damp=F
 DIIS: error= 5.03D-03 at cycle   4 NSaved=   4.
 NSaved= 4 IEnMin= 4 EnMin= -80.1538020330906     IErMin= 4 ErrMin= 5.03D-03
 ErrMax= 5.03D-03  0.00D+00 EMaxC= 1.00D-01 BMatC= 4.43D-03 BMatP= 2.77D-02
 IDIUse=3 WtCom= 9.50D-01 WtEn= 5.03D-02
 Coeff-Com: -0.349D-01 0.715D-01-0.225D+00 0.119D+01
 Coeff-En:   0.000D+00 0.000D+00 0.000D+00 0.100D+01
 Coeff:     -0.331D-01 0.679D-01-0.214D+00 0.118D+01
 Gap=     0.121 Goal=   None    Shift=    0.000
 Gap=     0.238 Goal=   None    Shift=    0.000
 RMSDP=7.19D-04 MaxDP=1.91D-02 DE=-1.06D-02 OVMax= 1.96D-02

 Cycle   5  Pass 1  IDiag  1:
 E= -80.1553903253600     Delta-E=       -0.001588292269 Rises=F Damp=F
 DIIS: error= 2.74D-03 at cycle   5 NSaved=   5.
 NSaved= 5 IEnMin= 5 EnMin= -80.1553903253600     IErMin= 5 ErrMin= 2.74D-03
 ErrMax= 2.74D-03  0.00D+00 EMaxC= 1.00D-01 BMatC= 1.14D-03 BMatP= 4.43D-03
 IDIUse=3 WtCom= 9.73D-01 WtEn= 2.74D-02
 Coeff-Com: -0.271D-01 0.303D-01-0.471D-01-0.213D+00 0.126D+01
 Coeff-En:   0.000D+00 0.000D+00 0.000D+00 0.000D+00 0.100D+01
 Coeff:     -0.263D-01 0.295D-01-0.458D-01-0.208D+00 0.125D+01
 Gap=     0.100 Goal=   None    Shift=    0.000
 Gap=     0.222 Goal=   None    Shift=    0.000
 RMSDP=3.29D-04 MaxDP=1.07D-02 DE=-1.59D-03 OVMax= 1.07D-02

 Cycle   6  Pass 1  IDiag  1:
 E= -80.1557742594446     Delta-E=       -0.000383934085 Rises=F Damp=F
 DIIS: error= 1.40D-03 at cycle   6 NSaved=   6.
 NSaved= 6 IEnMin= 6 EnMin= -80.1557742594446     IErMin= 6 ErrMin= 1.40D-03
 ErrMax= 1.40D-03  0.00D+00 EMaxC= 1.00D-01 BMatC= 3.93D-04 BMatP= 1.14D-03
 IDIUse=3 WtCom= 9.86D-01 WtEn= 1.40D-02
 Coeff-Com: -0.164D-01 0.214D-01-0.189D-02-0.713D-01-0.272D-01 0.110D+01
 Coeff-En:   0.000D+00 0.000D+00 0.000D+00 0.000D+00 0.000D+00 0.100D+01
 Coeff:     -0.162D-01 0.211D-01-0.186D-02-0.703D-01-0.268D-01 0.109D+01
 Gap=     0.107 Goal=   None    Shift=    0.000
 Gap=     0.218 Goal=   None    Shift=    0.000
 RMSDP=9.87D-05 MaxDP=2.61D-03 DE=-3.84D-04 OVMax= 4.12D-03

 Cycle   7  Pass 1  IDiag  1:
 E= -80.1558677160013     Delta-E=       -0.000093456557 Rises=F Damp=F
 DIIS: error= 8.41D-04 at cycle   7 NSaved=   7.
 NSaved= 7 IEnMin= 7 EnMin= -80.1558677160013     IErMin= 7 ErrMin= 8.41D-04
 ErrMax= 8.41D-04  0.00D+00 EMaxC= 1.00D-01 BMatC= 1.66D-04 BMatP= 3.93D-04
 IDIUse=3 WtCom= 9.92D-01 WtEn= 8.41D-03
 Coeff-Com: -0.587D-02 0.970D-02 0.892D-02 0.529D-01-0.403D+00-0.105D+00
 Coeff-Com:  0.144D+01
 Coeff-En:   0.000D+00 0.000D+00 0.000D+00 0.000D+00 0.000D+00 0.000D+00
 Coeff-En:   0.100D+01
 Coeff:     -0.582D-02 0.962D-02 0.884D-02 0.525D-01-0.400D+00-0.104D+00
 Coeff:      0.144D+01
 Gap=     0.098 Goal=   None    Shift=    0.000
 Gap=     0.211 Goal=   None    Shift=    0.000
 RMSDP=1.19D-04 MaxDP=3.59D-03 DE=-9.35D-05 OVMax= 7.56D-03

 Cycle   8  Pass 1  IDiag  1:
 E= -80.1559335596750     Delta-E=       -0.000065843674 Rises=F Damp=F
 DIIS: error= 3.33D-04 at cycle   8 NSaved=   8.
 NSaved= 8 IEnMin= 8 EnMin= -80.1559335596750     IErMin= 8 ErrMin= 3.33D-04
 ErrMax= 3.33D-04  0.00D+00 EMaxC= 1.00D-01 BMatC= 2.72D-05 BMatP= 1.66D-04
 IDIUse=3 WtCom= 9.97D-01 WtEn= 3.33D-03
 Coeff-Com: -0.119D-02 0.181D-02-0.902D-02 0.678D-02 0.992D-01-0.259D+00
 Coeff-Com: -0.334D+00 0.150D+01
 Coeff-En:   0.000D+00 0.000D+00 0.000D+00 0.000D+00 0.000D+00 0.000D+00
 Coeff-En:   0.000D+00 0.100D+01
 Coeff:     -0.119D-02 0.180D-02-0.899D-02 0.676D-02 0.989D-01-0.258D+00
 Coeff:     -0.333D+00 0.149D+01
 Gap=     0.099 Goal=   None    Shift=    0.000
 Gap=     0.209 Goal=   None    Shift=    0.000
 RMSDP=5.77D-05 MaxDP=1.99D-03 DE=-6.58D-05 OVMax= 2.83D-03

 Cycle   9  Pass 1  IDiag  1:
 E= -80.1559458351626     Delta-E=       -0.000012275488 Rises=F Damp=F
 DIIS: error= 9.41D-05 at cycle   9 NSaved=   9.
 NSaved= 9 IEnMin= 9 EnMin= -80.1559458351626     IErMin= 9 ErrMin= 9.41D-05
 ErrMax= 9.41D-05  0.00D+00 EMaxC= 1.00D-01 BMatC= 1.78D-06 BMatP= 2.72D-05
 IDIUse=1 WtCom= 1.00D+00 WtEn= 0.00D+00
 Coeff-Com: -0.612D-04 0.123D-03-0.100D-03-0.103D-01 0.472D-01 0.588D-01
 Coeff-Com: -0.265D+00 0.151D-02 0.117D+01
 Coeff:     -0.612D-04 0.123D-03-0.100D-03-0.103D-01 0.472D-01 0.588D-01
 Coeff:     -0.265D+00 0.151D-02 0.117D+01
 Gap=     0.097 Goal=   None    Shift=    0.000
 Gap=     0.208 Goal=   None    Shift=    0.000
 RMSDP=1.83D-05 MaxDP=5.06D-04 DE=-1.23D-05 OVMax= 1.27D-03

 Cycle  10  Pass 1  IDiag  1:
 E= -80.1559467705481     Delta-E=       -0.000000935386 Rises=F Damp=F
 DIIS: error= 1.34D-05 at cycle  10 NSaved=  10.
 NSaved=10 IEnMin=10 EnMin= -80.1559467705481     IErMin=10 ErrMin= 1.34D-05
 ErrMax= 1.34D-05  0.00D+00 EMaxC= 1.00D-01 BMatC= 3.46D-08 BMatP= 1.78D-06
 IDIUse=1 WtCom= 1.00D+00 WtEn= 0.00D+00
 Coeff-Com:  0.276D-04 0.586D-04 0.364D-03 0.227D-02-0.173D-01 0.751D-02
 Coeff-Com:  0.817D-01-0.101D+00-0.271D+00 0.130D+01
 Coeff:      0.276D-04 0.586D-04 0.364D-03 0.227D-02-0.173D-01 0.751D-02
 Coeff:      0.817D-01-0.101D+00-0.271D+00 0.130D+01
 Gap=     0.097 Goal=   None    Shift=    0.000
 Gap=     0.208 Goal=   None    Shift=    0.000
 RMSDP=3.50D-06 MaxDP=5.24D-05 DE=-9.35D-07 OVMax= 1.54D-04

 Cycle  11  Pass 1  IDiag  1:
 E= -80.1559467989205     Delta-E=       -0.000000028372 Rises=F Damp=F
 DIIS: error= 3.50D-06 at cycle  11 NSaved=  11.
 NSaved=11 IEnMin=11 EnMin= -80.1559467989205     IErMin=11 ErrMin= 3.50D-06
 ErrMax= 3.50D-06  0.00D+00 EMaxC= 1.00D-01 BMatC= 2.37D-09 BMatP= 3.46D-08
 IDIUse=1 WtCom= 1.00D+00 WtEn= 0.00D+00
 Coeff-Com: -0.106D-04-0.124D-04-0.194D-03-0.996D-04 0.211D-02-0.700D-02
 Coeff-Com:  0.814D-03 0.176D-01-0.398D-02-0.271D+00 0.126D+01
 Coeff:     -0.106D-04-0.124D-04-0.194D-03-0.996D-04 0.211D-02-0.700D-02
 Coeff:      0.814D-03 0.176D-01-0.398D-02-0.271D+00 0.126D+01
 Gap=     0.097 Goal=   None    Shift=    0.000
 Gap=     0.208 Goal=   None    Shift=    0.000
 RMSDP=9.27D-07 MaxDP=2.86D-05 DE=-2.84D-08 OVMax= 3.43D-05

 Cycle  12  Pass 1  IDiag  1:
 E= -80.1559468005312     Delta-E=       -0.000000001611 Rises=F Damp=F
 DIIS: error= 1.16D-06 at cycle  12 NSaved=  12.
 NSaved=12 IEnMin=12 EnMin= -80.1559468005312     IErMin=12 ErrMin= 1.16D-06
 ErrMax= 1.16D-06  0.00D+00 EMaxC= 1.00D-01 BMatC= 1.42D-10 BMatP= 2.37D-09
 IDIUse=1 WtCom= 1.00D+00 WtEn= 0.00D+00
 Coeff-Com: -0.259D-05-0.460D-05 0.223D-04-0.105D-03 0.586D-03-0.367D-04
 Coeff-Com: -0.420D-02 0.513D-02 0.138D-01-0.762D-01 0.247D-01 0.104D+01
 Coeff:     -0.259D-05-0.460D-05 0.223D-04-0.105D-03 0.586D-03-0.367D-04
 Coeff:     -0.420D-02 0.513D-02 0.138D-01-0.762D-01 0.247D-01 0.104D+01
 Gap=     0.097 Goal=   None    Shift=    0.000
 Gap=     0.208 Goal=   None    Shift=    0.000
 RMSDP=2.22D-07 MaxDP=3.23D-06 DE=-1.61D-09 OVMax= 7.93D-06

 Cycle  13  Pass 1  IDiag  1:
 E= -80.1559468006006     Delta-E=       -0.000000000069 Rises=F Damp=F
 DIIS: error= 2.29D-07 at cycle  13 NSaved=  13.
 NSaved=13 IEnMin=13 EnMin= -80.1559468006006     IErMin=13 ErrMin= 2.29D-07
 ErrMax= 2.29D-07  0.00D+00 EMaxC= 1.00D-01 BMatC= 7.87D-12 BMatP= 1.42D-10
 IDIUse=1 WtCom= 1.00D+00 WtEn= 0.00D+00
 Coeff-Com:  0.594D-06 0.998D-07 0.159D-04-0.859D-05 0.106D-04 0.360D-03
 Coeff-Com: -0.699D-03-0.379D-03 0.210D-02 0.109D-01-0.800D-01 0.704D-01
 Coeff-Com:  0.997D+00
 Coeff:      0.594D-06 0.998D-07 0.159D-04-0.859D-05 0.106D-04 0.360D-03
 Coeff:     -0.699D-03-0.379D-03 0.210D-02 0.109D-01-0.800D-01 0.704D-01
 Coeff:      0.997D+00
 Gap=     0.097 Goal=   None    Shift=    0.000
 Gap=     0.208 Goal=   None    Shift=    0.000
 RMSDP=4.70D-08 MaxDP=1.43D-06 DE=-6.95D-11 OVMax= 1.75D-06

 Cycle  14  Pass 1  IDiag  1:
 E= -80.1559468006047     Delta-E=       -0.000000000004 Rises=F Damp=F
 DIIS: error= 6.59D-08 at cycle  14 NSaved=  14.
 NSaved=14 IEnMin=14 EnMin= -80.1559468006047     IErMin=14 ErrMin= 6.59D-08
 ErrMax= 6.59D-08  0.00D+00 EMaxC= 1.00D-01 BMatC= 6.41D-13 BMatP= 7.87D-12
 IDIUse=1 WtCom= 1.00D+00 WtEn= 0.00D+00
 Coeff-Com:  0.207D-06-0.275D-07-0.375D-05 0.536D-05-0.304D-04-0.402D-04
 Coeff-Com:  0.370D-03-0.372D-03-0.888D-03 0.357D-02 0.618D-02-0.683D-01
 Coeff-Com: -0.179D+00 0.124D+01
 Coeff:      0.207D-06-0.275D-07-0.375D-05 0.536D-05-0.304D-04-0.402D-04
 Coeff:      0.370D-03-0.372D-03-0.888D-03 0.357D-02 0.618D-02-0.683D-01
 Coeff:     -0.179D+00 0.124D+01
 Gap=     0.097 Goal=   None    Shift=    0.000
 Gap=     0.208 Goal=   None    Shift=    0.000
 RMSDP=1.37D-08 MaxDP=4.59D-07 DE=-4.06D-12 OVMax= 6.74D-07

 Cycle  15  Pass 1  IDiag  1:
 E= -80.1559468006052     Delta-E=       -0.000000000000 Rises=F Damp=F
 DIIS: error= 2.53D-08 at cycle  15 NSaved=  15.
 NSaved=15 IEnMin=15 EnMin= -80.1559468006052     IErMin=15 ErrMin= 2.53D-08
 ErrMax= 2.53D-08  0.00D+00 EMaxC= 1.00D-01 BMatC= 5.49D-14 BMatP= 6.41D-13
 IDIUse=1 WtCom= 1.00D+00 WtEn= 0.00D+00
 Coeff-Com:  0.416D-07-0.313D-07 0.420D-06-0.566D-06 0.435D-05 0.206D-05
 Coeff-Com: -0.826D-04 0.141D-03 0.168D-03-0.171D-02 0.275D-02 0.122D-01
 Coeff-Com:  0.135D-01-0.434D+00 0.141D+01
 Coeff:      0.416D-07-0.313D-07 0.420D-06-0.566D-06 0.435D-05 0.206D-05
 Coeff:     -0.826D-04 0.141D-03 0.168D-03-0.171D-02 0.275D-02 0.122D-01
 Coeff:      0.135D-01-0.434D+00 0.141D+01
 Gap=     0.097 Goal=   None    Shift=    0.000
 Gap=     0.208 Goal=   None    Shift=    0.000
 RMSDP=7.23D-09 MaxDP=1.08D-07 DE=-4.83D-13 OVMax= 6.21D-07

 SCF Done:  E(UM062X) =  -80.1559468006     A.U. after   15 cycles
            NFock= 15  Conv=0.72D-08     -V/T= 2.0022
 <Sx>= 0.0000 <Sy>= 0.0000 <Sz>= 0.5000 <S**2>= 1.7575 S= 0.9168
 <L.S>=  0.00000000000    
 KE= 7.997652073888D+01 PE=-2.087221884010D+02 EE= 3.627907772929D+01
 Annihilation of the first spin contaminant:
 S**2 before annihilation     1.7575,   after     0.7750
 Leave Link  502 at Mon Apr 21 17:54:27 2025, MaxMem=   536870912 cpu:              58.3 elap:               7.6
 (Enter /home/szhao/Apps/g16/l601.exe)
 Copying SCF densities to generalized density rwf, IOpCl= 1 IROHF=0.

 **********************************************************************

            Population analysis using the SCF density.

 **********************************************************************

 Alpha  occ. eigenvalues --  -14.95298  -7.53604  -1.08934  -0.87186  -0.62618
 Alpha  occ. eigenvalues --   -0.55002  -0.55002
 Alpha virt. eigenvalues --   -0.45266  -0.35206  -0.35206  -0.15616  -0.11744
 Alpha virt. eigenvalues --   -0.09978  -0.09978  -0.07511  -0.04073   0.01302
 Alpha virt. eigenvalues --    0.01302   0.03389   0.07973   0.12474   0.12474
 Alpha virt. eigenvalues --    0.13506   0.16513   0.34395   0.45321   0.46261
 Alpha virt. eigenvalues --    0.46261   0.50555   0.50555   0.63725   0.65760
 Alpha virt. eigenvalues --    0.65760   0.76407   0.93979   1.16776   1.16776
 Alpha virt. eigenvalues --    1.35276   1.35276   1.50268   1.50268   1.50619
 Alpha virt. eigenvalues --    1.81361   1.81361   1.81802   2.22237   2.22401
 Alpha virt. eigenvalues --    2.22401   2.37132   2.42134   2.83860   3.65771
 Alpha virt. eigenvalues --    3.65771   4.25267  13.82480  35.30271
  Beta  occ. eigenvalues --  -14.92827  -7.54861  -0.96190  -0.90664  -0.68452
  Beta  occ. eigenvalues --   -0.56921
  Beta virt. eigenvalues --   -0.36112  -0.36112  -0.19701  -0.19701  -0.14597
  Beta virt. eigenvalues --   -0.10564  -0.09718  -0.09718  -0.06678  -0.02601
  Beta virt. eigenvalues --    0.03350   0.03350   0.06467   0.08650   0.15939
  Beta virt. eigenvalues --    0.17733   0.17733   0.25003   0.34270   0.46676
  Beta virt. eigenvalues --    0.49923   0.49923   0.52641   0.52641   0.68282
  Beta virt. eigenvalues --    0.70052   0.70052   0.81866   0.97528   1.23900
  Beta virt. eigenvalues --    1.23900   1.38111   1.38111   1.50909   1.50909
  Beta virt. eigenvalues --    1.58553   1.86144   1.93230   1.93230   2.14732
  Beta virt. eigenvalues --    2.28564   2.28564   2.33413   2.42434   2.97903
  Beta virt. eigenvalues --    3.75736   3.75736   4.34112  13.82462  35.30797
          Condensed to atoms (all electrons):
               1          2          3          4
     1  B    3.883371   0.002751   0.348666   0.000143
     2  N    0.002751   6.974008   0.000660   0.266739
     3  H    0.348666   0.000660   0.438047  -0.000002
     4  H    0.000143   0.266739  -0.000002   0.466662
          Atomic-Atomic Spin Densities.
               1          2          3          4
     1  B   -0.873870   0.017646   0.004719  -0.000325
     2  N    0.017646   2.034843  -0.000196  -0.000083
     3  H    0.004719  -0.000196  -0.138420  -0.000006
     4  H   -0.000325  -0.000083  -0.000006  -0.066060
 Mulliken charges and spin densities:
               1          2
     1  B    0.765069  -0.851831
     2  N   -0.244158   2.052209
     3  H    0.212629  -0.133904
     4  H    0.266459  -0.066475
 Sum of Mulliken charges =   1.00000   1.00000
 Mulliken charges and spin densities with hydrogens summed into heavy atoms:
               1          2
     1  B    0.977698  -0.985735
     2  N    0.022302   1.985735
 Electronic spatial extent (au):  <R**2>=            210.9948
 Charge=              1.0000 electrons
 Dipole moment (field-independent basis, Debye):
    X=             -7.2931    Y=             -0.0002    Z=              0.0000  Tot=              7.2931
 Quadrupole moment (field-independent basis, Debye-Ang):
   XX=             17.9099   YY=            -10.2144   ZZ=            -10.2144
   XY=              0.0004   XZ=              0.0000   YZ=              0.0000
 Traceless Quadrupole moment (field-independent basis, Debye-Ang):
   XX=             18.7495   YY=             -9.3748   ZZ=             -9.3748
   XY=              0.0004   XZ=              0.0000   YZ=              0.0000
 Octapole moment (field-independent basis, Debye-Ang**2):
  XXX=            -23.9360  YYY=              0.0005  ZZZ=              0.0000  XYY=             -4.1194
  XXY=             -0.0010  XXZ=              0.0000  XZZ=             -4.1194  YZZ=              0.0002
  YYZ=             -0.0000  XYZ=              0.0000
 Hexadecapole moment (field-independent basis, Debye-Ang**3):
 XXXX=            -68.5841 YYYY=             -9.7509 ZZZZ=             -9.7509 XXXY=              0.0033
 XXXZ=              0.0000 YYYX=             -0.0018 YYYZ=              0.0000 ZZZX=              0.0000
 ZZZY=              0.0000 XXYY=            -43.8388 XXZZ=            -43.8388 YYZZ=             -3.2503
 XXYZ=              0.0000 YYXZ=              0.0000 ZZXY=             -0.0006
 N-N= 1.231064313219D+01 E-N=-2.087221885762D+02  KE= 7.997652073888D+01
                          Isotropic Fermi Contact Couplings
        Atom                 a.u.       MegaHertz       Gauss      10(-4) cm-1
     1  B(11)             -0.74911   -1074.49513    -383.40658    -358.41300
     2  N(14)              0.26558      85.81042      30.61929      28.62328
     3  H(1)              -0.07344    -328.26544    -117.13327    -109.49756
     4  H(1)              -0.03191    -142.65520     -50.90292     -47.58465
 --------------------------------------------------------
       Center         ----  Spin Dipole Couplings  ----
                      3XX-RR        3YY-RR        3ZZ-RR
 --------------------------------------------------------
     1   Atom       -0.461625      0.230813      0.230813
     2   Atom       -2.273274      1.136637      1.136637
     3   Atom       -0.052133      0.026067      0.026067
     4   Atom        0.249755     -0.124877     -0.124877
 --------------------------------------------------------
                        XY            XZ            YZ
 --------------------------------------------------------
     1   Atom       -0.000164     -0.000000     -0.000000
     2   Atom        0.000003     -0.000000      0.000000
     3   Atom       -0.000019     -0.000000      0.000000
     4   Atom        0.000001     -0.000000     -0.000000
 --------------------------------------------------------


 ---------------------------------------------------------------------------------
              Anisotropic Spin Dipole Couplings in Principal Axis System
 ---------------------------------------------------------------------------------

       Atom             a.u.   MegaHertz   Gauss  10(-4) cm-1        Axes

              Baa    -0.4616   -79.037   -28.202   -26.364  1.0000  0.0002 -0.0000
     1 B(11)  Bbb     0.2308    39.519    14.101    13.182  0.0000  0.0000  1.0000
              Bcc     0.2308    39.519    14.101    13.182 -0.0002  1.0000 -0.0000
 
              Baa    -2.2733   -87.675   -31.285   -29.245  1.0000 -0.0000  0.0000
     2 N(14)  Bbb     1.1366    43.838    15.642    14.623  0.0000  1.0000 -0.0000
              Bcc     1.1366    43.838    15.642    14.623  0.0000  0.0000  1.0000
 
              Baa    -0.0521   -27.816    -9.925    -9.278  1.0000  0.0002  0.0000
     3 H(1)   Bbb     0.0261    13.908     4.963     4.639  0.0000  0.0000  1.0000
              Bcc     0.0261    13.908     4.963     4.639 -0.0002  1.0000 -0.0000
 
              Baa    -0.1249   -66.629   -23.775   -22.225 -0.0000  0.0000  1.0000
     4 H(1)   Bbb    -0.1249   -66.629   -23.775   -22.225 -0.0000  1.0000 -0.0000
              Bcc     0.2498   133.257    47.550    44.450  1.0000  0.0000 -0.0000
 

 ---------------------------------------------------------------------------------

 No NMR shielding tensors so no spin-rotation constants.
 Leave Link  601 at Mon Apr 21 17:54:27 2025, MaxMem=   536870912 cpu:               2.3 elap:               0.4
 (Enter /home/szhao/Apps/g16/l701.exe)
 ... and contract with generalized density number  0.
 Compute integral first derivatives.
 Leave Link  701 at Mon Apr 21 17:54:28 2025, MaxMem=   536870912 cpu:               1.4 elap:               0.3
 (Enter /home/szhao/Apps/g16/l702.exe)
 L702 exits ... SP integral derivatives will be done elsewhere.
 Leave Link  702 at Mon Apr 21 17:54:28 2025, MaxMem=   536870912 cpu:               0.7 elap:               0.2
 (Enter /home/szhao/Apps/g16/l703.exe)
 Integral derivatives from FoFJK, PRISM(SPDF).
 Compute integral first derivatives, UseDBF=F ICtDFT=           0.
 Calling FoFJK, ICntrl=      2127 FMM=F ISym2X=0 I1Cent= 0 IOpClX= 1 NMat=1 NMatS=1 NMatT=0.
 FoFJK:  IHMeth= 1 ICntrl=    2127 DoSepK=F KAlg= 0 I1Cent=           0 FoldK=F
 IRaf=         0 NMat=       1 IRICut=       1 DoRegI=T DoRafI=F ISym2E= 0 IDoP0=0 IntGTp=1.
 FoFCou: FMM=F IPFlag=           0 FMFlag=      100000 FMFlg1=         800
         NFxFlg=           0 DoJE=F BraDBF=F KetDBF=F FulRan=T
         wScrn=  0.000000 ICntrl=      2127 IOpCl=  1 I1Cent=           0 NGrid=           0
         NMat0=    1 NMatS0=      1 NMatT0=    0 NMatD0=    1 NMtDS0=    0 NMtDT0=    0
 Symmetry not used in FoFCou.
 Leave Link  703 at Mon Apr 21 17:54:30 2025, MaxMem=   536870912 cpu:              10.0 elap:               1.3
 (Enter /home/szhao/Apps/g16/l716.exe)
 Dipole        =-2.86931434D+00-7.34464401D-05 1.02865522D-15
 -------------------------------------------------------------------
 Center     Atomic                   Forces (Hartrees/Bohr)
 Number     Number              X              Y              Z
 -------------------------------------------------------------------
      1        5          -0.000000000   -0.000000000   -0.000000000
      2        7          -0.000000000   -0.000000000   -0.000000000
      3        1          -0.018369989   -0.000004451    0.000000000
      4        1           0.013540762    0.000000381   -0.000000000
 -------------------------------------------------------------------
 Cartesian Forces:  Max     0.018369989 RMS     0.006587923
 Leave Link  716 at Mon Apr 21 17:54:31 2025, MaxMem=   536870912 cpu:               1.2 elap:               0.2
 (Enter /home/szhao/Apps/g16/l103.exe)

 GradGradGradGradGradGradGradGradGradGradGradGradGradGradGradGradGradGrad
 Berny optimization.
 FormGI is forming the generalized inverse of G from B-inverse, IUseBI=4.
 Internal  Forces:  Max     0.018369989 RMS     0.009316730
 Search for a local minimum.
 Step number   1 out of a maximum of   22
 All quantities printed in internal units (Hartrees-Bohrs-Radians)
 RMS Force = .93167D-02 SwitMx=.10000D-02 MixMth= 1
 Mixed Optimization -- RFO/linear search
 Second derivative matrix not updated -- first step.
 The second derivative matrix:
                          X1        Y1        Z1        X2        Y2
           X1           0.50000
           Y1           0.00000   0.50000
           Z1           0.00000   0.00000   0.50000
           X2           0.00000   0.00000   0.00000   0.50000
           Y2           0.00000   0.00000   0.00000   0.00000   0.50000
           Z2           0.00000   0.00000   0.00000   0.00000   0.00000
           R1           0.00000   0.00000   0.00000   0.00000   0.00000
           R2           0.00000   0.00000   0.00000   0.00000   0.00000
           A1           0.00000   0.00000   0.00000   0.00000   0.00000
           A2           0.00000   0.00000   0.00000   0.00000   0.00000
           A3           0.00000   0.00000   0.00000   0.00000   0.00000
           A4           0.00000   0.00000   0.00000   0.00000   0.00000
                          Z2        R1        R2        A1        A2
           Z2           0.50000
           R1           0.00000   0.27160
           R2           0.00000   0.00000   0.44576
           A1           0.00000   0.00000   0.00000   0.00230
           A2           0.00000   0.00000   0.00000   0.00000   0.00783
           A3           0.00000   0.00000   0.00000   0.00000   0.00000
           A4           0.00000   0.00000   0.00000   0.00000   0.00000
                          A3        A4
           A3           0.00230
           A4           0.00000   0.00783
 ITU=  0
     Eigenvalues ---    0.00230   0.00694   0.00783   0.27160   0.44576
     Eigenvalues --- 1000.000001000.000001000.000001000.000001000.00000
     Eigenvalues --- 1000.000001000.00000
 RFO step:  Lambda=-1.64479488D-03 EMin= 2.30000000D-03
 Linear search not attempted -- first point.
 Iteration  1 RMS(Cart)=  0.02128303 RMS(Int)=  0.00000019
 Iteration  2 RMS(Cart)=  0.00000041 RMS(Int)=  0.00000000
 ITry= 1 IFail=0 DXMaxC= 6.72D-02 DCOld= 1.00D+10 DXMaxT= 3.00D-01 DXLimC= 3.00D+00 Rises=F
 Variable       Old X    -DE/DX   Delta X   Delta X   Delta X     New X
                                 (Linear)    (Quad)   (Total)
    X1       -3.50116  -0.01837   0.00000   0.00000   0.00000  -3.50116
    Y1        0.00000  -0.00000   0.00000   0.00000   0.00000   0.00000
    Z1        0.00000   0.00000   0.00000   0.00000   0.00000   0.00000
    X2        3.50116   0.01354   0.00000   0.00000   0.00000   3.50116
    Y2        0.00000  -0.00000   0.00000   0.00000   0.00000   0.00000
    Z2        0.00000  -0.00000   0.00000   0.00000   0.00000   0.00000
    R1        2.20712   0.01837   0.00000   0.06723   0.06723   2.27434
    R2        1.92472   0.01354   0.00000   0.03027   0.03027   1.95498
    A1        3.14137   0.00000   0.00000   0.00002   0.00002   3.14138
    A2        3.14159   0.00000   0.00000  -0.00003  -0.00003   3.14156
    A3        3.14159  -0.00000   0.00000  -0.00000   0.00000   3.14159
    A4        3.14159  -0.00000   0.00000  -0.00000   0.00000   3.14159
         Item               Value     Threshold  Converged?
 Maximum Force            0.018370     0.000450     NO 
 RMS     Force            0.009317     0.000300     NO 
 Maximum Displacement     0.067228     0.001800     NO 
 RMS     Displacement     0.021283     0.001200     NO 
 Predicted change in Energy=-8.268675D-04
 Lowest energy point so far.  Saving SCF results.
 GradGradGradGradGradGradGradGradGradGradGradGradGradGradGradGradGradGrad

 Leave Link  103 at Mon Apr 21 17:54:31 2025, MaxMem=   536870912 cpu:               0.8 elap:               0.2
 (Enter /home/szhao/Apps/g16/l202.exe)
                          Input orientation:                          
 ---------------------------------------------------------------------
 Center     Atomic      Atomic             Coordinates (Angstroms)
 Number     Number       Type             X           Y           Z
 ---------------------------------------------------------------------
      1          5           0       -1.852734    0.000000    0.000000
      2          7           0        1.852734    0.000000    0.000000
      3          1           0       -3.056265   -0.000251    0.000000
      4          1           0        2.887266    0.000036   -0.000000
 ---------------------------------------------------------------------
                    Distance matrix (angstroms):
                    1          2          3          4
     1  B    0.000000
     2  N    3.705468   0.000000
     3  H    1.203531   4.908999   0.000000
     4  H    4.740000   1.034532   5.943531   0.000000
 Symmetry turned off by external request.
 This structure is nearly, but not quite of a higher symmetry.
 Consider Symm=Loose if the higher symmetry is desired.
 Stoichiometry    BH2N(1+,2)
 Framework group  CS[SG(BH2N)]
 Deg. of freedom     5
 Full point group                 CS      NOp   2
 Rotational constants (GHZ):  9241722463.1970425           4.9255277           4.9255277
 Leave Link  202 at Mon Apr 21 17:54:31 2025, MaxMem=   536870912 cpu:               0.1 elap:               0.0
 (Enter /home/szhao/Apps/g16/l301.exe)
 Standard basis: 6-311+G(d,p) (5D, 7F)
 Ernie: Thresh=  0.10000D-02 Tol=  0.10000D-05 Strict=F.
    56 basis functions,    88 primitive gaussians,    58 cartesian basis functions
     7 alpha electrons        6 beta electrons
       nuclear repulsion energy        12.1791956169 Hartrees.
 IExCor= 4336 DFT=T Ex+Corr=M062X ExCW=0 ScaHFX=  0.540000
 ScaDFX=  1.000000  1.000000  1.000000  1.000000 ScalE2=  1.000000  1.000000
 IRadAn=      7 IRanWt=     -1 IRanGd=            0 ICorTp=0 IEmpDi=  4
 NAtoms=    4 NActive=    4 NUniq=    4 SFac= 1.00D+00 NAtFMM=   60 NAOKFM=F Big=F
 Integral buffers will be    131072 words long.
 Raffenetti 2 integral format.
 Two-electron integral symmetry is turned off.
 Leave Link  301 at Mon Apr 21 17:54:31 2025, MaxMem=   536870912 cpu:               0.8 elap:               0.2
 (Enter /home/szhao/Apps/g16/l302.exe)
 NPDir=0 NMtPBC=     1 NCelOv=     1 NCel=       1 NClECP=     1 NCelD=      1
         NCelK=      1 NCelE2=     1 NClLst=     1 CellRange=     0.0.
 One-electron integrals computed using PRISM.
 NBasis=    56 RedAO= T EigKep=  8.88D-03  NBF=    56
 NBsUse=    56 1.00D-06 EigRej= -1.00D+00 NBFU=    56
 Precomputing XC quadrature grid using
 IXCGrd= 4 IRadAn=           7 IRanWt=          -1 IRanGd=           0 AccXCQ= 0.00D+00.
 Generated NRdTot=       0 NPtTot=           0 NUsed=           0 NTot=          32
 NSgBfM=    58    58    58    58    58 MxSgAt=     4 MxSgA2=     4.
 Leave Link  302 at Mon Apr 21 17:54:32 2025, MaxMem=   536870912 cpu:               1.8 elap:               0.3
 (Enter /home/szhao/Apps/g16/l303.exe)
 DipDrv:  MaxL=1.
 Leave Link  303 at Mon Apr 21 17:54:33 2025, MaxMem=   536870912 cpu:               0.6 elap:               0.1
 (Enter /home/szhao/Apps/g16/l401.exe)
 Initial guess from the checkpoint file:  "opt.chk"
 B after Tr=    -0.002640    0.000006   -0.000000
         Rot=    1.000000    0.000036    0.000000   -0.000000 Ang=   0.00 deg.
 Guess basis will be translated and rotated to current coordinates.
 JPrj=2 DoOrth=T DoCkMO=T.
 Initial guess <Sx>= 0.0000 <Sy>= 0.0000 <Sz>= 0.5000 <S**2>= 1.7577 S= 0.9169
 Generating alternative initial guess.
 ExpMin= 3.15D-02 ExpMax= 6.29D+03 ExpMxC= 9.49D+02 IAcc=3 IRadAn=         5 AccDes= 0.00D+00
 Harris functional with IExCor= 1009 and IRadAn=       5 diagonalized for initial guess.
 HarFok:  IExCor= 1009 AccDes= 0.00D+00 IRadAn=         5 IDoV= 1 UseB2=F ITyADJ=14
 ICtDFT=  3500011 ScaDFX=  1.000000  1.000000  1.000000  1.000000
 FoFCou: FMM=F IPFlag=           0 FMFlag=      100000 FMFlg1=           0
         NFxFlg=           0 DoJE=T BraDBF=F KetDBF=T FulRan=T
         wScrn=  0.000000 ICntrl=       500 IOpCl=  0 I1Cent=   200000004 NGrid=           0
         NMat0=    1 NMatS0=      1 NMatT0=    0 NMatD0=    1 NMtDS0=    0 NMtDT0=    0
 Symmetry not used in FoFCou.
 Harris En= -80.1324201797549    
 Leave Link  401 at Mon Apr 21 17:54:33 2025, MaxMem=   536870912 cpu:               3.0 elap:               0.4
 (Enter /home/szhao/Apps/g16/l502.exe)
 Keep R1 and R2 ints in memory in canonical form, NReq=9624198.
 FoFCou: FMM=F IPFlag=           0 FMFlag=           0 FMFlg1=           0
         NFxFlg=           0 DoJE=F BraDBF=F KetDBF=F FulRan=T
         wScrn=  0.000000 ICntrl=       600 IOpCl=  0 I1Cent=           0 NGrid=           0
         NMat0=    1 NMatS0=   1596 NMatT0=    0 NMatD0=    1 NMtDS0=    0 NMtDT0=    0
 Symmetry not used in FoFCou.
 Two-electron integral symmetry not used.
 UHF open shell SCF:
 Using DIIS extrapolation, IDIIS=  1040.
 NGot=   536870912 LenX=   534314338 LenY=   534310533
 Requested convergence on RMS density matrix=1.00D-08 within 128 cycles.
 Requested convergence on MAX density matrix=1.00D-06.
 Requested convergence on             energy=1.00D-06.
 No special actions if energy rises.

 Cycle   1  Pass 1  IDiag  1:
 E= -80.1565648840394    
 DIIS: error= 2.37D-03 at cycle   1 NSaved=   1.
 NSaved= 1 IEnMin= 1 EnMin= -80.1565648840394     IErMin= 1 ErrMin= 2.37D-03
 ErrMax= 2.37D-03  0.00D+00 EMaxC= 1.00D-01 BMatC= 8.54D-04 BMatP= 8.54D-04
 IDIUse=3 WtCom= 9.76D-01 WtEn= 2.37D-02
 Coeff-Com:  0.100D+01
 Coeff-En:   0.100D+01
 Coeff:      0.100D+01
 Gap=     0.552 Goal=   None    Shift=    0.000
 Gap=     0.639 Goal=   None    Shift=    0.000
 GapD=    0.552 DampG=2.000 DampE=1.000 DampFc=2.0000 IDamp=-1.
 RMSDP=2.18D-04 MaxDP=4.17D-03              OVMax= 1.10D-02

 Cycle   2  Pass 1  IDiag  1:
 E= -80.1567826206164     Delta-E=       -0.000217736577 Rises=F Damp=F
 DIIS: error= 3.27D-04 at cycle   2 NSaved=   2.
 NSaved= 2 IEnMin= 2 EnMin= -80.1567826206164     IErMin= 2 ErrMin= 3.27D-04
 ErrMax= 3.27D-04  0.00D+00 EMaxC= 1.00D-01 BMatC= 3.05D-05 BMatP= 8.54D-04
 IDIUse=3 WtCom= 9.97D-01 WtEn= 3.27D-03
 Coeff-Com:  0.305D-01 0.970D+00
 Coeff-En:   0.000D+00 0.100D+01
 Coeff:      0.304D-01 0.970D+00
 Gap=     0.106 Goal=   None    Shift=    0.000
 Gap=     0.209 Goal=   None    Shift=    0.000
 RMSDP=6.65D-05 MaxDP=1.37D-03 DE=-2.18D-04 OVMax= 4.10D-03

 Cycle   3  Pass 1  IDiag  1:
 E= -80.1567912179206     Delta-E=       -0.000008597304 Rises=F Damp=F
 DIIS: error= 1.86D-04 at cycle   3 NSaved=   3.
 NSaved= 3 IEnMin= 3 EnMin= -80.1567912179206     IErMin= 3 ErrMin= 1.86D-04
 ErrMax= 1.86D-04  0.00D+00 EMaxC= 1.00D-01 BMatC= 7.73D-06 BMatP= 3.05D-05
 IDIUse=3 WtCom= 9.98D-01 WtEn= 1.86D-03
 Coeff-Com: -0.155D-01 0.278D+00 0.737D+00
 Coeff-En:   0.000D+00 0.000D+00 0.100D+01
 Coeff:     -0.154D-01 0.278D+00 0.738D+00
 Gap=     0.102 Goal=   None    Shift=    0.000
 Gap=     0.207 Goal=   None    Shift=    0.000
 RMSDP=2.48D-05 MaxDP=7.09D-04 DE=-8.60D-06 OVMax= 1.09D-03

 Cycle   4  Pass 1  IDiag  1:
 E= -80.1567936040835     Delta-E=       -0.000002386163 Rises=F Damp=F
 DIIS: error= 7.57D-05 at cycle   4 NSaved=   4.
 NSaved= 4 IEnMin= 4 EnMin= -80.1567936040835     IErMin= 4 ErrMin= 7.57D-05
 ErrMax= 7.57D-05  0.00D+00 EMaxC= 1.00D-01 BMatC= 8.06D-07 BMatP= 7.73D-06
 IDIUse=1 WtCom= 1.00D+00 WtEn= 0.00D+00
 Coeff-Com: -0.402D-02-0.665D-01 0.941D-01 0.976D+00
 Coeff:     -0.402D-02-0.665D-01 0.941D-01 0.976D+00
 Gap=     0.102 Goal=   None    Shift=    0.000
 Gap=     0.207 Goal=   None    Shift=    0.000
 RMSDP=1.06D-05 MaxDP=2.53D-04 DE=-2.39D-06 OVMax= 5.51D-04

 Cycle   5  Pass 1  IDiag  1:
 E= -80.1567940064525     Delta-E=       -0.000000402369 Rises=F Damp=F
 DIIS: error= 3.34D-05 at cycle   5 NSaved=   5.
 NSaved= 5 IEnMin= 5 EnMin= -80.1567940064525     IErMin= 5 ErrMin= 3.34D-05
 ErrMax= 3.34D-05  0.00D+00 EMaxC= 1.00D-01 BMatC= 1.08D-07 BMatP= 8.06D-07
 IDIUse=1 WtCom= 1.00D+00 WtEn= 0.00D+00
 Coeff-Com:  0.295D-02-0.396D-01-0.119D+00-0.486D-01 0.120D+01
 Coeff:      0.295D-02-0.396D-01-0.119D+00-0.486D-01 0.120D+01
 Gap=     0.102 Goal=   None    Shift=    0.000
 Gap=     0.207 Goal=   None    Shift=    0.000
 RMSDP=5.82D-06 MaxDP=1.16D-04 DE=-4.02D-07 OVMax= 2.56D-04

 Cycle   6  Pass 1  IDiag  1:
 E= -80.1567940837916     Delta-E=       -0.000000077339 Rises=F Damp=F
 DIIS: error= 8.09D-06 at cycle   6 NSaved=   6.
 NSaved= 6 IEnMin= 6 EnMin= -80.1567940837916     IErMin= 6 ErrMin= 8.09D-06
 ErrMax= 8.09D-06  0.00D+00 EMaxC= 1.00D-01 BMatC= 9.03D-09 BMatP= 1.08D-07
 IDIUse=1 WtCom= 1.00D+00 WtEn= 0.00D+00
 Coeff-Com:  0.112D-02-0.263D-02-0.290D-01-0.835D-01 0.171D+00 0.943D+00
 Coeff:      0.112D-02-0.263D-02-0.290D-01-0.835D-01 0.171D+00 0.943D+00
 Gap=     0.102 Goal=   None    Shift=    0.000
 Gap=     0.207 Goal=   None    Shift=    0.000
 RMSDP=1.51D-06 MaxDP=6.65D-05 DE=-7.73D-08 OVMax= 8.13D-05

 Cycle   7  Pass 1  IDiag  1:
 E= -80.1567940890649     Delta-E=       -0.000000005273 Rises=F Damp=F
 DIIS: error= 3.58D-06 at cycle   7 NSaved=   7.
 NSaved= 7 IEnMin= 7 EnMin= -80.1567940890649     IErMin= 7 ErrMin= 3.58D-06
 ErrMax= 3.58D-06  0.00D+00 EMaxC= 1.00D-01 BMatC= 8.07D-10 BMatP= 9.03D-09
 IDIUse=1 WtCom= 1.00D+00 WtEn= 0.00D+00
 Coeff-Com: -0.277D-03 0.356D-02 0.140D-01 0.961D-02-0.145D+00 0.126D-01
 Coeff-Com:  0.111D+01
 Coeff:     -0.277D-03 0.356D-02 0.140D-01 0.961D-02-0.145D+00 0.126D-01
 Coeff:      0.111D+01
 Gap=     0.102 Goal=   None    Shift=    0.000
 Gap=     0.207 Goal=   None    Shift=    0.000
 RMSDP=4.37D-07 MaxDP=1.07D-05 DE=-5.27D-09 OVMax= 1.76D-05

 Cycle   8  Pass 1  IDiag  1:
 E= -80.1567940895184     Delta-E=       -0.000000000453 Rises=F Damp=F
 DIIS: error= 5.19D-07 at cycle   8 NSaved=   8.
 NSaved= 8 IEnMin= 8 EnMin= -80.1567940895184     IErMin= 8 ErrMin= 5.19D-07
 ErrMax= 5.19D-07  0.00D+00 EMaxC= 1.00D-01 BMatC= 3.18D-11 BMatP= 8.07D-10
 IDIUse=1 WtCom= 1.00D+00 WtEn= 0.00D+00
 Coeff-Com: -0.506D-04-0.247D-03 0.709D-03 0.570D-02-0.259D-02-0.493D-01
 Coeff-Com: -0.707D-01 0.112D+01
 Coeff:     -0.506D-04-0.247D-03 0.709D-03 0.570D-02-0.259D-02-0.493D-01
 Coeff:     -0.707D-01 0.112D+01
 Gap=     0.102 Goal=   None    Shift=    0.000
 Gap=     0.207 Goal=   None    Shift=    0.000
 RMSDP=7.61D-08 MaxDP=1.57D-06 DE=-4.53D-10 OVMax= 2.31D-06

 Cycle   9  Pass 1  IDiag  1:
 E= -80.1567940895330     Delta-E=       -0.000000000015 Rises=F Damp=F
 DIIS: error= 1.03D-07 at cycle   9 NSaved=   9.
 NSaved= 9 IEnMin= 9 EnMin= -80.1567940895330     IErMin= 9 ErrMin= 1.03D-07
 ErrMax= 1.03D-07  0.00D+00 EMaxC= 1.00D-01 BMatC= 1.66D-12 BMatP= 3.18D-11
 IDIUse=1 WtCom= 1.00D+00 WtEn= 0.00D+00
 Coeff-Com:  0.140D-04-0.132D-03-0.703D-03-0.818D-03 0.737D-02 0.238D-02
 Coeff-Com: -0.522D-01-0.646D-01 0.111D+01
 Coeff:      0.140D-04-0.132D-03-0.703D-03-0.818D-03 0.737D-02 0.238D-02
 Coeff:     -0.522D-01-0.646D-01 0.111D+01
 Gap=     0.102 Goal=   None    Shift=    0.000
 Gap=     0.207 Goal=   None    Shift=    0.000
 RMSDP=2.47D-08 MaxDP=4.12D-07 DE=-1.47D-11 OVMax= 5.84D-07

 Cycle  10  Pass 1  IDiag  1:
 E= -80.1567940895340     Delta-E=       -0.000000000001 Rises=F Damp=F
 DIIS: error= 2.51D-08 at cycle  10 NSaved=  10.
 NSaved=10 IEnMin=10 EnMin= -80.1567940895340     IErMin=10 ErrMin= 2.51D-08
 ErrMax= 2.51D-08  0.00D+00 EMaxC= 1.00D-01 BMatC= 1.01D-13 BMatP= 1.66D-12
 IDIUse=1 WtCom= 1.00D+00 WtEn= 0.00D+00
 Coeff-Com:  0.143D-05 0.621D-05-0.259D-04-0.148D-03-0.123D-03 0.169D-02
 Coeff-Com:  0.412D-02-0.483D-01 0.247D-01 0.102D+01
 Coeff:      0.143D-05 0.621D-05-0.259D-04-0.148D-03-0.123D-03 0.169D-02
 Coeff:      0.412D-02-0.483D-01 0.247D-01 0.102D+01
 Gap=     0.102 Goal=   None    Shift=    0.000
 Gap=     0.207 Goal=   None    Shift=    0.000
 RMSDP=6.49D-09 MaxDP=8.68D-08 DE=-9.95D-13 OVMax= 2.68D-07

 SCF Done:  E(UM062X) =  -80.1567940895     A.U. after   10 cycles
            NFock= 10  Conv=0.65D-08     -V/T= 2.0030
 <Sx>= 0.0000 <Sy>= 0.0000 <Sz>= 0.5000 <S**2>= 1.7579 S= 0.9170
 <L.S>=  0.00000000000    
 KE= 7.991787286551D+01 PE=-2.084392091256D+02 EE= 3.618534655367D+01
 Annihilation of the first spin contaminant:
 S**2 before annihilation     1.7579,   after     0.7765
 Leave Link  502 at Mon Apr 21 17:54:39 2025, MaxMem=   536870912 cpu:              42.9 elap:               5.7
 (Enter /home/szhao/Apps/g16/l701.exe)
 ... and contract with generalized density number  0.
 Compute integral first derivatives.
 Leave Link  701 at Mon Apr 21 17:54:40 2025, MaxMem=   536870912 cpu:               2.7 elap:               0.5
 (Enter /home/szhao/Apps/g16/l702.exe)
 L702 exits ... SP integral derivatives will be done elsewhere.
 Leave Link  702 at Mon Apr 21 17:54:40 2025, MaxMem=   536870912 cpu:               0.4 elap:               0.1
 (Enter /home/szhao/Apps/g16/l703.exe)
 Integral derivatives from FoFJK, PRISM(SPDF).
 Compute integral first derivatives, UseDBF=F ICtDFT=           0.
 Calling FoFJK, ICntrl=      2127 FMM=F ISym2X=0 I1Cent= 0 IOpClX= 1 NMat=1 NMatS=1 NMatT=0.
 FoFJK:  IHMeth= 1 ICntrl=    2127 DoSepK=F KAlg= 0 I1Cent=           0 FoldK=F
 IRaf=         0 NMat=       1 IRICut=       1 DoRegI=T DoRafI=F ISym2E= 0 IDoP0=0 IntGTp=1.
 FoFCou: FMM=F IPFlag=           0 FMFlag=      100000 FMFlg1=         800
         NFxFlg=           0 DoJE=F BraDBF=F KetDBF=F FulRan=T
         wScrn=  0.000000 ICntrl=      2127 IOpCl=  1 I1Cent=           0 NGrid=           0
         NMat0=    1 NMatS0=      1 NMatT0=    0 NMatD0=    1 NMtDS0=    0 NMtDT0=    0
 Symmetry not used in FoFCou.
 Leave Link  703 at Mon Apr 21 17:54:41 2025, MaxMem=   536870912 cpu:               8.7 elap:               1.1
 (Enter /home/szhao/Apps/g16/l716.exe)
 Dipole        =-2.89259615D+00-5.06922173D-05 5.28275700D-09
 -------------------------------------------------------------------
 Center     Atomic                   Forces (Hartrees/Bohr)
 Number     Number              X              Y              Z
 -------------------------------------------------------------------
      1        5          -0.000000000   -0.000000000   -0.000000000
      2        7          -0.000000000   -0.000000000   -0.000000000
      3        1          -0.000987454   -0.000000540    0.000000000
      4        1           0.000757487    0.000000348   -0.000000000
 -------------------------------------------------------------------
 Cartesian Forces:  Max     0.000987454 RMS     0.000359265
 Leave Link  716 at Mon Apr 21 17:54:41 2025, MaxMem=   536870912 cpu:               0.4 elap:               0.1
 (Enter /home/szhao/Apps/g16/l103.exe)

 GradGradGradGradGradGradGradGradGradGradGradGradGradGradGradGradGradGrad
 Berny optimization.
 Using GEDIIS/GDIIS optimizer.
 FormGI is forming the generalized inverse of G from B-inverse, IUseBI=4.
 Internal  Forces:  Max     0.000987454 RMS     0.000508077
 Search for a local minimum.
 Step number   2 out of a maximum of   22
 All quantities printed in internal units (Hartrees-Bohrs-Radians)
 RMS Force = .50808D-03 SwitMx=.10000D-02 MixMth= 2
 Mixed Optimization -- En-DIIS/RFO-DIIS
 Update second derivatives using D2CorX and points    1    2
 DE= -8.47D-04 DEPred=-8.27D-04 R= 1.02D+00
 TightC=F SS=  1.41D+00  RLast= 7.37D-02 DXNew= 5.0454D-01 2.2118D-01
 Trust test= 1.02D+00 RLast= 7.37D-02 DXMaxT set to 3.00D-01
 The second derivative matrix:
                          X1        Y1        Z1        X2        Y2
           X1           0.69425
           Y1           0.00004   0.50000
           Z1           0.00000   0.00000   0.50000
           X2          -0.14285  -0.00003  -0.00000   0.60506
           Y2           0.00000   0.00000   0.00000  -0.00000   0.50000
           Z2          -0.00000  -0.00000  -0.00000   0.00000  -0.00000
           R1          -0.19425  -0.00004  -0.00000   0.14285  -0.00000
           R2          -0.14285  -0.00003  -0.00000   0.10506  -0.00000
           A1          -0.00001  -0.00000  -0.00000   0.00001  -0.00000
           A2          -0.00000  -0.00000  -0.00000   0.00000  -0.00000
           A3          -0.00000  -0.00000  -0.00000   0.00000  -0.00000
           A4          -0.00000  -0.00000  -0.00000   0.00000  -0.00000
                          Z2        R1        R2        A1        A2
           Z2           0.50000
           R1           0.00000   0.26204
           R2           0.00000  -0.00773   0.43955
           A1           0.00000   0.00001   0.00001   0.00230
           A2           0.00000   0.00001   0.00000   0.00000   0.00783
           A3           0.00000   0.00000   0.00000   0.00000   0.00000
           A4           0.00000   0.00000   0.00000   0.00000   0.00000
                          A3        A4
           A3           0.00230
           A4           0.00000   0.00783
 ITU=  1  0
 Use linear search instead of GDIIS.
     Eigenvalues ---    0.00230   0.00707   0.00783   0.26171   0.43989
     Eigenvalues --- 1000.000001000.000001000.000001000.000001000.00000
     Eigenvalues --- 1000.000001000.00000
 RFO step:  Lambda= 0.00000000D+00 EMin= 2.30000000D-03
 Quartic linear search produced a step of  0.06240.
 Iteration  1 RMS(Cart)=  0.00132786 RMS(Int)=  0.00000002
 Iteration  2 RMS(Cart)=  0.00000004 RMS(Int)=  0.00000000
 ITry= 1 IFail=0 DXMaxC= 4.19D-03 DCOld= 1.00D+10 DXMaxT= 3.00D-01 DXLimC= 3.00D+00 Rises=F
 Variable       Old X    -DE/DX   Delta X   Delta X   Delta X     New X
                                 (Linear)    (Quad)   (Total)
    X1       -3.50116  -0.00099   0.00000   0.00000   0.00000  -3.50116
    Y1        0.00000  -0.00000   0.00000   0.00000   0.00000   0.00000
    Z1        0.00000   0.00000   0.00000   0.00000   0.00000   0.00000
    X2        3.50116   0.00076   0.00000   0.00000   0.00000   3.50116
    Y2        0.00000   0.00000   0.00000   0.00000   0.00000   0.00000
    Z2        0.00000  -0.00000   0.00000   0.00000   0.00000   0.00000
    R1        2.27434   0.00099   0.00419  -0.00000   0.00419   2.27853
    R2        1.95498   0.00076   0.00189   0.00001   0.00190   1.95688
    A1        3.14138   0.00000   0.00000   0.00002   0.00002   3.14140
    A2        3.14156  -0.00000  -0.00000  -0.00005  -0.00005   3.14151
    A3        3.14159  -0.00000   0.00000  -0.00000  -0.00000   3.14159
    A4        3.14159  -0.00000   0.00000  -0.00000   0.00000   3.14159
         Item               Value     Threshold  Converged?
 Maximum Force            0.000987     0.000450     NO 
 RMS     Force            0.000508     0.000300     NO 
 Maximum Displacement     0.004190     0.001800     NO 
 RMS     Displacement     0.001328     0.001200     NO 
 Predicted change in Energy=-2.544838D-06
 Lowest energy point so far.  Saving SCF results.
 GradGradGradGradGradGradGradGradGradGradGradGradGradGradGradGradGradGrad

 Leave Link  103 at Mon Apr 21 17:54:42 2025, MaxMem=   536870912 cpu:               0.7 elap:               0.2
 (Enter /home/szhao/Apps/g16/l202.exe)
                          Input orientation:                          
 ---------------------------------------------------------------------
 Center     Atomic      Atomic             Coordinates (Angstroms)
 Number     Number       Type             X           Y           Z
 ---------------------------------------------------------------------
      1          5           0       -1.852734    0.000000    0.000000
      2          7           0        1.852734    0.000000    0.000000
      3          1           0       -3.058482   -0.000228    0.000000
      4          1           0        2.888269    0.000087   -0.000000
 ---------------------------------------------------------------------
                    Distance matrix (angstroms):
                    1          2          3          4
     1  B    0.000000
     2  N    3.705468   0.000000
     3  H    1.205748   4.911216   0.000000
     4  H    4.741003   1.035535   5.946751   0.000000
 Symmetry turned off by external request.
 This structure is nearly, but not quite of a higher symmetry.
 Consider Symm=Loose if the higher symmetry is desired.
 Stoichiometry    BH2N(1+,2)
 Framework group  C1[X(BH2N)]
 Deg. of freedom     6
 Full point group                 C1      NOp   1
 Rotational constants (GHZ): 10183770640.7171402           4.9245683           4.9245683
 Leave Link  202 at Mon Apr 21 17:54:42 2025, MaxMem=   536870912 cpu:               0.5 elap:               0.2
 (Enter /home/szhao/Apps/g16/l301.exe)
 Standard basis: 6-311+G(d,p) (5D, 7F)
 Ernie: Thresh=  0.10000D-02 Tol=  0.10000D-05 Strict=F.
    56 basis functions,    88 primitive gaussians,    58 cartesian basis functions
     7 alpha electrons        6 beta electrons
       nuclear repulsion energy        12.1711782734 Hartrees.
 IExCor= 4336 DFT=T Ex+Corr=M062X ExCW=0 ScaHFX=  0.540000
 ScaDFX=  1.000000  1.000000  1.000000  1.000000 ScalE2=  1.000000  1.000000
 IRadAn=      7 IRanWt=     -1 IRanGd=            0 ICorTp=0 IEmpDi=  4
 NAtoms=    4 NActive=    4 NUniq=    4 SFac= 1.00D+00 NAtFMM=   60 NAOKFM=F Big=F
 Integral buffers will be    131072 words long.
 Raffenetti 2 integral format.
 Two-electron integral symmetry is turned off.
 Leave Link  301 at Mon Apr 21 17:54:42 2025, MaxMem=   536870912 cpu:               1.1 elap:               0.2
 (Enter /home/szhao/Apps/g16/l302.exe)
 NPDir=0 NMtPBC=     1 NCelOv=     1 NCel=       1 NClECP=     1 NCelD=      1
         NCelK=      1 NCelE2=     1 NClLst=     1 CellRange=     0.0.
 One-electron integrals computed using PRISM.
 NBasis=    56 RedAO= T EigKep=  8.89D-03  NBF=    56
 NBsUse=    56 1.00D-06 EigRej= -1.00D+00 NBFU=    56
 Precomputing XC quadrature grid using
 IXCGrd= 4 IRadAn=           7 IRanWt=          -1 IRanGd=           0 AccXCQ= 0.00D+00.
 Generated NRdTot=       0 NPtTot=           0 NUsed=           0 NTot=          32
 NSgBfM=    58    58    58    58    58 MxSgAt=     4 MxSgA2=     4.
 Leave Link  302 at Mon Apr 21 17:54:43 2025, MaxMem=   536870912 cpu:               2.1 elap:               0.4
 (Enter /home/szhao/Apps/g16/l303.exe)
 DipDrv:  MaxL=1.
 Leave Link  303 at Mon Apr 21 17:54:43 2025, MaxMem=   536870912 cpu:               0.6 elap:               0.2
 (Enter /home/szhao/Apps/g16/l401.exe)
 Initial guess from the checkpoint file:  "opt.chk"
 B after Tr=    -0.000164    0.000009   -0.000000
         Rot=    1.000000    0.000149    0.000000   -0.000000 Ang=   0.02 deg.
 Guess basis will be translated and rotated to current coordinates.
 JPrj=2 DoOrth=T DoCkMO=T.
 Initial guess <Sx>= 0.0000 <Sy>= 0.0000 <Sz>= 0.5000 <S**2>= 1.7579 S= 0.9170
 Leave Link  401 at Mon Apr 21 17:54:44 2025, MaxMem=   536870912 cpu:               1.4 elap:               0.2
 (Enter /home/szhao/Apps/g16/l502.exe)
 Keep R1 and R2 ints in memory in canonical form, NReq=9624198.
 FoFCou: FMM=F IPFlag=           0 FMFlag=           0 FMFlg1=           0
         NFxFlg=           0 DoJE=F BraDBF=F KetDBF=F FulRan=T
         wScrn=  0.000000 ICntrl=       600 IOpCl=  0 I1Cent=           0 NGrid=           0
         NMat0=    1 NMatS0=   1596 NMatT0=    0 NMatD0=    1 NMtDS0=    0 NMtDT0=    0
 Symmetry not used in FoFCou.
 Two-electron integral symmetry not used.
 UHF open shell SCF:
 Using DIIS extrapolation, IDIIS=  1040.
 NGot=   536870912 LenX=   534314338 LenY=   534310533
 Requested convergence on RMS density matrix=1.00D-08 within 128 cycles.
 Requested convergence on MAX density matrix=1.00D-06.
 Requested convergence on             energy=1.00D-06.
 No special actions if energy rises.

 Cycle   1  Pass 1  IDiag  1:
 E= -80.1567960127055    
 DIIS: error= 1.41D-04 at cycle   1 NSaved=   1.
 NSaved= 1 IEnMin= 1 EnMin= -80.1567960127055     IErMin= 1 ErrMin= 1.41D-04
 ErrMax= 1.41D-04  0.00D+00 EMaxC= 1.00D-01 BMatC= 3.10D-06 BMatP= 3.10D-06
 IDIUse=3 WtCom= 9.99D-01 WtEn= 1.41D-03
 Coeff-Com:  0.100D+01
 Coeff-En:   0.100D+01
 Coeff:      0.100D+01
 Gap=     0.548 Goal=   None    Shift=    0.000
 Gap=     0.638 Goal=   None    Shift=    0.000
 RMSDP=1.32D-05 MaxDP=2.53D-04              OVMax= 6.71D-04

 Cycle   2  Pass 1  IDiag  1:
 E= -80.1567968265010     Delta-E=       -0.000000813795 Rises=F Damp=F
 DIIS: error= 2.05D-05 at cycle   2 NSaved=   2.
 NSaved= 2 IEnMin= 2 EnMin= -80.1567968265010     IErMin= 2 ErrMin= 2.05D-05
 ErrMax= 2.05D-05  0.00D+00 EMaxC= 1.00D-01 BMatC= 1.14D-07 BMatP= 3.10D-06
 IDIUse=1 WtCom= 1.00D+00 WtEn= 0.00D+00
 Coeff-Com:  0.314D-01 0.969D+00
 Coeff:      0.314D-01 0.969D+00
 Gap=     0.103 Goal=   None    Shift=    0.000
 Gap=     0.207 Goal=   None    Shift=    0.000
 RMSDP=4.01D-06 MaxDP=8.46D-05 DE=-8.14D-07 OVMax= 2.39D-04

 Cycle   3  Pass 1  IDiag  1:
 E= -80.1567968585226     Delta-E=       -0.000000032022 Rises=F Damp=F
 DIIS: error= 1.11D-05 at cycle   3 NSaved=   3.
 NSaved= 3 IEnMin= 3 EnMin= -80.1567968585226     IErMin= 3 ErrMin= 1.11D-05
 ErrMax= 1.11D-05  0.00D+00 EMaxC= 1.00D-01 BMatC= 2.82D-08 BMatP= 1.14D-07
 IDIUse=1 WtCom= 1.00D+00 WtEn= 0.00D+00
 Coeff-Com: -0.154D-01 0.269D+00 0.746D+00
 Coeff:     -0.154D-01 0.269D+00 0.746D+00
 Gap=     0.103 Goal=   None    Shift=    0.000
 Gap=     0.207 Goal=   None    Shift=    0.000
 RMSDP=1.51D-06 MaxDP=4.15D-05 DE=-3.20D-08 OVMax= 6.57D-05

 Cycle   4  Pass 1  IDiag  1:
 E= -80.1567968673467     Delta-E=       -0.000000008824 Rises=F Damp=F
 DIIS: error= 4.79D-06 at cycle   4 NSaved=   4.
 NSaved= 4 IEnMin= 4 EnMin= -80.1567968673467     IErMin= 4 ErrMin= 4.79D-06
 ErrMax= 4.79D-06  0.00D+00 EMaxC= 1.00D-01 BMatC= 3.22D-09 BMatP= 2.82D-08
 IDIUse=1 WtCom= 1.00D+00 WtEn= 0.00D+00
 Coeff-Com: -0.392D-02-0.740D-01 0.959D-01 0.982D+00
 Coeff:     -0.392D-02-0.740D-01 0.959D-01 0.982D+00
 Gap=     0.103 Goal=   None    Shift=    0.000
 Gap=     0.207 Goal=   None    Shift=    0.000
 RMSDP=6.71D-07 MaxDP=1.57D-05 DE=-8.82D-09 OVMax= 3.37D-05

 Cycle   5  Pass 1  IDiag  1:
 E= -80.1567968689591     Delta-E=       -0.000000001612 Rises=F Damp=F
 DIIS: error= 2.09D-06 at cycle   5 NSaved=   5.
 NSaved= 5 IEnMin= 5 EnMin= -80.1567968689591     IErMin= 5 ErrMin= 2.09D-06
 ErrMax= 2.09D-06  0.00D+00 EMaxC= 1.00D-01 BMatC= 4.16D-10 BMatP= 3.22D-09
 IDIUse=1 WtCom= 1.00D+00 WtEn= 0.00D+00
 Coeff-Com:  0.300D-02-0.375D-01-0.121D+00-0.535D-01 0.121D+01
 Coeff:      0.300D-02-0.375D-01-0.121D+00-0.535D-01 0.121D+01
 Gap=     0.103 Goal=   None    Shift=    0.000
 Gap=     0.207 Goal=   None    Shift=    0.000
 RMSDP=3.63D-07 MaxDP=7.40D-06 DE=-1.61D-09 OVMax= 1.55D-05

 Cycle   6  Pass 1  IDiag  1:
 E= -80.1567968692612     Delta-E=       -0.000000000302 Rises=F Damp=F
 DIIS: error= 5.00D-07 at cycle   6 NSaved=   6.
 NSaved= 6 IEnMin= 6 EnMin= -80.1567968692612     IErMin= 6 ErrMin= 5.00D-07
 ErrMax= 5.00D-07  0.00D+00 EMaxC= 1.00D-01 BMatC= 3.40D-11 BMatP= 4.16D-10
 IDIUse=1 WtCom= 1.00D+00 WtEn= 0.00D+00
 Coeff-Com:  0.109D-02-0.146D-02-0.290D-01-0.826D-01 0.168D+00 0.944D+00
 Coeff:      0.109D-02-0.146D-02-0.290D-01-0.826D-01 0.168D+00 0.944D+00
 Gap=     0.103 Goal=   None    Shift=    0.000
 Gap=     0.207 Goal=   None    Shift=    0.000
 RMSDP=9.35D-08 MaxDP=4.05D-06 DE=-3.02D-10 OVMax= 4.96D-06

 Cycle   7  Pass 1  IDiag  1:
 E= -80.1567968692817     Delta-E=       -0.000000000021 Rises=F Damp=F
 DIIS: error= 2.16D-07 at cycle   7 NSaved=   7.
 NSaved= 7 IEnMin= 7 EnMin= -80.1567968692817     IErMin= 7 ErrMin= 2.16D-07
 ErrMax= 2.16D-07  0.00D+00 EMaxC= 1.00D-01 BMatC= 3.12D-12 BMatP= 3.40D-11
 IDIUse=1 WtCom= 1.00D+00 WtEn= 0.00D+00
 Coeff-Com: -0.295D-03 0.351D-02 0.144D-01 0.978D-02-0.147D+00 0.971D-02
 Coeff-Com:  0.111D+01
 Coeff:     -0.295D-03 0.351D-02 0.144D-01 0.978D-02-0.147D+00 0.971D-02
 Coeff:      0.111D+01
 Gap=     0.103 Goal=   None    Shift=    0.000
 Gap=     0.207 Goal=   None    Shift=    0.000
 RMSDP=3.09D-08 MaxDP=6.54D-07 DE=-2.05D-11 OVMax= 1.50D-06

 Cycle   8  Pass 1  IDiag  1:
 E= -80.1567968692839     Delta-E=       -0.000000000002 Rises=F Damp=F
 DIIS: error= 3.18D-08 at cycle   8 NSaved=   8.
 NSaved= 8 IEnMin= 8 EnMin= -80.1567968692839     IErMin= 8 ErrMin= 3.18D-08
 ErrMax= 3.18D-08  0.00D+00 EMaxC= 1.00D-01 BMatC= 1.55D-13 BMatP= 3.12D-12
 IDIUse=1 WtCom= 1.00D+00 WtEn= 0.00D+00
 Coeff-Com: -0.453D-04-0.368D-03 0.556D-03 0.589D-02-0.451D-03-0.527D-01
 Coeff-Com: -0.857D-01 0.113D+01
 Coeff:     -0.453D-04-0.368D-03 0.556D-03 0.589D-02-0.451D-03-0.527D-01
 Coeff:     -0.857D-01 0.113D+01
 Gap=     0.103 Goal=   None    Shift=    0.000
 Gap=     0.207 Goal=   None    Shift=    0.000
 RMSDP=1.15D-08 MaxDP=1.89D-07 DE=-2.16D-12 OVMax= 1.09D-06

 Cycle   9  Pass 1  IDiag  1:
 E= -80.1567968692842     Delta-E=       -0.000000000000 Rises=F Damp=F
 DIIS: error= 1.54D-08 at cycle   9 NSaved=   9.
 NSaved= 9 IEnMin= 9 EnMin= -80.1567968692842     IErMin= 9 ErrMin= 1.54D-08
 ErrMax= 1.54D-08  0.00D+00 EMaxC= 1.00D-01 BMatC= 2.19D-14 BMatP= 1.55D-13
 IDIUse=1 WtCom= 1.00D+00 WtEn= 0.00D+00
 Coeff-Com:  0.205D-04-0.117D-03-0.865D-03-0.143D-02 0.841D-02 0.762D-02
 Coeff-Com: -0.532D-01-0.166D+00 0.121D+01
 Coeff:      0.205D-04-0.117D-03-0.865D-03-0.143D-02 0.841D-02 0.762D-02
 Coeff:     -0.532D-01-0.166D+00 0.121D+01
 Gap=     0.103 Goal=   None    Shift=    0.000
 Gap=     0.207 Goal=   None    Shift=    0.000
 RMSDP=8.84D-09 MaxDP=1.58D-07 DE=-3.41D-13 OVMax= 9.12D-07

 SCF Done:  E(UM062X) =  -80.1567968693     A.U. after    9 cycles
            NFock=  9  Conv=0.88D-08     -V/T= 2.0030
 <Sx>= 0.0000 <Sy>= 0.0000 <Sz>= 0.5000 <S**2>= 1.7579 S= 0.9170
 <L.S>=  0.00000000000    
 KE= 7.991435917483D+01 PE=-2.084219192942D+02 EE= 3.617958497661D+01
 Annihilation of the first spin contaminant:
 S**2 before annihilation     1.7579,   after     0.7766
 Leave Link  502 at Mon Apr 21 17:54:48 2025, MaxMem=   536870912 cpu:              35.5 elap:               4.7
 (Enter /home/szhao/Apps/g16/l701.exe)
 ... and contract with generalized density number  0.
 Compute integral first derivatives.
 Leave Link  701 at Mon Apr 21 17:54:49 2025, MaxMem=   536870912 cpu:               2.5 elap:               0.4
 (Enter /home/szhao/Apps/g16/l702.exe)
 L702 exits ... SP integral derivatives will be done elsewhere.
 Leave Link  702 at Mon Apr 21 17:54:49 2025, MaxMem=   536870912 cpu:               0.5 elap:               0.1
 (Enter /home/szhao/Apps/g16/l703.exe)
 Integral derivatives from FoFJK, PRISM(SPDF).
 Compute integral first derivatives, UseDBF=F ICtDFT=           0.
 Calling FoFJK, ICntrl=      2127 FMM=F ISym2X=0 I1Cent= 0 IOpClX= 1 NMat=1 NMatS=1 NMatT=0.
 FoFJK:  IHMeth= 1 ICntrl=    2127 DoSepK=F KAlg= 0 I1Cent=           0 FoldK=F
 IRaf=         0 NMat=       1 IRICut=       1 DoRegI=T DoRafI=F ISym2E= 0 IDoP0=0 IntGTp=1.
 FoFCou: FMM=F IPFlag=           0 FMFlag=      100000 FMFlg1=         800
         NFxFlg=           0 DoJE=F BraDBF=F KetDBF=F FulRan=T
         wScrn=  0.000000 ICntrl=      2127 IOpCl=  1 I1Cent=           0 NGrid=           0
         NMat0=    1 NMatS0=      1 NMatT0=    0 NMatD0=    1 NMtDS0=    0 NMtDT0=    0
 Symmetry not used in FoFCou.
 Leave Link  703 at Mon Apr 21 17:54:50 2025, MaxMem=   536870912 cpu:               8.5 elap:               1.1
 (Enter /home/szhao/Apps/g16/l716.exe)
 Dipole        =-2.89405371D+00-1.20041733D-05 2.35643336D-08
 -------------------------------------------------------------------
 Center     Atomic                   Forces (Hartrees/Bohr)
 Number     Number              X              Y              Z
 -------------------------------------------------------------------
      1        5          -0.000000000   -0.000000000   -0.000000000
      2        7          -0.000000000   -0.000000000   -0.000000000
      3        1           0.000001135   -0.000000355    0.000000000
      4        1           0.000000103    0.000000378   -0.000000000
 -------------------------------------------------------------------
 Cartesian Forces:  Max     0.000001135 RMS     0.000000361
 Leave Link  716 at Mon Apr 21 17:54:51 2025, MaxMem=   536870912 cpu:               0.6 elap:               0.1
 (Enter /home/szhao/Apps/g16/l103.exe)

 GradGradGradGradGradGradGradGradGradGradGradGradGradGradGradGradGradGrad
 Berny optimization.
 Using GEDIIS/GDIIS optimizer.
 FormGI is forming the generalized inverse of G from B-inverse, IUseBI=4.
 Internal  Forces:  Max     0.000001135 RMS     0.000000482
 Search for a local minimum.
 Step number   3 out of a maximum of   22
 All quantities printed in internal units (Hartrees-Bohrs-Radians)
 RMS Force = .49128D-06 SwitMx=.10000D-02 MixMth= 2
 Mixed Optimization -- En-DIIS/RFO-DIIS
 Swapping is turned off.
 Update second derivatives using D2CorX and points    1    2    3
 DE= -2.78D-06 DEPred=-2.54D-06 R= 1.09D+00
 TightC=F SS=  1.41D+00  RLast= 4.60D-03 DXNew= 5.0454D-01 1.3797D-02
 Trust test= 1.09D+00 RLast= 4.60D-03 DXMaxT set to 3.00D-01
 The second derivative matrix:
                          X1        Y1        Z1        X2        Y2
           X1           0.67522
           Y1           0.00003   0.50000
           Z1           0.00000   0.00000   0.50000
           X2          -0.13424  -0.00003  -0.00000   0.60285
           Y2           0.00001   0.00000   0.00000  -0.00000   0.50000
           Z2          -0.00000  -0.00000  -0.00000   0.00000  -0.00000
           R1          -0.17546  -0.00003  -0.00000   0.13442  -0.00001
           R2          -0.13371  -0.00003  -0.00000   0.10245  -0.00000
           A1           0.00001   0.00000   0.00000  -0.00001   0.00000
           A2          -0.00008  -0.00000  -0.00000   0.00006  -0.00000
           A3          -0.00000  -0.00000  -0.00000   0.00000  -0.00000
           A4          -0.00000  -0.00000  -0.00000   0.00000  -0.00000
                          Z2        R1        R2        A1        A2
           Z2           0.50000
           R1           0.00000   0.24350
           R2           0.00000  -0.01670   0.43656
           A1          -0.00000  -0.00001  -0.00001   0.00230
           A2           0.00000   0.00008   0.00006   0.00000   0.00783
           A3           0.00000   0.00000   0.00000   0.00000   0.00000
           A4           0.00000   0.00000   0.00000  -0.00000   0.00000
                          A3        A4
           A3           0.00230
           A4           0.00000   0.00783
 ITU=  1  1  0
     Eigenvalues ---    0.00230   0.00708   0.00783   0.24206   0.43799
     Eigenvalues --- 1000.000001000.000001000.000001000.000001000.00000
     Eigenvalues --- 1000.000001000.00000
 En-DIIS/RFO-DIIS/Sim-DIIS IScMMF=       -3 using points:     3    2
 RFO step:  Lambda=-7.16158084D-12.
 NNeg= 0 NGDIIS= 2 SimSw=  2.50D-03 Rises=F DC= -2.78D-06 SmlDif=  1.00D-05
 NRisDI= 0 DoIntr=F SqrtH=F CThrHd= 10.0 CDAdj=  3.0
 RMS Error=  0.1584359873D-04 NUsed= 2 OKEnD=F EnDIS=F
 InvSVX:  RCond= 2.38D-05 Info=           0 Equed=N FErr=  8.89D-16 BErr=  4.60D-17
 DidBck=F Rises=F RFO-DIIS coefs:    0.99922    0.00078
 Iteration  1 RMS(Cart)=  0.00003166 RMS(Int)=  0.00000000
 Iteration  2 RMS(Cart)=  0.00000000 RMS(Int)=  0.00000000
 ITry= 1 IFail=0 DXMaxC= 9.94D-05 DCOld= 1.00D+10 DXMaxT= 3.00D-01 DXLimC= 3.00D+00 Rises=F
 Variable       Old X    -DE/DX   Delta X   Delta X   Delta X     New X
                                 (Linear)    (Quad)   (Total)
    X1       -3.50116   0.00000   0.00000   0.00000   0.00000  -3.50116
    Y1        0.00000   0.00000   0.00000   0.00000   0.00000   0.00000
    Z1        0.00000   0.00000   0.00000   0.00000   0.00000   0.00000
    X2        3.50116   0.00000   0.00000   0.00000   0.00000   3.50116
    Y2        0.00000   0.00000   0.00000   0.00000   0.00000   0.00000
    Z2        0.00000  -0.00000   0.00000   0.00000   0.00000   0.00000
    R1        2.27853  -0.00000  -0.00000  -0.00000  -0.00000   2.27853
    R2        1.95688   0.00000  -0.00000   0.00000   0.00000   1.95688
    A1        3.14140   0.00000  -0.00000   0.00002   0.00002   3.14142
    A2        3.14151  -0.00000   0.00000  -0.00005  -0.00005   3.14146
    A3        3.14159  -0.00000   0.00000  -0.00000  -0.00000   3.14159
    A4        3.14159  -0.00000  -0.00000  -0.00000  -0.00000   3.14159
         Item               Value     Threshold  Converged?
 Maximum Force            0.000001     0.000450     YES
 RMS     Force            0.000000     0.000300     YES
 Maximum Displacement     0.000099     0.001800     YES
 RMS     Displacement     0.000032     0.001200     YES
 Predicted change in Energy=-1.322865D-11
 Optimization completed.
    -- Stationary point found.
                           ----------------------------
                           !   Optimized Parameters   !
                           ! (Angstroms and Degrees)  !
 --------------------------                            --------------------------
 ! Name  Definition              Value          Derivative Info.                !
 --------------------------------------------------------------------------------
 ! X1    R(1,-1)                -1.8527         -DE/DX =    0.0                 !
 ! Y1    R(1,-2)                 0.0            -DE/DX =    0.0                 !
 ! Z1    R(1,-3)                 0.0            -DE/DX =    0.0                 !
 ! X2    R(2,-1)                 1.8527         -DE/DX =    0.0                 !
 ! Y2    R(2,-2)                 0.0            -DE/DX =    0.0                 !
 ! Z2    R(2,-3)                 0.0            -DE/DX =    0.0                 !
 ! R1    R(1,3)                  1.2057         -DE/DX =    0.0                 !
 ! R2    R(2,4)                  1.0355         -DE/DX =    0.0                 !
 ! A1    L(2,1,3,-3,-1)        179.9892         -DE/DX =    0.0                 !
 ! A2    L(1,2,4,-3,-1)        179.9952         -DE/DX =    0.0                 !
 ! A3    L(2,1,3,-2,-2)        180.0            -DE/DX =    0.0                 !
 ! A4    L(1,2,4,-2,-2)        180.0            -DE/DX =    0.0                 !
 --------------------------------------------------------------------------------
 Lowest energy point so far.  Saving SCF results.
 Largest change from initial coordinates is atom    3       0.017 Angstoms.
 GradGradGradGradGradGradGradGradGradGradGradGradGradGradGradGradGradGrad

 Leave Link  103 at Mon Apr 21 17:54:51 2025, MaxMem=   536870912 cpu:               0.7 elap:               0.2
 (Enter /home/szhao/Apps/g16/l202.exe)
                          Input orientation:                          
 ---------------------------------------------------------------------
 Center     Atomic      Atomic             Coordinates (Angstroms)
 Number     Number       Type             X           Y           Z
 ---------------------------------------------------------------------
      1          5           0       -1.852734    0.000000    0.000000
      2          7           0        1.852734    0.000000    0.000000
      3          1           0       -3.058482   -0.000228    0.000000
      4          1           0        2.888269    0.000087   -0.000000
 ---------------------------------------------------------------------
                    Distance matrix (angstroms):
                    1          2          3          4
     1  B    0.000000
     2  N    3.705468   0.000000
     3  H    1.205748   4.911216   0.000000
     4  H    4.741003   1.035535   5.946751   0.000000
 Symmetry turned off by external request.
 This structure is nearly, but not quite of a higher symmetry.
 Consider Symm=Loose if the higher symmetry is desired.
 Stoichiometry    BH2N(1+,2)
 Framework group  C1[X(BH2N)]
 Deg. of freedom     6
 Full point group                 C1      NOp   1
 Rotational constants (GHZ): 10183770640.7171402           4.9245683           4.9245683
 Leave Link  202 at Mon Apr 21 17:54:51 2025, MaxMem=   536870912 cpu:               0.5 elap:               0.1
 (Enter /home/szhao/Apps/g16/l601.exe)
 Copying SCF densities to generalized density rwf, IOpCl= 1 IROHF=0.

 **********************************************************************

            Population analysis using the SCF density.

 **********************************************************************

 Alpha  occ. eigenvalues --  -14.95384  -7.53762  -1.08469  -0.86197  -0.62361
 Alpha  occ. eigenvalues --   -0.54922  -0.54922
 Alpha virt. eigenvalues --   -0.44656  -0.34897  -0.34897  -0.15539  -0.11651
 Alpha virt. eigenvalues --   -0.09949  -0.09949  -0.07843  -0.03964   0.01328
 Alpha virt. eigenvalues --    0.01328   0.03345   0.07848   0.12711   0.12711
 Alpha virt. eigenvalues --    0.13850   0.16627   0.33850   0.44898   0.47625
 Alpha virt. eigenvalues --    0.47625   0.50802   0.50802   0.63491   0.65802
 Alpha virt. eigenvalues --    0.65802   0.76344   0.93931   1.16582   1.16582
 Alpha virt. eigenvalues --    1.35014   1.35014   1.49637   1.49637   1.51866
 Alpha virt. eigenvalues --    1.79785   1.81447   1.81447   2.20678   2.20918
 Alpha virt. eigenvalues --    2.20918   2.38447   2.44007   2.81659   3.65695
 Alpha virt. eigenvalues --    3.65695   4.22963  13.80404  35.28483
  Beta  occ. eigenvalues --  -14.92908  -7.54998  -0.95630  -0.89820  -0.68253
  Beta  occ. eigenvalues --   -0.56706
  Beta virt. eigenvalues --   -0.35983  -0.35983  -0.19688  -0.19688  -0.14619
  Beta virt. eigenvalues --   -0.10651  -0.09721  -0.09721  -0.07080  -0.02839
  Beta virt. eigenvalues --    0.03327   0.03327   0.06322   0.08272   0.16179
  Beta virt. eigenvalues --    0.17724   0.17724   0.24921   0.33392   0.46393
  Beta virt. eigenvalues --    0.50361   0.50361   0.52706   0.52706   0.67612
  Beta virt. eigenvalues --    0.70085   0.70085   0.81214   0.97464   1.23120
  Beta virt. eigenvalues --    1.23120   1.36682   1.36682   1.50290   1.50290
  Beta virt. eigenvalues --    1.59437   1.84001   1.93269   1.93269   2.12385
  Beta virt. eigenvalues --    2.27094   2.27094   2.32160   2.43450   2.93619
  Beta virt. eigenvalues --    3.75671   3.75671   4.30503  13.80192  35.28948
          Condensed to atoms (all electrons):
               1          2          3          4
     1  B    3.900816   0.002499   0.341637   0.000181
     2  N    0.002499   6.976525   0.000626   0.265047
     3  H    0.341637   0.000626   0.434181  -0.000002
     4  H    0.000181   0.265047  -0.000002   0.468503
          Atomic-Atomic Spin Densities.
               1          2          3          4
     1  B   -0.861953   0.017528   0.001148  -0.000311
     2  N    0.017528   2.036303  -0.000221   0.000623
     3  H    0.001148  -0.000221  -0.144072  -0.000005
     4  H   -0.000311   0.000623  -0.000005  -0.067804
 Mulliken charges and spin densities:
               1          2
     1  B    0.754868  -0.843587
     2  N   -0.244697   2.054233
     3  H    0.223557  -0.143150
     4  H    0.266271  -0.067497
 Sum of Mulliken charges =   1.00000   1.00000
 Mulliken charges and spin densities with hydrogens summed into heavy atoms:
               1          2
     1  B    0.978425  -0.986737
     2  N    0.021575   1.986737
 Electronic spatial extent (au):  <R**2>=            212.0181
 Charge=              1.0000 electrons
 Dipole moment (field-independent basis, Debye):
    X=             -7.3560    Y=             -0.0000    Z=              0.0000  Tot=              7.3560
 Quadrupole moment (field-independent basis, Debye-Ang):
   XX=             18.2377   YY=            -10.2793   ZZ=            -10.2793
   XY=              0.0007   XZ=             -0.0000   YZ=             -0.0000
 Traceless Quadrupole moment (field-independent basis, Debye-Ang):
   XX=             19.0113   YY=             -9.5057   ZZ=             -9.5057
   XY=              0.0007   XZ=             -0.0000   YZ=             -0.0000
 Octapole moment (field-independent basis, Debye-Ang**2):
  XXX=            -25.1664  YYY=              0.0003  ZZZ=             -0.0000  XYY=             -4.0437
  XXY=             -0.0001  XXZ=              0.0000  XZZ=             -4.0437  YZZ=              0.0001
  YYZ=             -0.0000  XYZ=              0.0000
 Hexadecapole moment (field-independent basis, Debye-Ang**3):
 XXXX=            -63.3477 YYYY=             -9.8538 ZZZZ=             -9.8538 XXXY=              0.0059
 XXXZ=             -0.0000 YYYX=             -0.0019 YYYZ=              0.0000 ZZZX=              0.0000
 ZZZY=              0.0000 XXYY=            -44.5183 XXZZ=            -44.5183 YYZZ=             -3.2846
 XXYZ=             -0.0000 YYXZ=              0.0000 ZZXY=             -0.0006
 N-N= 1.217117827343D+01 E-N=-2.084219192989D+02  KE= 7.991435917483D+01
                          Isotropic Fermi Contact Couplings
        Atom                 a.u.       MegaHertz       Gauss      10(-4) cm-1
     1  B(11)             -0.74528   -1069.00584    -381.44787    -356.58197
     2  N(14)              0.26262      84.85288      30.27762      28.30387
     3  H(1)              -0.07547    -337.36414    -120.37991    -112.53256
     4  H(1)              -0.03213    -143.59587     -51.23858     -47.89843
 --------------------------------------------------------
       Center         ----  Spin Dipole Couplings  ----
                      3XX-RR        3YY-RR        3ZZ-RR
 --------------------------------------------------------
     1   Atom       -0.454359      0.227179      0.227179
     2   Atom       -2.265617      1.132808      1.132808
     3   Atom       -0.047808      0.023904      0.023904
     4   Atom        0.244717     -0.122359     -0.122359
 --------------------------------------------------------
                        XY            XZ            YZ
 --------------------------------------------------------
     1   Atom       -0.000137      0.000000      0.000000
     2   Atom       -0.000231      0.000000      0.000000
     3   Atom       -0.000015      0.000000      0.000000
     4   Atom        0.000030     -0.000000     -0.000000
 --------------------------------------------------------


 ---------------------------------------------------------------------------------
              Anisotropic Spin Dipole Couplings in Principal Axis System
 ---------------------------------------------------------------------------------

       Atom             a.u.   MegaHertz   Gauss  10(-4) cm-1        Axes

              Baa    -0.4544   -77.793   -27.758   -25.949  1.0000  0.0002 -0.0000
     1 B(11)  Bbb     0.2272    38.896    13.879    12.974  0.0000  0.0003  1.0000
              Bcc     0.2272    38.896    13.879    12.974 -0.0002  1.0000 -0.0003
 
              Baa    -2.2656   -87.380   -31.179   -29.147  1.0000  0.0001 -0.0000
     2 N(14)  Bbb     1.1328    43.690    15.590    14.573 -0.0001  1.0000 -0.0001
              Bcc     1.1328    43.690    15.590    14.573 -0.0000  0.0001  1.0000
 
              Baa    -0.0478   -25.508    -9.102    -8.508  1.0000  0.0002 -0.0000
     3 H(1)   Bbb     0.0239    12.754     4.551     4.254 -0.0000  0.0005  1.0000
              Bcc     0.0239    12.754     4.551     4.254 -0.0002  1.0000 -0.0005
 
              Baa    -0.1224   -65.285   -23.295   -21.777 -0.0001  1.0000 -0.0001
     4 H(1)   Bbb    -0.1224   -65.285   -23.295   -21.777 -0.0000  0.0001  1.0000
              Bcc     0.2447   130.569    46.590    43.553  1.0000  0.0001 -0.0000
 

 ---------------------------------------------------------------------------------

 No NMR shielding tensors so no spin-rotation constants.
 Leave Link  601 at Mon Apr 21 17:54:52 2025, MaxMem=   536870912 cpu:               2.3 elap:               0.4
 (Enter /home/szhao/Apps/g16/l9999.exe)
 1\1\GINC-NODE03\FOpt\UM062X\6-311+G(d,p)\B1H2N1(1+,2)\SZHAO\21-Apr-202
 5\0\\#p opt UM062X/6-311+G** nosymm int=superfine\\Title Card Required
 \\1,2\B,-1.85273421,0.,0.\N,1.85273421,0.,0.\H,-3.0584822262,-0.000227
 6327,0.000000085\H,2.8882687641,0.0000865236,-0.0000000024\\Version=ES
 64L-G16RevA.03\HF=-80.1567969\S2=1.757948\S2-1=0.\S2A=0.776633\RMSD=8.
 844e-09\RMSF=3.614e-07\Dipole=-3.371244,0.000007,0.\Quadrupole=14.1344
 676,-7.0672338,-7.0672338,0.000548,-0.0000001,0.\PG=C01 [X(B1H2N1)]\\@


 IF IT'S NOT TRUE, IT'S WELL INVENTED -- DANTE
 Job cpu time:       0 days  0 hours  3 minutes 28.3 seconds.
 Elapsed time:       0 days  0 hours  0 minutes 29.6 seconds.
 File lengths (MBytes):  RWF=     17 Int=      0 D2E=      0 Chk=      2 Scr=      2
 Normal termination of Gaussian 16 at Mon Apr 21 17:54:52 2025.
